Membrane in water
40347
    1TMC1    C1    1   4.024   0.005  11.345  0.6387 -0.0042 -0.4518
    1TMC1    C2    2   4.065   0.033  11.222 -0.5891  0.5397  0.0996
    1TMC1    C3    3   4.120   0.158  11.192 -0.5208 -0.3083 -0.1993
    1TMC1    C4    4   4.029   0.101  11.443  0.1213 -0.3429 -0.1670
    1TMC1    C5    5   4.096   0.215  11.424  0.3634  0.2009 -0.3960
    1TMC1    C6    6   4.140   0.258  11.293 -0.2399 -0.3345  0.0176
    1TMC1     C    7   3.967   4.610  11.377  0.0373 -0.1456  0.4104
    1TMC1     O    8   3.879   4.617  11.465 -0.6947  0.3480 -0.7343
    1TMC1     H    9   4.051   4.702  11.139  1.3181 -0.0823  0.2701
    1TMC1    H1   10   3.995   0.075  11.543 -1.3193  2.4567  0.0696
    1TMC1    H2   11   4.211   0.336  11.271 -0.4158 -0.3961 -0.7481
    1TMC1    C7   12   4.059   0.316  11.522 -0.2419 -0.4038  0.3100
    1TMC1    C8   13   4.217   0.156  11.091  0.2874 -0.0715  0.7682
    1TMC1    O1   14   3.944   0.329  11.566  0.2244  0.1836 -0.2127
    1TMC1    O2   15   4.337   0.175  11.111 -0.3971  0.6930 -0.8960
    1TMC1    O3   16   4.150   0.415  11.504 -0.4835  0.3326 -0.2860
    1TMC1    H3   17   4.241   0.385  11.480 -0.5358 -0.8714  0.9985
    1TMC1    O5   18   4.154   0.147  10.971 -0.0139 -0.1177  0.1920
    1TMC1    H5   19   4.056   0.153  10.979  0.1086  0.2145  1.3155
    2MPD2     C   20   3.909   4.109  11.321  0.0280 -0.2880 -0.1824
    2MPD2    C1   21   3.843   4.197  11.398 -0.3868  0.0393 -0.7432
    2MPD2    C2   22   3.881   4.331  11.397  0.2513 -0.4975  0.4674
    2MPD2    C3   23   3.979   4.371  11.314  0.5790 -0.2543 -0.1433
    2MPD2    C4   24   4.039   4.281  11.233  0.0635 -0.9473  0.1517
    2MPD2    C5   25   4.009   4.150  11.240  0.0065 -0.6155 -0.3459
    2MPD2     H   26   3.834   4.402  11.464  0.0573 -0.9940  0.8576
    2MPD2    H1   27   4.111   4.311  11.157 -0.5057 -1.5823 -0.6407
    2MPD2    H2   28   3.887   4.003  11.331 -0.2248 -0.2731 -0.5722
    2MPD2    H3   29   4.067   4.083  11.178  0.2518 -1.6323  0.9782
    2MPD2     N   30   4.028   4.502  11.309 -0.8632 -0.6520  0.2084
    2MPD2    H5   31   4.110   4.522  11.253 -1.6245 -1.8276 -1.3480
    2MPD2    N1   32   3.738   4.160  11.483  0.3473  0.2451 -0.4871
    2MPD2    H7   33   3.688   4.229  11.538  3.1487  2.5269 -0.7660
    3TMC1    C1   34   2.597   1.611  10.925  0.3217  1.0000  1.1270
    3TMC1    C2   35   2.627   1.639  10.789 -0.1213  0.0557  0.7850
    3TMC1    C3   36   2.657   1.767  10.757  0.4337  0.1175 -0.1321
    3TMC1    C4   37   2.599   1.714  11.022 -0.0557  0.2922 -0.2863
    3TMC1    C5   38   2.633   1.836  10.982 -0.3055  0.1232 -0.6085
    3TMC1    C6   39   2.667   1.864  10.853  0.1402  1.3211 -0.5707
    3TMC1     C   40   2.559   1.468  10.951  0.7394 -0.2851 -0.0773
    3TMC1     O   41   2.558   1.383  10.865 -0.9799 -0.3295 -0.1347
    3TMC1     H   42   2.628   1.562  10.713  0.0696  1.8087 -1.0014
    3TMC1    H1   43   2.578   1.700  11.127  1.4057 -0.6153 -0.1262
    3TMC1    H2   44   2.699   1.960  10.813  0.4067  0.5218 -2.2414
    3TMC1    C7   45   2.611   1.940  11.084  0.2254  0.6086 -0.0227
    3TMC1    C8   46   2.734   1.786  10.634 -0.6123 -0.0428  0.0740
    3TMC1    O1   47   2.514   1.940  11.159 -0.2426 -0.1611  0.5454
    3TMC1    O2   48   2.703   1.865  10.549 -0.4246 -0.1874  0.2581
    3TMC1    O3   49   2.704   2.042  11.061  0.0841  0.1149  0.3526
    3TMC1    H3   50   2.777   2.012  11.003  0.4112  0.2161  0.7059
    3TMC1    O5   51   2.812   1.678  10.625 -0.5084  0.0149  0.2153
    3TMC1    H5   52   2.820   1.624  10.706  0.7454 -0.9567 -0.5604
    4MPD2     C   53   2.488   1.128  11.334 -0.3210 -0.3241 -0.3188
    4MPD2    C1   54   2.421   1.244  11.365 -0.2607 -0.1658 -0.3271
    4MPD2    C2   55   2.417   1.350  11.273 -0.2846  0.0661 -0.6047
    4MPD2    C3   56   2.496   1.344  11.160  0.6464 -0.0946 -0.0053
    4MPD2    C4   57   2.571   1.228  11.141 -0.2089 -1.0400  0.5171
    4MPD2    C5   58   2.570   1.127  11.226  0.7110 -0.2468 -0.1624
    4MPD2     H   59   2.366   1.444  11.291 -0.8201 -0.4578  0.5904
    4MPD2    H1   60   2.645   1.223  11.061  0.7079 -0.6552  1.3407
    4MPD2    H2   61   2.501   1.052  11.410  1.8394  2.1207  1.7707
    4MPD2    H3   62   2.649   1.053  11.218  0.2874 -0.7450  0.2809
    4MPD2     N   63   2.518   1.456  11.082  0.4772  0.7949  0.6755
    4MPD2    H5   64   2.483   1.540  11.126 -0.6328  0.5600  0.2332
    4MPD2    N1   65   2.359   1.260  11.495  0.3648 -0.3371 -0.0676
    4MPD2    H7   66   2.311   1.347  11.513 -0.2349 -0.7076  0.1346
    5TCq1    O1   67   3.317   2.247  12.025  0.5376 -0.6278  0.3754
    5TCq1    C1   68   3.258   2.255  12.147  0.5209 -0.1232 -0.0581
    5TCq1    O2   69   3.311   2.284  12.253 -0.2875 -0.1551 -0.1932
    5TCq1    C2   70   3.128   2.185  12.143 -0.5525 -0.5394 -0.5709
    5TCq1    C3   71   3.024   2.230  12.219  0.0863 -0.8017 -0.1681
    5TCq1    C4   72   2.900   2.190  12.183 -0.3750 -0.5754  0.1326
    5TCq1    C5   73   2.879   2.104  12.079  0.1857  0.2099 -0.3723
    5TCq1    C6   74   2.982   2.058  12.011  0.3353  0.4385  0.4264
    5TCq1    C7   75   3.113   2.089  12.042  0.6444  0.0188  0.0841
    5TCq1    C8   76   2.965   1.984  11.881  0.7297 -0.3807 -0.1007
    5TCq1    O4   77   3.062   1.916  11.851  0.7649  0.3818 -0.2326
    5TCq1    C9   78   2.788   2.255  12.241  0.1067 -0.3098  0.1689
    5TCq1    O5   79   2.674   2.222  12.198 -0.3892 -0.8985 -0.3280
    5TCq1    O6   80   2.814   2.343  12.328 -0.2761 -0.3772  0.0184
    5TCq1    H1   81   3.254   2.244  11.950  0.1158 -2.9680  0.8302
    5TCq1    H2   82   3.039   2.308  12.293 -0.9328  0.6922 -1.5371
    5TCq1    H3   83   2.778   2.072  12.058 -0.2388  0.1776  1.6924
    5TCq1    H4   84   3.203   2.047  12.000 -0.3925  0.5312 -2.6503
    6MPD2     C   85   2.695   2.027  11.628  0.0079 -0.3693  0.4149
    6MPD2    C1   86   2.821   1.991  11.679 -0.3600 -0.0472  0.0371
    6MPD2    C2   87   2.908   1.911  11.601 -0.4433 -0.1523 -0.1994
    6MPD2    C3   88   2.866   1.864  11.478 -0.5492  0.1215  0.2193
    6MPD2    C4   89   2.748   1.907  11.426 -0.2828 -0.0252  0.3557
    6MPD2    C5   90   2.670   1.990  11.495  0.3873  0.7595  0.0595
    6MPD2     H   91   3.010   1.889  11.627 -0.2599 -0.0093 -0.7832
    6MPD2    H1   92   2.712   1.885  11.326  3.4708 -3.0055 -0.3233
    6MPD2    H2   93   2.630   2.099  11.676 -0.1318 -0.6810  0.6912
    6MPD2    H3   94   2.573   2.027  11.465 -0.3600 -0.5265  0.8699
    6MPD2     N   95   2.943   1.774  11.400 -0.1435 -0.1302  0.3545
    6MPD2    H5   96   3.042   1.771  11.421 -0.8449 -1.4575  3.4760
    6MPD2    N1   97   2.851   2.026  11.814 -0.5040  0.0168  0.2033
    6MPD2    H7   98   2.793   2.091  11.866  0.6789  1.7079 -0.6197
    7TCq1    O1   99   0.900   2.112  12.663  0.2508  0.8284 -0.4744
    7TCq1    C1  100   0.851   2.011  12.740  1.0377 -0.0284  0.0195
    7TCq1    O2  101   0.870   2.006  12.863  0.3576  0.0525  0.1970
    7TCq1    C2  102   0.801   1.892  12.664 -0.7219 -0.1745  0.1729
    7TCq1    C3  103   0.733   1.913  12.544 -0.2697 -0.0480  0.3173
    7TCq1    C4  104   0.656   1.809  12.500  0.1406  0.0751 -0.5106
    7TCq1    C5  105   0.649   1.696  12.571 -0.1311  0.0630 -0.1210
    7TCq1    C6  106   0.717   1.680  12.685 -0.0056  0.0744  1.0092
    7TCq1    C7  107   0.787   1.780  12.746  0.5633 -0.2694  0.4045
    7TCq1    C8  108   0.675   1.572  12.773 -0.3882  0.4468 -0.0302
    7TCq1    O4  109   0.653   1.462  12.724 -0.3423 -0.2893 -0.4308
    7TCq1    C9  110   0.571   1.832  12.383  0.0039  0.0659 -0.2149
    7TCq1    O5  111   0.538   1.951  12.368  0.3461 -1.2195 -0.4847
    7TCq1    O6  112   0.510   1.738  12.329  0.6724 -0.4386  0.3383
    7TCq1    H1  113   0.900   2.088  12.568  0.3334 -2.1566  0.2757
    7TCq1    H2  114   0.745   2.000  12.481 -2.0941  0.6817  0.9713
    7TCq1    H3  115   0.597   1.615  12.520 -1.8242  0.5819  0.7711
    7TCq1    H4  116   0.850   1.768  12.833 -2.6501 -4.5625  2.1324
    8MPD2     C  117   0.576   1.428  13.261  0.0545  0.0351  0.9189
    8MPD2    C1  118   0.606   1.351  13.149 -0.1185  0.4974 -0.0674
    8MPD2    C2  119   0.618   1.411  13.024  0.9007 -0.3529  0.3540
    8MPD2    C3  120   0.611   1.550  13.018  0.1558 -1.1959 -0.0777
    8MPD2    C4  121   0.586   1.617  13.133  0.2737 -0.3965 -0.3720
    8MPD2    C5  122   0.559   1.564  13.254 -0.0698  0.0466 -0.2735
    8MPD2     H  123   0.656   1.360  12.937 -3.0384 -0.2282 -1.4407
    8MPD2    H1  124   0.555   1.720  13.119  1.2118  0.0423  0.8200
    8MPD2    H2  125   0.560   1.385  13.359 -2.7494  1.8442  1.2700
    8MPD2    H3  126   0.544   1.617  13.347 -1.2129 -0.2860 -0.2701
    8MPD2     N  127   0.637   1.624  12.894 -0.5502 -0.0642  0.4010
    8MPD2    H5  128   0.646   1.725  12.902 -0.2074  0.0571 -1.6124
    8MPD2    N1  129   0.632   1.212  13.174 -0.4011 -0.2010  0.3196
    8MPD2    H7  130   0.613   1.181  13.269 -0.2628  2.3800  1.1972
    9TMC1    C1  131   3.410   0.147  11.039 -0.4576 -0.4818  0.0078
    9TMC1    C2  132   3.391   0.026  11.104 -0.4732  1.6071 -1.3038
    9TMC1    C3  133   3.434   4.652  11.037 -0.6521  0.6405 -0.3992
    9TMC1    C4  134   3.488   0.157  10.929  0.0005  0.2022  0.8316
    9TMC1    C5  135   3.497   0.046  10.854 -0.0105  0.4090 -0.0737
    9TMC1    C6  136   3.480   4.660  10.908  0.3090  0.0817 -0.6232
    9TMC1     C  137   3.363   0.272  11.093 -0.2232 -0.1044  1.0718
    9TMC1     O  138   3.382   0.374  11.024  0.1892  0.4918  0.3369
    9TMC1     H  139   3.338   0.011  11.197  3.2443 -0.5471  0.4752
    9TMC1    H1  140   3.519   0.248  10.880 -0.5312  0.0792  0.2618
    9TMC1    H2  141   3.496   4.568  10.852 -0.1778 -0.6114  0.3838
    9TMC1    C7  142   3.583   0.043  10.742  0.1051 -0.2731  0.2117
    9TMC1    C8  143   3.359   4.533  11.052  0.2434 -0.5792 -0.1807
    9TMC1    O1  144   3.641   4.676  10.707  0.8753 -0.6025 -0.4779
    9TMC1    O2  145   3.252   4.535  11.109 -0.0044  0.0358 -0.7229
    9TMC1    O3  146   3.523   0.114  10.645  0.0947 -0.0950 -0.0471
    9TMC1    H3  147   3.485   0.198  10.679  1.5869  0.2762  0.7155
    9TMC1    O5  148   3.454   4.439  11.051 -0.1739 -0.0197  0.1047
    9TMC1    H5  149   3.547   4.469  11.042 -0.2497 -0.4419 -1.9909
   10MPD2     C  150   3.298   0.504  11.271  0.1249 -0.2130  0.0889
   10MPD2    C1  151   3.280   0.367  11.309 -0.3679  0.7200 -0.5236
   10MPD2    C2  152   3.240   0.333  11.433 -0.1752 -0.1057  0.3456
   10MPD2    C3  153   3.231   0.434  11.536  0.0423  0.9547 -0.0089
   10MPD2    C4  154   3.243   0.565  11.494  0.4417 -0.1223 -0.3169
   10MPD2    C5  155   3.268   0.601  11.364  0.4300  0.1579 -0.5909
   10MPD2     H  156   3.223   0.229  11.458  1.3170 -0.0851  1.4571
   10MPD2    H1  157   3.221   0.642  11.567  0.5921  0.0178 -0.4204
   10MPD2    H2  158   3.313   0.543  11.171  0.8631  0.2035  0.3619
   10MPD2    H3  159   3.290   0.706  11.352 -2.1875  0.7863  0.2066
   10MPD2     N  160   3.222   0.399  11.674  0.2823  0.1461 -0.0517
   10MPD2    H5  161   3.223   0.473  11.744  0.7846 -1.1891  1.3386
   10MPD2    N1  162   3.299   0.262  11.217 -0.8694 -0.1931 -0.0165
   10MPD2    H7  163   3.288   0.169  11.256 -2.2866  0.2999  0.7566
   11TCq1    O1  164   3.079   0.546  14.255 -0.1087  0.0422 -0.0259
   11TCq1    C1  165   3.088   0.564  14.121 -0.0858 -0.1759 -0.6383
   11TCq1    O2  166   2.989   0.561  14.045 -0.5469 -0.1574 -0.4970
   11TCq1    C2  167   3.223   0.520  14.080  0.3002  0.6345 -0.2774
   11TCq1    C3  168   3.341   0.535  14.154  0.8294  0.0555  0.3786
   11TCq1    C4  169   3.428   0.438  14.152 -0.1680 -0.3432 -0.6156
   11TCq1    C5  170   3.425   0.334  14.057  0.1864  0.3588  0.1479
   11TCq1    C6  171   3.324   0.335  13.963  0.0850  0.1388  0.0371
   11TCq1    C7  172   3.218   0.417  13.984 -0.4201  0.5057  0.4230
   11TCq1    C8  173   3.299   0.237  13.859  0.2965  0.1355 -0.0106
   11TCq1    O4  174   3.211   0.268  13.778  0.0824 -0.0779 -0.5194
   11TCq1    C9  175   3.529   0.439  14.254  0.5635 -0.1467  0.9272
   11TCq1    O5  176   3.537   0.541  14.327 -0.9368  0.2902  0.6078
   11TCq1    O6  177   3.588   0.332  14.288  0.1053 -0.0514 -0.4641
   11TCq1    H1  178   3.161   0.536  14.309 -0.6710 -0.6335  0.6917
   11TCq1    H2  179   3.357   0.616  14.225 -1.6788  1.8473 -1.1208
   11TCq1    H3  180   3.500   0.256  14.061 -0.3500 -0.2371 -1.3381
   11TCq1    H4  181   3.129   0.401  13.924  0.2260  2.2057 -0.9549
   12MPD2     C  182   3.370   0.079  13.622  0.4160  0.7337  0.7836
   12MPD2    C1  183   3.403   0.036  13.746 -0.2824 -0.0064 -0.1675
   12MPD2    C2  184   3.458   4.650  13.773 -0.2321 -0.2542 -0.0996
   12MPD2    C3  185   3.508   4.573  13.670  0.4315  0.4388 -0.4041
   12MPD2    C4  186   3.466   4.614  13.539 -0.2453  0.2007 -0.6276
   12MPD2    C5  187   3.395   4.730  13.524  0.0726  0.8433 -0.5956
   12MPD2     H  188   3.481   4.623  13.876  1.6572 -2.0386 -0.9940
   12MPD2    H1  189   3.492   4.563  13.447 -0.4802 -1.9705  0.5177
   12MPD2    H2  190   3.332   0.178  13.598  0.8095  0.9599  1.0935
   12MPD2    H3  191   3.389   0.048  13.431 -2.7037  0.9621 -0.3443
   12MPD2     N  192   3.601   4.470  13.680 -0.4921 -0.3141  0.0251
   12MPD2    H5  193   3.640   4.422  13.600 -2.2631 -0.4673 -0.7523
   12MPD2    N1  194   3.380   0.118  13.858  0.0575 -0.4748  0.4234
   12MPD2    H7  195   3.452   0.099  13.927 -0.4064 -0.2110  0.9763
   13TCq1    O1  196   3.701   0.489  11.464 -0.5290 -0.2592 -0.0179
   13TCq1    C1  197   3.742   0.463  11.338 -0.1772  0.1490  0.7139
   13TCq1    O2  198   3.761   0.550  11.257  0.5534 -0.4730  0.6941
   13TCq1    C2  199   3.733   0.323  11.297  0.0726 -0.2935  0.6528
   13TCq1    C3  200   3.781   0.284  11.177 -0.0288 -0.4214 -0.2407
   13TCq1    C4  201   3.763   0.147  11.151 -0.3104 -0.0949  0.3148
   13TCq1    C5  202   3.701   0.063  11.236 -0.1600  0.4203  0.6767
   13TCq1    C6  203   3.671   0.108  11.365 -0.3267  0.0193 -0.1302
   13TCq1    C7  204   3.679   0.239  11.389  0.0556 -0.7044 -0.0024
   13TCq1    C8  205   3.574   0.031  11.444  0.7428 -0.0453 -0.4578
   13TCq1    O4  206   3.524   0.083  11.545 -0.2158  0.1869 -0.0011
   13TCq1    C9  207   3.826   0.090  11.036 -0.4247 -0.1973 -0.6266
   13TCq1    O5  208   3.814   4.703  11.024  0.0138  0.4078  0.2767
   13TCq1    O6  209   3.900   0.166  10.968 -0.4774 -0.1172 -0.4737
   13TCq1    H1  210   3.709   0.414  11.526 -0.9451  0.8323  1.3513
   13TCq1    H2  211   3.827   0.352  11.106 -1.0894 -1.9974 -2.4482
   13TCq1    H3  212   3.697   4.694  11.212  0.8820  1.1485 -2.7122
   13TCq1    H4  213   3.640   0.266  11.486 -0.8395  0.7585 -0.7563
   14MPD2     C  214   3.449   4.424  11.394  0.0030 -0.0280  0.6075
   14MPD2    C1  215   3.448   4.559  11.431  0.6553 -0.7396 -0.3966
   14MPD2    C2  216   3.335   4.610  11.491 -0.2342 -0.3818  0.2177
   14MPD2    C3  217   3.222   4.535  11.520 -0.7157 -0.7091  0.4290
   14MPD2    C4  218   3.219   4.404  11.478  0.1324 -0.5049 -0.3773
   14MPD2    C5  219   3.334   4.349  11.413  0.4846 -0.3463 -0.3535
   14MPD2     H  220   3.336   4.707  11.540  0.4929 -0.2518 -0.0561
   14MPD2    H1  221   3.135   4.338  11.494 -1.7367  2.0193  0.2212
   14MPD2    H2  222   3.531   4.366  11.354  1.1383  1.4847  0.7622
   14MPD2    H3  223   3.326   4.248  11.375  0.1292  0.3110 -2.0597
   14MPD2     N  224   3.125   4.599  11.593 -0.0100 -0.3997 -0.1620
   14MPD2    H5  225   3.138   4.699  11.604 -1.9060 -0.0987 -0.8068
   14MPD2    N1  226   3.560   4.637  11.405 -0.2452  0.3960  0.1334
   14MPD2    H7  227   3.630   4.594  11.346 -0.6998 -0.2520  0.0633
   15TCq1    O1  228   0.283   3.942   1.091 -0.0087  0.3144 -0.4952
   15TCq1    C1  229   0.235   3.957   1.220 -0.1917 -0.7874 -0.1345
   15TCq1    O2  230   0.137   4.018   1.247 -0.0288  0.2385 -0.1486
   15TCq1    C2  231   0.284   3.846   1.310 -0.5369 -0.4884  0.1763
   15TCq1    C3  232   0.299   3.881   1.444 -0.6519  0.0972 -0.2995
   15TCq1    C4  233   0.332   3.785   1.528 -0.1270  0.4193  0.6661
   15TCq1    C5  234   0.353   3.653   1.485 -0.2642 -0.0354 -0.2472
   15TCq1    C6  235   0.341   3.623   1.354  0.6469 -0.1025  0.6445
   15TCq1    C7  236   0.303   3.721   1.264 -0.0828 -0.1791  0.5834
   15TCq1    C8  237   0.363   3.488   1.310 -0.3746  1.0311 -0.0333
   15TCq1    O4  238   0.431   3.412   1.382  0.0484  0.1888 -0.1097
   15TCq1    C9  239   0.328   3.817   1.665  0.1578 -0.7034 -0.3130
   15TCq1    O5  240   0.329   3.723   1.748 -0.0595 -0.1512 -0.1218
   15TCq1    O6  241   0.299   3.935   1.688  0.3277  0.1171  0.2495
   15TCq1    H1  242   0.371   3.899   1.087 -0.6216 -0.9624 -0.1337
   15TCq1    H2  243   0.256   3.973   1.482  0.7267  0.4908  0.2998
   15TCq1    H3  244   0.378   3.568   1.547 -0.1036 -1.3436 -2.0964
   15TCq1    H4  245   0.287   3.698   1.159 -0.9544  0.1265  0.6528
   16MPD2     C  246   0.246   3.323   0.998 -0.3969  0.6022  0.5233
   16MPD2    C1  247   0.330   3.343   1.107 -0.0159  0.2415  0.6982
   16MPD2    C2  248   0.421   3.246   1.141 -0.6114  1.0191 -0.2466
   16MPD2    C3  249   0.431   3.126   1.077  0.2068 -0.4772 -0.0274
   16MPD2    C4  250   0.341   3.103   0.971  0.0537 -0.4352 -0.1246
   16MPD2    C5  251   0.253   3.199   0.927 -0.5345  0.1390 -0.2308
   16MPD2     H  252   0.499   3.266   1.214 -0.9205  2.2712 -0.2571
   16MPD2    H1  253   0.339   3.004   0.929 -1.0145 -1.1850  1.6778
   16MPD2    H2  254   0.181   3.401   0.961 -2.2125 -1.6373 -0.9660
   16MPD2    H3  255   0.185   3.169   0.848 -0.1865 -0.8799 -0.1443
   16MPD2     N  256   0.537   3.044   1.117  0.0830 -0.4651 -0.0116
   16MPD2    H5  257   0.601   3.086   1.184 -0.1819 -0.0118 -0.0455
   16MPD2    N1  258   0.307   3.458   1.187  0.1153 -0.3512 -0.4379
   16MPD2    H7  259   0.232   3.516   1.150 -0.0447 -0.4033 -0.2013
   17TMC1    C1  260   2.829   4.147  11.735 -0.1762 -0.2967 -0.2257
   17TMC1    C2  261   2.822   4.144  11.871 -0.0194  0.3246 -0.2183
   17TMC1    C3  262   2.735   4.226  11.935 -0.1926  0.5466 -0.0123
   17TMC1    C4  263   2.745   4.225  11.663  0.7986 -0.6293  0.2459
   17TMC1    C5  264   2.652   4.306  11.732 -1.0221 -0.6761  0.1656
   17TMC1    C6  265   2.641   4.301  11.868  0.0684 -0.1817 -0.2465
   17TMC1     C  266   2.949   4.089  11.681  0.1625 -0.3762  0.1934
   17TMC1     O  267   3.040   4.052  11.754 -0.6994 -0.5955 -0.4136
   17TMC1     H  268   2.903   4.097  11.924  1.0166  2.7540  0.3703
   17TMC1    H1  269   2.756   4.234  11.556 -1.6928 -0.1594  0.0258
   17TMC1    H2  270   2.583   4.369  11.930  0.3390  0.1724 -0.3856
   17TMC1    C7  271   2.546   4.379  11.672 -0.1396  0.5419 -0.4866
   17TMC1    C8  272   2.724   4.200  12.075  0.3789  0.4091  0.6634
   17TMC1    O1  273   2.474   4.457  11.731  0.2837 -0.0802  0.5955
   17TMC1    O2  274   2.739   4.089  12.122 -0.1566  0.1999  0.2209
   17TMC1    O3  275   2.496   4.311  11.563  0.7037  0.0053 -0.2403
   17TMC1    H3  276   2.549   4.234  11.532  2.3808  1.8084 -1.7892
   17TMC1    O5  277   2.668   4.299  12.145 -0.4265  0.7092 -0.4815
   17TMC1    H5  278   2.683   4.384  12.100  3.2114  1.0189  1.3473
   18MPD2     C  279   3.134   3.922  11.523 -0.1626 -0.0239 -0.0180
   18MPD2    C1  280   3.064   4.027  11.469 -0.1947  0.1930  0.2848
   18MPD2    C2  281   3.079   4.072  11.333 -0.1003  0.3067  0.5052
   18MPD2    C3  282   3.176   4.018  11.253  0.2334 -0.5549  0.1415
   18MPD2    C4  283   3.250   3.913  11.306  0.4173 -0.2017 -0.1235
   18MPD2    C5  284   3.231   3.870  11.434  0.4192 -1.1015 -0.2846
   18MPD2     H  285   3.007   4.144  11.295  0.8822  0.8844 -0.2320
   18MPD2    H1  286   3.318   3.856  11.243 -0.4192  0.8272 -1.9486
   18MPD2    H2  287   3.130   3.884  11.625 -0.6569  1.8655  0.6787
   18MPD2    H3  288   3.291   3.788  11.472  0.8895 -0.6437 -0.0342
   18MPD2     N  289   3.200   4.058  11.116  0.0335  0.1669  0.1654
   18MPD2    H5  290   3.273   4.002  11.073  0.6796  1.3753 -0.3362
   18MPD2    N1  291   2.953   4.080  11.543 -0.0880 -0.2180  0.3517
   18MPD2    H7  292   2.884   4.134  11.491 -0.5292 -0.7576  0.3866
   19TMC2    C1  293   0.527   0.336  14.245  0.3235  0.1185  0.1317
   19TMC2    C2  294   0.514   0.470  14.220  0.5614  0.2642  0.4567
   19TMC2    C3  295   0.400   0.532  14.243  0.2367  0.4269  0.3435
   19TMC2    C4  296   0.432   0.264  14.314  0.6570  0.3850 -0.2017
   19TMC2    C5  297   0.325   0.341  14.351  0.6023 -0.4671 -0.1445
   19TMC2    C6  298   0.298   0.470  14.308 -0.3970 -0.4448  0.2080
   19TMC2     C  299   0.660   0.282  14.229  0.1697 -0.8298 -0.3560
   19TMC2     O  300   0.732   0.353  14.158  0.1681  0.0655  0.3899
   19TMC2     H  301   0.583   0.529  14.161  1.2238 -0.5429  0.4246
   19TMC2    H1  302   0.435   0.157  14.330  1.7721  0.1719 -1.9011
   19TMC2    H2  303   0.214   0.527  14.347  1.3250  0.7633  2.1650
   19TMC2    C7  304   0.206   0.261  14.395  0.0403  0.1682  0.1954
   19TMC2    C8  305   0.391   0.668  14.189 -0.2988  0.3736 -0.3080
   19TMC2    O1  306   0.234   0.162  14.463 -0.2469  0.1685  0.1378
   19TMC2    O2  307   0.483   0.751  14.176  0.0978  0.3936 -0.3839
   19TMC2    O5  308   0.266   0.680  14.140  0.0132  0.1051 -0.5436
   19TMC2    H5  309   0.212   0.598  14.146  2.0221 -1.4553 -3.3586
   20MPD2     C  310   0.898   0.105  14.171  0.1442  0.2368 -0.4106
   20MPD2    C1  311   0.782   0.056  14.233 -0.5194 -1.0588  0.0987
   20MPD2    C2  312   0.772   4.658  14.259  0.2643  0.4363 -0.6063
   20MPD2    C3  313   0.867   4.564  14.214  0.8427  0.5289  0.7419
   20MPD2    C4  314   0.982   4.612  14.156 -0.2698  0.5642  0.4469
   20MPD2    C5  315   0.996   0.013  14.135 -0.0380 -0.4859  0.7217
   20MPD2     H  316   0.680   4.622  14.304  0.7479 -2.6870 -2.1160
   20MPD2    H1  317   1.057   4.538  14.128 -0.6596  0.9052 -1.5187
   20MPD2    H2  318   0.910   0.210  14.150  1.4596  0.4743  1.5276
   20MPD2    H3  319   1.081   0.048  14.078 -2.5187  2.3289 -1.2655
   20MPD2     N  320   0.860   4.430  14.239 -0.1827 -0.5219 -0.0710
   20MPD2    H5  321   0.939   4.377  14.205 -0.3370 -0.4899 -0.4769
   20MPD2    N1  322   0.679   0.147  14.273 -0.1907 -0.5127  0.5174
   20MPD2    H7  323   0.601   0.108  14.324 -1.1303  0.0147 -0.5102
   21TMC2    C1  324   2.356   0.065  13.878  0.0895  0.5710 -0.6442
   21TMC2    C2  325   2.436   4.711  13.827  0.6430 -0.0780 -0.5474
   21TMC2    C3  326   2.438   4.583  13.871  0.2458  0.1960 -0.1777
   21TMC2    C4  327   2.262   0.019  13.968  0.0628  0.0089 -0.1936
   21TMC2    C5  328   2.266   4.628  14.014 -0.1547  0.6631  1.0337
   21TMC2    C6  329   2.366   4.547  13.975 -0.5296 -0.2039  0.0875
   21TMC2     C  330   2.448   0.164  13.936  0.1969 -0.4868 -0.8316
   21TMC2     O  331   2.566   0.156  13.902  0.4134 -0.6318 -0.5993
   21TMC2     H  332   2.517   0.002  13.760  0.7908  0.5066 -0.1196
   21TMC2    H1  333   2.196   0.095  14.008  0.2717  0.5546 -0.8736
   21TMC2    H2  334   2.375   4.449  14.022 -0.5320  0.5002  1.5803
   21TMC2    C7  335   2.225   4.620  14.149  1.0371  0.3341 -0.0317
   21TMC2    C8  336   2.549   4.500  13.824  0.1647  0.3995 -0.6828
   21TMC2    O1  337   2.308   4.571  14.224  0.2382 -0.4794  0.5600
   21TMC2    O2  338   2.577   4.501  13.704  0.1196 -0.0956 -0.0534
   21TMC2    O5  339   2.622   4.460  13.930  0.0744 -0.1422  0.6019
   21TMC2    H5  340   2.610   4.506  14.015 -0.6944  0.2340  0.2916
   22MPD2     C  341   2.560   0.425  14.355  0.2313  0.6262 -0.2784
   22MPD2    C1  342   2.640   0.332  14.286 -0.1168  0.7013  0.1238
   22MPD2    C2  343   2.581   0.258  14.184  0.0692 -0.6641 -0.0016
   22MPD2    C3  344   2.446   0.285  14.151 -0.3573 -0.6497  0.0973
   22MPD2    C4  345   2.374   0.372  14.228 -0.4493  0.3401 -0.1181
   22MPD2    C5  346   2.431   0.448  14.320 -0.3146 -0.0697  0.0431
   22MPD2     H  347   2.638   0.178  14.137 -1.4536  0.0442 -3.0376
   22MPD2    H1  348   2.267   0.383  14.215 -0.7864 -0.6382  1.7516
   22MPD2    H2  349   2.602   0.478  14.440  1.4093  0.4115 -0.7249
   22MPD2    H3  350   2.372   0.512  14.384  2.4828  1.6184  0.9522
   22MPD2     N  351   2.387   0.228  14.042 -0.7158  0.3594  0.5223
   22MPD2    H5  352   2.285   0.231  14.040 -0.7460 -0.7974  0.2579
   22MPD2    N1  353   2.768   0.296  14.329 -0.1085 -0.6129  0.0400
   22MPD2    H7  354   2.805   0.219  14.274  2.5088  0.0750  0.8465
   23TMC2    C1  355   3.583   1.261  14.753 -0.3462  0.2673 -0.2427
   23TMC2    C2  356   3.557   1.393  14.735  0.7354 -0.0701 -0.6286
   23TMC2    C3  357   3.427   1.422  14.701  0.3908  0.1237  0.4316
   23TMC2    C4  358   3.499   1.157  14.738 -1.3581  0.1048  0.0286
   23TMC2    C5  359   3.371   1.191  14.701  0.0227  0.2252  0.1384
   23TMC2    C6  360   3.336   1.321  14.690  0.2095  0.0478 -0.5253
   23TMC2     C  361   3.711   1.228  14.810  0.2754  1.4067  0.7091
   23TMC2     O  362   3.730   1.126  14.872 -0.3564  0.4208  0.4544
   23TMC2     H  363   3.627   1.474  14.755  0.0541  0.3186  0.1582
   23TMC2    H1  364   3.536   1.056  14.752 -0.9640 -0.2853 -3.9949
   23TMC2    H2  365   3.236   1.359  14.668  0.6510  1.3994 -0.1546
   23TMC2    C7  366   3.274   1.083  14.685 -0.4989 -0.3520 -0.5246
   23TMC2    C8  367   3.381   1.555  14.723  0.2811  0.1546 -0.9900
   23TMC2    O1  368   3.314   0.974  14.724 -0.0955  0.0034 -0.6175
   23TMC2    O2  369   3.261   1.570  14.721 -0.4854  0.0811  0.3738
   23TMC2    O5  370   3.452   1.606  14.824 -0.5257 -0.2677 -0.1646
   23TMC2    H5  371   3.525   1.546  14.851 -1.4256 -0.7713  1.1796
   24MPD2     C  372   4.199   1.343  14.915  0.3457 -0.1887  1.0534
   24MPD2    C1  373   4.124   1.236  14.951 -0.3802 -0.5835 -0.1227
   24MPD2    C2  374   3.995   1.224  14.904  0.3914  0.1592 -0.3589
   24MPD2    C3  375   3.939   1.322  14.819 -0.2901  0.0876 -0.1721
   24MPD2    C4  376   4.015   1.429  14.785  0.0025  0.1446 -0.0735
   24MPD2    C5  377   4.150   1.433  14.823  0.0251 -0.8370 -0.0186
   24MPD2     H  378   3.935   1.143  14.946 -0.7151  0.2612 -1.7372
   24MPD2    H1  379   3.969   1.513  14.734 -0.3029  1.4426  2.3256
   24MPD2    H2  380   4.297   1.365  14.957  0.9255  0.3716 -0.5923
   24MPD2    H3  381   4.207   1.523  14.802  0.3146 -0.6843  1.4123
   24MPD2     N  382   3.806   1.322  14.771  1.6027 -0.6412  0.0337
   24MPD2    H5  383   3.778   1.398  14.710 -1.2895 -0.6691  1.3508
   24MPD2    N1  384   4.163   1.133  15.045  0.2609 -0.3574  0.1493
   24MPD2    H7  385   4.095   1.058  15.061  0.0261 -0.4962 -1.4313
   25TMC2    C1  386   2.656   3.774  11.763  0.3075 -0.1743  0.0954
   25TMC2    C2  387   2.544   3.855  11.768  0.2609  0.0998 -0.3223
   25TMC2    C3  388   2.485   3.865  11.888 -0.6502 -0.3388  1.0451
   25TMC2    C4  389   2.715   3.720  11.876  0.3996  1.0604 -0.7104
   25TMC2    C5  390   2.646   3.734  11.993 -0.5947  0.3805  0.1977
   25TMC2    C6  391   2.530   3.802  12.000 -0.0261  0.3310 -0.6048
   25TMC2     C  392   2.720   3.759  11.633  1.0545  0.0680 -0.2852
   25TMC2     O  393   2.725   3.849  11.551  0.5503  0.1876  0.0834
   25TMC2     H  394   2.493   3.891  11.679 -1.1539 -1.9161 -0.3116
   25TMC2    H1  395   2.799   3.652  11.873  0.5538  1.2669 -1.1067
   25TMC2    H2  396   2.470   3.809  12.090  0.8578 -1.6827  0.1371
   25TMC2    C7  397   2.703   3.694  12.119 -0.2073 -0.4298  0.0999
   25TMC2    C8  398   2.375   3.956  11.888  0.4197 -0.0441 -0.7829
   25TMC2    O1  399   2.614   3.678  12.203 -0.1015  0.6024  0.6254
   25TMC2    O2  400   2.339   4.006  11.784  0.4416 -0.1277 -0.0950
   25TMC2    O5  401   2.395   4.020  12.008 -0.0620 -0.4219  0.0191
   25TMC2    H5  402   2.431   3.962  12.078  2.0655 -1.8547 -2.2963
   26MPD2     C  403   2.709   3.459  11.211 -0.5195  0.1693  0.5176
   26MPD2    C1  404   2.661   3.390  11.316  0.3343 -0.1037  0.2942
   26MPD2    C2  405   2.680   3.445  11.445  0.2127 -0.0434 -0.6108
   26MPD2    C3  406   2.727   3.571  11.465 -0.0144 -0.3707  0.1238
   26MPD2    C4  407   2.754   3.643  11.358  0.0004  0.5209  0.1136
   26MPD2    C5  408   2.759   3.587  11.228  0.1971 -0.8850  0.3662
   26MPD2     H  409   2.668   3.389  11.537 -1.1717  1.3592  0.0620
   26MPD2    H1  410   2.776   3.749  11.346  0.6886  0.0827 -2.3655
   26MPD2    H2  411   2.711   3.413  11.113 -1.0377 -1.0456  1.0757
   26MPD2    H3  412   2.790   3.639  11.139  0.2415 -2.0136 -0.2776
   26MPD2     N  413   2.733   3.624  11.599  0.5937  0.0001  0.2448
   26MPD2    H5  414   2.717   3.561  11.677  0.3790 -1.4406 -0.9817
   26MPD2    N1  415   2.597   3.263  11.291  0.5233 -0.4942  0.5306
   26MPD2    H7  416   2.586   3.245  11.191  2.2002  3.6661 -0.4202
   27TMC2    C1  417   2.013   0.882  12.744 -0.4443 -0.1221  0.0093
   27TMC2    C2  418   2.092   0.981  12.799  0.1828  1.1929  0.4543
   27TMC2    C3  419   2.062   1.034  12.921 -0.7142 -0.2298  0.2083
   27TMC2    C4  420   1.907   0.833  12.808 -0.5479  0.5265  0.1147
   27TMC2    C5  421   1.873   0.878  12.928  0.4931  0.4564  0.0363
   27TMC2    C6  422   1.945   0.981  12.975 -0.5527  0.3777 -1.2250
   27TMC2     C  423   2.011   0.884  12.600 -0.2723  1.1199  0.3942
   27TMC2     O  424   2.110   0.869  12.531 -0.0911  0.3949 -0.4417
   27TMC2     H  425   2.171   1.031  12.744  0.6989  0.0770  0.1759
   27TMC2    H1  426   1.869   0.737  12.774  2.0720  0.0750 -1.5614
   27TMC2    H2  427   1.911   1.031  13.065 -1.9405 -0.3273 -1.3613
   27TMC2    C7  428   1.730   0.878  12.943 -0.0072  0.1582 -0.5085
   27TMC2    C8  429   2.067   1.176  12.934  0.3355  0.5049  0.4593
   27TMC2    O1  430   1.672   0.864  12.836  0.7657 -0.0433  0.5960
   27TMC2    O2  431   1.964   1.242  12.948 -0.1029  0.4431 -0.0167
   27TMC2    O5  432   2.196   1.217  12.950 -0.1925  0.2752  0.3944
   27TMC2    H5  433   2.250   1.136  12.935  0.5588  0.4924  1.8088
   28MPD2     C  434   1.704   0.896  12.202  0.0893 -0.2258 -0.3211
   28MPD2    C1  435   1.628   0.919  12.317 -0.6191 -0.1160 -0.3774
   28MPD2    C2  436   1.692   0.905  12.440 -0.5852 -0.0459 -0.3315
   28MPD2    C3  437   1.826   0.872  12.440 -0.7274  0.3324  0.2112
   28MPD2    C4  438   1.906   0.865  12.326 -0.1576 -0.1398  0.3276
   28MPD2    C5  439   1.839   0.875  12.208 -0.2004 -0.1229 -0.4793
   28MPD2     H  440   1.640   0.917  12.534  1.6561  0.8675  0.7596
   28MPD2    H1  441   2.013   0.846  12.334 -0.4797 -1.7685  0.6839
   28MPD2    H2  442   1.678   0.895  12.097 -1.2333  1.2513 -0.0097
   28MPD2    H3  443   1.885   0.862  12.111  1.2132 -0.5882  0.2645
   28MPD2     N  444   1.879   0.879  12.570 -0.2523  0.1430  0.2013
   28MPD2    H5  445   1.811   0.883  12.645 -0.3094  1.4739  0.0823
   28MPD2    N1  446   1.492   0.960  12.301  0.4197  0.2437  0.3628
   28MPD2    H7  447   1.447   0.966  12.210  2.2474 -1.6026 -0.6590
   29TMC2    C1  448   1.223   3.379  14.226 -0.4054 -0.1307  0.1549
   29TMC2    C2  449   1.150   3.495  14.211  0.4175 -0.3390  0.1138
   29TMC2    C3  450   1.205   3.611  14.250  0.2646 -0.8940 -0.2023
   29TMC2    C4  451   1.359   3.384  14.247  0.4741  0.6703 -0.3569
   29TMC2    C5  452   1.404   3.499  14.298 -0.4361  0.0323  0.1690
   29TMC2    C6  453   1.330   3.610  14.303 -0.9188  0.0818  0.5321
   29TMC2     C  454   1.163   3.268  14.163  0.1265 -0.0453  0.2126
   29TMC2     O  455   1.051   3.283  14.118  0.3311 -0.6173  0.4102
   29TMC2     H  456   1.045   3.496  14.184  0.2177  2.0963  0.9874
   29TMC2    H1  457   1.430   3.302  14.245  0.1082  0.3284  0.6817
   29TMC2    H2  458   1.369   3.708  14.328  0.5701 -0.4451  0.2965
   29TMC2    C7  459   1.547   3.510  14.310 -0.2884  0.0090  0.3674
   29TMC2    C8  460   1.115   3.710  14.273 -0.3551 -0.3639 -0.4263
   29TMC2    O1  461   1.615   3.412  14.276  0.2092  0.3331 -0.4776
   29TMC2    O2  462   1.044   3.766  14.192  0.1621 -0.0468 -0.1972
   29TMC2    O5  463   1.101   3.718  14.400 -0.0182 -0.3966  0.1372
   29TMC2    H5  464   1.161   3.672  14.462  1.6492  1.4519 -0.1211
   30MPD2     C  465   1.084   2.784  14.077  0.1485  0.1958 -0.1127
   30MPD2    C1  466   1.198   2.796  14.147 -0.4117  0.0042  0.1400
   30MPD2    C2  467   1.237   2.920  14.201 -0.3334  0.3225  0.6339
   30MPD2    C3  468   1.183   3.030  14.148  0.5488  0.4233  0.2436
   30MPD2    C4  469   1.079   3.014  14.060  0.2383 -0.0315 -0.2843
   30MPD2    C5  470   1.025   2.892  14.030  0.9274  0.3482  0.5139
   30MPD2     H  471   1.323   2.916  14.267 -0.7711  2.9519  1.3614
   30MPD2    H1  472   1.024   3.093  14.011 -0.5307 -1.7258 -2.1976
   30MPD2    H2  473   1.034   2.694  14.043  0.8451 -0.1829 -0.1378
   30MPD2    H3  474   0.945   2.883  13.957  1.1087  0.3256  0.3173
   30MPD2     N  475   1.235   3.152  14.183  0.1991 -0.5911 -1.0436
   30MPD2    H5  476   1.318   3.144  14.240  1.2918  2.3063 -2.2073
   30MPD2    N1  477   1.265   2.678  14.190  0.3249  0.0713 -0.1320
   30MPD2    H7  478   1.326   2.684  14.270  0.8993 -1.3089 -0.4646
   31TMC2    C1  479   3.997   1.562  15.143 -0.1970 -0.3077  0.3019
   31TMC2    C2  480   3.873   1.531  15.106  0.0487 -1.0854 -0.8129
   31TMC2    C3  481   3.812   1.419  15.155 -0.6941 -0.9454 -0.2858
   31TMC2    C4  482   4.073   1.482  15.224 -0.4603  0.2544 -0.0130
   31TMC2    C5  483   4.002   1.371  15.266  0.6888  0.5974  0.7438
   31TMC2    C6  484   3.880   1.327  15.225 -0.0556  0.6951 -0.8919
   31TMC2     C  485   4.050   1.678  15.074  0.4572 -0.1189 -0.1855
   31TMC2     O  486   3.968   1.757  15.022 -0.2061 -0.2086 -0.2437
   31TMC2     H  487   3.817   1.592  15.035 -1.5773 -1.0561  0.4814
   31TMC2    H1  488   4.170   1.512  15.260 -0.6022  0.8022 -0.0871
   31TMC2    H2  489   3.825   1.238  15.253  0.4971  1.1609  1.6728
   31TMC2    C7  490   4.067   1.293  15.366 -0.5404 -0.2917 -0.0050
   31TMC2    C8  491   3.671   1.399  15.114 -0.1923  0.1282 -0.3088
   31TMC2    O1  492   4.093   1.174  15.345  0.2697  0.1381 -0.3376
   31TMC2    O2  493   3.616   1.466  15.027 -0.6588  0.6504 -0.0228
   31TMC2    O5  494   3.611   1.372  15.228  0.3526  0.0750  0.2021
   31TMC2    H5  495   3.666   1.352  15.307  1.4632 -1.0998 -0.8930
   32MPD2     C  496   4.427   1.978  14.900 -0.1877 -0.0300 -0.0179
   32MPD2    C1  497   4.291   1.996  14.911  0.3446 -0.5409 -0.3470
   32MPD2    C2  498   4.214   1.904  14.982  0.4627 -0.3046 -0.2491
   32MPD2    C3  499   4.265   1.781  15.012 -0.5008 -0.1765 -0.5853
   32MPD2    C4  500   4.404   1.760  15.007  0.4958 -0.1701  0.2076
   32MPD2    C5  501   4.481   1.866  14.958  0.4749  1.1734 -0.4538
   32MPD2     H  502   4.107   1.917  14.990  0.1129 -1.9664 -2.0969
   32MPD2    H1  503   4.447   1.666  15.040 -0.3371 -0.8273 -0.5929
   32MPD2    H2  504   4.498   2.043  14.850  1.9969 -2.3136  0.0995
   32MPD2    H3  505   4.587   1.846  14.946 -0.1187 -0.4871 -2.9078
   32MPD2     N  506   4.183   1.679  15.060 -0.0783  0.1305  0.0786
   32MPD2    H5  507   4.237   1.598  15.091 -2.0438 -1.6508 -1.1845
   32MPD2    N1  508   4.242   2.125  14.865 -0.0888 -0.1747  0.1968
   32MPD2    H7  509   4.301   2.177  14.801  1.2494 -0.7986  0.9283
   33TMC2    C1  510   3.186   0.365  10.393  0.7898  0.0444 -0.0465
   33TMC2    C2  511   3.090   0.464  10.397 -0.2273  0.4193  1.0571
   33TMC2    C3  512   3.141   0.588  10.355  0.2555 -0.1689 -0.2804
   33TMC2    C4  513   3.316   0.381  10.350 -0.4441  0.4831 -0.4545
   33TMC2    C5  514   3.360   0.510  10.326 -0.3588  0.1367  0.2540
   33TMC2    C6  515   3.271   0.618  10.324 -0.1470 -0.0563  0.6829
   33TMC2     C  516   3.156   0.237  10.455  0.1310  0.4792  0.5567
   33TMC2     O  517   3.241   0.149  10.436  0.0214  0.0072  0.1066
   33TMC2     H  518   2.987   0.434  10.384  0.3446 -0.7660 -0.7432
   33TMC2    H1  519   3.386   0.298  10.353 -0.0451  0.7819 -1.6004
   33TMC2    H2  520   3.292   0.717  10.286 -0.4035  0.1063  0.9586
   33TMC2    C7  521   3.486   0.539  10.263  0.2710 -0.1453  0.5260
   33TMC2    C8  522   3.061   0.703  10.377  0.0132  0.5448 -0.0276
   33TMC2    O1  523   3.497   0.655  10.222 -0.4212  0.7560  0.0985
   33TMC2    O2  524   3.104   0.813  10.355  0.0579  0.5373  0.3018
   33TMC2    O5  525   2.973   0.678  10.480 -0.4765 -0.4899  0.6316
   33TMC2    H5  526   2.959   0.586  10.510  1.4193 -0.9011  0.2764
   34MPD2     C  527   2.882   4.637  10.734 -0.5538  0.1539  0.7406
   34MPD2    C1  528   3.011   4.639  10.684  0.9276 -0.0905 -0.7149
   34MPD2    C2  529   3.071   0.010  10.627 -0.0210 -0.1397  0.0613
   34MPD2    C3  530   2.984   0.115  10.590  0.4447 -0.9597  0.2361
   34MPD2    C4  531   2.857   0.110  10.636  0.0092  0.1549 -0.4194
   34MPD2    C5  532   2.807   0.004  10.707  0.2997  0.5255  0.4552
   34MPD2     H  533   3.174   0.001  10.593  0.0433  2.1606 -0.3608
   34MPD2    H1  534   2.787   0.184  10.600  1.0193 -0.0081 -2.6648
   34MPD2    H2  535   2.851   4.552  10.792  1.6140 -0.0328  1.6400
   34MPD2    H3  536   2.703   4.734  10.738  0.7169 -1.1372  1.4604
   34MPD2     N  537   3.031   0.227  10.517 -0.1002  0.9716 -0.5148
   34MPD2    H5  538   2.976   0.313  10.508 -3.2377 -1.0715 -0.9647
   34MPD2    N1  539   3.084   4.518  10.719  0.6600 -0.0705 -0.7113
   34MPD2    H7  540   3.026   4.437  10.738  0.4721  0.5017  1.1677
   35TMC2    C1  541   4.158   1.015  11.393  0.3725 -0.1338 -0.2337
   35TMC2    C2  542   4.023   1.024  11.407 -1.1962  0.0789  0.1831
   35TMC2    C3  543   3.946   0.909  11.379 -0.7859  0.1166  0.2455
   35TMC2    C4  544   4.212   0.902  11.347  0.5408  0.2603 -0.0770
   35TMC2    C5  545   4.132   0.792  11.306 -0.1209  0.5008  0.1440
   35TMC2    C6  546   3.995   0.793  11.335 -0.0537 -0.0676  0.5580
   35TMC2     C  547   4.236   1.102  11.486  0.4039 -0.3570  0.0497
   35TMC2     O  548   4.185   1.207  11.521  0.6669  0.9275  0.0359
   35TMC2     H  549   3.968   1.105  11.452 -2.1946 -0.5536  0.1145
   35TMC2    H1  550   4.320   0.899  11.337  0.6015  0.5756  0.4763
   35TMC2    H2  551   3.940   0.708  11.297 -0.7907  1.0102 -0.8222
   35TMC2    C7  552   4.190   0.670  11.260  0.3154  1.1820 -0.2827
   35TMC2    C8  553   3.823   0.909  11.452  0.3417  0.3477 -0.3881
   35TMC2    O1  554   4.140   0.561  11.277 -0.0542 -0.4394  0.4498
   35TMC2    O2  555   3.737   0.995  11.434  0.6064  0.5386  0.3579
   35TMC2    O5  556   3.786   0.782  11.488 -0.5094 -0.4105 -0.2682
   35TMC2    H5  557   3.870   0.735  11.505  0.0172  0.6315  0.0165
   36MPD2     C  558   4.713   1.236  11.674  0.2841  0.0752 -0.3711
   36MPD2    C1  559   4.692   1.096  11.676 -0.1800 -0.1700 -0.1315
   36MPD2    C2  560   4.573   1.046  11.621 -0.6677 -0.6306  0.3785
   36MPD2    C3  561   4.473   1.122  11.566 -0.4774 -0.7471  0.1490
   36MPD2    C4  562   4.494   1.254  11.563  0.4929 -0.6540 -0.1767
   36MPD2    C5  563   4.603   1.308  11.628  0.3395  0.5174 -0.8805
   36MPD2     H  564   4.571   0.939  11.606 -0.1177 -0.5861 -0.0137
   36MPD2    H1  565   4.429   1.323  11.509  1.1459  0.6762  0.7191
   36MPD2    H2  566   0.063   1.288  11.710  0.7059 -0.4289 -0.6808
   36MPD2    H3  567   4.616   1.415  11.620  1.6359  0.5351  1.2055
   36MPD2     N  568   4.360   1.056  11.510 -0.3492 -0.2780 -0.1285
   36MPD2    H5  569   4.384   0.961  11.483  0.3646 -0.0775 -0.2067
   36MPD2    N1  570   0.063   1.013  11.719  0.6204  0.1218 -0.3452
   36MPD2    H7  571   0.143   1.062  11.755  0.5005 -0.0332  0.1290
   37TMC2    C1  572   2.371   1.659  11.719 -0.1816 -0.6475 -0.1977
   37TMC2    C2  573   2.317   1.697  11.596 -0.3444 -0.1465  0.0472
   37TMC2    C3  574   2.402   1.683  11.488  0.1386 -0.2416 -0.1712
   37TMC2    C4  575   2.485   1.600  11.732  0.2609  0.0190 -0.3178
   37TMC2    C5  576   2.566   1.583  11.617 -0.1252  0.0383 -0.2360
   37TMC2    C6  577   2.528   1.626  11.496  0.6303  0.3821  0.1370
   37TMC2     C  578   2.266   1.665  11.826 -0.9796  0.1310  0.3311
   37TMC2     O  579   2.159   1.729  11.816  0.0418  0.4114 -0.1493
   37TMC2     H  580   2.215   1.729  11.576 -0.1763  1.8353  2.4811
   37TMC2    H1  581   2.528   1.555  11.820  1.0169 -0.3901 -0.8994
   37TMC2    H2  582   2.587   1.632  11.405 -1.4292  1.0232 -1.1544
   37TMC2    C7  583   2.704   1.539  11.638  0.0279  0.2056 -0.6243
   37TMC2    C8  584   2.349   1.710  11.357 -0.2083 -0.0472  0.2311
   37TMC2    O1  585   2.741   1.535  11.754 -0.0046 -0.5634  0.0164
   37TMC2    O2  586   2.399   1.657  11.256  0.0088  0.2527 -0.1935
   37TMC2    O5  587   2.299   1.834  11.364  0.3425  0.0081  0.2682
   37TMC2    H5  588   2.279   1.858  11.457  0.9571  2.5360 -0.2787
   38MPD2     C  589   2.150   1.528  12.312  0.6258  0.0670 -0.1572
   38MPD2    C1  590   2.271   1.472  12.284 -0.4928 -0.3431  0.2075
   38MPD2    C2  591   2.318   1.498  12.158  0.0310  0.0921  0.1617
   38MPD2    C3  592   2.246   1.572  12.062  0.8155  0.4620 -0.3677
   38MPD2    C4  593   2.126   1.622  12.097 -0.0112  0.5406  0.2699
   38MPD2    C5  594   2.077   1.599  12.219  0.3709 -0.0604  1.0903
   38MPD2     H  595   2.414   1.457  12.130 -0.9057 -3.2686  1.9588
   38MPD2    H1  596   2.064   1.678  12.028 -0.1219  0.8795  0.6486
   38MPD2    H2  597   2.110   1.521  12.413  0.2109 -0.8319 -0.3927
   38MPD2    H3  598   1.981   1.642  12.244 -0.0495  0.6554 -1.8015
   38MPD2     N  599   2.307   1.591  11.936  0.0084 -0.3461  0.1376
   38MPD2    H5  600   2.399   1.550  11.929 -0.6106 -2.0817  1.9232
   38MPD2    N1  601   2.345   1.394  12.366  0.6335 -0.4409 -0.0960
   38MPD2    H7  602   2.424   1.346  12.324  1.0919  0.4378 -0.2441
   39TMC2    C1  603   1.354   2.752   1.490 -1.0608  0.1060 -0.1077
   39TMC2    C2  604   1.481   2.725   1.449 -0.2796 -0.1842 -0.3117
   39TMC2    C3  605   1.585   2.802   1.499  0.7556  0.8295 -0.3451
   39TMC2    C4  606   1.321   2.853   1.573 -0.0116 -0.3907 -0.4177
   39TMC2    C5  607   1.423   2.926   1.624 -0.0168  0.9894  0.3176
   39TMC2    C6  608   1.552   2.902   1.591  0.0281 -0.8102 -1.4607
   39TMC2     C  609   1.241   2.669   1.438  0.3017 -0.2224  0.3254
   39TMC2     O  610   1.129   2.710   1.427  0.0918 -0.0052 -0.1511
   39TMC2     H  611   1.503   2.646   1.378  2.2579 -1.2809  1.7097
   39TMC2    H1  612   1.221   2.893   1.582  0.3795  0.3356  0.6365
   39TMC2    H2  613   1.633   2.962   1.631  0.2778 -1.6311 -0.7567
   39TMC2    C7  614   1.393   3.045   1.691  0.4801  0.8997  0.1253
   39TMC2    C8  615   1.716   2.775   1.441  0.0174  0.5501  0.4439
   39TMC2    O1  616   1.278   3.042   1.732  0.0498  0.2071 -0.6167
   39TMC2    O2  617   1.732   2.742   1.327 -0.2796  0.0263 -0.3556
   39TMC2    O5  618   1.803   2.833   1.519 -0.4330 -0.9211 -0.1752
   39TMC2    H5  619   1.786   2.816   1.614 -0.6366 -0.2323 -0.0877
   40MPD2     C  620   1.254   2.304   1.403 -0.0450 -0.0131 -0.2337
   40MPD2    C1  621   1.211   2.432   1.371  0.0272 -0.8136 -0.2877
   40MPD2    C2  622   1.080   2.441   1.321  0.0401  0.1646 -0.4238
   40MPD2    C3  623   1.005   2.331   1.282  0.6785  0.0212  0.2750
   40MPD2    C4  624   1.060   2.202   1.288  0.6437 -0.2451  0.3297
   40MPD2    C5  625   1.185   2.191   1.348  0.5498  0.3206 -0.3667
   40MPD2     H  626   1.045   2.543   1.306 -0.7689 -0.2705 -1.4556
   40MPD2    H1  627   1.013   2.117   1.242 -1.0120  2.5504 -3.1374
   40MPD2    H2  628   1.350   2.280   1.447  0.2200 -0.5152 -1.0716
   40MPD2    H3  629   1.225   2.094   1.376 -0.5489 -0.1390 -0.4048
   40MPD2     N  630   0.872   2.335   1.242 -0.3112 -0.1210  0.3389
   40MPD2    H5  631   0.830   2.245   1.224  0.5647 -0.5056  0.2199
   40MPD2    N1  632   1.286   2.540   1.411 -0.5616 -0.3373  0.4835
   40MPD2    H7  633   1.377   2.520   1.452 -0.0820  2.2360  0.7189
   41TMC2    C1  634   4.575   0.997  13.635 -0.0238  0.1393  0.2504
   41TMC2    C2  635   4.573   0.887  13.551  0.2081 -0.0692  0.8724
   41TMC2    C3  636   4.630   0.903  13.429  0.2287  0.3317 -0.0155
   41TMC2    C4  637   4.651   1.110  13.611  1.0311  0.2141  0.0508
   41TMC2    C5  638   4.710   1.115  13.488 -0.2026 -0.8999  0.5449
   41TMC2    C6  639   4.704   1.011  13.396  0.0152 -0.0415  0.3926
   41TMC2     C  640   4.475   0.977  13.742 -0.3324  0.7140 -0.3871
   41TMC2     O  641   4.405   0.878  13.740  0.2830 -0.4654  0.0283
   41TMC2     H  642   4.514   0.798  13.569  0.9183 -0.9544 -1.2656
   41TMC2    H1  643   4.651   1.198  13.675 -1.9844 -1.9875  3.0446
   41TMC2    H2  644   0.015   1.022  13.300 -0.7059  0.7053  0.1149
   41TMC2    C7  645   0.012   1.254  13.440 -0.4432 -0.1620  0.8111
   41TMC2    C8  646   4.643   0.786  13.353 -0.0441  0.4244 -0.0350
   41TMC2    O1  647   0.016   1.332  13.537  0.0576 -0.3761 -0.0638
   41TMC2    O2  648   4.640   0.679  13.405  0.2653  0.1337  0.2890
   41TMC2    O5  649   4.656   0.824  13.221  0.1484  0.0109  0.3264
   41TMC2    H5  650   4.615   0.912  13.207  0.1008 -0.0374  0.1655
   42MPD2     C  651   4.368   0.956  14.023 -0.8091 -0.3691 -0.0256
   42MPD2    C1  652   4.443   1.064  13.975 -1.2853  0.0993  0.2295
   42MPD2    C2  653   4.468   1.162  14.060 -0.2103 -0.3198 -0.0853
   42MPD2    C3  654   4.434   1.153  14.196  0.1320  0.2265 -0.2525
   42MPD2    C4  655   4.364   1.046  14.245  0.2141  0.0378 -0.0242
   42MPD2    C5  656   4.335   0.949  14.158  0.0066 -0.1293  0.3270
   42MPD2     H  657   4.527   1.248  14.030  0.1261 -0.3095  0.5974
   42MPD2    H1  658   4.332   1.038  14.348  1.0882  0.8030  0.3041
   42MPD2    H2  659   4.344   0.867  13.965  2.7336 -0.6135 -1.1390
   42MPD2    H3  660   4.283   0.858  14.186  0.9058 -0.1265  1.9864
   42MPD2     N  661   4.470   1.244  14.297  0.7274 -0.4890  0.5571
   42MPD2    H5  662   4.467   1.210  14.392 -0.1011 -1.2239  0.2643
   42MPD2    N1  663   4.492   1.075  13.841  0.7136  0.2072 -0.7738
   42MPD2    H7  664   4.567   1.143  13.832  1.6200 -0.7953 -0.8318
   43TMC2    C1  665   1.395   3.826   1.177 -0.4901 -0.0235  0.4425
   43TMC2    C2  666   1.269   3.780   1.159  0.3292 -0.2826  0.5060
   43TMC2    C3  667   1.187   3.773   1.264  0.7674  0.0407 -0.4079
   43TMC2    C4  668   1.442   3.834   1.306 -0.2034 -0.1413 -0.4637
   43TMC2    C5  669   1.363   3.808   1.410 -0.3169 -0.4749  0.4868
   43TMC2    C6  670   1.233   3.771   1.394  0.2056 -0.5297  0.7932
   43TMC2     C  671   1.480   3.863   1.072 -0.2053 -0.6416 -0.8905
   43TMC2     O  672   1.601   3.840   1.092 -0.4501  0.4973  0.0138
   43TMC2     H  673   1.222   3.785   1.062  2.7351 -0.4439 -0.6722
   43TMC2    H1  674   1.546   3.858   1.322  0.7885 -3.2570 -2.1982
   43TMC2    H2  675   1.155   3.770   1.469 -1.2160  0.3973 -0.6601
   43TMC2    C7  676   1.402   3.865   1.541  0.2686  0.2197  0.2905
   43TMC2    C8  677   1.045   3.753   1.247 -0.1583  0.0502 -0.8814
   43TMC2    O1  678   1.474   3.967   1.549  0.0144  0.4411  0.3792
   43TMC2    O2  679   0.960   3.787   1.329 -0.2425 -0.3066 -0.3071
   43TMC2    O5  680   1.042   3.638   1.173 -0.6722  0.6123  0.4610
   43TMC2    H5  681   1.112   3.638   1.104 -0.7432 -1.3092  0.3853
   44MPD2     C  682   1.593   4.032   0.609  0.4816  0.0407  0.3965
   44MPD2    C1  683   1.658   3.940   0.691 -0.1648  0.4925  0.5054
   44MPD2    C2  684   1.600   3.912   0.812  0.4021 -0.0624 -0.4977
   44MPD2    C3  685   1.467   3.948   0.845 -0.2720  0.0648 -0.1034
   44MPD2    C4  686   1.393   4.012   0.754 -0.0549 -0.6887  0.4872
   44MPD2    C5  687   1.460   4.055   0.642 -0.3741 -0.3989 -0.3012
   44MPD2     H  688   1.655   3.857   0.887 -3.3186 -2.4435  0.4662
   44MPD2    H1  689   1.295   4.056   0.765 -0.4034 -1.5083  0.6559
   44MPD2    H2  690   1.630   4.059   0.511 -1.1369  2.5735  0.4889
   44MPD2    H3  691   1.404   4.113   0.570 -0.3181  2.6389  2.0990
   44MPD2     N  692   1.412   3.924   0.969  0.5854 -0.0440 -0.6916
   44MPD2    H5  693   1.315   3.949   0.983 -0.0860 -2.9536 -0.1520
   44MPD2    N1  694   1.791   3.890   0.667  0.0930 -0.2795  0.3192
   44MPD2    H7  695   1.834   3.824   0.731 -1.3892  0.5078  2.1324
   45TMC2    C1  696   1.460   1.367   9.922 -0.3521  0.5012 -0.7075
   45TMC2    C2  697   1.571   1.289   9.933 -0.2108 -0.3053  0.0141
   45TMC2    C3  698   1.686   1.359   9.969 -0.3944 -0.4079  0.4302
   45TMC2    C4  699   1.459   1.500   9.946  0.0369 -0.6721  0.3190
   45TMC2    C5  700   1.568   1.560   9.996 -0.8453 -0.1500  0.0680
   45TMC2    C6  701   1.680   1.485  10.017 -0.2146 -0.3598 -0.1110
   45TMC2     C  702   1.337   1.305   9.888  0.3241 -0.0699  0.1555
   45TMC2     O  703   1.339   1.185   9.888  0.2567 -0.4902  0.4235
   45TMC2     H  704   1.572   1.186   9.901  0.1011 -0.0237 -0.8823
   45TMC2    H1  705   1.370   1.563   9.942 -0.9853 -2.2450 -1.6281
   45TMC2    H2  706   1.770   1.524  10.063 -0.5574  1.6863 -1.1934
   45TMC2    C7  707   1.576   1.701  10.025 -0.3400 -0.4660 -0.1825
   45TMC2    C8  708   1.815   1.295   9.963 -0.2647 -0.0974  0.1007
   45TMC2    O1  709   1.689   1.725  10.060  0.4367  0.2117  0.1636
   45TMC2    O2  710   1.832   1.192  10.027  0.3701  0.0995 -0.3376
   45TMC2    O5  711   1.899   1.377   9.897  0.2503 -0.6051  0.6736
   45TMC2    H5  712   1.855   1.444   9.839  2.5540  0.7303  0.4448
   46MPD2     C  713   1.084   1.207   9.778 -0.0473 -0.7944  0.2637
   46MPD2    C1  714   1.123   1.342   9.779 -0.0573  0.7392  0.9399
   46MPD2    C2  715   1.033   1.432   9.725  0.6606  0.7529  0.7102
   46MPD2    C3  716   0.910   1.397   9.685  0.1794  0.4991 -0.3272
   46MPD2    C4  717   0.866   1.267   9.690 -0.0098  0.7570 -0.5325
   46MPD2    C5  718   0.960   1.171   9.738 -0.1495 -0.0317  0.6809
   46MPD2     H  719   1.057   1.537   9.719  1.1797  0.5705 -0.2882
   46MPD2    H1  720   0.762   1.244   9.674  0.0264 -0.4328  0.9420
   46MPD2    H2  721   1.142   1.120   9.806  2.6086  1.1690  0.7946
   46MPD2    H3  722   0.931   1.069   9.763  1.8478 -0.8956 -0.5796
   46MPD2     N  723   0.821   1.501   9.667  0.1774 -0.0223  0.6215
   46MPD2    H5  724   0.857   1.593   9.690  1.9377 -1.2892  2.9671
   46MPD2    N1  725   1.245   1.387   9.828  0.0922 -0.1276 -0.0325
   46MPD2    H7  726   1.265   1.486   9.820 -0.7450  0.1240  0.9714
   47TMC2    C1  727   3.224   2.500   9.939  0.7302 -0.1093 -0.3822
   47TMC2    C2  728   3.236   2.380   9.870 -0.7017  0.2084 -0.1299
   47TMC2    C3  729   3.123   2.323   9.826  0.4159 -0.1465  0.0460
   47TMC2    C4  730   3.104   2.559   9.958 -0.5863  0.0935 -0.1186
   47TMC2    C5  731   2.996   2.501   9.904  0.7725  0.4576  0.2160
   47TMC2    C6  732   3.000   2.381   9.841 -0.3205  0.1546 -0.4311
   47TMC2     C  733   3.338   2.541  10.018 -0.4957 -0.5644 -0.5448
   47TMC2     O  734   3.324   2.650  10.075  0.5797  0.4549  0.7248
   47TMC2     H  735   3.336   2.357   9.836 -1.0276  0.8760 -1.5101
   47TMC2    H1  736   3.098   2.659  10.002  2.4977 -0.8091  2.2998
   47TMC2    H2  737   2.915   2.325   9.801 -0.5231  0.4856 -0.4618
   47TMC2    C7  738   2.871   2.568   9.920 -0.0483  0.0100 -0.2387
   47TMC2    C8  739   3.126   2.191   9.760  0.1242 -0.1024 -0.0774
   47TMC2    O1  740   2.799   2.561   9.825  0.2417  0.3554 -0.0907
   47TMC2    O2  741   3.033   2.145   9.701 -0.0974  0.0290  0.3558
   47TMC2    O5  742   3.231   2.116   9.794  0.0899  0.3103  0.3025
   47TMC2    H5  743   3.297   2.150   9.858 -0.0131  1.2213 -0.0863
   48MPD2     C  744   3.589   2.562  10.186  0.4286 -0.2862 -0.3019
   48MPD2    C1  745   3.522   2.443  10.156 -0.7373 -0.4098  0.6302
   48MPD2    C2  746   3.566   2.323  10.213  0.1638  0.4661 -0.6480
   48MPD2    C3  747   3.681   2.322  10.284 -0.3001  0.4188 -0.3112
   48MPD2    C4  748   3.750   2.437  10.313  0.3714 -0.7639 -0.1594
   48MPD2    C5  749   3.695   2.555  10.273 -0.2724 -0.4570  0.5504
   48MPD2     H  750   3.518   2.227  10.196  2.0173 -0.6166  0.2194
   48MPD2    H1  751   3.847   2.437  10.360  0.0793 -1.0967  0.4406
   48MPD2    H2  752   3.566   2.659  10.145 -2.5832 -0.1718  1.6212
   48MPD2    H3  753   3.756   2.643  10.294 -0.5292 -0.4642  1.3216
   48MPD2     N  754   3.732   2.190  10.314 -0.5694 -0.2488  0.3178
   48MPD2    H5  755   3.674   2.112  10.284  2.9203 -2.8517  0.2870
   48MPD2    N1  756   3.411   2.433  10.068 -0.3223  0.2717  0.3033
   48MPD2    H7  757   3.385   2.339  10.041  1.1137  0.2921 -1.1188
   49TMC2    C1  758   2.494   0.668  10.280 -0.6972 -0.4525 -0.2990
   49TMC2    C2  759   2.551   0.653  10.154 -0.1693 -0.5801  0.2957
   49TMC2    C3  760   2.487   0.562  10.071  0.9890 -0.6795 -0.4974
   49TMC2    C4  761   2.379   0.615  10.320  0.1748  0.3579 -0.4387
   49TMC2    C5  762   2.322   0.523  10.241 -0.0488 -1.2524  0.1961
   49TMC2    C6  763   2.383   0.490  10.120 -0.0110 -0.2307  0.2786
   49TMC2     C  764   2.550   0.775  10.362 -0.1714 -0.5349 -0.3185
   49TMC2     O  765   2.577   0.880  10.307 -0.2685  0.2072 -0.1208
   49TMC2     H  766   2.637   0.713  10.126  1.3864 -2.4436  1.1387
   49TMC2    H1  767   2.339   0.625  10.421 -1.2109  2.3832 -1.1839
   49TMC2    H2  768   2.340   0.407  10.066  2.0007 -0.7819 -0.4644
   49TMC2    C7  769   2.223   0.433  10.293 -0.1422 -0.0778  0.6783
   49TMC2    C8  770   2.564   0.494   9.974 -0.3428  0.9514  0.0942
   49TMC2    O1  771   2.217   0.323  10.239  0.5340  0.0863  0.0680
   49TMC2    O2  772   2.543   0.378   9.939  0.8789 -0.0445  0.6736
   49TMC2    O5  773   2.635   0.577   9.903 -0.0064 -0.3948  0.8872
   49TMC2    H5  774   2.622   0.674   9.907  2.5190  0.0561 -1.6909
   50MPD2     C  775   2.659   0.924  10.598  1.0189 -0.0779 -0.4821
   50MPD2    C1  776   2.634   0.793  10.601 -0.3813 -0.1581 -0.3178
   50MPD2    C2  777   2.637   0.733  10.726  0.7785 -0.1093  0.0926
   50MPD2    C3  778   2.667   0.795  10.844  0.1542 -0.3141  0.9117
   50MPD2    C4  779   2.695   0.932  10.838 -0.0580 -0.5342  0.1679
   50MPD2    C5  780   2.688   0.996  10.707  0.2333  0.0932 -0.4375
   50MPD2     H  781   2.605   0.629  10.724 -1.8848  0.6505  1.5661
   50MPD2    H1  782   2.729   0.992  10.922  1.3156 -2.4612  0.9750
   50MPD2    H2  783   2.649   0.984  10.508 -2.1478 -1.9314 -1.3749
   50MPD2    H3  784   2.704   1.102  10.692  1.3420 -0.0831 -0.5635
   50MPD2     N  785   2.674   0.728  10.975 -0.0836  0.1932 -0.3969
   50MPD2    H5  786   2.695   0.785  11.056  0.1994 -0.2653 -0.1468
   50MPD2    N1  787   2.588   0.725  10.487  0.1568 -0.3735 -0.3433
   50MPD2    H7  788   2.562   0.628  10.505  0.5615 -0.3067  0.6118
   51TMC2    C1  789   2.543   3.207   1.143 -0.5997 -0.1398 -1.1848
   51TMC2    C2  790   2.500   3.334   1.161  0.2278 -0.6116  0.2558
   51TMC2    C3  791   2.553   3.426   1.074 -0.4232 -0.2166 -0.3338
   51TMC2    C4  792   2.650   3.174   1.059 -0.1385 -0.1804  0.8191
   51TMC2    C5  793   2.704   3.272   0.979  0.8284 -0.3039  0.4728
   51TMC2    C6  794   2.651   3.398   0.984 -0.2473 -0.2141 -0.0534
   51TMC2     C  795   2.495   3.090   1.210 -0.7864  0.0693 -0.0148
   51TMC2     O  796   2.563   2.985   1.199  0.2639  0.1028  0.0934
   51TMC2     H  797   2.421   3.366   1.229 -0.7166 -0.3834 -0.9533
   51TMC2    H1  798   2.712   3.086   1.067 -1.2665 -0.9596  1.0761
   51TMC2    H2  799   2.688   3.467   0.909  0.0099 -0.1385  0.1446
   51TMC2    C7  800   2.795   3.232   0.875  0.0095  0.2688 -0.0634
   51TMC2    C8  801   2.483   3.553   1.055  0.3103  0.1071  0.1914
   51TMC2    O1  802   2.883   3.312   0.848 -0.4326  0.0255  0.1333
   51TMC2    O2  803   2.365   3.562   1.080  0.7722  0.4154  0.0808
   51TMC2    O5  804   2.556   3.646   0.977  0.0364 -0.9111 -0.2019
   51TMC2    H5  805   2.652   3.631   0.987  0.0794 -1.5608 -1.7432
   52MPD2     C  806   2.124   2.824   1.406  0.8213 -0.1811 -0.1520
   52MPD2    C1  807   2.254   2.788   1.383  0.0226  0.2979  0.5951
   52MPD2    C2  808   2.347   2.880   1.344  0.8739 -0.0738 -0.3122
   52MPD2    C3  809   2.303   3.016   1.325 -1.3068 -0.2959 -0.8094
   52MPD2    C4  810   2.168   3.050   1.348 -0.5728 -0.5471  0.2146
   52MPD2    C5  811   2.080   2.953   1.382 -0.4233 -0.0960  0.1959
   52MPD2     H  812   2.447   2.843   1.325  1.6798  0.8927  2.1120
   52MPD2    H1  813   2.119   3.145   1.331 -2.0353 -1.0860  1.4237
   52MPD2    H2  814   2.051   2.745   1.423  0.8770 -0.8782 -3.1843
   52MPD2    H3  815   1.977   2.985   1.395 -1.1696 -2.0217 -0.9791
   52MPD2     N  816   2.375   3.112   1.262  0.2046 -0.7062 -0.2076
   52MPD2    H5  817   2.324   3.197   1.242  2.0994  0.2506 -0.9139
   52MPD2    N1  818   2.298   2.661   1.404  1.1077  0.6306  0.1056
   52MPD2    H7  819   2.395   2.644   1.380  0.5527  0.2877 -1.9666
   53TMC2    C1  820   3.388   1.320  11.823 -0.7563 -0.6521  0.7358
   53TMC2    C2  821   3.519   1.288  11.822  0.4343 -0.5101 -0.1917
   53TMC2    C3  822   3.599   1.313  11.936  0.5636  0.5325 -0.1741
   53TMC2    C4  823   3.327   1.389  11.927 -0.4957 -0.0685 -0.1300
   53TMC2    C5  824   3.406   1.405  12.039 -0.5108 -0.4515 -0.1455
   53TMC2    C6  825   3.542   1.375  12.044 -0.5356  0.7378  0.1877
   53TMC2     C  826   3.309   1.301  11.708 -0.2983  0.1163 -0.1564
   53TMC2     O  827   3.343   1.212  11.629 -0.1082  0.4045 -0.0580
   53TMC2     H  828   3.566   1.241  11.737 -2.4314 -0.1688 -1.9403
   53TMC2    H1  829   3.221   1.413  11.927 -0.4802  0.0037  0.6960
   53TMC2    H2  830   3.605   1.395  12.130  0.2438  0.1360 -0.2447
   53TMC2    C7  831   3.341   1.464  12.151  0.2091 -0.0289  0.0852
   53TMC2    C8  832   3.746   1.302  11.937  0.1000  0.0235 -0.5593
   53TMC2    O1  833   3.240   1.527  12.128  0.3561 -0.3265 -0.2334
   53TMC2    O2  834   3.805   1.387  12.003  0.2434 -0.4783  0.3110
   53TMC2    O5  835   3.787   1.232  11.831  0.0444  0.0775  0.5241
   53TMC2    H5  836   3.725   1.160  11.810  0.7973  0.1022 -1.7131
   54MPD2     C  837   3.127   1.278  11.472 -0.0214  0.5264 -0.2642
   54MPD2    C1  838   3.105   1.359  11.588 -0.6095 -0.5264 -0.0174
   54MPD2    C2  839   2.983   1.426  11.603  0.8021 -0.0465  0.1092
   54MPD2    C3  840   2.882   1.411  11.510 -0.2732 -1.4259  0.0887
   54MPD2    C4  841   2.904   1.339  11.400 -0.1420  0.5474  0.3349
   54MPD2    C5  842   3.023   1.277  11.384  0.3325 -0.1567  0.5078
   54MPD2     H  843   2.965   1.501  11.680  0.7883  1.3035 -1.2064
   54MPD2    H1  844   2.821   1.315  11.335  1.0069  1.6608 -1.5630
   54MPD2    H2  845   3.218   1.226  11.447  0.4773  0.3342  1.9114
   54MPD2    H3  846   3.034   1.216  11.295 -0.2611 -1.1200  1.0989
   54MPD2     N  847   2.756   1.477  11.522  0.0152 -0.2292 -0.4406
   54MPD2    H5  848   2.696   1.468  11.441 -1.6859  0.9689  0.6939
   54MPD2    N1  849   3.201   1.382  11.690  0.5533  0.2047 -0.0584
   54MPD2    H7  850   3.188   1.460  11.753 -0.8685 -0.9118  1.0266
   55TMC2    C1  851   4.617   4.494   0.485  0.2991  0.4979  0.4435
   55TMC2    C2  852   4.715   4.564   0.431  0.0965 -0.4191  0.2230
   55TMC2    C3  853   0.096   4.502   0.416  0.3536 -0.6326  0.7212
   55TMC2    C4  854   4.641   4.377   0.553 -0.1591  1.0084 -0.4364
   55TMC2    C5  855   0.028   4.315   0.538  0.6058  0.7001 -0.1982
   55TMC2    C6  856   0.129   4.382   0.471  0.3167 -0.6659 -0.0440
   55TMC2     C  857   4.481   4.548   0.481 -0.4806  0.6766  0.0830
   55TMC2     O  858   4.399   4.486   0.553 -0.3085 -0.0556 -0.0629
   55TMC2     H  859   4.704   4.658   0.378  0.7238 -1.3374 -1.5436
   55TMC2    H1  860   4.571   4.343   0.628  2.7205 -2.2744  0.7496
   55TMC2    H2  861   0.233   4.351   0.469  0.6840  0.5479 -0.3419
   55TMC2    C7  862   0.061   4.189   0.610 -1.3148 -0.1836 -0.0381
   55TMC2    C8  863   0.205   4.571   0.355 -0.6734 -0.6088  0.7614
   55TMC2    O1  864   0.179   4.155   0.619  0.1539 -0.1115 -0.1641
   55TMC2    O2  865   0.224   4.692   0.377  0.0727  0.0298 -0.6595
   55TMC2    O5  866   0.232   4.490   0.245 -0.1535  0.3590  0.0517
   55TMC2    H5  867   0.180   4.407   0.244  2.0848 -1.0334  0.1152
   56MPD2     C  868   4.349   0.103   0.311 -0.0808 -0.8781  0.1039
   56MPD2    C1  869   4.338   4.731   0.393  0.4454 -0.2968 -0.3388
   56MPD2    C2  870   4.211   4.691   0.435  0.1309 -0.5193  0.2989
   56MPD2    C3  871   4.101   0.026   0.397 -0.0440  0.3962  0.3000
   56MPD2    C4  872   4.119   0.137   0.316 -0.3427 -0.4746 -0.1825
   56MPD2    C5  873   4.239   0.170   0.276  0.2359  0.2781  0.1878
   56MPD2     H  874   4.191   4.603   0.495 -2.8051 -0.7991 -1.0541
   56MPD2    H1  875   4.031   0.195   0.288 -0.3311  1.3149  3.3781
   56MPD2    H2  876   4.449   0.125   0.274  0.4603  2.0296  3.2671
   56MPD2    H3  877   4.259   0.253   0.209 -2.0778  0.0273 -0.8058
   56MPD2     N  878   3.971   4.714   0.428  0.2129  0.3430 -0.0467
   56MPD2    H5  879   3.966   4.631   0.487  0.7512  0.8887  0.7624
   56MPD2    N1  880   4.459   4.665   0.408 -0.0988 -0.0917  0.9270
   56MPD2    H7  881   4.539   4.709   0.365 -2.3398  3.5981  0.5363
   57TMC2    C1  882   3.024   0.196  13.312 -0.3781 -0.3119  0.3633
   57TMC2    C2  883   2.991   0.067  13.299 -0.3109  0.1547 -0.2562
   57TMC2    C3  884   3.052   4.725  13.209  0.4004 -0.0058  0.2439
   57TMC2    C4  885   3.120   0.255  13.238 -0.1503 -0.6293 -0.6521
   57TMC2    C5  886   3.191   0.167  13.163 -0.1307 -0.3487 -0.2056
   57TMC2    C6  887   3.153   0.042  13.142 -0.0925 -0.0618  0.3782
   57TMC2     C  888   2.954   0.284  13.406  0.7866  0.4126  0.7829
   57TMC2     O  889   2.842   0.249  13.427  0.1681  0.1057  0.2857
   57TMC2     H  890   2.908   0.035  13.361  0.4862  0.6876  1.0968
   57TMC2    H1  891   3.142   0.360  13.249  0.9195 -0.9172 -0.0114
   57TMC2    H2  892   3.204   4.710  13.077  0.1136 -0.6547  1.1724
   57TMC2    C7  893   3.328   0.211  13.134 -0.0902  0.0387 -0.2955
   57TMC2    C8  894   3.068   4.588  13.253 -0.1719 -0.2109  0.8975
   57TMC2    O1  895   3.372   0.325  13.142 -0.4125  0.0501 -0.2624
   57TMC2    O2  896   3.173   4.529  13.234  0.4020 -0.0565  0.1640
   57TMC2    O5  897   2.967   4.541  13.323 -0.0889 -0.0636 -0.2719
   57TMC2    H5  898   2.878   4.582  13.320  0.2347  0.6373 -0.5191
   58MPD2     C  899   2.921   0.676  13.735  0.1612 -0.0965 -0.3687
   58MPD2    C1  900   2.821   0.600  13.681  0.5713  0.4520  0.0191
   58MPD2    C2  901   2.862   0.497  13.597 -0.2081 -0.4668  1.1010
   58MPD2    C3  902   2.994   0.459  13.573  0.2297 -0.3293 -0.1119
   58MPD2    C4  903   3.089   0.538  13.637  0.2658 -0.2511 -0.2283
   58MPD2    C5  904   3.048   0.642  13.724  0.8012  0.0625 -0.3490
   58MPD2     H  905   2.789   0.432  13.550 -1.8704  1.3708  1.1514
   58MPD2    H1  906   3.192   0.506  13.631  0.2274 -0.4034 -0.0711
   58MPD2    H2  907   2.896   0.761  13.797 -2.0567  0.2242 -1.7060
   58MPD2    H3  908   3.119   0.689  13.791 -0.7256 -1.9648  2.6564
   58MPD2     N  909   3.040   0.378  13.473  0.4698 -0.5196 -1.1296
   58MPD2    H5  910   3.139   0.379  13.450  0.7812 -0.1212  0.2138
   58MPD2    N1  911   2.682   0.624  13.701 -0.4466 -0.2831  0.1902
   58MPD2    H7  912   2.656   0.714  13.738 -0.9152  0.0369 -0.9261
   59TMC2    C1  913   0.700   0.146  12.633 -0.0137  0.4216 -0.4213
   59TMC2    C2  914   0.828   0.126  12.571  0.2266 -0.6623 -0.7074
   59TMC2    C3  915   0.831   0.097  12.440  0.0026 -0.6608  0.2571
   59TMC2    C4  916   0.586   0.137  12.564 -0.3840 -0.5537 -0.2832
   59TMC2    C5  917   0.595   0.106  12.430 -0.9254  0.9385 -0.1604
   59TMC2    C6  918   0.715   0.079  12.370  0.6388  0.8520  0.2042
   59TMC2     C  919   0.679   0.166  12.775 -0.7051  0.7050 -0.0113
   59TMC2     O  920   0.572   0.123  12.823 -0.2075 -0.2033 -0.4657
   59TMC2     H  921   0.912   0.172  12.624 -0.8410  2.3562 -1.6040
   59TMC2    H1  922   0.488   0.157  12.607  0.1010  2.8094 -0.7983
   59TMC2    H2  923   0.718   0.052  12.265 -0.8633 -0.8408  0.5831
   59TMC2    C7  924   0.475   0.113  12.364  0.2829  0.1459 -0.3711
   59TMC2    C8  925   0.963   0.107  12.385  0.5617  0.1210 -0.1957
   59TMC2    O1  926   0.386   0.061  12.426 -0.5916 -0.1460  0.3735
   59TMC2    O2  927   1.065   0.078  12.441  0.0778 -0.3492 -0.1235
   59TMC2    O5  928   0.943   0.116  12.255 -0.5665  0.0971 -0.0137
   59TMC2    H5  929   0.862   0.167  12.235  0.2125  1.1845 -0.3928
   60MPD2     C  930   0.684   0.283  13.049 -0.7850  0.5610  0.2606
   60MPD2    C1  931   0.795   0.268  12.970 -0.7730  0.7348 -0.3062
   60MPD2    C2  932   0.919   0.308  13.018 -1.1403  0.6641 -0.0705
   60MPD2    C3  933   0.932   0.385  13.133 -0.6127 -0.2607 -0.3930
   60MPD2    C4  934   0.814   0.409  13.199 -0.5171  0.4200 -0.8893
   60MPD2    C5  935   0.691   0.364  13.154  0.4132 -0.5863 -0.4563
   60MPD2     H  936   1.003   0.277  12.957 -1.0202  1.8170 -0.4946
   60MPD2    H1  937   0.808   0.478  13.283  2.5982 -0.8883  0.3701
   60MPD2    H2  938   0.593   0.227  13.035  1.0108 -2.3197  0.1398
   60MPD2    H3  939   0.609   0.391  13.219 -1.3632  0.4919 -3.1488
   60MPD2     N  940   1.055   0.427  13.184 -0.0349  0.1814 -0.2856
   60MPD2    H5  941   1.055   0.486  13.267  0.9787 -0.0236 -0.1344
   60MPD2    N1  942   0.794   0.208  12.840  0.1269  0.6001  0.5122
   60MPD2    H7  943   0.880   0.206  12.785 -0.4935  2.8299 -0.5459
   61TMC2    C1  944   4.603   2.002  15.625  0.4715 -0.4935  0.3830
   61TMC2    C2  945   4.510   1.969  15.722  0.3570  0.4577  0.6116
   61TMC2    C3  946   4.411   2.052  15.755  0.5198 -1.0921 -0.6333
   61TMC2    C4  947   4.587   2.114  15.552  0.2817  0.4882 -0.0169
   61TMC2    C5  948   4.491   2.205  15.592 -0.4717 -0.4319 -0.4790
   61TMC2    C6  949   4.403   2.173  15.693 -0.0473  0.2448  0.8314
   61TMC2     C  950   4.735   1.938  15.629 -0.3727  0.4804  0.0672
   61TMC2     O  951   0.029   1.875  15.729 -0.0874 -0.1319 -0.0683
   61TMC2     H  952   4.526   1.890  15.795  0.3949  2.2300  2.5127
   61TMC2    H1  953   4.662   2.144  15.479  1.4198  0.1408  1.0097
   61TMC2    H2  954   4.334   2.247  15.730 -0.8931 -0.9826  1.6771
   61TMC2    C7  955   4.543   2.337  15.576 -0.7477 -0.2606 -0.0965
   61TMC2    C8  956   4.311   2.015  15.853 -0.0931 -0.0014 -0.6983
   61TMC2    O1  957   4.587   2.368  15.467  0.0772  0.7986  0.0018
   61TMC2    O2  958   4.192   2.010  15.825 -0.0591 -0.4416 -0.3003
   61TMC2    O5  959   4.367   1.973  15.969  0.6325  0.6001  0.0879
   61TMC2    H5  960   4.463   1.988  15.978  1.1330 -1.7523 -1.1689
   62MPD2     C  961   0.297   1.830  15.584 -0.3434 -0.7161 -0.1509
   62MPD2    C1  962   0.221   1.929  15.515  0.5623  0.2181  0.2007
   62MPD2    C2  963   0.282   1.994  15.411  0.5577 -0.0898 -0.1166
   62MPD2    C3  964   0.401   1.953  15.358 -0.4159  0.0821 -0.1888
   62MPD2    C4  965   0.467   1.849  15.415 -0.1031 -0.2578 -0.0202
   62MPD2    C5  966   0.422   1.792  15.537  0.4871 -0.2883  0.1231
   62MPD2     H  967   0.236   2.089  15.383 -1.4380 -0.3833  2.1304
   62MPD2    H1  968   0.567   1.824  15.379 -1.1144 -1.9951 -1.6645
   62MPD2    H2  969   0.254   1.779  15.670  2.0251  1.3061  2.2612
   62MPD2    H3  970   0.486   1.724  15.592 -0.5475 -0.7976  0.6954
   62MPD2     N  971   0.447   2.024  15.254 -0.0655 -0.1533 -0.6154
   62MPD2    H5  972   0.392   2.101  15.218 -0.0327  1.1884  2.2421
   62MPD2    N1  973   0.084   1.968  15.528 -0.5760  0.4184 -0.2396
   62MPD2    H7  974   0.036   2.009  15.448  0.3179  0.5381 -0.7274
   63TMC2    C1  975   3.588   1.849  11.248  0.1602  0.4573  0.1202
   63TMC2    C2  976   3.683   1.803  11.337 -0.0081  0.0130  0.6093
   63TMC2    C3  977   3.785   1.886  11.375 -0.0141 -0.5495  0.2277
   63TMC2    C4  978   3.585   1.983  11.212 -1.4454 -0.0933  0.6273
   63TMC2    C5  979   3.694   2.058  11.242  0.5079  0.4038 -0.9386
   63TMC2    C6  980   3.796   2.016  11.329 -0.2088 -0.0760 -0.3510
   63TMC2     C  981   3.530   1.761  11.148 -0.4274  0.4009 -0.5168
   63TMC2     O  982   3.429   1.795  11.086  0.5158  0.2139  0.1364
   63TMC2     H  983   3.664   1.708  11.386  2.1146 -0.0642  1.2568
   63TMC2    H1  984   3.513   2.018  11.138  1.0828  3.2474 -0.2452
   63TMC2    H2  985   3.883   2.078  11.348  1.6083 -2.3215 -1.3707
   63TMC2    C7  986   3.710   2.201  11.202 -0.0675 -0.0669 -0.5723
   63TMC2    C8  987   3.861   1.863  11.497 -0.2167 -0.2192 -0.1400
   63TMC2    O1  988   3.798   2.263  11.259 -0.7259 -0.1479 -0.3509
   63TMC2    O2  989   3.911   1.955  11.558 -0.6226 -0.0281 -0.2756
   63TMC2    O5  990   3.915   1.744  11.504 -0.4459 -0.1961  0.1979
   63TMC2    H5  991   3.888   1.685  11.431  0.4037  0.1983 -0.4456
   64MPD2     C  992   3.581   1.377  10.806 -0.8208  0.9225  0.3843
   64MPD2    C1  993   3.704   1.401  10.864  0.0243  0.5079  0.1083
   64MPD2    C2  994   3.720   1.504  10.960  0.4913 -0.4953  0.3143
   64MPD2    C3  995   3.610   1.581  11.003 -0.2357 -0.1567 -0.0622
   64MPD2    C4  996   3.495   1.563  10.926 -0.3325  0.5247 -0.0046
   64MPD2    C5  997   3.483   1.462  10.831  0.0901  0.8994 -0.1876
   64MPD2     H  998   3.814   1.513  11.014  0.3026 -0.1771  0.5889
   64MPD2    H1  999   3.405   1.619  10.949  1.0084  1.9145  1.9149
   64MPD2    H2 1000   3.580   1.297  10.734 -1.4612  0.5479  0.8079
   64MPD2    H3 1001   3.381   1.455  10.794 -0.3037 -0.9413  1.2521
   64MPD2     N 1002   3.618   1.669  11.111  0.2993  0.7031  0.3259
   64MPD2    H5 1003   3.705   1.669  11.163 -0.2975 -0.1653  1.3283
   64MPD2    N1 1004   3.819   1.320  10.855 -0.5902  0.3530 -0.5268
   64MPD2    H7 1005   3.907   1.357  10.892 -1.0947  2.1092 -1.0658
   65TMC2    C1 1006   1.836   1.378  15.635 -0.4102 -0.0033 -0.7096
   65TMC2    C2 1007   1.970   1.409  15.625 -0.3728 -0.0324  0.1210
   65TMC2    C3 1008   2.014   1.529  15.576  0.0281  0.2610 -0.0986
   65TMC2    C4 1009   1.746   1.480  15.611  0.1816 -0.0979 -0.2402
   65TMC2    C5 1010   1.790   1.606  15.590  0.3046 -0.0198 -0.5273
   65TMC2    C6 1011   1.926   1.631  15.561 -0.1775  0.2770 -0.0514
   65TMC2     C 1012   1.795   1.249  15.672  0.9058 -0.5050  0.0119
   65TMC2     O 1013   1.873   1.182  15.740 -0.3055 -0.3521 -0.4127
   65TMC2     H 1014   2.044   1.332  15.648  0.5997  1.4446  1.9269
   65TMC2    H1 1015   1.640   1.456  15.619  0.3356 -0.4952  0.7047
   65TMC2    H2 1016   1.960   1.731  15.537  0.5811  0.3549  1.3433
   65TMC2    C7 1017   1.694   1.712  15.548  0.0673 -0.2009 -0.8889
   65TMC2    C8 1018   2.159   1.551  15.583 -0.1915 -0.3861 -0.3918
   65TMC2    O1 1019   1.742   1.804  15.484  0.4859  0.2870  0.0003
   65TMC2    O2 1020   2.207   1.524  15.692  0.1479 -0.3153  0.3270
   65TMC2    O5 1021   2.194   1.664  15.509 -0.7318 -0.1628  0.0998
   65TMC2    H5 1022   2.146   1.673  15.424 -1.1874  1.7378  0.5553
   66MPD2     C 1023   1.673   0.971  15.710  0.6600  1.2821 -0.0918
   66MPD2    C1 1024   1.617   1.074  15.632  0.7304  0.0338 -0.2883
   66MPD2    C2 1025   1.492   1.055  15.577 -1.1552  0.3430 -0.9463
   66MPD2    C3 1026   1.422   0.939  15.599 -0.4645 -0.3945 -0.1166
   66MPD2    C4 1027   1.482   0.841  15.666 -0.1854  0.8295  0.7971
   66MPD2    C5 1028   1.596   0.861  15.730  0.1251  0.2892 -0.0693
   66MPD2     H 1029   1.449   1.143  15.529 -1.5811 -0.5772 -2.2554
   66MPD2    H1 1030   1.447   0.738  15.667  0.3115  0.6290 -1.0643
   66MPD2    H2 1031   1.767   0.972  15.765  1.3151 -0.0948 -1.2024
   66MPD2    H3 1032   1.636   0.777  15.786 -0.3862 -0.7961 -1.3223
   66MPD2     N 1033   1.298   0.914  15.531  0.4285  0.0762  0.5519
   66MPD2    H5 1034   1.251   0.831  15.567 -2.5072  1.0839 -0.9225
   66MPD2    N1 1035   1.675   1.208  15.619 -0.1152 -0.1996 -0.1944
   66MPD2    H7 1036   1.638   1.269  15.547 -0.6564 -0.2649  0.0263
   67TMC2    C1 1037   1.100   0.406  14.087 -0.3117 -0.1762 -0.5193
   67TMC2    C2 1038   0.996   0.489  14.133 -0.3290  0.1358  0.6025
   67TMC2    C3 1039   0.986   0.497  14.270 -0.8843  0.7789 -0.1150
   67TMC2    C4 1040   1.157   0.318  14.168 -0.3718  0.5002 -0.0266
   67TMC2    C5 1041   1.150   0.341  14.305  0.7256 -0.8303  0.1206
   67TMC2    C6 1042   1.061   0.428  14.360  0.2478 -0.3041 -0.3619
   67TMC2     C 1043   1.069   0.356  13.950  0.2947  0.4574  0.1029
   67TMC2     O 1044   1.149   0.296  13.882 -0.3207 -1.0207  0.4577
   67TMC2     H 1045   0.944   0.559  14.069 -0.8198 -1.4718 -0.7833
   67TMC2    H1 1046   1.226   0.243  14.130 -0.8038  1.1704 -2.1327
   67TMC2    H2 1047   1.053   0.428  14.468  2.5812  1.0797 -0.1834
   67TMC2    C7 1048   1.250   0.266  14.385 -0.0423 -0.4641  0.2505
   67TMC2    C8 1049   0.897   0.603  14.313 -0.8429 -0.7327  0.7406
   67TMC2    O1 1050   1.286   0.156  14.346 -0.3987  0.2090 -0.5288
   67TMC2    O2 1051   0.900   0.714  14.267 -0.8903  0.1322  0.1114
   67TMC2    O5 1052   0.860   0.588  14.444  0.0270 -0.3640 -0.5225
   67TMC2    H5 1053   0.842   0.493  14.462  0.1500 -0.6245 -1.8298
   68MPD2     C 1054   0.920   0.309  13.691 -0.1821 -0.4352  0.0258
   68MPD2    C1 1055   0.864   0.349  13.814 -0.4900 -0.6020  0.3211
   68MPD2    C2 1056   0.726   0.378  13.816 -0.7029  0.1141 -0.8589
   68MPD2    C3 1057   0.657   0.382  13.696  0.6381  0.3098 -0.7389
   68MPD2    C4 1058   0.718   0.353  13.579  0.2400 -0.6584  0.3391
   68MPD2    C5 1059   0.848   0.316  13.573  0.5077  0.1475  0.4528
   68MPD2     H 1060   0.670   0.402  13.906 -0.1192  0.6574 -0.6472
   68MPD2    H1 1061   0.676   0.354  13.478  1.4808 -0.4654 -0.1722
   68MPD2    H2 1062   1.026   0.286  13.684  0.2926  1.1255  2.0883
   68MPD2    H3 1063   0.889   0.304  13.473 -1.3679  1.2630 -0.4486
   68MPD2     N 1064   0.530   0.431  13.685 -0.2780  0.1484  0.2954
   68MPD2    H5 1065   0.483   0.438  13.595  1.9710 -0.9514 -0.9530
   68MPD2    N1 1066   0.934   0.348  13.937  0.5899  0.1676  0.4019
   68MPD2    H7 1067   0.883   0.377  14.020 -0.9839  0.7674 -0.7919
   69TMC2    C1 1068   3.070   2.174  12.979  0.6252 -0.1257  0.1090
   69TMC2    C2 1069   3.142   2.282  13.021  0.2137  0.0656  0.2199
   69TMC2    C3 1070   3.210   2.361  12.927 -0.1972  0.4788  0.3862
   69TMC2    C4 1071   3.067   2.140  12.847 -0.1215  0.1746 -0.3748
   69TMC2    C5 1072   3.150   2.208  12.761 -0.0000 -0.2556 -0.4859
   69TMC2    C6 1073   3.224   2.311  12.802 -0.2480 -0.0573 -0.8580
   69TMC2     C 1074   3.014   2.081  13.075 -0.2316 -0.3143  0.1408
   69TMC2     O 1075   2.970   1.984  13.016 -0.5739 -0.3227 -0.9860
   69TMC2     H 1076   3.149   2.307  13.126 -1.9451  0.7484  0.2003
   69TMC2    H1 1077   3.007   2.053  12.822 -0.1327  0.0807 -0.0297
   69TMC2    H2 1078   3.305   2.348  12.740  1.7501 -1.2999  0.9891
   69TMC2    C7 1079   3.177   2.148  12.635 -0.6242  0.5705 -0.5429
   69TMC2    C8 1080   3.319   2.441  12.972 -0.0663 -0.2739  0.8658
   69TMC2    O1 1081   3.282   2.186  12.584  0.5337 -0.0635 -0.3081
   69TMC2    O2 1082   3.411   2.389  13.035  0.5232  0.6277  0.5524
   69TMC2    O5 1083   3.329   2.546  12.894 -0.2162 -0.4235 -0.1591
   69TMC2    H5 1084   3.243   2.556  12.847 -0.1222  1.1721 -0.0087
   70MPD2     C 1085   2.929   2.077  13.430 -0.2573  0.5333  0.1094
   70MPD2    C1 1086   2.961   2.025  13.308  0.4005  0.0714  0.4237
   70MPD2    C2 1087   2.922   1.892  13.283  0.2044 -0.1084 -0.5726
   70MPD2    C3 1088   2.872   1.812  13.390 -0.5798 -0.8382 -0.5629
   70MPD2    C4 1089   2.860   1.876  13.514  0.6502 -0.5559  0.0002
   70MPD2    C5 1090   2.875   2.009  13.525  0.0622 -0.2953  0.2033
   70MPD2     H 1091   2.946   1.839  13.192  1.7600 -0.0591 -0.2053
   70MPD2    H1 1092   2.820   1.829  13.603 -0.0439 -1.7392 -0.9482
   70MPD2    H2 1093   2.959   2.177  13.458  0.1297  1.0207 -2.0360
   70MPD2    H3 1094   2.869   2.044  13.628  2.0782  1.0368 -0.1120
   70MPD2     N 1095   2.847   1.673  13.386 -0.1050 -0.4688  0.2928
   70MPD2    H5 1096   2.820   1.634  13.476 -0.2635  1.2386  0.9916
   70MPD2    N1 1097   3.007   2.109  13.207 -0.4407  0.2661  0.1283
   70MPD2    H7 1098   3.024   2.203  13.240 -1.2025  0.3988  0.1268
   71TMC2    C1 1099   0.267   2.238   1.453  0.8834 -0.0621  0.0635
   71TMC2    C2 1100   0.358   2.308   1.530 -0.2495 -0.4488 -0.2382
   71TMC2    C3 1101   0.310   2.417   1.600  0.1732  0.1181 -0.0662
   71TMC2    C4 1102   0.134   2.267   1.448  0.4689 -0.2830  0.5941
   71TMC2    C5 1103   0.091   2.373   1.520  0.0230  0.3554  0.2592
   71TMC2    C6 1104   0.178   2.444   1.592  0.1580  0.0965 -0.2179
   71TMC2     C 1105   0.324   2.140   1.359  0.5704  0.1568  0.0632
   71TMC2     O 1106   0.443   2.115   1.368 -0.2598 -0.2651 -0.5174
   71TMC2     H 1107   0.463   2.283   1.518 -0.4427 -1.0540 -0.6975
   71TMC2    H1 1108   0.073   2.237   1.364  2.3750 -1.2584 -0.4570
   71TMC2    H2 1109   0.146   2.532   1.646 -1.7113 -0.1261 -0.9814
   71TMC2    C7 1110   4.684   2.390   1.550  0.6941 -0.1710  0.2444
   71TMC2    C8 1111   0.408   2.521   1.627 -0.2320 -0.2123 -0.1132
   71TMC2    O1 1112   4.649   2.495   1.603  0.0050  0.2647  0.1685
   71TMC2    O2 1113   0.465   2.582   1.537 -0.0816  0.5713  0.3332
   71TMC2    O5 1114   0.364   2.574   1.738 -0.1195 -0.4405  0.1238
   71TMC2    H5 1115   0.328   2.500   1.792 -0.1119 -0.9577 -0.5885
   72MPD2     C 1116   0.312   1.716   1.072  0.1752 -0.0786  0.4587
   72MPD2    C1 1117   0.406   1.822   1.082 -0.0842 -0.9369  0.3976
   72MPD2    C2 1118   0.377   1.929   1.160 -0.2017  0.3725  0.4213
   72MPD2    C3 1119   0.254   1.944   1.222  0.0236  0.2569  0.1962
   72MPD2    C4 1120   0.161   1.847   1.203 -0.3169 -0.3395 -1.4858
   72MPD2    C5 1121   0.190   1.731   1.125 -0.2641 -0.3513  0.6815
   72MPD2     H 1122   0.452   2.007   1.161  0.2318 -0.0317 -1.2692
   72MPD2    H1 1123   0.063   1.858   1.248 -0.6236  0.9065 -2.4361
   72MPD2    H2 1124   0.320   1.627   1.011 -2.8561 -2.3290  3.2797
   72MPD2    H3 1125   0.115   1.654   1.110  0.6857 -1.6333  2.5785
   72MPD2     N 1126   0.225   2.052   1.309  0.5902 -0.2834 -0.4098
   72MPD2    H5 1127   0.130   2.058   1.346  0.9394  0.0833  0.4211
   72MPD2    N1 1128   0.531   1.825   1.023  0.2059  0.4015  0.7018
   72MPD2    H7 1129   0.590   1.906   1.039  1.7829 -0.9479  1.7757
   73TMC2    C1 1130   0.300   4.366  14.205  0.0313  0.2515  0.0993
   73TMC2    C2 1131   0.311   4.392  14.336  0.2794 -0.1970 -0.4375
   73TMC2    C3 1132   0.332   4.289  14.421 -0.1388  0.5907 -0.4965
   73TMC2    C4 1133   0.301   4.240  14.157  0.0884  0.9153 -0.6012
   73TMC2    C5 1134   0.330   4.137  14.239 -0.7431 -0.3599 -0.0030
   73TMC2    C6 1135   0.347   4.163  14.376 -0.7336  0.2120  1.0277
   73TMC2     C 1136   0.358   4.459  14.116 -0.7180  0.5139 -0.2607
   73TMC2     O 1137   0.422   4.410  14.024  0.4668 -0.2232 -0.2061
   73TMC2     H 1138   0.307   4.493  14.375  0.6228  0.2316 -1.5077
   73TMC2    H1 1139   0.306   4.226  14.049  0.1763  0.5954 -0.5577
   73TMC2    H2 1140   0.342   4.085  14.450  0.7417 -1.1816 -0.3178
   73TMC2    C7 1141   0.451   4.072  14.198  0.1940 -0.2045 -0.8296
   73TMC2    C8 1142   0.359   4.300  14.565 -0.2332 -0.2659 -0.3462
   73TMC2    O1 1143   0.487   3.974  14.263  0.2863 -0.0993  0.3551
   73TMC2    O2 1144   0.426   4.219  14.625  0.0677  0.8123  0.1863
   73TMC2    O5 1145   0.307   4.418  14.607  0.1840  0.2551 -0.2338
   73TMC2    H5 1146   0.237   4.448  14.545  0.7085 -0.8547 -1.3557
   74MPD2     C 1147   0.472   0.166  13.924  0.3139 -0.3209  0.5172
   74MPD2    C1 1148   0.541   0.047  13.924 -1.0589 -0.2582  0.7976
   74MPD2    C2 1149   0.481   4.683  13.996  0.6817 -0.2146  0.0557
   74MPD2    C3 1150   0.353   4.693  14.054 -0.4897  0.2884 -0.0499
   74MPD2    C4 1151   0.293   0.075  14.059  0.0609  0.0944 -0.0653
   74MPD2    C5 1152   0.357   0.177  13.993 -0.4591  0.8850  0.2885
   74MPD2     H 1153   0.537   4.590  14.002  2.8246  0.9692 -1.3043
   74MPD2    H1 1154   0.192   0.084  14.095  0.2281 -0.1845  0.4839
   74MPD2    H2 1155   0.503   0.256  13.871  0.6467 -0.2615  0.8099
   74MPD2    H3 1156   0.310   0.272  13.973 -1.2995  0.2821 -0.5985
   74MPD2     N 1157   0.301   4.577  14.117 -0.4042 -0.6664  0.1376
   74MPD2    H5 1158   0.214   4.591  14.168  0.1693 -0.7843  1.1372
   74MPD2    N1 1159   0.667   0.045  13.855 -0.4803  0.6419 -0.1488
   74MPD2    H7 1160   0.691   0.130  13.806  0.6983 -0.5431 -1.6058
   75TMC2    C1 1161   0.353   0.578  13.723 -0.1221  0.0380 -1.0363
   75TMC2    C2 1162   0.267   0.623  13.822  0.0461 -0.7573 -1.2124
   75TMC2    C3 1163   0.179   0.719  13.777  0.1969  0.1392 -0.8090
   75TMC2    C4 1164   0.368   0.635  13.597  0.0609 -0.1371 -0.1624
   75TMC2    C5 1165   0.275   0.722  13.566  0.6349  0.2277  0.3981
   75TMC2    C6 1166   0.177   0.770  13.652  0.2532 -0.5003 -0.1760
   75TMC2     C 1167   0.453   0.488  13.785  0.4609  0.2386 -1.0569
   75TMC2     O 1168   0.466   0.486  13.906 -0.1359 -0.0686  0.4688
   75TMC2     H 1169   0.245   0.569  13.914  1.1075 -0.6353 -0.8894
   75TMC2    H1 1170   0.437   0.596  13.524  1.5108  2.8209 -0.3637
   75TMC2    H2 1171   0.100   0.845  13.637  1.4180  1.0772  1.7185
   75TMC2    C7 1172   0.266   0.742  13.423 -0.2830  0.2454 -0.7437
   75TMC2    C8 1173   0.080   0.765  13.865 -0.1982  0.2168  0.1316
   75TMC2    O1 1174   0.288   0.650  13.348  0.1299  0.7293 -0.3261
   75TMC2    O2 1175   4.699   0.769  13.834 -0.2979  0.1896 -0.1596
   75TMC2    O5 1176   0.139   0.844  13.953  0.2029 -0.0624 -0.3460
   75TMC2    H5 1177   0.236   0.835  13.940  0.4697  0.1739  1.5569
   76TMC2    C1 1178   4.290   1.036  11.975  0.1385 -0.6081 -0.8143
   76TMC2    C2 1179   4.238   0.970  11.868 -0.3329 -0.3278  0.2501
   76TMC2    C3 1180   4.309   0.857  11.814 -0.2490 -0.0782  0.3008
   76TMC2    C4 1181   4.410   1.002  12.033 -0.3684 -0.2975  0.7565
   76TMC2    C5 1182   4.479   0.899  11.978  0.1796 -0.2399 -0.6384
   76TMC2    C6 1183   4.434   0.826  11.868 -0.4177  0.1417 -0.4475
   76TMC2     C 1184   4.217   1.153  12.015 -0.4259 -0.0715  0.6116
   76TMC2     O 1185   4.100   1.157  11.986  0.0553 -0.3106 -0.1946
   76TMC2     H 1186   4.159   1.011  11.806 -1.2635 -1.5748  0.6348
   76TMC2    H1 1187   4.444   1.051  12.124  2.8762  1.2481 -1.3198
   76TMC2    H2 1188   4.506   0.759  11.822 -0.2716 -0.1073  0.1429
   76TMC2    C7 1189   4.610   0.857  12.034  0.8601  0.1424  0.3542
   76TMC2    C8 1190   4.262   0.790  11.696  0.2355  0.5573  0.0775
   76TMC2    O1 1191   4.665   0.756  12.000  0.1276  0.1779  0.2175
   76TMC2    O2 1192   4.341   0.741  11.615 -0.6312 -0.5926  0.0926
   76TMC2    O5 1193   4.144   0.829  11.658 -0.7271  0.4494  0.2656
   76TMC2    H5 1194   4.079   0.849  11.729 -1.5210  1.7918 -0.8576
   77MPD2     C 1195   4.178   1.620  12.235 -0.4238  0.6880  0.9772
   77MPD2    C1 1196   4.076   1.534  12.179 -0.0417  0.4632  0.1908
   77MPD2    C2 1197   4.113   1.408  12.140  0.3235  0.3252  0.6434
   77MPD2    C3 1198   4.249   1.372  12.133  0.4372  0.0586  0.1418
   77MPD2    C4 1199   4.335   1.456  12.189 -0.1673  0.2656  0.0486
   77MPD2    C5 1200   4.303   1.575  12.238 -0.0901 -0.0102 -0.2284
   77MPD2     H 1201   4.039   1.347  12.089  1.3370 -1.0622  0.8374
   77MPD2    H1 1202   4.442   1.443  12.199  0.0157  0.6319 -1.5420
   77MPD2    H2 1203   4.150   1.721  12.262  0.6519  1.3976 -0.5691
   77MPD2    H3 1204   4.387   1.629  12.281  0.8217 -1.5530 -0.0714
   77MPD2     N 1205   4.296   1.256  12.073  0.2959 -0.3632  0.2359
   77MPD2    H5 1206   4.396   1.242  12.079  0.3578 -0.4963 -1.1948
   77MPD2    N1 1207   3.936   1.571  12.158  0.4996  0.4747  0.2038
   77MPD2    H7 1208   3.876   1.519  12.095  1.7187 -1.1087  0.3611
   78TMC2    C1 1209   0.414   1.829   1.600  0.2471 -0.5512 -0.2437
   78TMC2    C2 1210   0.308   1.749   1.572 -0.4407 -0.4750  0.8980
   78TMC2    C3 1211   0.324   1.649   1.485 -0.8107 -0.2879  0.4227
   78TMC2    C4 1212   0.537   1.820   1.542 -0.1957  0.0605  0.1115
   78TMC2    C5 1213   0.541   1.725   1.446 -0.7352  0.5689  0.0593
   78TMC2    C6 1214   0.442   1.631   1.421  0.6303  0.4790 -0.2456
   78TMC2     C 1215   0.389   1.954   1.674  0.0696 -0.9343  0.0281
   78TMC2     O 1216   0.490   2.017   1.707  0.2992  0.1530  0.4238
   78TMC2     H 1217   0.209   1.766   1.611  0.0832  2.3518  0.9971
   78TMC2    H1 1218   0.614   1.896   1.552  1.2571 -1.5760  1.2308
   78TMC2    H2 1219   0.446   1.558   1.342  2.2219  1.5233 -1.1331
   78TMC2    C7 1220   0.656   1.713   1.353  0.2342  0.6405  0.1077
   78TMC2    C8 1221   0.218   1.557   1.455  0.1122  0.3106 -0.0349
   78TMC2    O1 1222   0.721   1.817   1.342 -0.1044 -0.5971 -0.0800
   78TMC2    O2 1223   0.097   1.573   1.446 -0.3291 -0.0595  0.1490
   78TMC2    O5 1224   0.277   1.454   1.522  0.1274  0.4224 -0.1781
   78TMC2    H5 1225   0.365   1.477   1.558 -0.8278  0.1458  2.3103
   79MPD1     C 1226   0.091   2.293   1.920 -0.0326  0.0924  0.0037
   79MPD1    C1 1227   0.231   2.292   1.909 -0.0841 -0.3780 -0.1021
   79MPD1    C2 1228   0.282   2.187   1.831 -1.0477  0.1164  0.4621
   79MPD1    C3 1229   0.199   2.082   1.782 -0.3486 -0.5403  0.1057
   79MPD1    C4 1230   0.064   2.085   1.807 -0.5257  0.1549  0.2497
   79MPD1    C5 1231   0.015   2.194   1.875  0.7934 -0.2342 -0.8218
   79MPD1     H 1232   0.387   2.190   1.805 -1.6727  3.8395 -1.4685
   79MPD1    H1 1233   4.726   2.014   1.774  0.3016 -0.2657 -0.7078
   79MPD1    H2 1234   0.043   2.380   1.965  1.6896  0.7199  0.6564
   79MPD1    H3 1235   4.645   2.201   1.886  1.0083  0.7208  0.7066
   79MPD1     N 1236   0.252   1.975   1.702 -0.6056 -0.1469  0.0774
   79MPD1    H5 1237   0.189   1.907   1.662 -0.7767 -0.3747  0.7370
   79MPD1    N1 1238   0.316   2.396   1.942 -0.2105  0.3322  0.4713
   79MPD1    H6 1239   0.402   2.367   1.989  1.2016  0.6006 -1.9266
   79MPD1    H7 1240   0.269   2.448   2.015  1.0583  0.0252  1.5087
   80TMC2    C1 1241   3.352   0.981  12.065  0.0537  0.0975 -0.3390
   80TMC2    C2 1242   3.470   0.977  11.992 -0.6574  0.2490  0.2519
   80TMC2    C3 1243   3.483   0.876  11.905  0.1686 -0.9407 -0.2546
   80TMC2    C4 1244   3.255   0.888  12.043 -0.1086 -0.5097 -0.6704
   80TMC2    C5 1245   3.269   0.802  11.938 -0.0828 -0.4577 -0.4979
   80TMC2    C6 1246   3.380   0.794  11.868  0.2888 -0.1095  0.2843
   80TMC2     C 1247   3.361   1.051  12.195 -0.3179  0.5178  0.0912
   80TMC2     O 1248   3.474   1.077  12.233  0.4664 -0.0510 -0.3015
   80TMC2     H 1249   3.547   1.046  12.022  0.1234  0.5572 -2.4191
   80TMC2    H1 1250   3.157   0.897  12.090 -0.0113 -1.5677 -0.2714
   80TMC2    H2 1251   3.379   0.722  11.788  0.0580 -0.3933  0.5438
   80TMC2    C7 1252   3.161   0.710  11.910  0.0793  0.4595  1.0422
   80TMC2    C8 1253   3.598   0.888  11.818  0.1542 -0.2687 -0.3121
   80TMC2    O1 1254   3.140   0.692  11.790 -0.3244  0.2574  0.0748
   80TMC2    O2 1255   3.647   0.994  11.780 -0.0507 -0.1661  0.5004
   80TMC2    O5 1256   3.662   0.767  11.817 -0.0253  0.6599  0.2363
   80TMC2    H5 1257   3.610   0.708  11.876  1.6020 -1.2229 -0.2377
   81MPD2     C 1258   3.307   1.151  12.473  0.3536 -0.0837  0.5831
   81MPD2    C1 1259   3.210   1.136  12.371 -0.6252 -0.5557 -0.5893
   81MPD2    C2 1260   3.078   1.177  12.401  0.4527 -0.5683  0.6905
   81MPD2    C3 1261   3.038   1.220  12.521 -0.3465  0.3061  0.3731
   81MPD2    C4 1262   3.143   1.225  12.617  0.0207  0.3382 -0.7827
   81MPD2    C5 1263   3.276   1.186  12.595  0.4589 -0.3762 -0.0696
   81MPD2     H 1264   3.008   1.164  12.320  1.1066 -1.1660  0.2294
   81MPD2    H1 1265   3.120   1.260  12.717  1.9571  1.0858 -0.6125
   81MPD2    H2 1266   3.410   1.133  12.446 -0.5891 -0.9768 -2.4174
   81MPD2    H3 1267   3.354   1.197  12.670  0.8244 -0.4264 -0.4383
   81MPD2     N 1268   2.907   1.243  12.564  0.7138 -0.5945  0.1521
   81MPD2    H5 1269   2.902   1.264  12.663  1.8947  0.0299  0.0748
   81MPD2    N1 1270   3.241   1.086  12.243  0.5875 -0.1964  0.4170
   81MPD2    H7 1271   3.172   1.070  12.170 -0.4286  0.0235  1.3327
   82TMC2    C1 1272   1.401   0.393  10.745 -0.0963 -0.5305 -0.6064
   82TMC2    C2 1273   1.412   0.360  10.613 -0.2569 -0.3960  0.4533
   82TMC2    C3 1274   1.449   0.229  10.590  0.0830 -0.9062  0.3918
   82TMC2    C4 1275   1.458   0.321  10.844 -0.0441  0.1034  0.2704
   82TMC2    C5 1276   1.510   0.200  10.814  0.5146 -0.0880 -0.1117
   82TMC2    C6 1277   1.501   0.149  10.689 -0.2964 -0.6510 -0.9340
   82TMC2     C 1278   1.296   0.493  10.787  0.4838 -0.3230 -0.2223
   82TMC2     O 1279   1.227   0.542  10.702  0.1745  0.1539 -0.5072
   82TMC2     H 1280   1.371   0.422  10.535 -1.2527 -0.2322  1.1104
   82TMC2    H1 1281   1.442   0.340  10.950 -0.9541  0.2679  0.1056
   82TMC2    H2 1282   1.531   0.047  10.671  0.6175 -0.8984  2.1030
   82TMC2    C7 1283   1.499   0.102  10.921  0.0701 -0.0495  0.2187
   82TMC2    C8 1284   1.363   0.156  10.498  0.4113 -0.0511  1.0090
   82TMC2    O1 1285   1.384   0.061  10.935  0.4347  0.4136  0.0528
   82TMC2    O2 1286   1.251   0.195  10.479  0.1796 -0.5270  0.3306
   82TMC2    O5 1287   1.435   0.073  10.425 -0.2392 -0.6005 -0.6683
   82TMC2    H5 1288   1.532   0.077  10.443 -0.3913  0.7131 -0.1473
   83MPD2     C 1289   0.997   0.641  11.175  0.8176 -0.3516 -0.7765
   83MPD2    C1 1290   0.975   0.612  11.037  0.7309 -0.2051  0.2565
   83MPD2    C2 1291   1.074   0.577  10.952  0.4410  0.3449  0.9670
   83MPD2    C3 1292   1.196   0.553  11.006 -0.2277 -0.4718 -0.9019
   83MPD2    C4 1293   1.222   0.571  11.134  0.3693 -0.0639  0.5427
   83MPD2    C5 1294   1.121   0.609  11.222 -0.0923  0.0050  0.3988
   83MPD2     H 1295   1.053   0.549  10.849  1.7741 -1.8543  1.2947
   83MPD2    H1 1296   1.320   0.549  11.173 -0.7122 -2.6129  1.7798
   83MPD2    H2 1297   0.929   0.687  11.247 -0.7040 -0.4635 -2.1345
   83MPD2    H3 1298   1.144   0.626  11.326  0.6093 -0.2400  0.2870
   83MPD2     N 1299   1.297   0.509  10.922 -0.5538 -0.2461  0.2738
   83MPD2    H5 1300   1.370   0.461  10.974  1.5819  2.3603 -0.2965
   83MPD2    N1 1301   0.845   0.638  11.004  0.0672  0.1385 -0.2648
   83MPD2    H7 1302   0.784   0.665  11.080  0.7650 -1.3593  0.8126
   84TMC2    C1 1303   2.555   0.634  11.366 -0.0567  0.1571  0.8179
   84TMC2    C2 1304   2.537   0.499  11.392 -1.2854 -0.3551 -0.3147
   84TMC2    C3 1305   2.567   0.406  11.293 -0.0178 -0.0902 -0.2473
   84TMC2    C4 1306   2.599   0.679  11.245  0.1195  0.0825 -0.1270
   84TMC2    C5 1307   2.604   0.582  11.141  0.1956 -0.2832  0.9584
   84TMC2    C6 1308   2.601   0.452  11.171  0.5721  0.7165  0.7857
   84TMC2     C 1309   2.579   0.716  11.478  0.0498  0.3496  0.0408
   84TMC2     O 1310   2.520   0.681  11.582 -0.3082  0.1969 -0.2225
   84TMC2     H 1311   2.501   0.465  11.488  0.7592  0.8813  0.8888
   84TMC2    H1 1312   2.602   0.784  11.219  1.9622 -0.2090 -1.0892
   84TMC2    H2 1313   2.615   0.377  11.094  0.0655  0.5023  0.9025
   84TMC2    C7 1314   2.629   0.605  11.004  0.7785 -0.3384  0.5738
   84TMC2    C8 1315   2.503   0.275  11.300  0.2297  0.0123  0.4337
   84TMC2    O1 1316   2.585   0.518  10.927  0.3114  0.0184  0.0848
   84TMC2    O2 1317   2.452   0.222  11.202  0.0224 -0.0825  0.2539
   84TMC2    O5 1318   2.488   0.235  11.433 -0.1335  0.0929  0.3750
   84TMC2    H5 1319   2.544   0.288  11.494  1.1628  0.7924 -1.4110
   85TMC2    C1 1320   3.309   2.601  15.923  0.1403 -0.1588  0.6656
   85TMC2    C2 1321   3.251   2.701  15.850  0.5212 -0.3914  0.5342
   85TMC2    C3 1322   3.265   2.706  15.719 -0.5270 -0.0963 -0.4962
   85TMC2    C4 1323   3.401   2.509  15.869  0.0004 -0.6272 -0.1112
   85TMC2    C5 1324   3.433   2.538  15.743  0.2374  0.6502 -0.5344
   85TMC2    C6 1325   3.360   2.626  15.665 -0.0455  0.2299  0.2266
   85TMC2     C 1326   3.224   2.566  16.034 -0.5149  0.7807  0.1507
   85TMC2     O 1327   3.126   2.638  16.055 -0.5223  0.2240  0.4344
   85TMC2     H 1328   3.188   2.779  15.890 -0.5272 -0.1405 -1.5831
   85TMC2    H1 1329   3.434   2.413  15.907  0.3530 -0.3723  0.2304
   85TMC2    H2 1330   3.390   2.636  15.561 -1.9674 -2.3976 -0.5803
   85TMC2    C7 1331   3.516   2.439  15.684  0.4060  1.0412 -0.9475
   85TMC2    C8 1332   3.217   2.812  15.635 -0.3268 -1.0089  0.3093
   85TMC2    O1 1333   3.615   2.398  15.741 -0.1185 -0.1076  0.1167
   85TMC2    O2 1334   3.275   2.869  15.543 -0.2985 -0.0616  0.0417
   85TMC2    O5 1335   3.084   2.829  15.663  0.8997 -0.1835  0.2664
   85TMC2    H5 1336   3.049   2.766  15.730  0.3172  1.2800  1.3416
   86MPD2     C 1337   3.001   2.222  16.326  1.0372  0.3865  0.0503
   86MPD2    C1 1338   3.103   2.161  16.256  0.2691 -0.1812 -1.3103
   86MPD2    C2 1339   3.186   2.240  16.182 -0.4692 -0.1693 -0.1448
   86MPD2    C3 1340   3.173   2.371  16.174 -0.4970  0.3742 -0.0732
   86MPD2    C4 1341   3.075   2.429  16.242  0.4417  0.1279 -0.3948
   86MPD2    C5 1342   2.991   2.357  16.318 -0.2622  0.1694  0.2750
   86MPD2     H 1343   3.257   2.187  16.120 -2.3331  0.7880 -3.1077
   86MPD2    H1 1344   3.062   2.536  16.238  0.0959  0.0929 -0.2604
   86MPD2    H2 1345   2.923   2.177  16.386  0.6772 -0.1474 -0.8170
   86MPD2    H3 1346   2.898   2.398  16.355 -1.1863  0.2716 -2.1840
   86MPD2     N 1347   3.254   2.439  16.083  0.7572 -0.3961  0.0558
   86MPD2    H5 1348   3.334   2.383  16.053  2.0079  2.2422 -1.5284
   86MPD2    N1 1349   3.114   2.023  16.240  0.1222  0.0075  0.1384
   86MPD2    H7 1350   3.176   1.992  16.166  0.4847  2.7665 -0.7165
   87TMC2    C1 1351   1.447   0.233   1.500 -0.2989  0.5629  0.1188
   87TMC2    C2 1352   1.504   0.146   1.594 -0.3478  0.4247 -0.2498
   87TMC2    C3 1353   1.569   0.216   1.697  0.1785  0.6889  0.5628
   87TMC2    C4 1354   1.446   0.371   1.508  0.5810  0.4587  0.2062
   87TMC2    C5 1355   1.514   0.431   1.612  0.8597 -0.0195 -0.4127
   87TMC2    C6 1356   1.563   0.349   1.716 -0.3807  0.3816  0.5644
   87TMC2     C 1357   1.379   0.178   1.383  0.2211  0.4961  0.1950
   87TMC2     O 1358   1.361   0.258   1.291  0.3700  0.1500 -0.1363
   87TMC2     H 1359   1.513   0.040   1.572 -1.2345  0.4860 -0.9256
   87TMC2    H1 1360   1.390   0.432   1.438 -1.4986 -0.1890  1.2936
   87TMC2    H2 1361   1.616   0.390   1.802  2.0244 -1.0061 -0.2611
   87TMC2    C7 1362   1.492   0.573   1.624 -0.5252  0.4274 -0.1128
   87TMC2    C8 1363   1.652   0.150   1.788  0.0359  0.3873  0.8555
   87TMC2    O1 1364   1.447   0.625   1.524 -0.4168 -0.3370 -0.0447
   87TMC2    O2 1365   1.753   0.192   1.839 -0.7326 -0.3758  0.4164
   87TMC2    O5 1366   1.588   0.042   1.837 -0.0291 -0.1461  0.5276
   87TMC2    H5 1367   1.493   0.043   1.812 -0.5370  1.8512  2.5160
   88MPD2     C 1368   1.613   0.826   1.852  1.1256 -0.2629 -0.4668
   88MPD2    C1 1369   1.544   0.774   1.744 -0.3505  0.0373 -0.0239
   88MPD2    C2 1370   1.477   0.865   1.659  0.6241 -0.0797 -0.8707
   88MPD2    C3 1371   1.481   1.004   1.678 -0.5761 -0.4922 -0.2220
   88MPD2    C4 1372   1.553   1.054   1.788 -0.4110  0.2629  0.4460
   88MPD2    C5 1373   1.616   0.963   1.874 -0.2210  0.3509  0.3638
   88MPD2     H 1374   1.432   0.830   1.567  1.3464 -1.5291 -0.6632
   88MPD2    H1 1375   1.556   1.160   1.811 -1.0565 -0.0938  2.2136
   88MPD2    H2 1376   1.672   0.763   1.917  0.0861 -0.6032  0.1466
   88MPD2    H3 1377   1.672   1.002   1.958  0.8145  1.5027 -0.8732
   88MPD2     N 1378   1.409   1.083   1.591 -0.0151 -0.0164 -0.3038
   88MPD2    H5 1379   1.343   1.036   1.530  1.9883 -2.3758 -0.6831
   88MPD2    N1 1380   1.546   0.635   1.728 -0.4206  0.1014  0.4662
   88MPD2    H7 1381   1.592   0.573   1.794 -1.1426 -0.3287  0.5550
   89TMC2    C1 1382   1.812   3.748   1.827  0.5463  0.3412 -0.0084
   89TMC2    C2 1383   1.909   3.811   1.908  0.0750 -0.1354 -0.5774
   89TMC2    C3 1384   1.974   3.921   1.861 -0.7427  0.0078 -0.8675
   89TMC2    C4 1385   1.780   3.794   1.700 -0.3078  0.9329  1.1025
   89TMC2    C5 1386   1.849   3.904   1.658 -0.0983  0.3194  0.6321
   89TMC2    C6 1387   1.948   3.965   1.730 -0.3824 -0.5289 -0.0241
   89TMC2     C 1388   1.716   3.668   1.892 -0.3500 -0.6811  0.3290
   89TMC2     O 1389   1.693   3.689   2.010 -0.2793 -0.8179 -0.7196
   89TMC2     H 1390   1.927   3.788   2.013 -1.5604 -1.2589 -0.5594
   89TMC2    H1 1391   1.681   3.781   1.657 -0.3181  0.0908  1.3841
   89TMC2    H2 1392   2.013   4.044   1.693  0.3595 -1.1755 -0.1106
   89TMC2    C7 1393   1.834   3.935   1.517 -0.2542  0.5817 -0.2842
   89TMC2    C8 1394   2.096   3.967   1.913  0.4342  0.0025 -0.3469
   89TMC2    O1 1395   1.773   3.850   1.448  0.4164 -0.3639 -0.4638
   89TMC2    O2 1396   2.190   4.006   1.840  0.3085  0.7489  0.4150
   89TMC2    O5 1397   2.081   4.002   2.043 -0.3807 -0.2572 -0.1524
   89TMC2    H5 1398   1.992   3.982   2.079  0.3882  0.2660  2.0522
   90MPD2     C 1399   1.387   3.276   1.872  0.0087 -0.0597 -0.3523
   90MPD2    C1 1400   1.474   3.264   1.768 -0.4209  0.7136 -0.4392
   90MPD2    C2 1401   1.557   3.366   1.743 -0.0329  0.1273  0.3518
   90MPD2    C3 1402   1.577   3.474   1.827  0.3200  0.0633  0.1995
   90MPD2    C4 1403   1.497   3.483   1.940 -0.5850  0.1355  0.5004
   90MPD2    C5 1404   1.398   3.391   1.960  0.0925 -0.6560  0.1463
   90MPD2     H 1405   1.625   3.356   1.659  0.7667 -2.2315  1.2868
   90MPD2    H1 1406   1.512   3.553   2.021 -0.5910  1.1137 -0.3527
   90MPD2    H2 1407   1.328   3.189   1.899  0.8008  0.0472  1.7169
   90MPD2    H3 1408   1.335   3.398   2.048  0.8605 -0.2623  0.6617
   90MPD2     N 1409   1.677   3.569   1.797  0.0938 -0.2307 -0.1741
   90MPD2    H5 1410   1.723   3.569   1.706 -0.9191  2.2338 -0.6825
   90MPD2    N1 1411   1.485   3.148   1.686  0.4388 -0.5025  0.6223
   90MPD2    H7 1412   1.565   3.139   1.624  0.4176  1.7409  0.2549
   91TMC2    C1 1413   2.918   3.470  16.486 -0.3939 -0.7868  0.0077
   91TMC2    C2 1414   3.021   3.460  16.574 -0.2808 -0.0918  0.0603
   91TMC2    C3 1415   2.990   3.427  16.704 -0.3168  0.0003 -0.4137
   91TMC2    C4 1416   2.788   3.433  16.513 -0.2000  0.4019 -0.4713
   91TMC2    C5 1417   2.766   3.391  16.649  0.0260  0.0308  0.0895
   91TMC2    C6 1418   2.865   3.394  16.751  0.4527 -0.4151 -0.0951
   91TMC2     C 1419   2.949   3.506  16.347  0.4210 -0.2825 -0.3578
   91TMC2     O 1420   2.853   3.545  16.282  0.4757 -0.5843  0.5466
   91TMC2     H 1421   3.121   3.494  16.551  0.1048 -0.2729  1.4800
   91TMC2    H1 1422   2.717   3.425  16.433 -0.8214  2.4705 -0.1263
   91TMC2    H2 1423   2.845   3.360  16.852  1.6864  0.1548  0.3373
   91TMC2    C7 1424   2.690   3.269  16.676 -0.7326 -0.3615 -0.3376
   91TMC2    C8 1425   3.095   3.402  16.797  1.2288  0.0987 -0.8099
   91TMC2    O1 1426   2.723   3.188  16.760 -0.1802  0.2636  0.2514
   91TMC2    O2 1427   3.088   3.301  16.865 -0.3625  0.1057 -0.3891
   91TMC2    O5 1428   3.207   3.469  16.757  0.0353  0.4219  0.1636
   91TMC2    H5 1429   3.180   3.554  16.717 -0.1793  2.2773  4.2373
   92MPD2     C 1430   3.037   3.486  16.073  0.3153  0.1980 -0.0330
   92MPD2    C1 1431   3.119   3.454  16.177 -0.6608  0.0670  0.3998
   92MPD2    C2 1432   3.243   3.409  16.148  0.2733 -0.5559  0.6441
   92MPD2    C3 1433   3.285   3.385  16.018 -0.2974 -0.3042 -0.2939
   92MPD2    C4 1434   3.192   3.391  15.920 -0.7453 -0.4465  0.0276
   92MPD2    C5 1435   3.072   3.444  15.949 -0.6046  0.6787 -0.5212
   92MPD2     H 1436   3.320   3.399  16.224 -0.3669  0.0759  1.3856
   92MPD2    H1 1437   3.207   3.364  15.816  2.0261 -0.6507  0.4838
   92MPD2    H2 1438   2.950   3.550  16.087  2.3435  2.5161  1.8845
   92MPD2    H3 1439   3.000   3.448  15.868 -0.1808 -0.8878 -0.9783
   92MPD2     N 1440   3.413   3.335  15.995  0.0262  0.0803 -0.4959
   92MPD2    H5 1441   3.471   3.339  16.079 -0.6559  0.9661 -0.0655
   92MPD2    N1 1442   3.081   3.479  16.314 -0.0156 -0.1237  0.6140
   92MPD2    H7 1443   3.142   3.437  16.384  1.6459  2.5945  0.7779
   93TMC2    C1 1444   0.294   3.575  14.043  0.3851 -0.2735  0.1924
   93TMC2    C2 1445   0.223   3.676  13.983 -0.4050  0.3398 -0.3341
   93TMC2    C3 1446   0.300   3.771  13.924 -0.7156 -0.3213 -0.8006
   93TMC2    C4 1447   0.428   3.577  14.049  0.1523 -0.2886  0.0233
   93TMC2    C5 1448   0.500   3.681  13.991  0.7002  0.0830 -0.4256
   93TMC2    C6 1449   0.437   3.785  13.932 -0.0917 -0.6615 -0.3440
   93TMC2     C 1450   0.233   3.440  14.083 -0.3848  0.7124 -0.1254
   93TMC2     O 1451   0.299   3.358  14.144  0.7023  0.0352 -0.1368
   93TMC2     H 1452   0.115   3.675  13.990 -0.4535 -0.0359 -1.1829
   93TMC2    H1 1453   0.480   3.486  14.078  1.4706 -0.0338 -1.5252
   93TMC2    H2 1454   0.484   3.880  13.910 -0.0186 -0.6353 -0.0685
   93TMC2    C7 1455   0.633   3.645  13.947 -0.3752 -0.3106 -0.3485
   93TMC2    C8 1456   0.238   3.885  13.868  0.3893 -0.5074  0.0086
   93TMC2    O1 1457   0.698   3.547  13.987 -0.1456  0.0568  0.0494
   93TMC2    O2 1458   0.285   3.999  13.886  0.1542 -0.0913 -0.1185
   93TMC2    O5 1459   0.115   3.854  13.832 -0.1983 -0.4706 -0.4212
   93TMC2    H5 1460   0.120   3.766  13.790  0.4346 -0.5120 -0.2545
   94MPD2     C 1461   0.065   3.189  14.076  0.7561 -0.0667 -0.4573
   94MPD2    C1 1462   0.045   3.301  13.998  0.5152  0.1943  0.1267
   94MPD2    C2 1463   4.686   3.303  13.901  0.0380  0.2290  0.2222
   94MPD2    C3 1464   4.600   3.193  13.895  1.5276 -0.2061  0.1889
   94MPD2    C4 1465   4.616   3.087  13.979 -0.1832 -0.6781 -0.4921
   94MPD2    C5 1466   4.720   3.081  14.071 -0.5685 -0.1316 -0.0532
   94MPD2     H 1467   4.667   3.392  13.843  0.6310  1.9387  2.6826
   94MPD2    H1 1468   4.543   3.007  13.978 -1.9512  0.8889  0.9570
   94MPD2    H2 1469   0.145   3.181  14.148  0.1829 -1.1552  0.0576
   94MPD2    H3 1470   4.723   3.002  14.145 -0.1101  0.4017  0.4993
   94MPD2     N 1471   4.498   3.198  13.803 -0.2367 -0.1191  0.4471
   94MPD2    H5 1472   4.426   3.129  13.821  1.5689 -1.9082  0.8752
   94MPD2    N1 1473   0.126   3.415  14.001 -0.1095  0.1181 -0.2265
   94MPD2    H7 1474   0.097   3.499  13.952 -2.0712  0.0379  0.7985
   95TMC2    C1 1475   0.564   0.962  16.195  0.3903  0.1933 -0.3235
   95TMC2    C2 1476   0.660   1.017  16.277 -0.0161 -0.7194 -0.6076
   95TMC2    C3 1477   0.609   1.098  16.377  0.0831 -0.5053 -0.5845
   95TMC2    C4 1478   0.426   0.989  16.204 -0.1432 -0.1813  0.8489
   95TMC2    C5 1479   0.391   1.082  16.290  0.0821 -0.2703  0.5861
   95TMC2    C6 1480   0.477   1.137  16.384 -0.0726  0.0626 -0.7702
   95TMC2     C 1481   0.612   0.906  16.071 -0.5041  1.2127  0.4956
   95TMC2     O 1482   0.728   0.930  16.037  0.1359 -0.1294 -0.4839
   95TMC2     H 1483   0.759   0.972  16.269  0.6484  0.5218  0.6279
   95TMC2    H1 1484   0.358   0.952  16.129  1.9941 -1.4415 -0.4871
   95TMC2    H2 1485   0.456   1.201  16.469  0.5025 -1.1175  0.2618
   95TMC2    C7 1486   0.254   1.130  16.280 -0.5415 -0.2660  0.0323
   95TMC2    C8 1487   0.696   1.131  16.495 -0.1217 -0.6861 -1.3347
   95TMC2    O1 1488   0.198   1.154  16.389  0.1789  0.1395  0.5116
   95TMC2    O2 1489   0.639   1.170  16.598 -0.0751  0.2406 -0.5650
   95TMC2    O5 1490   0.824   1.134  16.459  0.2819  0.2805 -0.1314
   95TMC2    H5 1491   0.841   1.118  16.364  1.2003 -1.2416  0.2958
   96MPD2     C 1492   0.510   0.671  15.629 -0.2901 -0.1533  0.1246
   96MPD2    C1 1493   0.614   0.757  15.663 -0.6324  0.2658 -0.5586
   96MPD2    C2 1494   0.613   0.801  15.799 -0.3782  0.1157 -0.6495
   96MPD2    C3 1495   0.533   0.752  15.894  0.2162  0.2180  0.4936
   96MPD2    C4 1496   0.437   0.657  15.856  0.4424  0.2754 -0.7255
   96MPD2    C5 1497   0.433   0.606  15.727 -0.4430  0.3072  0.3429
   96MPD2     H 1498   0.688   0.872  15.832 -1.6518  1.4658 -0.6532
   96MPD2    H1 1499   0.362   0.617  15.924 -1.7659  0.0656 -3.2754
   96MPD2    H2 1500   0.488   0.635  15.529  0.3226  2.1906 -0.8440
   96MPD2    H3 1501   0.363   0.532  15.691  0.0730 -0.4655  0.9448
   96MPD2     N 1502   0.522   0.814  16.022 -0.2267 -0.7796 -0.0346
   96MPD2    H5 1503   0.441   0.782  16.075 -0.9588 -0.4770 -0.9608
   96MPD2    N1 1504   0.703   0.799  15.564 -0.2633  0.1699 -1.2352
   96MPD2    H7 1505   0.682   0.783  15.466 -0.8214 -0.6270 -0.9860
   97TMC2    C1 1506   2.858   2.395   0.160 -0.1620  0.5876 -0.1628
   97TMC2    C2 1507   2.987   2.386   0.114 -0.3129 -0.1918  0.5091
   97TMC2    C3 1508   3.040   2.499   0.050 -0.1396  0.8197  0.0588
   97TMC2    C4 1509   2.789   2.522   0.151 -0.6926 -0.2776 -0.4900
   97TMC2    C5 1510   2.850   2.630   0.088 -0.3802  0.3817 -0.1771
   97TMC2    C6 1511   2.978   2.623   0.052 -0.1851  0.1857 -0.5017
   97TMC2     C 1512   2.826   2.320   0.279 -0.4066  0.0367 -0.0432
   97TMC2     O 1513   2.754   2.377   0.360  1.0252 -0.4104  0.3377
   97TMC2     H 1514   3.043   2.293   0.120  1.7870  1.1031  1.0944
   97TMC2    H1 1515   2.692   2.530   0.199  0.4877  1.6180  1.5830
   97TMC2    H2 1516   3.035   2.708   0.018  0.6964 -0.8703 -1.6489
   97TMC2    C7 1517   2.787   2.762   0.102  0.2063  0.3028  0.0796
   97TMC2    C8 1518   3.189   2.492   0.037 -0.0870  0.5336 -0.1762
   97TMC2    O1 1519   2.666   2.778   0.100  0.4896 -0.1970  0.3079
   97TMC2    O2 1520   3.256   2.588   0.078  0.2833 -0.0500 -0.2019
   97TMC2    O5 1521   3.235   2.375  17.724 -0.1413  0.0017 -0.4850
   97TMC2    H5 1522   3.167   2.314  17.688 -2.0029  1.7669 -0.0260
   98MPD2     C 1523   2.791   1.862   0.502  0.3922  0.1136 -0.0260
   98MPD2    C1 1524   2.763   1.988   0.557  0.6448 -0.2479  0.2087
   98MPD2    C2 1525   2.782   2.103   0.481  0.3889  0.0130 -0.6991
   98MPD2    C3 1526   2.846   2.080   0.354 -0.4676 -0.9403  0.0810
   98MPD2    C4 1527   2.879   1.958   0.311  0.0242 -0.6431 -0.1828
   98MPD2    C5 1528   2.852   1.850   0.384  0.2062 -0.1150 -0.7579
   98MPD2     H 1529   2.759   2.203   0.515 -0.3173 -0.6508  0.8080
   98MPD2    H1 1530   2.935   1.933   0.221 -0.2913  2.2406 -1.1656
   98MPD2    H2 1531   2.789   1.768   0.556  0.3140  0.3372  0.3617
   98MPD2    H3 1532   2.887   1.752   0.356 -0.7436 -0.2188 -1.5707
   98MPD2     N 1533   2.867   2.186   0.267  0.7535 -0.3405 -0.5525
   98MPD2    H5 1534   2.907   2.170   0.175  1.6265  1.5898 -0.5065
   98MPD2    N1 1535   2.709   1.989   0.684  0.4583 -0.0085 -0.1507
   98MPD2    H7 1536   2.710   1.902   0.737 -0.2692 -0.7897 -1.4270
   99TMC2    C1 1537   1.122   3.503   2.231 -0.6024 -0.1557 -0.0851
   99TMC2    C2 1538   1.149   3.436   2.346 -0.7536 -0.7835 -0.2636
   99TMC2    C3 1539   1.056   3.345   2.394  0.5857 -0.3203  0.2258
   99TMC2    C4 1540   1.015   3.465   2.154 -0.2218  0.9516 -0.3621
   99TMC2    C5 1541   0.922   3.382   2.209  0.1218  0.3686  0.1622
   99TMC2    C6 1542   0.938   3.312   2.332 -0.2425  0.6886 -0.3101
   99TMC2     C 1543   1.205   3.620   2.202  0.3283 -0.0066 -0.4057
   99TMC2     O 1544   1.295   3.651   2.278  0.1701  0.4998 -0.2233
   99TMC2     H 1545   1.240   3.456   2.402 -1.3682  2.1174 -0.2743
   99TMC2    H1 1546   0.990   3.536   2.076 -4.4768 -1.3461 -1.0892
   99TMC2    H2 1547   0.863   3.244   2.372 -0.5340  1.3818  0.3417
   99TMC2    C7 1548   0.821   3.329   2.124 -0.8079 -0.8144 -0.2543
   99TMC2    C8 1549   1.104   3.252   2.501  0.4141 -0.4015  0.4460
   99TMC2    O1 1550   0.741   3.249   2.176  0.4752 -0.5279  0.2695
   99TMC2    O2 1551   1.222   3.225   2.512  0.0730 -0.2633  0.1099
   99TMC2    O5 1552   1.010   3.237   2.597  0.3325  0.3227  0.0936
   99TMC2    H5 1553   0.927   3.286   2.582 -0.7067 -1.1831  0.8390
  100MPD2     C 1554   1.349   3.839   2.054 -0.0728 -0.0497  0.6608
  100MPD2    C1 1555   1.271   3.739   1.995  0.2602 -0.8531  0.0105
  100MPD2    C2 1556   1.275   3.725   1.859  0.8913 -0.3826  0.0948
  100MPD2    C3 1557   1.362   3.809   1.785  0.4384 -0.3904  0.7831
  100MPD2    C4 1558   1.440   3.904   1.840  0.5836  0.2549 -0.0401
  100MPD2    C5 1559   1.435   3.911   1.978  0.3310  0.4264  0.2175
  100MPD2     H 1560   1.226   3.643   1.809  0.2790  0.6214 -0.9445
  100MPD2    H1 1561   1.481   3.988   1.785  1.8448  0.1727  0.7728
  100MPD2    H2 1562   1.347   3.858   2.161  2.7424 -1.0174  0.9000
  100MPD2    H3 1563   1.477   4.002   2.019  1.1082  0.2805 -0.2679
  100MPD2     N 1564   1.343   3.789   1.644 -0.3503 -0.0044  0.0213
  100MPD2    H5 1565   1.297   3.703   1.615 -1.0729 -0.7750  3.4428
  100MPD2    N1 1566   1.196   3.647   2.069  0.5687  0.6421  0.2706
  100MPD2    H7 1567   1.151   3.578   2.010  2.5282  0.1431 -0.6312
  101TMC2    C1 1568   1.940   1.189  13.385 -0.4405 -1.1635 -0.4706
  101TMC2    C2 1569   1.856   1.264  13.461 -0.4253  0.5755 -0.8289
  101TMC2    C3 1570   1.898   1.391  13.477  0.5194  0.6932  0.7064
  101TMC2    C4 1571   2.054   1.236  13.317 -0.0705  0.1093  0.1550
  101TMC2    C5 1572   2.082   1.367  13.337  0.4567  0.4741 -0.2564
  101TMC2    C6 1573   1.998   1.452  13.405 -0.1214 -0.2841  0.4894
  101TMC2     C 1574   1.909   1.048  13.372  0.6437 -0.2355  0.0161
  101TMC2     O 1575   1.786   1.023  13.365  0.5161 -0.2547 -0.1266
  101TMC2     H 1576   1.770   1.229  13.516 -1.0563  1.9437 -0.9432
  101TMC2    H1 1577   2.123   1.166  13.271 -0.5232 -0.9628  1.1089
  101TMC2    H2 1578   2.014   1.558  13.419  3.3616 -0.9873  1.8143
  101TMC2    C7 1579   2.194   1.423  13.260  0.2505 -0.1057  0.3506
  101TMC2    C8 1580   1.830   1.473  13.575 -0.1128  0.4256 -0.0842
  101TMC2    O1 1581   2.260   1.347  13.195  0.3003  0.0644 -0.0927
  101TMC2    O2 1582   1.820   1.598  13.565  0.1842  1.2029 -0.1796
  101TMC2    O5 1583   1.816   1.408  13.690  0.5136  0.1114 -0.1311
  101TMC2    H5 1584   1.869   1.325  13.696 -1.2266 -1.1849 -2.8804
  102MPD2     C 1585   2.078   0.770  13.208 -0.5698  0.1259 -0.4294
  102MPD2    C1 1586   1.975   0.832  13.282 -0.6173 -0.3824  0.6122
  102MPD2    C2 1587   1.862   0.760  13.314  0.1129  0.6090 -0.2838
  102MPD2    C3 1588   1.834   0.639  13.252 -0.2121  0.0532  0.3691
  102MPD2    C4 1589   1.933   0.588  13.167 -0.1363  0.5594 -0.5246
  102MPD2    C5 1590   2.053   0.647  13.152  0.7062 -0.0613 -0.0386
  102MPD2     H 1591   1.791   0.793  13.389 -1.6421 -2.1897 -0.6902
  102MPD2    H1 1592   1.912   0.491  13.123  0.1443  0.3464 -0.1877
  102MPD2    H2 1593   2.174   0.818  13.196 -0.3019 -0.2529  0.1941
  102MPD2    H3 1594   2.131   0.596  13.097  1.0035  0.3611 -0.0115
  102MPD2     N 1595   1.710   0.578  13.286 -0.1778  0.4780 -0.5453
  102MPD2    H5 1596   1.656   0.628  13.355 -1.2006 -0.6895 -0.4883
  102MPD2    N1 1597   2.008   0.962  13.330  0.1841  0.5107 -0.1577
  102MPD2    H7 1598   2.106   0.989  13.328  0.1012  1.0028  2.1300
  103TMC2    C1 1599   0.288   1.391  12.476 -0.5995 -0.0369 -0.7690
  103TMC2    C2 1600   0.295   1.519  12.442  0.9050  0.2763  0.1988
  103TMC2    C3 1601   0.278   1.623  12.537 -0.6952 -0.0257 -0.1656
  103TMC2    C4 1602   0.278   1.352  12.609  0.9715  0.4151  0.5126
  103TMC2    C5 1603   0.261   1.451  12.701 -0.2220 -0.0548 -0.3669
  103TMC2    C6 1604   0.264   1.586  12.669 -0.0619  0.4049  0.0301
  103TMC2     C 1605   0.234   1.299  12.372  0.0294  0.4797  0.3860
  103TMC2     O 1606   0.177   1.346  12.277 -0.0206  0.5069  0.2704
  103TMC2     H 1607   0.294   1.529  12.334  0.6603 -1.7021  0.0165
  103TMC2    H1 1608   0.267   1.249  12.642  0.0241 -0.0055 -1.1131
  103TMC2    H2 1609   0.230   1.668  12.731 -2.9866 -0.9254  0.2040
  103TMC2    C7 1610   0.213   1.408  12.835 -0.8582 -0.7004  0.1507
  103TMC2    C8 1611   0.212   1.739  12.493 -0.5703  0.1526  0.2927
  103TMC2    O1 1612   0.178   1.290  12.842 -0.7177 -0.4620 -0.0398
  103TMC2    O2 1613   0.117   1.782  12.553 -0.1793 -0.0549  0.2192
  103TMC2    O5 1614   0.253   1.764  12.365  0.1806 -0.0419  0.0191
  103TMC2    H5 1615   0.349   1.750  12.353  0.3283 -0.2917  1.4177
  104MPD2     C 1616   0.273   0.932  12.353 -0.1211 -0.2311  0.1176
  104MPD2    C1 1617   0.216   1.053  12.328 -0.3083 -0.0344  0.6548
  104MPD2    C2 1618   0.105   1.062  12.238 -0.5374  0.0466 -0.1725
  104MPD2    C3 1619   0.058   0.951  12.177 -0.0765 -1.1148 -0.2490
  104MPD2    C4 1620   0.127   0.832  12.193 -1.0737  0.1078 -0.0913
  104MPD2    C5 1621   0.231   0.826  12.279  0.2060 -0.1746 -0.0131
  104MPD2     H 1622   0.057   1.157  12.221 -2.6846 -0.9767  0.2139
  104MPD2    H1 1623   0.093   0.737  12.153  0.3321  0.6641 -2.5756
  104MPD2    H2 1624   0.357   0.920  12.420 -0.6933  0.2195  0.9154
  104MPD2    H3 1625   0.289   0.735  12.286  1.6681  0.7424 -0.2131
  104MPD2     N 1626   4.675   0.963  12.097  0.3686 -0.1370  0.5234
  104MPD2    H5 1627   4.635   1.056  12.093 -0.8218 -0.5440  2.5649
  104MPD2    N1 1628   0.263   1.169  12.401  0.7359 -0.0510  0.5341
  104MPD2    H7 1629   0.330   1.154  12.475  1.9155 -0.6318 -0.6589
  105TMC2    C1 1630   1.280   4.604   0.494  0.1557 -0.1261 -0.4473
  105TMC2    C2 1631   1.291   4.737   0.471 -0.1738  0.3788  0.0978
  105TMC2    C3 1632   1.251   0.094   0.561  0.4189  0.5912 -0.0592
  105TMC2    C4 1633   1.231   4.562   0.617  0.1152  0.7844  0.3779
  105TMC2    C5 1634   1.188   4.662   0.705 -0.1585 -0.5986  0.3785
  105TMC2    C6 1635   1.195   0.058   0.682 -0.7391 -0.8130 -0.6629
  105TMC2     C 1636   1.276   4.511   0.376  0.2901 -0.1020  0.4901
  105TMC2     O 1637   1.227   4.403   0.405 -0.6758  0.0969  0.0238
  105TMC2     H 1638   1.334   0.036   0.379 -1.7484 -1.1716 -1.2323
  105TMC2    H1 1639   1.213   4.457   0.636  0.9105  0.4700 -0.6083
  105TMC2    H2 1640   1.143   0.130   0.745  1.6308 -0.5584  1.0006
  105TMC2    C7 1641   1.159   4.618   0.843  0.2943 -0.1665 -0.1757
  105TMC2    C8 1642   1.257   0.240   0.543 -0.3724 -0.2641  0.4167
  105TMC2    O1 1643   1.119   4.501   0.850  0.3194 -0.1041  0.3491
  105TMC2    O2 1644   1.254   0.318   0.636  0.8796 -0.1207 -0.0091
  105TMC2    O5 1645   1.244   0.278   0.415  0.3037 -1.2004  0.4383
  105TMC2    H5 1646   1.248   0.197   0.360  0.3571 -2.2559  1.9987
  106MPD2     C 1647   1.413   4.380  17.636 -0.0258 -0.0018  0.3780
  106MPD2    C1 1648   1.438   4.510  17.656 -0.4160 -0.3869  0.2945
  106MPD2    C2 1649   1.386   4.569   0.024  0.0371  0.6969  0.3731
  106MPD2    C3 1650   1.334   4.496   0.129  0.7171  0.4527  0.6247
  106MPD2    C4 1651   1.306   4.367   0.103  0.0264 -0.9416 -0.1062
  106MPD2    C5 1652   1.340   4.307  17.732 -0.9989 -0.0112  0.1741
  106MPD2     H 1653   1.413   4.674   0.033  3.1535 -0.1733  1.1323
  106MPD2    H1 1654   1.246   4.308   0.171 -1.8780  0.8871 -0.2246
  106MPD2    H2 1655   1.466   4.323  17.561 -1.3555 -1.2580  0.3881
  106MPD2    H3 1656   1.337   4.198  17.731 -1.9285  0.0316 -1.0911
  106MPD2     N 1657   1.309   4.565   0.254  0.4091  0.4072 -0.5426
  106MPD2    H5 1658   1.343   4.661   0.252  1.3740  0.0474 -1.4401
  106MPD2    N1 1659   1.522   4.594  17.577  0.4605  0.4514 -0.8206
  106MPD2    H7 1660   1.526   4.687  17.616  1.9477  1.0573 -2.4387
  107TMC2    C1 1661   2.624   0.631  12.177  0.1277 -0.2485 -0.9025
  107TMC2    C2 1662   2.667   0.637  12.307  0.9739 -0.1562 -0.3855
  107TMC2    C3 1663   2.768   0.728  12.337  0.5989  0.1795  0.3059
  107TMC2    C4 1664   2.679   0.705  12.078  0.2815 -0.0594  0.1505
  107TMC2    C5 1665   2.765   0.802  12.116  0.2509 -0.3061  1.0687
  107TMC2    C6 1666   2.811   0.816  12.247  0.0932 -0.5694  0.2163
  107TMC2     C 1667   2.522   0.524  12.143  0.8301 -0.5611 -0.7697
  107TMC2     O 1668   2.483   0.453  12.233 -0.3717  0.5916 -0.4877
  107TMC2     H 1669   2.626   0.576  12.388  0.4844  1.4983  0.6198
  107TMC2    H1 1670   2.660   0.684  11.973  1.7622  2.4596 -0.6349
  107TMC2    H2 1671   2.880   0.894  12.278  0.6896 -1.4201  1.0412
  107TMC2    C7 1672   2.819   0.894  12.022  0.4808  0.8153  0.1019
  107TMC2    C8 1673   2.793   0.744  12.480  0.0105  0.4383  0.4057
  107TMC2    O1 1674   2.925   0.942  12.051 -0.7464  1.2212  0.3643
  107TMC2    O2 1675   2.790   0.646  12.549 -0.3977 -0.4426  0.2522
  107TMC2    O5 1676   2.736   0.862  12.520  0.2350  0.1902 -0.3665
  107TMC2    H5 1677   2.689   0.907  12.446  0.5309  0.5097 -0.3606
  108MPD2     C 1678   2.428   0.440  11.802  0.0596 -0.2060  0.1576
  108MPD2    C1 1679   2.419   0.434  11.940 -0.4216  0.0786  0.1240
  108MPD2    C2 1680   2.334   0.338  11.997  0.6534 -0.4503  0.7125
  108MPD2    C3 1681   2.245   0.267  11.918 -0.2649  0.7488 -0.0412
  108MPD2    C4 1682   2.240   0.290  11.781  0.9421  0.2545  0.1022
  108MPD2    C5 1683   2.335   0.371  11.731  0.0577  0.0668  0.0755
  108MPD2     H 1684   2.322   0.334  12.105 -0.4958 -2.7931  0.4919
  108MPD2    H1 1685   2.175   0.243  11.709 -1.4656  1.0067  1.7784
  108MPD2    H2 1686   2.497   0.496  11.741  0.4363  0.6314  1.3491
  108MPD2    H3 1687   2.328   0.391  11.625 -2.2542 -0.6956  0.0893
  108MPD2     N 1688   2.146   0.190  11.976  0.2747 -0.1337 -0.0584
  108MPD2    H5 1689   2.061   0.178  11.922  0.3830  2.5566 -0.8147
  108MPD2    N1 1690   2.503   0.519  12.007 -0.2109  0.0835 -0.6894
  108MPD2    H7 1691   2.555   0.589  11.954  1.8882 -0.3828  0.7362
  109TMC2    C1 1692   1.973   2.490   0.686  0.1298 -0.3293 -0.4783
  109TMC2    C2 1693   2.072   2.585   0.672  0.9521  0.1490 -0.1765
  109TMC2    C3 1694   2.199   2.535   0.655  0.1730 -0.9005 -0.3830
  109TMC2    C4 1695   2.006   2.358   0.680  0.3088 -0.2798 -0.1005
  109TMC2    C5 1696   2.131   2.320   0.648  0.5922 -0.9613  0.5959
  109TMC2    C6 1697   2.227   2.408   0.634 -0.3157 -0.5295 -0.2595
  109TMC2     C 1698   1.864   2.534   0.773  0.2590 -0.1960 -0.2017
  109TMC2     O 1699   1.855   2.655   0.795  0.5264  0.1881  0.9410
  109TMC2     H 1700   2.067   2.690   0.701 -0.6292  0.1118 -0.3235
  109TMC2    H1 1701   1.935   2.278   0.697 -1.2906  1.7853  2.9862
  109TMC2    H2 1702   2.328   2.369   0.621  0.3079  1.4983 -1.4747
  109TMC2    C7 1703   2.169   2.179   0.668 -0.6950 -0.5969 -0.1662
  109TMC2    C8 1704   2.298   2.626   0.610 -0.3363  0.2787 -0.6188
  109TMC2    O1 1705   2.102   2.112   0.748 -0.4289 -0.5554 -0.3901
  109TMC2    O2 1706   2.283   2.745   0.632  0.0574 -0.1894 -0.5649
  109TMC2    O5 1707   2.342   2.569   0.496 -0.0670  0.1410 -0.7246
  109TMC2    H5 1708   2.332   2.471   0.488  0.0211  0.0205  0.7579
  110MPD2     C 1709   1.501   2.402   1.117 -0.1900  0.2817 -0.2904
  110MPD2    C1 1710   1.561   2.289   1.066  0.7871  0.3605 -0.8114
  110MPD2    C2 1711   1.661   2.305   0.979 -0.2225 -0.4134  0.3403
  110MPD2    C3 1712   1.709   2.427   0.937  0.3221  0.3550  0.1422
  110MPD2    C4 1713   1.648   2.546   0.986  0.1302  0.3044  1.0800
  110MPD2    C5 1714   1.556   2.530   1.092 -0.2272 -0.2223 -0.3702
  110MPD2     H 1715   1.708   2.212   0.949 -1.2117 -0.1295 -2.1335
  110MPD2    H1 1716   1.691   2.645   0.974  2.4978 -0.7529  0.8314
  110MPD2    H2 1717   1.414   2.396   1.181 -0.2430 -1.8307 -0.5648
  110MPD2    H3 1718   1.513   2.623   1.127 -0.4727 -0.6094  0.3459
  110MPD2     N 1719   1.807   2.429   0.833  0.1334  0.5298  0.8417
  110MPD2    H5 1720   1.845   2.342   0.797  0.5544  0.5955  1.1284
  110MPD2    N1 1721   1.503   2.163   1.101  0.4427 -0.9011  0.2026
  110MPD2    H7 1722   1.433   2.172   1.174  0.0125  0.6718 -0.3998
  111TMC2    C1 1723   2.025   2.173  11.900 -0.7228  0.2306  0.0110
  111TMC2    C2 1724   1.980   2.275  11.977 -0.1268  0.0807 -0.0614
  111TMC2    C3 1725   2.026   2.276  12.106 -0.6817  0.3903  0.0006
  111TMC2    C4 1726   2.127   2.090  11.938 -0.3815  0.4122  0.0328
  111TMC2    C5 1727   2.164   2.097  12.069 -0.1386 -0.1007 -0.6461
  111TMC2    C6 1728   2.118   2.189  12.160 -0.0059 -0.4826  0.3171
  111TMC2     C 1729   1.935   2.112  11.808  0.2044 -0.6555  0.3595
  111TMC2     O 1730   1.977   2.051  11.710  0.1766  0.3507 -0.3615
  111TMC2     H 1731   1.892   2.336  11.961  0.7133  0.8038 -1.8532
  111TMC2    H1 1732   2.146   1.998  11.885  1.2921 -1.5216  4.0302
  111TMC2    H2 1733   2.142   2.185  12.266  3.6611  0.6037 -0.4732
  111TMC2    C7 1734   2.273   2.015  12.116  0.2819 -0.0008 -1.2322
  111TMC2    C8 1735   1.971   2.384  12.187 -0.1831  1.0327 -0.9157
  111TMC2    O1 1736   2.285   2.022  12.237  0.4625  0.3216 -0.4656
  111TMC2    O2 1737   1.943   2.488  12.136 -0.2223  0.5344 -0.4879
  111TMC2    O5 1738   1.968   2.356  12.320  0.1416  0.7896 -0.5539
  111TMC2    H5 1739   1.947   2.262  12.335  0.3616  0.6689 -1.0126
  112MPD2     C 1740   1.465   1.917  11.798 -0.3974  0.0555 -0.2481
  112MPD2    C1 1741   1.558   1.928  11.698 -0.4580  0.3981  0.3060
  112MPD2    C2 1742   1.677   1.991  11.718 -0.0136  0.0426  0.5136
  112MPD2    C3 1743   1.702   2.024  11.843 -0.3226 -0.2196 -0.1819
  112MPD2    C4 1744   1.613   2.010  11.948  0.1078 -0.4874  0.0694
  112MPD2    C5 1745   1.486   1.960  11.928  0.4626  0.3465  0.2317
  112MPD2     H 1746   1.745   2.008  11.635  1.9983 -0.5348  2.0522
  112MPD2    H1 1747   1.634   2.043  12.049 -3.8620  0.7448  0.5007
  112MPD2    H2 1748   1.377   1.860  11.774 -1.2421  1.6968 -0.9985
  112MPD2    H3 1749   1.422   1.950  12.015 -0.6817  1.0308 -0.5402
  112MPD2     N 1750   1.818   2.091  11.884  0.1881 -0.5086  0.2657
  112MPD2    H5 1751   1.819   2.124  11.981 -0.9987  1.1076 -0.2795
  112MPD2    N1 1752   1.525   1.907  11.563  0.0441  0.4668  0.1663
  112MPD2    H7 1753   1.602   1.929  11.501  0.9175 -0.7610  0.8110
  113TMC2    C1 1754   0.058   3.936   0.358 -0.0466  0.0902  0.3702
  113TMC2    C2 1755   0.058   4.049   0.282 -0.4483 -0.3452 -0.0701
  113TMC2    C3 1756   4.676   4.109   0.257  0.6748  0.1888 -0.8023
  113TMC2    C4 1757   4.680   3.885   0.404 -0.3627  0.1814  0.9877
  113TMC2    C5 1758   4.565   3.946   0.376  0.6405  0.3652  0.0892
  113TMC2    C6 1759   4.554   4.063   0.303 -0.2060 -0.7599 -0.2656
  113TMC2     C 1760   0.188   3.889   0.407 -0.3548 -0.1437  0.2754
  113TMC2     O 1761   0.290   3.945   0.367 -0.4714 -0.3738  0.0386
  113TMC2     H 1762   0.147   4.089   0.234 -0.5598  1.5712  1.3316
  113TMC2    H1 1763   4.679   3.793   0.462 -0.1910  0.2474  1.0973
  113TMC2    H2 1764   4.454   4.104   0.296  0.0207 -0.0243  0.8730
  113TMC2    C7 1765   4.433   3.883   0.405  0.1592  0.3071 -0.6228
  113TMC2    C8 1766   4.677   4.234   0.177 -0.2257 -0.1653 -0.1021
  113TMC2    O1 1767   4.332   3.944   0.373 -0.3975 -0.1782 -0.2819
  113TMC2    O2 1768   0.049   4.286   0.164 -0.2410  0.1618 -0.1818
  113TMC2    O5 1769   4.566   4.300   0.223  0.0271 -0.3428 -0.1515
  113TMC2    H5 1770   4.480   4.259   0.199  0.1104  0.3475 -1.6049
  114MPD2     C 1771   0.467   3.692   0.769 -0.7689 -0.1641 -0.3660
  114MPD2    C1 1772   0.471   3.815   0.708  0.2834  0.3870  0.5092
  114MPD2    C2 1773   0.384   3.842   0.605 -0.3535 -0.4698  0.0759
  114MPD2    C3 1774   0.294   3.746   0.566  0.8774  1.2066 -0.3219
  114MPD2    C4 1775   0.287   3.624   0.632  0.2440  0.1510  1.0128
  114MPD2    C5 1776   0.370   3.600   0.738 -0.1847 -0.5413  0.2084
  114MPD2     H 1777   0.394   3.940   0.558 -0.8384 -0.2805  0.3652
  114MPD2    H1 1778   0.215   3.551   0.596  1.4495 -0.0170 -1.0573
  114MPD2    H2 1779   0.537   3.668   0.848 -1.2790 -2.9468 -0.7375
  114MPD2    H3 1780   0.380   3.500   0.780 -1.1231 -1.7004 -2.3352
  114MPD2     N 1781   0.196   3.769   0.474  0.1275  0.0159 -0.7265
  114MPD2    H5 1782   0.108   3.721   0.489  0.4321 -0.3867 -0.2476
  114MPD2    N1 1783   0.571   3.911   0.733 -0.7821 -0.9606  0.3894
  114MPD2    H7 1784   0.557   4.002   0.690  0.1133 -0.0094  2.1193
  115TMC2    C1 1785   1.358   2.193   0.129  0.1369  0.0344 -0.2295
  115TMC2    C2 1786   1.489   2.157   0.110 -1.0695 -0.2875 -0.0721
  115TMC2    C3 1787   1.583   2.251   0.131  0.2071 -0.4189  0.1188
  115TMC2    C4 1788   1.319   2.316   0.181  0.1750  0.2966  0.4945
  115TMC2    C5 1789   1.425   2.406   0.199  0.2229 -0.2442  0.2386
  115TMC2    C6 1790   1.560   2.383   0.168 -0.3885 -0.3680  0.3853
  115TMC2     C 1791   1.265   2.091   0.102 -0.1137  0.0812 -0.2693
  115TMC2     O 1792   1.305   1.996   0.030 -0.1235  0.4123 -0.1326
  115TMC2     H 1793   1.517   2.063   0.063 -0.1261  0.7439 -1.5535
  115TMC2    H1 1794   1.218   2.343   0.208  0.7987  2.6872  0.4424
  115TMC2    H2 1795   1.637   2.449   0.205  0.3290 -1.3092  0.5642
  115TMC2    C7 1796   1.390   2.542   0.226  0.0773  0.9850  0.3295
  115TMC2    C8 1797   1.714   2.196   0.142  0.4263 -0.5786  0.2220
  115TMC2    O1 1798   1.287   2.566   0.284 -0.0566  0.0779  0.0443
  115TMC2    O2 1799   1.729   2.075   0.153  0.3319  0.8186  0.6877
  115TMC2    O5 1800   1.808   2.280   0.088 -0.1002 -0.1593 -0.0925
  115TMC2    H5 1801   1.773   2.364   0.052  0.0612  0.4611  1.1967
  116MPD2     C 1802   0.785   1.906   0.103 -0.5519 -0.1278  0.0974
  116MPD2    C1 1803   0.894   1.854   0.041  0.3937  0.1177  0.4446
  116MPD2    C2 1804   1.011   1.927   0.047 -0.4045  0.0512  0.4597
  116MPD2    C3 1805   1.026   2.039   0.127  0.2161 -0.9567  0.0058
  116MPD2    C4 1806   0.915   2.087   0.194 -0.2565  0.3250  0.0129
  116MPD2    C5 1807   0.798   2.023   0.181 -0.6125  0.0305  1.0193
  116MPD2     H 1808   1.094   1.897  17.732  0.9054  4.7317 -0.0750
  116MPD2    H1 1809   0.917   2.181   0.248 -1.1838 -0.0152  0.6390
  116MPD2    H2 1810   0.686   1.863   0.089  0.0993 -2.4431  2.5572
  116MPD2    H3 1811   0.705   2.047   0.231 -1.2998 -1.9504  0.6962
  116MPD2     N 1812   1.143   2.112   0.154 -0.1645  0.3249  0.7857
  116MPD2    H5 1813   1.134   2.182   0.227 -0.8045 -0.4130  1.4146
  116MPD2    N1 1814   0.870   1.743  17.700  0.5096  0.3006 -0.0012
  116MPD2    H7 1815   0.776   1.709  17.683  1.4070 -1.3747 -1.6818
  117TMC2    C1 1816   4.392   4.338  14.636  0.0887  0.0182 -0.3486
  117TMC2    C2 1817   4.399   4.328  14.775 -0.3364  0.4151 -0.4050
  117TMC2    C3 1818   4.450   4.428  14.852  0.1054  0.2245  0.4067
  117TMC2    C4 1819   4.438   4.449  14.575  0.1602 -0.3338  0.5107
  117TMC2    C5 1820   4.501   4.543  14.657 -0.7521 -0.8321  0.0024
  117TMC2    C6 1821   4.504   4.537  14.794  0.4354  0.1425  0.5478
  117TMC2     C 1822   4.378   4.207  14.564  0.4177  0.9294  0.4478
  117TMC2     O 1823   4.444   4.116  14.608  0.4579  0.3158 -0.3034
  117TMC2     H 1824   4.377   4.228  14.812  1.4552  0.5958  1.1382
  117TMC2    H1 1825   4.446   4.446  14.467 -2.6244 -0.2202  0.2878
  117TMC2    H2 1826   4.547   4.621  14.848  3.6393 -1.0129 -0.1963
  117TMC2    C7 1827   4.567   4.653  14.590 -0.8746 -0.3813  0.5043
  117TMC2    C8 1828   4.507   4.374  14.973  0.1056  0.1901  0.1259
  117TMC2    O1 1829   4.642   4.716  14.663  0.2105 -0.3692 -0.0401
  117TMC2    O2 1830   4.535   4.254  14.981  0.8150 -0.0328 -0.3824
  117TMC2    O5 1831   4.473   4.446  15.079 -0.1035  0.4563  0.1358
  117TMC2    H5 1832   4.451   4.535  15.044 -3.2225 -1.0906 -1.9090
  118MPD2     C 1833   4.475   0.070  14.282 -0.5281 -0.0402 -0.1282
  118MPD2    C1 1834   4.555   0.047  14.389  0.1019  0.1650  0.0631
  118MPD2    C2 1835   4.675   0.118  14.410 -1.2543  0.1393 -0.0797
  118MPD2    C3 1836   4.717   0.204  14.309 -0.1329 -0.7386 -0.1077
  118MPD2    C4 1837   4.633   0.226  14.200  0.2267  0.5737 -0.4416
  118MPD2    C5 1838   4.512   0.158  14.189  0.3184  0.0910  0.3368
  118MPD2     H 1839   0.001   0.103  14.496 -1.7495 -1.7839 -0.0439
  118MPD2    H1 1840   4.666   0.304  14.132 -1.7849  1.0850 -0.8600
  118MPD2    H2 1841   4.375   0.035  14.257 -1.0721  0.9706  0.6106
  118MPD2    H3 1842   4.446   0.189  14.108 -0.6103 -0.0692  1.0304
  118MPD2     N 1843   0.103   0.280  14.314  0.7602  0.0301 -0.0523
  118MPD2    H5 1844   0.114   0.357  14.248 -0.4314  1.8824  1.8873
  118MPD2    N1 1845   4.518   4.675  14.466 -0.8098  0.0099 -0.4817
  118MPD2    H7 1846   4.446   4.617  14.425 -0.9450 -1.2679  1.5893
  119TMC2    C1 1847   2.423   0.142  13.433  0.3833  0.2789 -0.3485
  119TMC2    C2 1848   2.537   0.068  13.409  0.1238  0.7262  0.4003
  119TMC2    C3 1849   2.535   4.671  13.442  0.5344 -0.1312  0.1650
  119TMC2    C4 1850   2.308   0.082  13.474 -0.3050  0.0467 -0.4002
  119TMC2    C5 1851   2.311   4.686  13.502 -0.7397 -0.7670  0.4635
  119TMC2    C6 1852   2.425   4.613  13.493  0.3484 -0.6743 -0.2097
  119TMC2     C 1853   2.420   0.278  13.381 -0.4846 -0.2820 -0.1292
  119TMC2     O 1854   2.313   0.338  13.375  0.2730  0.3832  0.5066
  119TMC2     H 1855   2.625   0.115  13.366  0.5898 -0.5181 -0.0117
  119TMC2    H1 1856   2.223   0.143  13.502 -0.1944 -0.1030  0.2505
  119TMC2    H2 1857   2.419   4.508  13.518 -0.7487 -0.0541  2.2141
  119TMC2    C7 1858   2.207   4.626  13.569 -0.2650  0.0136 -0.3408
  119TMC2    C8 1859   2.644   4.595  13.390  0.4413  0.2239 -0.0405
  119TMC2    O1 1860   2.235   4.528  13.637  0.3406  0.1208 -0.1171
  119TMC2    O2 1861   2.722   4.638  13.304 -0.2691  0.0033  0.0132
  119TMC2    O5 1862   2.666   4.492  13.471 -0.1293  0.1364 -0.0077
  119TMC2    H5 1863   2.615   4.500  13.555 -0.5023  0.8435 -0.3013
  120MPD2     C 1864   2.602   0.746  13.260 -0.5607  1.0601  0.0991
  120MPD2    C1 1865   2.488   0.705  13.326 -0.5124 -0.7810 -0.3066
  120MPD2    C2 1866   2.465   0.568  13.348 -0.3275  0.7386 -0.1679
  120MPD2    C3 1867   2.564   0.476  13.320 -0.4121  0.4840  0.2086
  120MPD2    C4 1868   2.678   0.520  13.264  0.3228 -0.3605 -0.3705
  120MPD2    C5 1869   2.700   0.652  13.238  0.1548  0.4820  0.5458
  120MPD2     H 1870   2.371   0.546  13.398 -0.5482  0.8941 -0.5122
  120MPD2    H1 1871   2.759   0.453  13.237  0.2948 -1.4912  2.3691
  120MPD2    H2 1872   2.623   0.852  13.256  1.8785  0.6122  0.8697
  120MPD2    H3 1873   2.793   0.679  13.190 -0.1980 -0.2642 -0.5416
  120MPD2     N 1874   2.544   0.336  13.349 -0.4763 -0.4800 -0.0647
  120MPD2    H5 1875   2.625   0.276  13.337 -0.1652 -0.6366  2.6292
  120MPD2    N1 1876   2.406   0.811  13.383 -0.1074 -0.1141  0.0801
  120MPD2    H7 1877   2.417   0.898  13.332 -2.6468  0.5746  0.7477
  121TMC2    C1 1878   4.280   1.745  14.209 -0.2256 -0.1439  0.3103
  121TMC2    C2 1879   4.281   1.877  14.234  0.5103  0.3485  0.6691
  121TMC2    C3 1880   4.215   1.916  14.347  0.3618  0.4366  0.3780
  121TMC2    C4 1881   4.246   1.651  14.306 -0.6028 -0.1403 -0.5302
  121TMC2    C5 1882   4.188   1.693  14.424  0.9737  0.0133 -0.2818
  121TMC2    C6 1883   4.166   1.827  14.441  0.1325 -0.5993 -0.7253
  121TMC2     C 1884   4.252   1.706  14.078  0.6501 -0.0224 -0.1044
  121TMC2     O 1885   4.275   1.592  14.051  0.6858 -0.2103 -0.1564
  121TMC2     H 1886   4.320   1.944  14.158  0.7551 -0.7302 -0.1439
  121TMC2    H1 1887   4.233   1.549  14.273 -0.3462  0.2949 -2.0017
  121TMC2    H2 1888   4.122   1.865  14.532 -1.9190  1.9901 -2.7794
  121TMC2    C7 1889   4.089   1.609  14.481  0.5703  0.1922 -0.5664
  121TMC2    C8 1890   4.237   2.056  14.385  0.3737  0.4254  0.4683
  121TMC2    O1 1891   4.108   1.489  14.475 -0.0632  0.2014  0.1064
  121TMC2    O2 1892   4.177   2.115  14.477 -0.4551  0.5249  0.3805
  121TMC2    O5 1893   4.359   2.093  14.343  0.4238 -0.3994 -0.3905
  121TMC2    H5 1894   4.419   2.018  14.326 -1.1390 -1.0990 -2.6961
  122MPD2     C 1895   4.078   1.619  13.849  0.0903 -0.2783 -0.5248
  122MPD2    C1 1896   4.104   1.753  13.889 -0.2330 -0.1500 -0.3168
  122MPD2    C2 1897   4.043   1.856  13.820 -0.1011  0.0458  0.7801
  122MPD2    C3 1898   3.962   1.837  13.710  0.0926 -0.5150 -0.5656
  122MPD2    C4 1899   3.952   1.702  13.661 -0.0017 -0.2273 -0.6491
  122MPD2    C5 1900   3.997   1.600  13.741  0.0299  0.2564  0.7285
  122MPD2     H 1901   4.046   1.955  13.863  1.1371  0.9996 -1.4822
  122MPD2    H1 1902   3.870   1.685  13.592  1.7009 -1.0199 -2.4642
  122MPD2    H2 1903   4.087   1.542  13.925 -0.0657 -1.3999 -1.6350
  122MPD2    H3 1904   3.956   1.500  13.733 -0.3955  0.4150  0.9185
  122MPD2     N 1905   3.895   1.939  13.639 -0.2408  0.2043  0.7898
  122MPD2    H5 1906   3.851   1.922  13.549 -1.2257  1.2576  1.0667
  122MPD2    N1 1907   4.167   1.791  14.011 -0.4187 -0.1459 -0.1893
  122MPD2    H7 1908   4.167   1.887  14.042 -1.3984 -0.2601  0.1698
  123TMC2    C1 1909   2.036   0.887  11.788  0.0971 -0.8996 -0.2520
  123TMC2    C2 1910   2.119   0.863  11.888  0.9389  0.0287  0.3331
  123TMC2    C3 1911   2.228   0.777  11.871 -0.8126  0.4186 -0.2162
  123TMC2    C4 1912   2.062   0.845  11.659 -0.2935 -0.7062 -0.1177
  123TMC2    C5 1913   2.165   0.753  11.642  0.5844 -0.6520 -0.1032
  123TMC2    C6 1914   2.249   0.720  11.745 -0.8967  0.2943 -0.2086
  123TMC2     C 1915   1.913   0.971  11.800  0.4898 -0.1173  0.6472
  123TMC2     O 1916   1.900   1.035  11.905 -0.2268  0.2014  0.4896
  123TMC2     H 1917   2.106   0.916  11.982  1.8743  2.4682 -0.9027
  123TMC2    H1 1918   1.992   0.859  11.577  0.6183 -0.3880 -0.8355
  123TMC2    H2 1919   2.328   0.650  11.719 -1.0301 -0.4115  1.2598
  123TMC2    C7 1920   2.209   0.716  11.515  0.0329 -0.1828 -0.1098
  123TMC2    C8 1921   2.347   0.778  11.956  0.2346 -0.4040  0.5518
  123TMC2    O1 1922   2.253   0.601  11.503 -0.4832 -0.0504 -0.0272
  123TMC2    O2 1923   2.452   0.816  11.904 -0.2656  0.6116 -0.9633
  123TMC2    O5 1924   2.315   0.764  12.091 -0.1923  0.0774  0.1299
  123TMC2    H5 1925   2.249   0.694  12.110 -0.8909  1.0187  1.1988
  124MPD2     C 1926   1.470   1.174  11.631 -0.2344  0.3235  0.8482
  124MPD2    C1 1927   1.502   1.059  11.561 -0.1893 -0.2612 -0.0634
  124MPD2    C2 1928   1.619   0.986  11.591  0.3820  0.4620  0.2067
  124MPD2    C3 1929   1.700   1.025  11.694 -0.3298 -0.1567  0.4670
  124MPD2    C4 1930   1.665   1.139  11.768 -0.6138 -0.0248 -0.4339
  124MPD2    C5 1931   1.552   1.210  11.734  0.0644  0.5572  0.0362
  124MPD2     H 1932   1.643   0.904  11.523 -2.0792  1.3608 -1.7703
  124MPD2    H1 1933   1.726   1.162  11.855 -0.5675 -1.0656 -0.1954
  124MPD2    H2 1934   1.382   1.234  11.612  0.0035  0.6764  0.8629
  124MPD2    H3 1935   1.526   1.291  11.801  0.2447  0.4470  0.2427
  124MPD2     N 1936   1.818   0.953  11.708 -0.0634  0.3925  0.6609
  124MPD2    H5 1937   1.833   0.883  11.636 -0.4997  0.9458  0.0308
  124MPD2    N1 1938   1.414   1.026  11.450 -0.1201  0.3683  0.1481
  124MPD2    H7 1939   1.350   1.100  11.421 -0.7771 -0.2024  0.1492
  125TMC2    C1 1940   2.139   2.815   9.725 -0.3429  0.1019  0.0318
  125TMC2    C2 1941   2.082   2.937   9.704  0.3106 -0.0052  0.1212
  125TMC2    C3 1942   2.081   3.027   9.806 -0.0865  0.2945 -0.1490
  125TMC2    C4 1943   2.206   2.781   9.839 -0.4626  0.7076  0.3232
  125TMC2    C5 1944   2.217   2.885   9.928  0.0965  0.1267 -0.3476
  125TMC2    C6 1945   2.159   3.011   9.913  0.7711 -0.1005 -0.3897
  125TMC2     C 1946   2.113   2.720   9.626  0.5948  0.2379 -0.2476
  125TMC2     O 1947   2.008   2.739   9.568 -0.0205  0.0918  0.0409
  125TMC2     H 1948   2.024   2.962   9.616 -0.9018  1.5022  1.3342
  125TMC2    H1 1949   2.235   2.680   9.863  0.7953 -0.0304 -4.2635
  125TMC2    H2 1950   2.189   3.092   9.978  1.3936 -0.4100 -0.2838
  125TMC2    C7 1951   2.308   2.869  10.043  0.3884 -0.1158 -0.4787
  125TMC2    C8 1952   2.054   3.164   9.774  0.0708  0.5837  0.4594
  125TMC2    O1 1953   2.292   2.944  10.137 -0.3365 -0.4882 -0.5857
  125TMC2    O2 1954   2.031   3.237   9.870  0.0768 -0.3162  0.1232
  125TMC2    O5 1955   2.126   3.200   9.665 -0.1732  0.4698 -0.3064
  125TMC2    H5 1956   2.145   3.123   9.607 -0.8909  0.1599 -0.1387
  126MPD1     C 1957   2.230   2.296   9.353 -0.1878  0.1675  0.1333
  126MPD1    C1 1958   2.344   2.332   9.413  0.3486  0.2492 -0.3043
  126MPD1    C2 1959   2.331   2.443   9.495 -0.2810  0.1086  0.3983
  126MPD1    C3 1960   2.211   2.517   9.520  0.8548 -0.0236 -0.2715
  126MPD1    C4 1961   2.104   2.482   9.437 -0.1638 -0.2327 -0.7208
  126MPD1    C5 1962   2.117   2.370   9.357 -0.2635  0.6182 -0.4824
  126MPD1     H 1963   2.419   2.484   9.544 -0.7598  0.3168  1.0762
  126MPD1    H1 1964   2.016   2.544   9.433 -1.0437 -1.5504 -1.7520
  126MPD1    H2 1965   2.225   2.209   9.288  0.9703  0.4958 -0.3853
  126MPD1    H3 1966   2.035   2.356   9.286  0.6138  0.3805 -1.4518
  126MPD1     N 1967   2.214   2.625   9.612  0.9637 -0.1796 -0.1240
  126MPD1    H5 1968   2.294   2.629   9.674  1.9689 -0.9125 -1.3658
  126MPD1    N1 1969   2.464   2.280   9.369  0.0032 -0.4637  0.1451
  126MPD1    H6 1970   2.453   2.187   9.329  0.7028 -0.4274 -0.1308
  126MPD1    H7 1971   2.539   2.276   9.437 -0.7912  0.4930  1.0883
  127TMC2    C1 1972   4.142   1.063   9.996  0.4145 -0.0771 -0.8844
  127TMC2    C2 1973   4.246   1.065   9.911 -0.8481  0.2840  0.6429
  127TMC2    C3 1974   4.289   0.955   9.849  0.0754 -0.2851 -0.1701
  127TMC2    C4 1975   4.092   0.946  10.043  0.5141  0.6893 -0.6664
  127TMC2    C5 1976   4.141   0.834   9.980 -0.0038 -0.2029 -0.3049
  127TMC2    C6 1977   4.231   0.831   9.878 -0.4776 -0.3100  0.4341
  127TMC2     C 1978   4.077   1.191  10.022  0.5149  0.3539  0.1112
  127TMC2     O 1979   4.149   1.289  10.028 -0.2018  0.3632  0.2830
  127TMC2     H 1980   4.301   1.157   9.895 -2.0363  0.6575 -1.3236
  127TMC2    H1 1981   4.011   0.932  10.114  0.8376  0.0217 -0.4356
  127TMC2    H2 1982   4.267   0.745   9.822 -1.0251 -0.6469  0.6024
  127TMC2    C7 1983   4.089   0.700  10.018 -0.1115  0.1233 -0.5991
  127TMC2    C8 1984   4.393   0.959   9.748 -0.3011  0.0939  0.1999
  127TMC2    O1 1985   4.166   0.607   9.988  0.0754 -0.0349  0.1058
  127TMC2    O2 1986   4.473   0.865   9.735  0.2405  0.2634  0.6516
  127TMC2    O5 1987   4.370   1.065   9.664  0.7507  0.6816  0.8541
  127TMC2    H5 1988   4.284   1.111   9.671  0.9059  1.2032 -0.7826
  128MPD2     C 1989   3.716   1.262   9.955  0.1673  0.1976  0.2078
  128MPD2    C1 1990   3.843   1.274  10.009  0.2639  0.3475 -0.0592
  128MPD2    C2 1991   3.879   1.384  10.082 -0.0287 -0.2073 -0.4836
  128MPD2    C3 1992   3.793   1.490  10.094  0.2137 -0.1374  0.1889
  128MPD2    C4 1993   3.672   1.485  10.036 -0.4622 -0.1275  0.1964
  128MPD2    C5 1994   3.634   1.375   9.962 -0.2284 -0.4102 -0.2972
  128MPD2     H 1995   3.970   1.381  10.142  0.5190 -2.3549 -1.4212
  128MPD2    H1 1996   3.599   1.564  10.047  0.7096  0.8564  0.9351
  128MPD2    H2 1997   3.692   1.177   9.891  0.7272 -0.9547  1.5150
  128MPD2    H3 1998   3.535   1.380   9.918 -0.7026 -0.5822  0.7440
  128MPD2     N 1999   3.840   1.599  10.175  0.3426 -0.5874 -0.0426
  128MPD2    H5 2000   3.928   1.589  10.224 -0.7046 -1.3204  1.6847
  128MPD2    N1 2001   3.940   1.166  10.010  0.2066 -0.7597 -0.4996
  128MPD2    H7 2002   3.910   1.074   9.980 -1.7427 -0.2698 -0.0927
  129TMC2    C1 2003   2.689   1.318   1.653 -0.3018 -0.1277  0.0080
  129TMC2    C2 2004   2.754   1.350   1.535  1.1839 -0.6619  0.0504
  129TMC2    C3 2005   2.855   1.262   1.503  0.5609  0.4595  0.3152
  129TMC2    C4 2006   2.715   1.210   1.726 -0.1266 -0.1357 -1.0097
  129TMC2    C5 2007   2.810   1.122   1.681 -0.0669 -0.1445 -0.1903
  129TMC2    C6 2008   2.886   1.145   1.572 -0.2136  0.1623 -0.0073
  129TMC2     C 2009   2.580   1.399   1.692  0.1475 -0.0220  0.2709
  129TMC2     O 2010   2.508   1.363   1.780 -0.2101  0.4411  0.5029
  129TMC2     H 2011   2.715   1.421   1.463 -0.6210 -2.0408 -0.3475
  129TMC2    H1 2012   2.659   1.179   1.813  2.2394 -1.5785 -0.0160
  129TMC2    H2 2013   2.960   1.081   1.526  0.7050  0.6234  0.8116
  129TMC2    C7 2014   2.796   0.989   1.739  0.3754  0.7947  0.0106
  129TMC2    C8 2015   2.957   1.309   1.406 -0.3807 -0.3352 -0.4632
  129TMC2    O1 2016   2.697   0.962   1.807  0.0318  0.7112 -0.0008
  129TMC2    O2 2017   3.044   1.236   1.366 -0.0596 -0.1298 -0.1856
  129TMC2    O5 2018   2.956   1.444   1.394 -0.3206  0.3175 -0.5410
  129TMC2    H5 2019   2.897   1.490   1.457  0.9194 -1.0984  1.6687
  130MPD2     C 2020   2.353   1.586   1.740  0.0895  0.1999 -0.5029
  130MPD2    C1 2021   2.473   1.617   1.677  0.0990 -0.7003  0.0674
  130MPD2    C2 2022   2.487   1.748   1.629  0.9664  0.1471  0.3411
  130MPD2    C3 2023   2.396   1.852   1.634 -0.3978 -0.3505  0.9226
  130MPD2    C4 2024   2.279   1.814   1.705  0.5554  0.0407  0.3698
  130MPD2    C5 2025   2.262   1.690   1.753 -0.2278 -0.2162 -0.5826
  130MPD2     H 2026   2.582   1.762   1.578  0.9027 -1.2663 -0.1760
  130MPD2    H1 2027   2.201   1.881   1.739  0.2679 -2.5797  4.8812
  130MPD2    H2 2028   2.320   1.488   1.773  1.4218  0.3202  1.2084
  130MPD2    H3 2029   2.174   1.665   1.811 -1.7296  0.8704 -2.3830
  130MPD2     N 2030   2.420   1.983   1.588  0.1331 -0.3278  0.3406
  130MPD2    H5 2031   2.511   1.985   1.543  0.4831 -0.9058  1.0243
  130MPD2    N1 2032   2.575   1.527   1.639  0.5482 -1.0881  0.8295
  130MPD2    H7 2033   2.656   1.560   1.587 -0.3489 -0.1558  0.0144
  131TMC2    C1 2034   2.044   1.509  11.068 -0.2354 -0.5390 -0.6038
  131TMC2    C2 2035   1.987   1.605  11.151 -0.3458  0.3221  0.7700
  131TMC2    C3 2036   2.035   1.726  11.140 -0.0503 -0.4436  0.2634
  131TMC2    C4 2037   2.138   1.535  10.970 -0.9260  0.2192 -0.4538
  131TMC2    C5 2038   2.185   1.666  10.964  0.1651  0.1004 -0.0316
  131TMC2    C6 2039   2.139   1.760  11.049 -0.3033 -0.4027  0.3419
  131TMC2     C 2040   1.974   1.383  11.063  0.3413  0.5867 -0.2557
  131TMC2     O 2041   1.858   1.383  11.104 -0.0146  0.3124  0.5993
  131TMC2     H 2042   1.901   1.590  11.216  1.4986 -2.2625  2.5899
  131TMC2    H1 2043   2.178   1.461  10.902 -0.1977 -0.5514  0.7997
  131TMC2    H2 2044   2.164   1.865  11.051 -0.8292 -0.3040  2.4955
  131TMC2    C7 2045   2.268   1.708  10.858 -0.0651 -0.3100 -0.2327
  131TMC2    C8 2046   1.960   1.842  11.187  0.4043 -0.2671 -0.0416
  131TMC2    O1 2047   2.322   1.621  10.793 -0.0585 -0.2322  0.2689
  131TMC2    O2 2048   1.958   1.948  11.123  0.3660 -0.5692 -0.4674
  131TMC2    O5 2049   1.891   1.816  11.299 -0.0319  0.1784 -0.0529
  131TMC2    H5 2050   1.922   1.730  11.334 -0.5330 -0.4120 -1.0521
  132MPD2     C 2051   2.046   1.071  10.879 -0.6011  0.1159 -0.7333
  132MPD2    C1 2052   1.975   1.162  10.947  0.7555  0.4021  0.0563
  132MPD2    C2 2053   1.846   1.121  10.968 -1.2529 -0.3177  0.4218
  132MPD2    C3 2054   1.787   1.008  10.930  0.1616  0.1897  0.3918
  132MPD2    C4 2055   1.870   0.925  10.859  0.0130 -0.8738 -0.3655
  132MPD2    C5 2056   2.001   0.951  10.839 -0.4751 -0.0055 -0.5781
  132MPD2     H 2057   1.791   1.191  11.030 -0.0868  0.5403  0.4779
  132MPD2    H1 2058   1.846   0.821  10.836 -0.0658 -0.5218 -1.8924
  132MPD2    H2 2059   2.149   1.086  10.847  0.4169  1.2466  3.0244
  132MPD2    H3 2060   2.072   0.884  10.792 -0.2774 -1.1747  1.3577
  132MPD2     N 2061   1.659   0.975  10.983  0.1363 -0.5195  0.1867
  132MPD2    H5 2062   1.610   1.035  11.050 -1.0902  1.5150 -2.5260
  132MPD2    N1 2063   2.037   1.281  10.990 -0.5320  0.5420  0.2203
  132MPD2    H7 2064   2.138   1.275  10.987 -0.5784 -0.6969  0.9542
  133TMC2    C1 2065   1.530   1.925   9.659 -0.0185 -0.5855 -0.3231
  133TMC2    C2 2066   1.582   1.803   9.614 -0.6296  0.3197 -0.6647
  133TMC2    C3 2067   1.696   1.750   9.670 -0.1923 -0.4354 -0.2647
  133TMC2    C4 2068   1.601   1.991   9.755 -0.2607 -0.2878 -0.1806
  133TMC2    C5 2069   1.718   1.945   9.799  0.1421 -0.6973  0.1163
  133TMC2    C6 2070   1.763   1.820   9.769  0.1024 -0.4948 -0.3324
  133TMC2     C 2071   1.384   1.940   9.649  0.4703 -0.1820  0.4993
  133TMC2     O 2072   1.316   1.840   9.652 -0.1810  0.6185  0.3893
  133TMC2     H 2073   1.534   1.742   9.538  0.2208 -1.1266 -0.0480
  133TMC2    H1 2074   1.565   2.073   9.816  0.8897  0.2113 -0.1743
  133TMC2    H2 2075   1.854   1.782   9.812  0.6215  0.5626 -0.4879
  133TMC2    C7 2076   1.775   2.029   9.898 -0.4459 -0.1833 -0.3957
  133TMC2    C8 2077   1.697   1.609   9.686  0.2543 -0.4773  0.5905
  133TMC2    O1 2078   1.747   2.144   9.885 -0.1176 -0.4584  0.1837
  133TMC2    O2 2079   1.782   1.556   9.753 -0.1877  0.4796 -0.3599
  133TMC2    O5 2080   1.570   1.570   9.679 -0.7325 -0.1355  0.0441
  133TMC2    H5 2081   1.520   1.579   9.596 -0.0776 -1.5476 -0.4993
  134MPD2     C 2082   1.205   2.254   9.707  0.0968  0.2600  0.0578
  134MPD2    C1 2083   1.217   2.119   9.685 -0.1804 -0.2047 -0.1648
  134MPD2    C2 2084   1.106   2.039   9.678 -0.7752  0.3519 -0.5540
  134MPD2    C3 2085   0.983   2.090   9.698 -0.1005  0.0743  0.3351
  134MPD2    C4 2086   0.967   2.225   9.700 -0.2539 -0.4203  0.3414
  134MPD2    C5 2087   1.079   2.300   9.729 -0.4265 -0.4433 -0.3186
  134MPD2     H 2088   1.121   1.932   9.669 -3.2637 -0.0019 -0.5306
  134MPD2    H1 2089   0.871   2.270   9.721 -0.0181  0.1578  0.1713
  134MPD2    H2 2090   1.289   2.322   9.721  1.0732 -0.3982 -2.6193
  134MPD2    H3 2091   1.061   2.406   9.750 -0.2997 -0.2182 -1.3892
  134MPD2     N 2092   0.865   2.014   9.696 -0.6964  0.0655  0.0317
  134MPD2    H5 2093   0.778   2.065   9.692  0.5920  2.1828 -0.8507
  134MPD2    N1 2094   1.352   2.070   9.678  0.7817 -0.0378  0.3711
  134MPD2    H7 2095   1.429   2.134   9.669  0.1814  0.3536 -2.0381
  135TMC2    C1 2096   3.105   3.106  11.215  0.5554 -0.4925  0.6373
  135TMC2    C2 2097   2.991   3.141  11.278 -0.5942 -0.0179 -0.9284
  135TMC2    C3 2098   2.964   3.081  11.401  0.2070 -1.1281 -1.0402
  135TMC2    C4 2099   3.182   3.001  11.259  0.2356  0.2060  0.1030
  135TMC2    C5 2100   3.156   2.947  11.381 -0.5210  0.0403  0.2835
  135TMC2    C6 2101   3.050   2.988  11.457 -0.2752  0.3375  0.6173
  135TMC2     C 2102   3.135   3.170  11.085  0.4088  0.3878  0.7345
  135TMC2     O 2103   3.254   3.161  11.049  0.1322 -0.2957  0.2321
  135TMC2     H 2104   2.940   3.235  11.260  0.8700  0.5616 -2.1205
  135TMC2    H1 2105   3.262   2.969  11.195  0.8712  1.7239  0.1400
  135TMC2    H2 2106   3.025   2.942  11.552  0.9401 -3.5835 -0.9663
  135TMC2    C7 2107   3.197   2.808  11.408 -0.6182  0.3300  0.2313
  135TMC2    C8 2108   2.868   3.140  11.485 -0.2278  0.8182  0.4171
  135TMC2    O1 2109   3.200   2.766  11.525 -0.5612  0.2965 -0.3059
  135TMC2    O2 2110   2.893   3.250  11.523 -1.0419 -0.0295 -0.7591
  135TMC2    O5 2111   2.820   3.049  11.565  0.4165 -0.1971 -0.1350
  135TMC2    H5 2112   2.829   2.959  11.527 -1.6739 -1.0236  1.3613
  136MPD2     C 2113   3.156   3.310  10.840 -0.5207 -0.4746 -0.2350
  136MPD2    C1 2114   3.037   3.255  10.881  0.5562 -0.0531 -0.1567
  136MPD2    C2 2115   2.919   3.249  10.805  0.5261  0.6208  0.4758
  136MPD2    C3 2116   2.939   3.267  10.670 -0.0720  0.1655 -0.3255
  136MPD2    C4 2117   3.062   3.305  10.623 -0.3409 -0.3434 -0.2144
  136MPD2    C5 2118   3.171   3.341  10.707 -0.2253  0.5787  0.5347
  136MPD2     H 2119   2.830   3.203  10.846  1.0493 -0.9667 -0.1954
  136MPD2    H1 2120   3.073   3.317  10.516  1.1156 -0.6444 -0.0992
  136MPD2    H2 2121   3.234   3.344  10.908  1.2930 -0.9061 -2.1159
  136MPD2    H3 2122   3.264   3.380  10.668 -1.7907  3.3002 -0.4651
  136MPD2     N 2123   2.833   3.254  10.572 -0.6998 -0.4480  0.1690
  136MPD2    H5 2124   2.859   3.261  10.474 -1.3110  1.9385  0.1647
  136MPD2    N1 2125   3.028   3.183  11.001  0.2428  0.8474  0.2718
  136MPD2    H7 2126   2.936   3.150  11.029  1.4309 -2.3892  0.3019
  137TMC2    C1 2127   2.047   2.006   9.626 -0.5397 -0.5298  0.2374
  137TMC2    C2 2128   2.011   1.975   9.496 -0.4984  0.0073 -0.0858
  137TMC2    C3 2129   1.912   2.050   9.442  0.0414 -0.2210 -0.2313
  137TMC2    C4 2130   2.016   2.119   9.687  0.0279 -0.0639  0.0086
  137TMC2    C5 2131   1.939   2.214   9.620  0.1575 -0.3461 -0.4465
  137TMC2    C6 2132   1.875   2.173   9.502 -0.2958  0.6117 -0.1698
  137TMC2     C 2133   2.133   1.916   9.693 -0.2376 -0.7851  0.3649
  137TMC2     O 2134   2.197   1.960   9.795 -0.7871  0.0781 -0.8647
  137TMC2     H 2135   2.034   1.880   9.450 -2.1771 -0.5914  0.3031
  137TMC2    H1 2136   2.039   2.124   9.793  2.3590  1.0678 -0.5538
  137TMC2    H2 2137   1.822   2.242   9.437 -0.7005 -0.9733 -1.5294
  137TMC2    C7 2138   1.896   2.338   9.682  0.0302 -0.4078 -0.3315
  137TMC2    C8 2139   1.887   2.021   9.304  0.2947  0.2572 -0.0080
  137TMC2    O1 2140   1.794   2.383   9.632 -0.9319  0.1060 -0.3947
  137TMC2    O2 2141   1.982   2.005   9.227 -0.1082 -0.5021 -0.0114
  137TMC2    O5 2142   1.769   2.079   9.270  0.4384 -0.3158 -0.0257
  137TMC2    H5 2143   1.712   2.081   9.349  0.3816  3.9036 -0.1605
  138MPD2     C 2144   2.136   1.544   9.704 -0.2608  0.2392  0.8730
  138MPD2    C1 2145   2.184   1.671   9.717 -1.2731  0.1331 -0.0635
  138MPD2    C2 2146   2.306   1.692   9.781  0.3408  0.0937 -0.4093
  138MPD2    C3 2147   2.390   1.580   9.809  0.1232 -0.4528 -0.2466
  138MPD2    C4 2148   2.337   1.455   9.803  0.1777  0.7766 -0.6369
  138MPD2    C5 2149   2.207   1.445   9.761 -0.0824 -0.1689  0.2803
  138MPD2     H 2150   2.341   1.795   9.790  0.9307  0.0712 -2.3797
  138MPD2    H1 2151   2.386   1.364   9.837  0.4110  2.1034  2.5426
  138MPD2    H2 2152   2.035   1.525   9.671  0.7130 -2.5761 -0.4701
  138MPD2    H3 2153   2.168   1.345   9.748 -0.7798  0.2690 -1.0150
  138MPD2     N 2154   2.523   1.601   9.839 -0.2114 -0.4844 -0.0725
  138MPD2    H5 2155   2.553   1.697   9.850  1.7538 -1.2170  1.0300
  138MPD2    N1 2156   2.107   1.783   9.670 -0.1674  0.2328  0.0301
  138MPD2    H7 2157   2.020   1.776   9.617 -0.6386 -0.0334  0.8306
  139TMC2    C1 2158   3.844   0.031  13.579 -0.0968 -0.2006 -0.5294
  139TMC2    C2 2159   3.954   0.042  13.495  0.1923  0.6305  0.4017
  139TMC2    C3 2160   3.948   0.120  13.390  0.1514 -0.0121 -0.3328
  139TMC2    C4 2161   3.727   0.098  13.546 -0.1002 -0.1859  0.7667
  139TMC2    C5 2162   3.728   0.185  13.442  1.0256 -0.3342 -0.7476
  139TMC2    C6 2163   3.833   0.185  13.357  1.0230 -0.5919  0.7265
  139TMC2     C 2164   3.870   0.033  13.725  0.5239  0.3242 -0.6220
  139TMC2     O 2165   3.807   0.115  13.783  0.5141  0.1033  0.1323
  139TMC2     H 2166   4.050   4.736  13.520 -1.7084 -2.4053  2.4179
  139TMC2    H1 2167   3.660   0.101  13.632  0.5465  1.8735  1.1846
  139TMC2    H2 2168   3.834   0.258  13.276 -1.3363 -0.6693  0.6475
  139TMC2    C7 2169   3.677   0.319  13.473 -0.2816  0.4773 -0.3680
  139TMC2    C8 2170   4.065   0.141  13.306  0.1037  0.1118 -0.5667
  139TMC2    O1 2171   3.668   0.407  13.386 -0.0427 -0.6336  0.5148
  139TMC2    O2 2172   4.075   0.060  13.218 -0.3031 -0.2019 -0.2406
  139TMC2    O5 2173   4.166   0.168  13.396  0.1130 -0.4466 -0.1347
  139TMC2    H5 2174   4.141   0.221  13.474 -2.6994  0.2401 -1.4885
  140MPD2     C 2175   3.984   4.726  13.990 -0.2384  0.0167  0.5887
  140MPD2    C1 2176   4.044   4.677  13.878  0.5917  0.3303  0.6734
  140MPD2    C2 2177   4.154   4.595  13.882 -0.0437 -0.0196  0.6640
  140MPD2    C3 2178   4.220   4.582  14.003 -0.5574  0.0223 -0.4415
  140MPD2    C4 2179   4.161   4.631  14.123  0.3353 -0.0702 -0.1381
  140MPD2    C5 2180   4.042   4.700  14.114  0.2032  0.6384 -0.8819
  140MPD2     H 2181   4.198   4.549  13.795 -0.9490 -1.7571  1.1329
  140MPD2    H1 2182   4.210   4.612  14.218 -0.2652 -0.6314  0.0577
  140MPD2    H2 2183   3.897   0.054  13.981 -0.4433 -0.1363  1.4829
  140MPD2    H3 2184   3.985   4.733  14.200  0.0217 -2.2593  0.1173
  140MPD2     N 2185   4.345   4.515  14.005 -0.4141 -0.0038  0.0249
  140MPD2    H5 2186   4.384   4.489  13.916 -3.1564 -2.8888 -0.3417
  140MPD2    N1 2187   3.983   4.700  13.753 -0.0928  0.0192  0.0684
  140MPD2    H7 2188   4.027   4.651  13.675 -1.9939  1.4523 -1.9134
  141TMC2    C1 2189   4.537   1.444  14.396 -0.3161 -1.5389 -0.2692
  141TMC2    C2 2190   4.526   1.385  14.519 -0.1730 -0.0710  0.0662
  141TMC2    C3 2191   4.529   1.462  14.630  0.9240  0.3670 -0.0107
  141TMC2    C4 2192   4.548   1.579  14.385  0.2655 -0.6158  0.3307
  141TMC2    C5 2193   4.556   1.653  14.503  0.4364  0.5627 -0.2964
  141TMC2    C6 2194   4.538   1.596  14.624  0.3132  0.2852  0.1872
  141TMC2     C 2195   4.511   1.370  14.273  0.3456  0.2139  0.4317
  141TMC2     O 2196   4.522   1.432  14.170 -0.3583  0.3913 -0.6589
  141TMC2     H 2197   4.512   1.279  14.534 -0.1870 -0.1658 -0.6333
  141TMC2    H1 2198   4.544   1.634  14.291  2.6545 -1.4879 -0.2744
  141TMC2    H2 2199   4.552   1.652  14.716  0.2250 -0.1260  0.4526
  141TMC2    C7 2200   4.588   1.798  14.495  0.6056  0.3856  0.5622
  141TMC2    C8 2201   4.565   1.397  14.760 -0.2105 -0.3052 -0.0315
  141TMC2    O1 2202   4.515   1.872  14.427  0.0369  0.2547  0.1871
  141TMC2    O2 2203   4.524   1.434  14.872 -0.5704  0.5594 -0.0355
  141TMC2    O5 2204   4.680   1.329  14.741 -0.2375  0.0494  0.3654
  141TMC2    H5 2205   4.710   1.292  14.655  1.0298 -0.8880  1.2299
  142TMC2    C1 2206   2.159   0.121  10.851  0.6748 -0.2428  0.1277
  142TMC2    C2 2207   2.239   0.138  10.742  0.3779  0.5243 -0.4590
  142TMC2    C3 2208   2.310   0.253  10.736  0.1125 -0.5740 -0.4969
  142TMC2    C4 2209   2.170   0.197  10.969  0.1483 -0.6986 -0.2046
  142TMC2    C5 2210   2.246   0.307  10.961  0.2599 -0.5377  0.1887
  142TMC2    C6 2211   2.321   0.331  10.850 -0.5991 -0.1051  0.2443
  142TMC2     C 2212   2.083   4.737  10.866 -0.4671 -0.1152  0.1701
  142TMC2     O 2213   2.073   4.661  10.768  0.1871 -0.5396 -0.0725
  142TMC2     H 2214   2.213   0.079  10.655 -1.1770  0.6386 -0.0681
  142TMC2    H1 2215   2.098   0.194  11.050  0.0224 -1.7212 -0.3511
  142TMC2    H2 2216   2.400   0.405  10.846 -1.0939  0.3646 -1.0419
  142TMC2    C7 2217   2.239   0.414  11.065 -0.7113 -0.1498 -0.2187
  142TMC2    C8 2218   2.370   0.304  10.611  0.1095  0.7343 -0.5971
  142TMC2    O1 2219   2.185   0.383  11.172 -0.1864  0.3368  0.1745
  142TMC2    O2 2220   2.382   0.425  10.589  0.2967 -0.1912  0.4549
  142TMC2    O5 2221   2.467   0.211  10.570  0.0371 -0.3927  0.2135
  142TMC2    H5 2222   2.464   0.125  10.617  0.7660  0.7068  2.2902
  143MPD2     C 2223   1.851   4.379  11.145  0.1929 -0.0254 -0.9456
  143MPD2    C1 2224   1.857   4.385  11.004 -0.2967  0.1511  0.4019
  143MPD2    C2 2225   1.935   4.484  10.954  0.2972  0.3645 -0.3576
  143MPD2    C3 2226   1.998   4.578  11.038  0.4709  0.1187 -0.0751
  143MPD2    C4 2227   1.978   4.570  11.173  0.5519  0.4229 -0.1643
  143MPD2    C5 2228   1.919   4.460  11.235  0.0126  0.0133 -1.0317
  143MPD2     H 2229   1.937   4.502  10.847 -2.0094  2.8333  0.0230
  143MPD2    H1 2230   2.017   4.644  11.242  1.0994 -0.6500  0.6962
  143MPD2    H2 2231   1.807   4.298  11.202  0.5941  0.9485  0.7359
  143MPD2    H3 2232   1.911   4.446  11.342  1.3051 -1.4441 -1.1167
  143MPD2     N 2233   2.062   4.700  10.996 -0.7968 -0.2987 -0.2948
  143MPD2    H5 2234   2.106   0.021  11.067  1.1572 -1.4247 -0.5607
  143MPD2    N1 2235   1.782   4.297  10.925  0.3669  0.2156  0.2081
  143MPD2    H7 2236   1.741   4.221  10.978 -1.2712  0.9777  0.0592
  144TMC2    C1 2237   0.509   2.842   0.641  0.8885  0.2348 -0.2058
  144TMC2    C2 2238   0.495   2.713   0.677 -0.4189 -0.0657  0.3825
  144TMC2    C3 2239   0.609   2.640   0.702  0.1967 -0.7456  0.4594
  144TMC2    C4 2240   0.632   2.904   0.636 -0.1948 -0.8807  0.1582
  144TMC2    C5 2241   0.735   2.827   0.680  0.4212 -0.0901  0.2486
  144TMC2    C6 2242   0.735   2.695   0.704 -0.0147  0.5818 -0.0095
  144TMC2     C 2243   0.388   2.928   0.614 -0.7271  0.2935 -0.0465
  144TMC2     O 2244   0.407   3.021   0.539 -0.2271  0.4911  0.5742
  144TMC2     H 2245   0.400   2.660   0.680  0.6536 -1.9029  1.5946
  144TMC2    H1 2246   0.633   3.006   0.600 -1.1070  0.0596  2.7902
  144TMC2    H2 2247   0.829   2.645   0.726  0.0258  1.0195  0.7722
  144TMC2    C7 2248   0.851   2.908   0.732 -0.3661 -0.5050  0.4895
  144TMC2    C8 2249   0.590   2.504   0.681  0.6904  0.5160 -0.3151
  144TMC2    O1 2250   0.960   2.855   0.750 -0.2244  0.2578  0.0514
  144TMC2    O2 2251   0.501   2.472   0.601 -0.2918 -0.1859 -0.3230
  144TMC2    O5 2252   0.683   2.432   0.743 -0.4420 -0.3339  0.3775
  144TMC2    H5 2253   0.739   2.472   0.813 -0.4459 -0.5181  0.4880
  145MPD2     C 2254   4.610   2.978   0.568 -0.3729 -0.6676  0.0720
  145MPD2    C1 2255   4.714   3.030   0.496 -0.2537  0.1326 -0.0796
  145MPD2    C2 2256   0.110   3.006   0.528 -0.6973  0.2096 -0.2390
  145MPD2    C3 2257   0.134   2.916   0.636 -0.1897 -0.3238 -0.3545
  145MPD2    C4 2258   0.032   2.858   0.704  0.3784  0.2337  0.2040
  145MPD2    C5 2259   4.637   2.889   0.674 -0.4402 -0.2120  0.2263
  145MPD2     H 2260   0.189   3.052   0.470 -1.1429  2.2511  0.7672
  145MPD2    H1 2261   0.046   2.786   0.783  1.5276 -0.2557 -0.4516
  145MPD2    H2 2262   4.508   2.999   0.541 -0.6754 -1.1136  0.8763
  145MPD2    H3 2263   4.557   2.838   0.727 -0.7150  0.8225  0.8178
  145MPD2     N 2264   0.270   2.870   0.661  0.1916  0.3768 -0.2490
  145MPD2    H5 2265   0.267   2.789   0.722  0.7301 -0.3825 -1.2340
  145MPD2    N1 2266   4.694   3.111   0.379  0.1472 -0.3927 -0.2570
  145MPD2    H7 2267   0.038   3.128   0.321 -0.3623  0.2399 -0.7923
  146TMC2    C1 2268   1.318   2.822  13.114  0.1025 -0.1125 -0.2212
  146TMC2    C2 2269   1.240   2.925  13.073 -0.2391  0.4881 -1.1810
  146TMC2    C3 2270   1.233   2.957  12.940 -0.0176  0.0570  0.0171
  146TMC2    C4 2271   1.388   2.745  13.024 -0.1710 -0.0056  0.0628
  146TMC2    C5 2272   1.366   2.774  12.891  0.1073  0.0292  0.4590
  146TMC2    C6 2273   1.288   2.879  12.846  0.5064 -0.1951  0.8468
  146TMC2     C 2274   1.349   2.814  13.259 -0.3174 -0.2142 -0.5982
  146TMC2     O 2275   1.297   2.900  13.332  0.1830 -0.3952  0.3292
  146TMC2     H 2276   1.187   2.996  13.136 -0.3458  0.1939 -0.9355
  146TMC2    H1 2277   1.462   2.676  13.062  0.7730  1.2374  0.4975
  146TMC2    H2 2278   1.280   2.877  12.738  0.9634 -0.9612  0.8272
  146TMC2    C7 2279   1.432   2.690  12.798 -0.5607  0.2683  0.4884
  146TMC2    C8 2280   1.147   3.066  12.900 -0.6457  0.1636  0.5823
  146TMC2    O1 2281   1.454   2.742  12.690  0.3606 -0.1820  0.5164
  146TMC2    O2 2282   1.065   3.115  12.973 -0.5397 -0.1734 -0.3887
  146TMC2    O5 2283   1.185   3.122  12.782  0.4733 -0.1575 -0.1437
  146TMC2    H5 2284   1.276   3.095  12.757 -0.5014 -2.3125 -1.3419
  147MPD2     C 2285   1.777   2.323  12.685  1.0567 -0.7240  0.5732
  147MPD2    C1 2286   1.692   2.271  12.777 -0.6679  0.2835  0.1878
  147MPD2    C2 2287   1.586   2.350  12.830  0.4262  0.3160  0.1184
  147MPD2    C3 2288   1.569   2.480  12.785 -0.0445 -0.5933  0.6070
  147MPD2    C4 2289   1.657   2.524  12.693  0.5747 -0.3281 -1.0199
  147MPD2    C5 2290   1.762   2.453  12.652 -0.9997 -0.8875  0.6372
  147MPD2     H 2291   1.531   2.303  12.911  0.6102  2.1905  1.3223
  147MPD2    H1 2292   1.658   2.627  12.659 -1.5241  0.1865  0.4904
  147MPD2    H2 2293   1.871   2.283  12.649  0.3342  0.2937 -2.4540
  147MPD2    H3 2294   1.835   2.505  12.592  1.2892 -2.7686  1.8322
  147MPD2     N 2295   1.472   2.565  12.845 -0.1294 -0.0598 -0.1149
  147MPD2    H5 2296   1.422   2.526  12.924 -1.1510 -1.1058 -1.2921
  147MPD2    N1 2297   1.715   2.135  12.799  0.4163 -0.4091 -0.4876
  147MPD2    H7 2298   1.779   2.084  12.738  0.0424 -1.1086 -0.2913
  148TMC2    C1 2299   1.447   1.214  10.620  0.2525 -0.3340 -0.2600
  148TMC2    C2 2300   1.575   1.268  10.619  0.0400  0.9420 -0.3880
  148TMC2    C3 2301   1.679   1.179  10.610  0.7879  0.4952  0.1785
  148TMC2    C4 2302   1.429   1.078  10.630 -0.2487 -0.2221  0.3295
  148TMC2    C5 2303   1.537   0.999  10.624 -0.1315 -0.0949 -1.0477
  148TMC2    C6 2304   1.666   1.044  10.611 -0.7560 -0.3150  0.2255
  148TMC2     C 2305   1.361   1.291  10.698 -0.2478  0.5640 -0.2699
  148TMC2     O 2306   1.398   1.332  10.809  0.0974  0.0195 -0.2187
  148TMC2     H 2307   1.590   1.376  10.621  1.0722  0.8418 -2.6928
  148TMC2    H1 2308   1.330   1.033  10.633 -0.3597 -0.0729 -0.9044
  148TMC2    H2 2309   1.748   0.973  10.609  0.5999  1.2568 -0.1451
  148TMC2    C7 2310   1.514   0.856  10.587 -0.1804 -0.1526 -0.2428
  148TMC2    C8 2311   1.809   1.240  10.577  0.2205 -0.3609 -0.0625
  148TMC2    O1 2312   1.400   0.818  10.603  0.5695  0.3570 -0.2136
  148TMC2    O2 2313   1.887   1.171  10.503 -0.7416  0.2743  0.2320
  148TMC2    O5 2314   1.856   1.305  10.686 -0.2904  0.2623  0.1618
  148TMC2    H5 2315   1.789   1.338  10.749 -0.2542  0.6076  0.0221
  149MPD2     C 2316   1.117   1.439  10.791  0.0322  0.1498 -0.5841
  149MPD2    C1 2317   1.129   1.373  10.671  0.2429 -0.5519 -0.2009
  149MPD2    C2 2318   1.021   1.366  10.586 -0.6889  0.6530  0.7364
  149MPD2    C3 2319   0.897   1.420  10.624  0.0725 -0.1593  0.2402
  149MPD2    C4 2320   0.892   1.494  10.743  0.0374  0.4794 -0.3664
  149MPD2    C5 2321   1.001   1.505  10.824 -0.1542  0.2421  0.6815
  149MPD2     H 2322   1.027   1.325  10.486  2.2887 -0.9666  1.5799
  149MPD2    H1 2323   0.799   1.538  10.777 -1.6142 -0.4744 -3.6656
  149MPD2    H2 2324   1.197   1.455  10.863  0.7487 -1.2897 -1.0616
  149MPD2    H3 2325   0.980   1.547  10.921 -2.1224  3.0919 -1.0055
  149MPD2     N 2326   0.772   1.408  10.553 -0.4769 -0.0997 -0.0944
  149MPD2    H5 2327   0.693   1.449  10.602  0.2322  0.7554  0.3326
  149MPD2    N1 2328   1.239   1.297  10.632  0.5810 -0.1828 -0.3367
  149MPD2    H7 2329   1.231   1.236  10.552  1.8294  4.3643 -3.9075
  150TMC2    C1 2330   4.072   0.034  12.194 -0.0697  0.8220 -0.0839
  150TMC2    C2 2331   4.042   0.068  12.064  0.4619  0.2791  0.3226
  150TMC2    C3 2332   4.146   0.127  12.004 -0.4529  0.2104 -0.2503
  150TMC2    C4 2333   4.195   0.035  12.249 -0.5201 -0.0718 -0.5519
  150TMC2    C5 2334   4.293   0.102  12.184 -0.1974  0.0805  0.2669
  150TMC2    C6 2335   4.272   0.146  12.058 -0.4216  0.0626  0.1760
  150TMC2     C 2336   3.961   0.010  12.289 -1.0546 -0.2065  0.6941
  150TMC2     O 2337   3.983   4.679  12.385 -0.1470  0.4792  0.4810
  150TMC2     H 2338   3.949   0.035  12.020  0.2873 -0.2088  1.0502
  150TMC2    H1 2339   4.199   0.008  12.354  0.1688  0.0378 -0.5455
  150TMC2    H2 2340   4.338   0.215  12.006  1.0918 -1.2291  0.3643
  150TMC2    C7 2341   4.433   0.105  12.237  0.1253 -0.0304  0.2507
  150TMC2    C8 2342   4.129   0.181  11.870 -0.8026  0.6392  0.8561
  150TMC2    O1 2343   4.512   0.157  12.163  0.2754 -0.1636 -0.8908
  150TMC2    O2 2344   4.220   0.206  11.793 -0.5548 -0.0853  0.1789
  150TMC2    O5 2345   3.998   0.209  11.853 -0.1775 -0.1237  0.4290
  150TMC2    H5 2346   3.946   0.217  11.936 -0.5964 -0.3137  0.1823
  151MPD2     C 2347   3.444   4.725  12.356  0.0621 -0.1072 -0.2913
  151MPD2    C1 2348   3.481   0.081  12.263 -1.1881 -1.1228 -0.8010
  151MPD2    C2 2349   3.614   0.101  12.225 -0.4936  0.0312  0.6761
  151MPD2    C3 2350   3.712   0.030  12.286  0.2496 -0.0308  0.9757
  151MPD2    C4 2351   3.684   4.675  12.382 -0.1254 -0.2905  0.7874
  151MPD2    C5 2352   3.549   4.652  12.410  0.3628 -0.7000  0.0255
  151MPD2     H 2353   3.640   0.178  12.153 -0.1334 -0.8592 -0.1322
  151MPD2    H1 2354   3.762   4.612  12.423  1.9926  1.1892 -0.8730
  151MPD2    H2 2355   3.338   4.716  12.380 -0.2486 -1.1891 -2.1241
  151MPD2    H3 2356   3.540   4.569  12.480 -1.5925 -0.5416 -0.0219
  151MPD2     N 2357   3.840   0.054  12.236  0.1165  0.4995 -0.0214
  151MPD2    H5 2358   3.842   0.110  12.151 -1.8609 -0.9530 -1.0264
  151MPD2    N1 2359   3.379   0.148  12.189 -0.5557 -0.0446 -0.3902
  151MPD2    H7 2360   3.285   0.114  12.204 -0.4125  0.2955  1.2966
  152TMC2    C1 2361   3.861   0.098  12.650  0.0906 -0.5357  0.2825
  152TMC2    C2 2362   3.930   0.003  12.718 -0.6574 -0.8607 -0.1388
  152TMC2    C3 2363   4.067   0.006  12.715 -0.4559 -0.3981 -0.5504
  152TMC2    C4 2364   3.928   0.193  12.578  0.2073  0.0216  0.5186
  152TMC2    C5 2365   4.059   0.196  12.582  0.3168 -0.2898  0.2610
  152TMC2    C6 2366   4.139   0.100  12.645  0.3555 -0.3381  0.0276
  152TMC2     C 2367   3.714   0.097  12.643 -0.4720  0.4802 -0.0148
  152TMC2     O 2368   3.666   0.203  12.606 -0.1710 -0.1632 -0.0065
  152TMC2     H 2369   3.883   4.653  12.763  0.1250 -0.4847  1.4054
  152TMC2    H1 2370   3.876   0.275  12.528 -0.0644 -0.8688 -0.6569
  152TMC2    H2 2371   4.246   0.090  12.632  0.4678 -1.0529  1.5215
  152TMC2    C7 2372   4.121   0.286  12.488  0.4806  0.6616 -0.0982
  152TMC2    C8 2373   4.135   4.632  12.788 -0.3823 -0.6212  0.1747
  152TMC2    O1 2374   4.052   0.321  12.392  0.2194 -0.5397 -0.8579
  152TMC2    O2 2375   4.081   4.530  12.833  0.2090 -0.3588 -0.1810
  152TMC2    O5 2376   4.263   4.658  12.791  0.0959 -0.0511 -0.5172
  152TMC2    H5 2377   4.294   0.010  12.765 -1.3389  0.1389 -1.6116
  153MPD2     C 2378   3.495   4.581  12.805  0.2035  0.1390  0.1528
  153MPD2    C1 2379   3.522   4.701  12.742  0.0670 -0.0231 -0.2543
  153MPD2    C2 2380   3.416   0.052  12.726  0.6468  0.0675 -0.4752
  153MPD2    C3 2381   3.288   0.015  12.771 -0.1244 -0.5859  0.2263
  153MPD2    C4 2382   3.269   4.635  12.834  0.3829  0.2219 -0.5008
  153MPD2    C5 2383   3.373   4.554  12.855  0.3660 -0.3411 -0.2762
  153MPD2     H 2384   3.434   0.147  12.677  2.3371  0.2421  0.4827
  153MPD2    H1 2385   3.168   4.604  12.860  0.6706  1.1194  1.7362
  153MPD2    H2 2386   3.565   4.499  12.813 -0.9500 -1.1607 -3.2901
  153MPD2    H3 2387   3.367   4.471  12.924 -0.9303 -0.4209 -0.4820
  153MPD2     N 2388   3.178   0.090  12.723 -0.1829  0.5802 -0.1728
  153MPD2    H5 2389   3.190   0.153  12.644  0.3355  0.1166 -0.4691
  153MPD2    N1 2390   3.656   4.723  12.702 -0.5660  0.0598  0.1569
  153MPD2    H7 2391   3.714   4.640  12.711  2.6397  2.2472 -0.4259
  154TMC2    C1 2392   1.752   1.000   0.681 -0.5164  0.3892  0.0098
  154TMC2    C2 2393   1.797   1.001   0.804 -0.7475 -0.0529  0.2032
  154TMC2    C3 2394   1.930   1.037   0.826 -0.2530 -0.5442 -0.1164
  154TMC2    C4 2395   1.837   1.004   0.574 -0.0533  0.2534  0.2545
  154TMC2    C5 2396   1.970   1.024   0.593  0.4376 -0.3693  0.6725
  154TMC2    C6 2397   2.016   1.053   0.721 -0.1821  0.6664 -0.8846
  154TMC2     C 2398   1.614   0.960   0.656 -0.7777 -0.0836  0.2893
  154TMC2     O 2399   1.546   0.916   0.750 -0.1396  0.1795  0.0893
  154TMC2     H 2400   1.719   1.013   0.879 -2.0124  0.6010 -1.2089
  154TMC2    H1 2401   1.810   0.988   0.470  4.0803 -0.0633 -0.7767
  154TMC2    H2 2402   2.120   1.072   0.743 -0.7639  0.7855  1.7505
  154TMC2    C7 2403   2.057   1.054   0.480  0.2001  0.7898 -0.8669
  154TMC2    C8 2404   1.961   1.117   0.946 -0.1711  0.8997 -0.5058
  154TMC2    O1 2405   2.161   1.109   0.508  0.0527 -0.2847 -0.3989
  154TMC2    O2 2406   2.022   1.220   0.937  0.2587  0.2718  0.8083
  154TMC2    O5 2407   1.894   1.071   1.049 -0.1479  0.7143 -0.3324
  154TMC2    H5 2408   1.880   0.974   1.048  2.0469  0.3791  1.2872
  155MPD2     C 2409   1.443   0.961   0.326 -0.2997 -0.2148 -0.1661
  155MPD2    C1 2410   1.458   0.942   0.466  0.4488 -0.2511  0.1569
  155MPD2    C2 2411   1.349   0.887   0.529 -0.2774  0.2019  0.1664
  155MPD2    C3 2412   1.247   0.819   0.463  0.5326  0.4065 -0.3566
  155MPD2    C4 2413   1.252   0.831   0.322 -0.2059  0.2056 -0.2996
  155MPD2    C5 2414   1.347   0.903   0.252  0.0752 -0.1860  0.1794
  155MPD2     H 2415   1.338   0.892   0.636  2.8776 -0.7480  0.5536
  155MPD2    H1 2416   1.181   0.778   0.260 -1.5264  1.3544  0.2425
  155MPD2    H2 2417   1.517   1.015   0.268 -0.1891  0.4672  0.6092
  155MPD2    H3 2418   1.360   0.886   0.146  2.8051  0.4865  0.4022
  155MPD2     N 2419   1.143   0.748   0.533  0.1243 -0.2293 -0.0823
  155MPD2    H5 2420   1.155   0.758   0.633  0.1219 -0.5287 -0.0546
  155MPD2    N1 2421   1.577   0.990   0.526 -0.1769 -0.0283 -0.5800
  155MPD2    H7 2422   1.641   1.045   0.471  1.6839  0.2629  1.9144
  156TMC2    C1 2423   4.009   2.333  12.019  0.8861  0.6319  0.3743
  156TMC2    C2 2424   3.951   2.209  12.006  0.2657  0.7209 -0.3610
  156TMC2    C3 2425   3.844   2.209  11.910  0.1825  0.2648  0.0127
  156TMC2    C4 2426   3.962   2.448  11.953  0.6926 -0.3632 -0.2475
  156TMC2    C5 2427   3.859   2.433  11.862  1.2477 -0.4114 -1.1280
  156TMC2    C6 2428   3.802   2.309  11.832 -1.0591 -0.2809 -0.0613
  156TMC2     C 2429   4.096   2.364  12.135  0.2552 -0.0958 -0.2351
  156TMC2     O 2430   4.145   2.473  12.133  0.1689 -0.3472  0.8037
  156TMC2     H 2431   3.964   2.120  12.066 -0.8546  0.4774 -0.4767
  156TMC2    H1 2432   4.002   2.549  11.963  1.6482 -0.4737 -2.9977
  156TMC2    H2 2433   3.715   2.299  11.768  0.0961 -2.6809 -1.2467
  156TMC2    C7 2434   3.801   2.556  11.811  0.4659 -0.1957  0.2024
  156TMC2    C8 2435   3.764   2.093  11.912 -0.0490 -0.4542 -0.2349
  156TMC2    O1 2436   3.856   2.661  11.846  0.2783  0.0289 -0.7193
  156TMC2    O2 2437   3.802   1.989  11.954 -0.2910 -0.7846  0.0011
  156TMC2    O5 2438   3.639   2.127  11.919 -0.0715  0.1270 -0.3089
  156TMC2    H5 2439   3.639   2.225  11.921 -0.0832  0.1600 -1.5776
  157MPD2     C 2440   4.194   2.172  12.435 -0.8639  0.7002 -0.2197
  157MPD2    C1 2441   4.161   2.281  12.353 -0.6850  0.4411 -0.5290
  157MPD2    C2 2442   4.165   2.410  12.412 -0.3486 -0.2917 -0.0470
  157MPD2    C3 2443   4.196   2.435  12.539 -0.1424 -0.4461 -0.3994
  157MPD2    C4 2444   4.234   2.319  12.617  0.2437  0.2470  0.2889
  157MPD2    C5 2445   4.231   2.195  12.568  0.3906 -0.2813  1.1375
  157MPD2     H 2446   4.132   2.498  12.358  1.8654  0.0484 -0.8606
  157MPD2    H1 2447   4.263   2.329  12.720  1.4960  0.7517 -0.1206
  157MPD2    H2 2448   4.175   2.069  12.407 -0.1746  0.8613 -1.2705
  157MPD2    H3 2449   4.260   2.124  12.644 -1.6289 -1.2858  0.9735
  157MPD2     N 2450   4.182   2.564  12.593 -0.1414 -0.1355 -0.5047
  157MPD2    H5 2451   4.168   2.635  12.522  1.7340  0.7681  0.0130
  157MPD2    N1 2452   4.121   2.258  12.221 -0.8112 -0.6491  0.1500
  157MPD2    H7 2453   4.099   2.160  12.206  0.3402 -0.6368 -1.5660
  158TMC2    C1 2454   4.164   1.332  12.933  0.2244  0.2659 -0.2885
  158TMC2    C2 2455   4.218   1.340  12.809  0.6532 -0.8440 -0.6944
  158TMC2    C3 2456   4.138   1.351  12.704  0.0028 -0.8464 -0.2945
  158TMC2    C4 2457   4.028   1.311  12.947 -0.4315  0.2041  0.2222
  158TMC2    C5 2458   3.943   1.307  12.833 -0.0877  0.7943  0.4202
  158TMC2    C6 2459   3.999   1.337  12.712  0.0576  0.3149 -0.4780
  158TMC2     C 2460   4.259   1.352  13.047  0.0019  0.5894  0.0644
  158TMC2     O 2461   4.379   1.370  13.033  0.4631 -0.2123  0.1939
  158TMC2     H 2462   4.322   1.370  12.797  0.4125  0.6908  1.1128
  158TMC2    H1 2463   3.980   1.320  13.044 -1.0623  1.0189 -0.1629
  158TMC2    H2 2464   3.942   1.317  12.623 -1.9989  0.6006  0.7882
  158TMC2    C7 2465   3.797   1.327  12.836 -0.2997  0.3088 -0.6575
  158TMC2    C8 2466   4.195   1.410  12.590  0.2613 -0.0867  0.0018
  158TMC2    O1 2467   3.760   1.377  12.731  0.0861 -0.3682 -0.0945
  158TMC2    O2 2468   4.314   1.422  12.573 -0.3904 -0.8829  0.0142
  158TMC2    O5 2469   4.099   1.488  12.533  0.4035 -0.8395 -0.2336
  158TMC2    H5 2470   4.006   1.466  12.556  0.8283 -0.3601  1.9568
  159MPD2     C 2471   4.310   1.307  13.566  0.7891 -0.0286  0.1175
  159MPD2    C1 2472   4.180   1.286  13.532 -0.7325 -0.4698  0.0717
  159MPD2    C2 2473   4.150   1.306  13.394 -0.1802  0.1441  0.1252
  159MPD2    C3 2474   4.243   1.334  13.296  0.3044  0.0045  0.6163
  159MPD2    C4 2475   4.375   1.353  13.333  0.5358 -0.3407  0.6730
  159MPD2    C5 2476   4.404   1.342  13.469  0.0768 -0.1310  0.6099
  159MPD2     H 2477   4.048   1.288  13.362 -0.6741 -0.1038  1.8414
  159MPD2    H1 2478   4.446   1.376  13.254  1.4245  0.7941  1.7940
  159MPD2    H2 2479   4.339   1.285  13.668  4.0102 -0.8395 -0.9701
  159MPD2    H3 2480   4.503   1.361  13.509  1.4038  0.8212 -3.1476
  159MPD2     N 2481   4.195   1.330  13.160  0.7221 -0.2472  0.3086
  159MPD2    H5 2482   4.097   1.303  13.154  0.7802 -0.3235 -0.2955
  159MPD2    N1 2483   4.090   1.250  13.632 -0.1610 -0.1272 -0.5875
  159MPD2    H7 2484   4.116   1.272  13.727 -2.4320  0.5063 -0.1246
  160TMC2    C1 2485   4.375   3.711   1.286 -0.3293 -0.2606  0.1741
  160TMC2    C2 2486   4.488   3.637   1.289  0.9443 -0.2669  0.2543
  160TMC2    C3 2487   4.595   3.688   1.221  0.2638  0.6248 -0.5368
  160TMC2    C4 2488   4.375   3.838   1.234  0.3656 -0.9667  0.0357
  160TMC2    C5 2489   4.494   3.888   1.175  0.0379  0.3311 -0.8062
  160TMC2    C6 2490   4.605   3.816   1.174 -0.2253 -0.4165  0.1380
  160TMC2     C 2491   4.251   3.638   1.291 -0.3195 -0.0441 -0.6935
  160TMC2     O 2492   4.268   3.514   1.291  0.2057  0.1522  0.0901
  160TMC2     H 2493   4.491   3.530   1.307  1.7245 -0.3470 -0.3751
  160TMC2    H1 2494   4.281   3.889   1.217  0.4741 -1.4974 -2.1361
  160TMC2    H2 2495   4.696   3.845   1.123  0.1494 -1.5247  0.1568
  160TMC2    C7 2496   4.484   4.022   1.117 -0.1315 -0.3704 -0.2575
  160TMC2    C8 2497   4.709   3.599   1.213  0.0798  1.0038  0.1920
  160TMC2    O1 2498   4.370   4.065   1.110  0.1837  0.3151  0.0984
  160TMC2    O2 2499   0.061   3.608   1.128 -0.5684  0.4708  0.0316
  160TMC2    O5 2500   4.731   3.574   1.342 -0.4411 -0.2030  0.3560
  160TMC2    H5 2501   4.652   3.578   1.401  0.1054  0.6161  1.0371
  161MPD2     C 2502   3.991   3.532   1.227 -0.5947  0.3200  0.0863
  161MPD2    C1 2503   4.012   3.659   1.268  0.2716 -0.5264  0.0594
  161MPD2    C2 2504   3.909   3.747   1.268  0.4430 -0.2168  0.0038
  161MPD2    C3 2505   3.781   3.718   1.218  0.2054  0.0796 -0.5863
  161MPD2    C4 2506   3.766   3.586   1.176  0.4693 -0.1498 -0.7729
  161MPD2    C5 2507   3.865   3.498   1.182 -0.5523 -0.1031 -0.1646
  161MPD2     H 2508   3.933   3.850   1.289  2.1284 -0.7123  0.4825
  161MPD2    H1 2509   3.674   3.541   1.141 -0.4208 -0.5720  2.1162
  161MPD2    H2 2510   4.071   3.459   1.232 -1.3707 -0.5508 -0.1802
  161MPD2    H3 2511   3.866   3.401   1.135  0.4999 -1.0766  1.8401
  161MPD2     N 2512   3.677   3.804   1.194  0.0813  0.2439 -0.4222
  161MPD2    H5 2513   3.593   3.769   1.149  1.2524 -1.1658 -1.5093
  161MPD2    N1 2514   4.137   3.714   1.293 -0.1065  0.3586  0.4852
  161MPD2    H7 2515   4.138   3.809   1.328  1.3699 -0.1251  1.7836
  162TMC2    C1 2516   1.879   0.822   1.278  0.5520 -0.4719  0.4835
  162TMC2    C2 2517   1.771   0.883   1.231  0.6771  0.5003 -0.2886
  162TMC2    C3 2518   1.716   0.981   1.310  0.3030 -0.0481  0.5445
  162TMC2    C4 2519   1.919   0.838   1.404 -0.2841 -0.3551  0.0078
  162TMC2    C5 2520   1.866   0.933   1.487 -0.1676  0.0617 -0.4024
  162TMC2    C6 2521   1.763   1.015   1.441 -0.5841 -0.4530 -0.0021
  162TMC2     C 2522   1.974   0.778   1.185 -0.5177 -0.1232 -0.3895
  162TMC2     O 2523   1.956   0.821   1.068  0.7056  0.4594 -0.5735
  162TMC2     H 2524   1.715   0.866   1.139  2.5736 -1.5670 -1.0465
  162TMC2    H1 2525   2.004   0.778   1.433 -0.1079 -0.1522 -0.0919
  162TMC2    H2 2526   1.705   1.086   1.498  0.6362  2.2541 -2.0871
  162TMC2    C7 2527   1.903   0.942   1.622 -0.0830  0.1429 -0.5181
  162TMC2    C8 2528   1.617   1.065   1.242 -1.1459 -0.2299 -0.0130
  162TMC2    O1 2529   1.894   1.048   1.675 -0.1275  0.2186 -0.6021
  162TMC2    O2 2530   1.556   1.036   1.143 -0.1639  0.0059  0.5157
  162TMC2    O5 2531   1.670   1.185   1.264  0.2446 -0.0546  0.0140
  162TMC2    H5 2532   1.745   1.183   1.328 -0.3108 -1.2095  0.6279
  163MPD2     C 2533   2.302   0.444   0.996  0.5226 -0.3244  0.2770
  163MPD2    C1 2534   2.266   0.575   0.960 -0.1540  0.2184  0.0833
  163MPD2    C2 2535   2.175   0.646   1.033  1.2847  0.3207 -0.0203
  163MPD2    C3 2536   2.119   0.593   1.146 -0.0457  0.3028 -0.0667
  163MPD2    C4 2537   2.160   0.466   1.186 -0.0683  0.0361  0.1482
  163MPD2    C5 2538   2.245   0.390   1.106 -0.1782  0.6620  0.5942
  163MPD2     H 2539   2.160   0.748   1.001 -1.2260  0.2978  1.0713
  163MPD2    H1 2540   2.121   0.428   1.279 -2.9420  1.0237 -0.6462
  163MPD2    H2 2541   2.378   0.385   0.945  1.7032  0.7758  0.7636
  163MPD2    H3 2542   2.274   0.289   1.131 -1.4520  0.2301  0.3055
  163MPD2     N 2543   2.032   0.666   1.226 -0.0227 -0.0425 -0.4299
  163MPD2    H5 2544   2.005   0.630   1.317  0.2331  1.9100  0.4111
  163MPD2    N1 2545   2.329   0.621   0.843 -0.3026  0.0970  0.2178
  163MPD2    H7 2546   2.391   0.556   0.796 -1.6750 -0.1789 -1.2136
  164TMC2    C1 2547   2.278   1.187  11.712  0.0879  0.1188  0.4593
  164TMC2    C2 2548   2.314   1.137  11.830 -0.0050 -0.2353 -0.1107
  164TMC2    C3 2549   2.233   1.166  11.940  0.4031 -0.0993 -0.3828
  164TMC2    C4 2550   2.167   1.273  11.696 -0.4163  0.3402  0.0852
  164TMC2    C5 2551   2.102   1.309  11.810 -0.2959  0.0329  0.2698
  164TMC2    C6 2552   2.139   1.266  11.931 -0.1986  0.3798 -0.5289
  164TMC2     C 2553   2.370   1.173  11.598 -0.1930 -0.5724 -0.5689
  164TMC2     O 2554   2.450   1.086  11.613  0.1198 -0.1355 -0.9041
  164TMC2     H 2555   2.388   1.058  11.839  0.5305  0.4863  1.7586
  164TMC2    H1 2556   2.122   1.301  11.601 -0.7026  1.1527  0.4618
  164TMC2    H2 2557   2.082   1.284  12.021 -0.7784 -1.3157 -0.5455
  164TMC2    C7 2558   1.981   1.394  11.800  0.3496  0.0920  0.6022
  164TMC2    C8 2559   2.276   1.119  12.068  1.0431 -0.0982  0.5938
  164TMC2    O1 2560   1.954   1.420  11.682  0.0052 -0.3548  0.1737
  164TMC2    O2 2561   2.195   1.103  12.159  0.0585 -0.5379 -0.4701
  164TMC2    O5 2562   2.403   1.169  12.074  0.0488 -0.7660  0.3779
  164TMC2    H5 2563   2.449   1.198  11.993 -0.2450 -1.3983 -0.0131
  165TMC2    C1 2564   3.364   3.082   0.540  0.0021  0.3019  0.2708
  165TMC2    C2 2565   3.372   3.010   0.420  0.3496  0.9953  0.2826
  165TMC2    C3 2566   3.469   2.916   0.419  0.4847  0.0593 -0.0469
  165TMC2    C4 2567   3.452   3.059   0.644  0.5187 -0.1118  1.0581
  165TMC2    C5 2568   3.540   2.951   0.637 -0.6635 -0.0478  0.4471
  165TMC2    C6 2569   3.552   2.874   0.521 -0.7883 -0.4132  0.1309
  165TMC2     C 2570   3.229   3.131   0.588 -0.8404  0.1620  0.2963
  165TMC2     O 2571   3.223   3.187   0.698  0.5509 -0.0706 -0.1644
  165TMC2     H 2572   3.308   3.018   0.333 -0.5329 -0.4001  0.8150
  165TMC2    H1 2573   3.437   3.104   0.742  0.1091 -1.1603  1.4739
  165TMC2    H2 2574   3.625   2.796   0.501  2.0038  2.5379 -1.2475
  165TMC2    C7 2575   3.658   2.959   0.716 -0.5003 -0.5210 -0.3164
  165TMC2    C8 2576   3.457   2.822   0.312 -0.3550  0.1985  0.4242
  165TMC2    O1 2577   3.682   3.070   0.758  0.1683  0.2442 -0.0401
  165TMC2    O2 2578   3.432   2.859   0.196  0.1774 -0.4888  0.3082
  165TMC2    O5 2579   3.421   2.705   0.365 -0.5825  0.0473  0.3106
  165TMC2    H5 2580   3.469   2.700   0.450  1.5706 -3.7722 -1.1665
  166MPD2     C 2581   2.762   2.961   0.629  0.1400 -0.2488 -0.3717
  166MPD2    C1 2582   2.823   3.059   0.702 -0.1884  0.2433 -0.1546
  166MPD2    C2 2583   2.948   3.101   0.667  0.1327  0.0771  0.5989
  166MPD2    C3 2584   3.003   3.048   0.551  0.5006 -0.0544 -1.0296
  166MPD2    C4 2585   2.926   2.974   0.468  0.7172  0.0708 -0.8457
  166MPD2    C5 2586   2.808   2.924   0.509  0.3673 -0.4902  0.2105
  166MPD2     H 2587   2.994   3.184   0.720 -1.4731 -0.2698  2.5310
  166MPD2    H1 2588   2.953   2.949   0.366  1.5619  1.1943 -0.8924
  166MPD2    H2 2589   2.660   2.928   0.646  1.5135 -3.3000  2.0809
  166MPD2    H3 2590   2.757   2.842   0.459  1.6873 -2.1094  1.4993
  166MPD2     N 2591   3.134   3.071   0.515 -0.4580  0.0839  0.5505
  166MPD2    H5 2592   3.166   3.021   0.433 -1.0582  1.6077 -0.6229
  166MPD2    N1 2593   2.765   3.107   0.824 -0.3331 -0.0351  0.0144
  166MPD2    H7 2594   2.683   3.057   0.858  1.7412 -2.6419  1.2012
  167TMC2    C1 2595   1.059   0.684  12.864  0.2264  0.7809 -0.2248
  167TMC2    C2 2596   0.925   0.688  12.842 -0.1367  0.1535 -0.0834
  167TMC2    C3 2597   0.873   0.581  12.770 -0.3315  0.4394  0.1617
  167TMC2    C4 2598   1.145   0.587  12.818  0.1359  0.2828 -0.1620
  167TMC2    C5 2599   1.093   0.492  12.734 -0.1088 -0.2640  0.1268
  167TMC2    C6 2600   0.958   0.488  12.711 -0.1234 -0.0979  1.0027
  167TMC2     C 2601   1.098   0.751  12.993 -0.1958  1.2854 -0.0251
  167TMC2     O 2602   1.019   0.787  13.081  0.5830  0.5046  0.0025
  167TMC2     H 2603   0.858   0.757  12.892  2.6920  1.7118  1.5892
  167TMC2    H1 2604   1.249   0.570  12.843  0.0785 -2.4609 -1.7333
  167TMC2    H2 2605   0.916   0.417  12.641 -1.9880  1.1587  0.8583
  167TMC2    C7 2606   1.166   0.373  12.713  0.7934  0.8626  0.1939
  167TMC2    C8 2607   0.753   0.594  12.694  0.0589  0.1254  0.0551
  167TMC2    O1 2608   1.101   0.275  12.704  0.1250  0.7771  0.9026
  167TMC2    O2 2609   0.716   0.509  12.613  0.3890  0.1081  0.0111
  167TMC2    O5 2610   0.758   0.727  12.660 -0.2299 -0.1806  0.2384
  167TMC2    H5 2611   0.820   0.778  12.716 -0.4667  2.9080 -2.3241
  168MPD2     C 2612   1.292   0.824  13.220  0.4520 -0.3797  0.0321
  168MPD2    C1 2613   1.326   0.800  13.085 -0.4528  1.2857 -0.5593
  168MPD2    C2 2614   1.455   0.809  13.035 -0.2876  0.1331  0.2346
  168MPD2    C3 2615   1.549   0.875  13.114 -0.7221  0.0627  0.1468
  168MPD2    C4 2616   1.517   0.893  13.245  0.2567 -0.0505 -0.2896
  168MPD2    C5 2617   1.395   0.862  13.300  0.2289  0.2710 -0.2365
  168MPD2     H 2618   1.485   0.795  12.932 -2.0548  0.6273 -0.3589
  168MPD2    H1 2619   1.588   0.928  13.319 -0.5601  1.6842 -0.3367
  168MPD2    H2 2620   1.193   0.806  13.262  0.5587 -1.6748 -0.2641
  168MPD2    H3 2621   1.385   0.870  13.408  0.6426 -3.5595  0.0880
  168MPD2     N 2622   1.684   0.896  13.074  0.1931  0.5880  0.3073
  168MPD2    H5 2623   1.750   0.928  13.143 -0.1008  2.0242 -0.0792
  168MPD2    N1 2624   1.232   0.769  12.985 -0.5274  0.4567 -0.3923
  168MPD2    H7 2625   1.270   0.764  12.891  0.9354 -0.1391  0.2302
  169MPD1     C 2626   3.305   1.838   9.384  0.0783  0.1057  0.6288
  169MPD1    C1 2627   3.423   1.912   9.395  0.5341  0.2574  0.3105
  169MPD1    C2 2628   3.530   1.857   9.461 -0.5842  0.4178  0.1177
  169MPD1    C3 2629   3.520   1.733   9.521 -0.0131 -0.0909 -0.5379
  169MPD1    C4 2630   3.400   1.656   9.519  0.0835  0.1822 -0.2104
  169MPD1    C5 2631   3.297   1.713   9.445  0.1014  0.1813 -0.1027
  169MPD1     H 2632   3.621   1.915   9.473  0.5035 -1.1079 -0.7631
  169MPD1    H1 2633   3.377   1.560   9.564 -3.2195  1.8585  1.6367
  169MPD1    H2 2634   3.218   1.865   9.325  0.4954 -0.0265 -0.0478
  169MPD1    H3 2635   3.198   1.669   9.436  1.1651 -2.2871  0.3299
  169MPD1     N 2636   3.631   1.677   9.577  0.2739  0.2612  0.7574
  169MPD1    H5 2637   3.720   1.726   9.576  0.6095 -0.3472  1.2192
  169MPD1    N1 2638   3.422   2.037   9.328  0.3728 -0.3675 -0.6031
  169MPD1    H6 2639   3.490   2.109   9.350 -0.5663 -0.5109  2.7995
  169MPD1    H7 2640   3.333   2.083   9.309 -0.2207 -1.8856 -1.4975
  170MPD1     C 2641   2.466   2.971  12.997  0.1483 -0.0945  0.0410
  170MPD1    C1 2642   2.547   2.891  13.065  0.2670 -0.3662  0.5801
  170MPD1    C2 2643   2.598   2.942  13.182 -0.4444  0.1259  0.6548
  170MPD1    C3 2644   2.561   3.064  13.238  0.1508  0.8889 -0.2204
  170MPD1    C4 2645   2.471   3.135  13.163  0.3259 -0.1353 -0.0844
  170MPD1    C5 2646   2.419   3.085  13.051 -0.0010 -0.2743  0.0090
  170MPD1     H 2647   2.665   2.879  13.240  0.7142 -1.3647 -2.2985
  170MPD1    H1 2648   2.427   3.232  13.185  0.0614 -0.3583  0.3888
  170MPD1    H2 2649   2.411   2.940  12.909 -1.2174 -0.7200  1.1133
  170MPD1    H3 2650   2.335   3.139  13.009  0.6694  0.8127  0.0756
  170MPD1     N 2651   2.620   3.116  13.356  0.4414 -0.6132 -0.1489
  170MPD1    H5 2652   2.669   3.056  13.421  1.4788  2.7208  2.1407
  170MPD1    N1 2653   2.586   2.768  13.016 -0.0618 -0.3740 -0.0637
  170MPD1    H6 2654   2.639   2.710  13.080  1.4975 -0.5223 -1.4814
  170MPD1    H7 2655   2.511   2.716  12.971 -0.2611 -1.4157  1.4743
  171MPD1     C 2656   0.684   4.266  16.083 -0.1444 -0.3969 -0.5590
  171MPD1    C1 2657   0.732   4.196  15.969 -0.1939 -0.3147  0.6154
  171MPD1    C2 2658   0.832   4.100  15.991  0.5843  0.0183 -0.5650
  171MPD1    C3 2659   0.885   4.072  16.115  0.2498  0.5940  0.0957
  171MPD1    C4 2660   0.848   4.155  16.218 -0.8496  0.2145  0.2075
  171MPD1    C5 2661   0.739   4.236  16.206  1.0077  0.2588  0.1274
  171MPD1     H 2662   0.868   4.051  15.901 -0.0180 -1.3460 -0.0589
  171MPD1    H1 2663   0.874   4.134  16.321 -1.1185 -0.4697  0.1310
  171MPD1    H2 2664   0.598   4.331  16.083 -0.0143 -0.2232 -0.3699
  171MPD1    H3 2665   0.699   4.287  16.293 -0.3062 -2.0899  0.9153
  171MPD1     N 2666   0.983   3.967  16.136  0.2331 -0.1770  0.3932
  171MPD1    H5 2667   1.017   3.956  16.231  0.8040  1.7198  0.4044
  171MPD1    N1 2668   0.657   4.192  15.856  0.6890 -0.3037 -0.3787
  171MPD1    H6 2669   0.631   4.285  15.825  1.5848 -0.5858 -1.9827
  171MPD1    H7 2670   0.719   4.150  15.786  0.0392 -1.9181  0.0182
  172MPD1     C 2671   0.573   3.117  17.617  0.1039  0.0799  0.1913
  172MPD1    C1 2672   0.463   3.196  17.631  0.2880 -0.7245 -0.0139
  172MPD1    C2 2673   0.460   3.275  17.740  0.5565  0.7000 -0.0449
  172MPD1    C3 2674   0.554   3.270   0.096 -0.7722 -0.7501 -0.7643
  172MPD1    C4 2675   0.664   3.192   0.078  0.6344 -0.0787 -0.2688
  172MPD1    C5 2676   0.669   3.121  17.713 -0.2385  0.6338 -0.2986
  172MPD1     H 2677   0.372   3.336  17.746  0.5973  0.8167 -0.6824
  172MPD1    H1 2678   0.759   3.195   0.130 -0.7439  0.2866  2.2226
  172MPD1    H2 2679   0.599   3.063  17.526 -0.0600 -1.1970  0.9026
  172MPD1    H3 2680   0.762   3.069  17.692 -1.0047 -1.0133  0.3910
  172MPD1     N 2681   0.557   3.354   0.209  0.2763  0.6283 -0.5434
  172MPD1    H5 2682   0.632   3.347   0.277  0.1605 -3.4102 -0.8304
  172MPD1    N1 2683   0.366   3.207  17.532  0.6422 -0.1043 -0.2869
  172MPD1    H6 2684   0.362   3.112  17.497  1.6481 -0.2120 -0.1214
  172MPD1    H7 2685   0.282   3.240  17.580 -0.2491  0.4714 -2.2598
  173MPD1     C 2686   2.508   3.501  13.811  0.3048  0.2619 -0.2192
  173MPD1    C1 2687   2.373   3.475  13.829 -0.1487 -0.3917 -0.6762
  173MPD1    C2 2688   2.338   3.401  13.938 -0.7673  0.5718  0.3217
  173MPD1    C3 2689   2.429   3.370  14.036 -0.7485  0.9780 -0.4037
  173MPD1    C4 2690   2.558   3.409  14.026 -0.1765  0.3398  0.2849
  173MPD1    C5 2691   2.600   3.472  13.910 -0.3446 -0.0158 -0.5366
  173MPD1     H 2692   2.233   3.379  13.958 -0.2025 -2.6704 -0.2565
  173MPD1    H1 2693   2.636   3.384  14.096  0.6041  1.8757 -0.0367
  173MPD1    H2 2694   2.548   3.549  13.723 -0.2133 -1.0931 -1.2044
  173MPD1    H3 2695   2.703   3.500  13.893 -0.1581  0.7715  1.8362
  173MPD1     N 2696   2.389   3.285  14.142  0.2165 -0.3744 -0.5005
  173MPD1    H5 2697   2.289   3.286  14.163  0.5551  0.2848  1.0932
  173MPD1    N1 2698   2.278   3.494  13.725 -0.8575  0.0231  1.2190
  173MPD1    H6 2699   2.182   3.500  13.759 -1.4242 -0.2727 -0.3261
  173MPD1    H7 2700   2.297   3.576  13.669  0.9091 -2.3388 -1.6653
  174MPD1     C 2701   2.848   2.828  14.903 -0.1099 -0.2646 -0.1146
  174MPD1    C1 2702   2.720   2.835  14.943  1.2932 -0.6452  0.4921
  174MPD1    C2 2703   2.629   2.894  14.860 -0.1040  0.2664 -0.0199
  174MPD1    C3 2704   2.661   2.935  14.730  0.1296 -0.0899  0.4768
  174MPD1    C4 2705   2.793   2.933  14.694  0.2452  0.3431  0.7167
  174MPD1    C5 2706   2.885   2.879  14.779 -0.2652  0.2784 -0.5057
  174MPD1     H 2707   2.524   2.896  14.886 -0.0495  0.4574  0.1826
  174MPD1    H1 2708   2.830   2.977  14.601 -0.8003  1.0063  0.6114
  174MPD1    H2 2709   2.923   2.782  14.966  0.1772  1.1591  0.5908
  174MPD1    H3 2710   2.990   2.888  14.754  0.0068  1.8770  1.1764
  174MPD1     N 2711   2.569   2.986  14.641  0.3537 -0.2638  0.3298
  174MPD1    H5 2712   2.609   3.011  14.551 -0.9281 -1.3247 -0.5390
  174MPD1    N1 2713   2.685   2.797  15.072 -0.0821  0.2833 -0.1331
  174MPD1    H6 2714   2.586   2.774  15.076 -0.6276  2.8998  1.1414
  174MPD1    H7 2715   2.737   2.721  15.117  0.1642  0.8805  0.5979
  175MPD1     C 2716   0.067   4.314  15.627  0.1620  0.6414 -1.2665
  175MPD1    C1 2717   0.188   4.296  15.697 -0.0654 -0.2854  0.3550
  175MPD1    C2 2718   0.192   4.256  15.825 -0.2364 -0.5170  0.5552
  175MPD1    C3 2719   0.070   4.248  15.896  0.0391 -0.0796  0.3571
  175MPD1    C4 2720   4.690   4.254  15.823 -0.5930 -0.0793 -0.1061
  175MPD1    C5 2721   4.685   4.297  15.692  0.0362  0.2589 -0.2569
  175MPD1     H 2722   0.289   4.246  15.873  0.0580  0.0360  0.0794
  175MPD1    H1 2723   4.593   4.236  15.868 -0.0383 -0.1510  1.0869
  175MPD1    H2 2724   0.051   4.344  15.525 -2.0971  0.8597 -0.8436
  175MPD1    H3 2725   4.594   4.296  15.633 -1.7134  1.1961  2.4109
  175MPD1     N 2726   0.059   4.211  16.026 -0.1487 -0.3166 -0.3384
  175MPD1    H5 2727   4.706   4.231  16.068 -0.8005 -0.1496 -1.8426
  175MPD1    N1 2728   0.313   4.333  15.643  0.3563 -0.5487 -0.4269
  175MPD1    H6 2729   0.322   4.321  15.543 -0.0349  1.0741 -0.6502
  175MPD1    H7 2730   0.386   4.278  15.688  1.9665  0.5132 -1.7923
  176MPD1     C 2731   2.111   1.454   0.729 -0.4922 -0.0632  0.1895
  176MPD1    C1 2732   2.073   1.587   0.756  0.1772 -0.3681  0.8277
  176MPD1    C2 2733   2.047   1.666   0.644 -0.1663  0.4841  0.5385
  176MPD1    C3 2734   2.072   1.615   0.510  0.2102 -0.1781 -0.2316
  176MPD1    C4 2735   2.127   1.490   0.494  0.8881 -0.3850 -0.3131
  176MPD1    C5 2736   2.150   1.417   0.608  0.2966 -0.4363  0.4981
  176MPD1     H 2737   1.998   1.762   0.662  0.0976  0.5725  0.7918
  176MPD1    H1 2738   2.171   1.460   0.400 -0.4696  1.4045 -1.5356
  176MPD1    H2 2739   2.125   1.386   0.812 -3.1684  1.4701  1.9051
  176MPD1    H3 2740   2.187   1.316   0.599 -1.0362 -0.7038 -1.9680
  176MPD1     N 2741   2.042   1.710   0.414  0.2157 -0.2115 -0.2217
  176MPD1    H5 2742   2.017   1.801   0.450 -1.9601 -0.2212 -1.7039
  176MPD1    N1 2743   2.038   1.628   0.885  0.5831 -0.2074  0.2555
  176MPD1    H6 2744   2.094   1.580   0.955  0.6391  0.4451  0.6681
  176MPD1    H7 2745   2.044   1.729   0.896  1.5191 -0.4409  1.8318
  177MPD1     C 2746   4.351   1.393  10.782 -0.0928  0.0111  0.3332
  177MPD1    C1 2747   4.268   1.347  10.683  0.0777  0.3333 -1.3235
  177MPD1    C2 2748   4.183   1.437  10.622  0.2962  0.2374 -0.4834
  177MPD1    C3 2749   4.194   1.572  10.640  0.0163 -0.1268 -0.0300
  177MPD1    C4 2750   4.285   1.622  10.725  0.3340  0.0366  0.1834
  177MPD1    C5 2751   4.369   1.531  10.795  0.2134 -0.4141  0.1315
  177MPD1     H 2752   4.124   1.404  10.537 -1.3765  2.3435 -0.1156
  177MPD1    H1 2753   4.298   1.728  10.743 -0.6855  0.3997 -1.2672
  177MPD1    H2 2754   4.419   1.338  10.847  0.5471  1.0756  0.5750
  177MPD1    H3 2755   4.444   1.577  10.858  1.7368  1.1297 -2.8032
  177MPD1     N 2756   4.099   1.648  10.568 -0.5094 -0.4783 -0.2095
  177MPD1    H5 2757   4.031   1.593  10.516 -0.3113 -1.3242  0.4358
  177MPD1    N1 2758   4.251   1.210  10.659 -0.2917  0.3111 -0.4146
  177MPD1    H6 2759   4.328   1.153  10.694 -0.2245 -0.7186 -2.2326
  177MPD1    H7 2760   4.216   1.187  10.566 -0.0768 -0.8314 -0.2094
  178MPD1     C 2761   3.729   1.910   0.631 -0.6254  1.0504  0.2212
  178MPD1    C1 2762   3.589   1.907   0.616  0.4860 -0.0148  0.0636
  178MPD1    C2 2763   3.540   1.918   0.490  1.1634  0.1363  0.0963
  178MPD1    C3 2764   3.612   1.952   0.374  0.5249 -0.1326  0.0582
  178MPD1    C4 2765   3.751   1.955   0.388 -0.0788 -0.2732 -0.1717
  178MPD1    C5 2766   3.802   1.927   0.516  0.4240 -0.1501 -0.0789
  178MPD1     H 2767   3.433   1.937   0.489  1.3039  0.9713  0.6545
  178MPD1    H1 2768   3.819   1.994   0.312 -2.5460  2.5433 -0.9255
  178MPD1    H2 2769   3.785   1.910   0.724  1.7020 -1.2200 -1.1558
  178MPD1    H3 2770   3.909   1.929   0.526  0.5848  1.1298 -2.0425
  178MPD1     N 2771   3.550   1.978   0.249 -0.1745  0.0411  0.1331
  178MPD1    H5 2772   3.607   2.010   0.172  0.0854  1.7095  1.0252
  178MPD1    N1 2773   3.507   1.907   0.730  0.3008  0.5200  0.2452
  178MPD1    H6 2774   3.558   1.897   0.817  1.9200 -0.3961 -0.7999
  178MPD1    H7 2775   3.429   1.844   0.715 -2.5262  3.9092  0.5831
  179MPD1     C 2776   1.855   0.271  15.289  0.2764  0.0190 -0.1774
  179MPD1    C1 2777   1.989   0.256  15.313 -0.4259 -0.0975  0.2439
  179MPD1    C2 2778   2.030   0.170  15.414  0.0910  0.5504 -0.0391
  179MPD1    C3 2779   1.930   0.095  15.478 -0.2743  0.4065  0.2266
  179MPD1    C4 2780   1.797   0.106  15.442 -0.0010 -0.2191 -0.1715
  179MPD1    C5 2781   1.754   0.199  15.347 -0.9166  0.0308  0.2087
  179MPD1     H 2782   2.135   0.164  15.439 -0.8242 -0.5822  3.4691
  179MPD1    H1 2783   1.715   0.054  15.492 -1.3862 -0.0952 -2.2799
  179MPD1    H2 2784   1.830   0.323  15.198  0.0569  1.9406  0.9811
  179MPD1    H3 2785   1.651   0.212  15.316 -0.5513  0.8425 -0.6644
  179MPD1     N 2786   1.961   4.733  15.571  0.3684  0.6285  0.2832
  179MPD1    H5 2787   1.890   4.676  15.616 -0.3548  0.3902 -1.1454
  179MPD1    N1 2788   2.077   0.342  15.245  0.3874  0.3044 -0.2506
  179MPD1    H6 2789   2.042   0.360  15.151 -0.9555  0.8740  0.3541
  179MPD1    H7 2790   2.172   0.305  15.241  0.4004  0.2618  0.3748
  180MPD1     C 2791   2.557   1.752  14.967 -0.1984 -0.7260 -0.0897
  180MPD1    C1 2792   2.543   1.839  14.860 -1.2812  0.2658 -0.1771
  180MPD1    C2 2793   2.419   1.895  14.839  0.1379  0.1111 -0.7585
  180MPD1    C3 2794   2.308   1.868  14.919 -0.3867  0.6949  0.0615
  180MPD1    C4 2795   2.329   1.786  15.030 -0.0929  0.5261 -0.2704
  180MPD1    C5 2796   2.455   1.726  15.052  0.8483  0.6710  0.0248
  180MPD1     H 2797   2.394   1.969  14.764 -0.5641  0.6183 -0.0379
  180MPD1    H1 2798   2.249   1.768  15.101  0.7747 -0.1515  0.5235
  180MPD1    H2 2799   2.651   1.704  14.992 -0.2916 -1.4175 -1.0723
  180MPD1    H3 2800   2.469   1.656  15.133  0.5900  1.0498  0.3952
  180MPD1     N 2801   2.187   1.936  14.892  0.0605  0.4879  0.2467
  180MPD1    H5 2802   2.196   1.995  14.810 -1.7901 -0.6945 -0.7777
  180MPD1    N1 2803   2.658   1.881  14.789 -0.2872  0.2730  0.2228
  180MPD1    H6 2804   2.736   1.822  14.816 -0.1954  0.5798  0.6209
  180MPD1    H7 2805   2.640   1.871  14.690  3.0453 -0.3698 -0.2975
  181MPD1     C 2806   2.433   4.579  10.029 -0.0288 -0.1219  0.2397
  181MPD1    C1 2807   2.516   4.691  10.023  0.6542 -0.6307  0.4126
  181MPD1    C2 2808   2.654   4.673  10.013 -0.2457 -0.3355 -0.2278
  181MPD1    C3 2809   2.715   4.550  10.017  0.7488 -0.0142 -0.2908
  181MPD1    C4 2810   2.627   4.439  10.043 -0.6183 -0.5350 -0.7485
  181MPD1    C5 2811   2.488   4.457  10.051 -0.2830 -0.0510 -0.4925
  181MPD1     H 2812   2.723   0.015   9.988 -2.0661  0.3506 -3.0283
  181MPD1    H1 2813   2.647   4.335  10.064  0.5650 -0.2915 -0.6689
  181MPD1    H2 2814   2.325   4.585  10.025  0.0576  2.9343  2.3721
  181MPD1    H3 2815   2.420   4.375  10.071  0.4167 -0.2787  0.9601
  181MPD1     N 2816   2.860   4.528  10.010 -0.5523  0.4762 -0.0803
  181MPD1    H5 2817   2.891   4.432  10.016 -0.5022  0.6928  2.9057
  181MPD1    N1 2818   2.462   0.084  10.003 -0.2470 -0.7228 -0.3750
  181MPD1    H6 2819   2.371   0.087  10.049  0.6759  2.5974  1.2324
  181MPD1    H7 2820   2.523   0.156  10.042 -1.6479  0.4022 -0.2651
  182MPD1     C 2821   3.886   2.481   1.222 -0.4716  0.5693 -0.7968
  182MPD1    C1 2822   3.892   2.346   1.193  0.6200 -0.4573  0.2222
  182MPD1    C2 2823   4.013   2.301   1.156 -0.2887 -0.5236 -0.4873
  182MPD1    C3 2824   4.120   2.385   1.120 -0.6399  0.3426  0.0394
  182MPD1    C4 2825   4.106   2.519   1.129 -0.6100  0.8009  0.2753
  182MPD1    C5 2826   3.993   2.562   1.189  0.0310  0.2633 -0.1381
  182MPD1     H 2827   4.018   2.197   1.126  0.5510 -0.3069 -1.0816
  182MPD1    H1 2828   4.179   2.593   1.098 -1.0773  1.5443  0.9554
  182MPD1    H2 2829   3.806   2.529   1.277 -0.0718 -1.8574  1.8649
  182MPD1    H3 2830   3.994   2.666   1.219  1.1879 -0.4701  2.4234
  182MPD1     N 2831   4.244   2.332   1.074  0.9002  0.0657 -0.4837
  182MPD1    H5 2832   4.313   2.402   1.048  0.0619  0.7124 -0.9817
  182MPD1    N1 2833   3.791   2.271   1.248 -0.1174  0.2230  0.4473
  182MPD1    H6 2834   3.772   2.183   1.200 -0.9314  0.1196  0.9655
  182MPD1    H7 2835   3.707   2.327   1.234  0.1351 -0.1640 -2.6931
  183MPD1     C 2836   0.401   4.156   9.694 -0.6373  0.4964 -0.2714
  183MPD1    C1 2837   0.282   4.208   9.749  0.5398 -0.0469  0.9783
  183MPD1    C2 2838   0.173   4.118   9.756  0.5133  0.2373  0.2092
  183MPD1    C3 2839   0.186   3.987   9.740  0.3509  0.4435 -0.3829
  183MPD1    C4 2840   0.306   3.937   9.692  0.1777 -0.6857  0.0296
  183MPD1    C5 2841   0.406   4.027   9.662  0.5333  0.2133 -0.7960
  183MPD1     H 2842   0.073   4.158   9.771  0.4018  0.4713 -1.1403
  183MPD1    H1 2843   0.323   3.831   9.674  1.7246 -0.4688  0.2271
  183MPD1    H2 2844   0.485   4.219   9.666 -1.6317  1.6264 -0.7161
  183MPD1    H3 2845   0.499   3.984   9.626 -0.0941 -2.6939  1.0154
  183MPD1     N 2846   0.066   3.909   9.755 -0.2081  0.8096  0.7323
  183MPD1    H5 2847   4.719   3.963   9.771 -2.0803 -2.3356  1.5890
  183MPD1    N1 2848   0.267   4.343   9.774  0.1856  0.1527  0.4534
  183MPD1    H6 2849   0.197   4.372   9.841 -0.7439  1.2414 -0.9836
  183MPD1    H7 2850   0.352   4.397   9.790  0.6191  0.1731 -1.8319
  184MPD1     C 2851   3.965   0.920  10.368 -0.3855  0.1226  0.1245
  184MPD1    C1 2852   4.023   1.047  10.375 -0.2223 -0.1887 -0.9928
  184MPD1    C2 2853   3.947   1.161  10.393  0.0130  0.1181 -0.3977
  184MPD1    C3 2854   3.807   1.146  10.385 -0.3385  0.0349  0.1076
  184MPD1    C4 2855   3.749   1.022  10.372  0.1495 -0.0977  0.4967
  184MPD1    C5 2856   3.827   0.910  10.368  0.6306  0.2241 -0.1207
  184MPD1     H 2857   4.003   1.253  10.404  0.0898  0.1763 -1.2584
  184MPD1    H1 2858   3.641   1.013  10.370  0.3473 -2.3517  0.6487
  184MPD1    H2 2859   4.029   0.833  10.363  1.1724  1.4152 -2.2007
  184MPD1    H3 2860   3.786   0.810  10.356 -1.4170  1.1293 -0.5245
  184MPD1     N 2861   3.718   1.251  10.402  0.1753 -0.7481  0.1674
  184MPD1    H5 2862   3.617   1.237  10.399 -0.0912  1.3391 -0.8291
  184MPD1    N1 2863   4.164   1.052  10.378  0.4706 -0.5457 -0.5012
  184MPD1    H6 2864   4.196   1.134  10.328  0.1784 -0.9708 -1.3714
  184MPD1    H7 2865   4.215   0.970  10.346  0.0982 -0.9449 -0.0785
  185MPD1     C 2866   3.116   1.334   9.838  0.0717 -0.4203  0.8563
  185MPD1    C1 2867   3.157   1.469   9.838  0.5938 -0.2258  0.5534
  185MPD1    C2 2868   3.245   1.498   9.940  0.0228  1.0031 -0.5225
  185MPD1    C3 2869   3.281   1.411  10.049 -0.1178  0.5376 -0.5044
  185MPD1    C4 2870   3.243   1.284  10.031  0.3636  0.5697 -0.5333
  185MPD1    C5 2871   3.157   1.251   9.931 -0.3324  0.2802  0.5442
  185MPD1     H 2872   3.287   1.597   9.951  0.9416  0.3361  1.8773
  185MPD1    H1 2873   3.267   1.199  10.094  1.2906 -0.1034 -1.7849
  185MPD1    H2 2874   3.060   1.291   9.755 -1.3003 -1.6488  2.4378
  185MPD1    H3 2875   3.129   1.146   9.924  0.4859  0.0339  0.8383
  185MPD1     N 2876   3.353   1.448  10.165 -0.2248  0.1119  0.7377
  185MPD1    H5 2877   3.381   1.375  10.229  1.5264 -0.4525 -0.6669
  185MPD1    N1 2878   3.117   1.558   9.739  0.1324 -0.4785 -0.8625
  185MPD1    H6 2879   3.023   1.546   9.700  0.1444 -0.0067 -1.0338
  185MPD1    H7 2880   3.135   1.657   9.757  0.7624 -0.5241 -1.2506
  186MPD1     C 2881   2.954   0.563  15.659  0.1857  0.0173  0.0120
  186MPD1    C1 2882   2.983   0.520  15.784  0.8125 -0.3058  0.2329
  186MPD1    C2 2883   2.941   0.601  15.887 -0.9475 -1.0833  0.2711
  186MPD1    C3 2884   2.892   0.724  15.862  0.8245 -0.2556 -0.2349
  186MPD1    C4 2885   2.866   0.770  15.736  1.1402 -0.0715 -0.3695
  186MPD1    C5 2886   2.896   0.687  15.633  0.4515 -0.6981 -0.1762
  186MPD1     H 2887   2.947   0.567  15.990  2.3236  0.4290  0.5674
  186MPD1    H1 2888   2.819   0.865  15.714  1.9298  0.1362 -1.1823
  186MPD1    H2 2889   2.969   0.497  15.575  1.1547  1.4829 -0.9776
  186MPD1    H3 2890   2.886   0.722  15.531  0.1250  0.7608  0.3587
  186MPD1     N 2891   2.847   0.814  15.968  0.6617  0.3347 -0.0629
  186MPD1    H5 2892   2.820   0.907  15.940 -1.4126 -0.0605  0.6592
  186MPD1    N1 2893   3.024   0.386  15.808  0.7809  0.0194  0.4455
  186MPD1    H6 2894   3.075   0.375  15.896  2.5512 -0.8427 -0.6875
  186MPD1    H7 2895   3.072   0.336  15.734  0.3008 -1.6552  1.2651
  187MPD1     C 2896   2.801   2.278  17.194  0.8945  0.2607  0.1525
  187MPD1    C1 2897   2.704   2.237  17.278 -0.1721  0.2506 -0.0263
  187MPD1    C2 2898   2.597   2.323  17.320 -0.4776 -0.0368 -0.5140
  187MPD1    C3 2899   2.571   2.439  17.251 -0.2772  0.9592 -0.4262
  187MPD1    C4 2900   2.665   2.472  17.150  0.1245 -0.0625 -0.1671
  187MPD1    C5 2901   2.778   2.388  17.122  0.4221  0.3705  0.4243
  187MPD1     H 2902   2.538   2.278  17.399 -0.6773  2.7768  0.9355
  187MPD1    H1 2903   2.657   2.565  17.094 -2.1151  1.8867  3.3771
  187MPD1    H2 2904   2.883   2.215  17.163 -0.7660  0.6693 -5.1612
  187MPD1    H3 2905   2.844   2.428  17.046  0.7657  1.1519  1.1310
  187MPD1     N 2906   2.463   2.526  17.271 -0.8141 -0.6274  0.2913
  187MPD1    H5 2907   2.451   2.597  17.199  0.5868  0.0489  0.7110
  187MPD1    N1 2908   2.743   2.131  17.364 -1.0158  0.1220  0.1166
  187MPD1    H6 2909   2.654   2.094  17.396  0.1401  0.1537  3.3967
  187MPD1    H7 2910   2.785   2.057  17.308  1.2706  0.6532  1.1241
  188MPD1     C 2911   1.724   2.911  10.765  1.6627 -0.3811 -0.3387
  188MPD1    C1 2912   1.751   2.792  10.839 -0.2905  0.2982 -0.4235
  188MPD1    C2 2913   1.679   2.684  10.783  0.0950 -0.1758  0.4409
  188MPD1    C3 2914   1.622   2.679  10.659  0.6613 -0.6601 -0.7465
  188MPD1    C4 2915   1.623   2.791  10.583  0.5284 -0.0574  0.4061
  188MPD1    C5 2916   1.666   2.904  10.642 -0.2725 -0.4830 -0.2905
  188MPD1     H 2917   1.669   2.605  10.857  0.3770  0.0502  0.7186
  188MPD1    H1 2918   1.579   2.792  10.484  2.0897 -2.5326 -0.3151
  188MPD1    H2 2919   1.785   2.997  10.788 -1.0274  1.1990  0.8311
  188MPD1    H3 2920   1.653   2.987  10.574  0.7652  0.0797  0.1948
  188MPD1     N 2921   1.568   2.558  10.598  0.9480  0.4241 -0.6834
  188MPD1    H5 2922   1.529   2.566  10.505 -0.0395  0.2980 -0.2818
  188MPD1    N1 2923   1.790   2.801  10.974  0.0610 -0.2168 -0.2379
  188MPD1    H6 2924   1.829   2.716  11.015  0.3878  0.2544  0.4305
  188MPD1    H7 2925   1.864   2.872  10.977 -0.8070  0.7641 -2.3674
  189MPD1     C 2926   3.911   2.996   0.446 -0.8092 -0.9810 -0.7793
  189MPD1    C1 2927   3.841   2.938   0.338 -0.5549 -0.5631 -0.4183
  189MPD1    C2 2928   3.763   3.032   0.258 -0.0649 -0.3142  0.7364
  189MPD1    C3 2929   3.773   3.168   0.275  0.8776  0.2303  0.4353
  189MPD1    C4 2930   3.858   3.221   0.372  0.0146 -0.1047 -0.4535
  189MPD1    C5 2931   3.924   3.132   0.456 -0.4172 -0.2851 -0.5693
  189MPD1     H 2932   3.681   2.992   0.199 -0.6731  0.6505  0.9082
  189MPD1    H1 2933   3.876   3.328   0.376  1.1010 -0.2052 -2.4012
  189MPD1    H2 2934   3.961   2.928   0.514 -0.0410  1.6511  1.2433
  189MPD1    H3 2935   3.997   3.170   0.527 -0.8613  1.0671 -0.8438
  189MPD1     N 2936   3.677   3.256   0.210  0.3733  0.7548  0.1769
  189MPD1    H5 2937   3.607   3.212   0.150  0.0471  1.7989 -0.2071
  189MPD1    N1 2938   3.819   2.798   0.335  0.4046 -0.6292 -0.0396
  189MPD1    H6 2939   3.795   2.763   0.242  2.6135 -0.0913 -0.8050
  189MPD1    H7 2940   3.889   2.742   0.383  2.9711  2.3271 -0.3407
  190MPD1     C 2941   2.633   2.445  15.186 -0.1497 -0.2881  0.1725
  190MPD1    C1 2942   2.775   2.438  15.185 -0.4553  0.8266 -0.5371
  190MPD1    C2 2943   2.831   2.361  15.286  0.2598  0.4624  0.0472
  190MPD1    C3 2944   2.756   2.289  15.371  0.5544  0.1049 -0.6526
  190MPD1    C4 2945   2.624   2.307  15.368 -0.2352  0.1116 -0.3976
  190MPD1    C5 2946   2.561   2.387  15.279  0.0178  0.4982 -0.1890
  190MPD1     H 2947   2.938   2.351  15.291  0.1555 -0.6044  0.0151
  190MPD1    H1 2948   2.552   2.250  15.426  1.7846 -0.1111  1.8773
  190MPD1    H2 2949   2.569   2.493  15.113 -2.5486 -3.1992  0.3521
  190MPD1    H3 2950   2.458   2.419  15.285 -0.4627 -1.2537  0.8573
  190MPD1     N 2951   2.814   2.186  15.451  0.4677  0.8221  0.2943
  190MPD1    H5 2952   2.913   2.170  15.438  0.2566  0.9417 -1.3826
  190MPD1    N1 2953   2.851   2.523  15.101  0.0088  0.1878  0.1829
  190MPD1    H6 2954   2.812   2.546  15.010 -0.6961 -0.2741  0.3650
  190MPD1    H7 2955   2.948   2.494  15.089  0.4060  1.6417 -0.2006
  191MPD1     C 2956   1.858   3.282  13.624 -0.3341  0.3167  0.0372
  191MPD1    C1 2957   1.758   3.286  13.535  0.1131  0.0320  0.1713
  191MPD1    C2 2958   1.793   3.347  13.414  0.4299  0.1105  0.3886
  191MPD1    C3 2959   1.911   3.425  13.403  0.0193 -0.0176 -0.0514
  191MPD1    C4 2960   2.000   3.430  13.510  1.0414 -0.4896  0.0278
  191MPD1    C5 2961   1.966   3.351  13.618  0.2369 -0.1534 -0.9293
  191MPD1     H 2962   1.728   3.351  13.327 -1.4270  1.8066  1.8353
  191MPD1    H1 2963   2.099   3.474  13.506  0.9269 -0.1930  0.4322
  191MPD1    H2 2964   1.854   3.221  13.714 -0.5133  1.9690  1.1503
  191MPD1    H3 2965   2.041   3.336  13.695 -0.7497  0.0932  0.0715
  191MPD1     N 2966   1.927   3.475  13.282  0.1116  0.1914 -0.0865
  191MPD1    H5 2967   1.847   3.467  13.219 -0.3537 -1.2344  0.7101
  191MPD1    N1 2968   1.641   3.211  13.550 -0.2522  0.4152 -0.4267
  191MPD1    H6 2969   1.560   3.257  13.509 -1.1272  0.8384  1.7790
  191MPD1    H7 2970   1.625   3.176  13.645  0.8064 -0.4069 -0.5586
  192MPD1     C 2971   1.375   4.011  12.684 -0.2381 -0.0550  0.1661
  192MPD1    C1 2972   1.358   3.900  12.766  0.3353  0.0394 -0.6146
  192MPD1    C2 2973   1.473   3.834  12.819 -1.2646 -0.4824 -0.2224
  192MPD1    C3 2974   1.597   3.873  12.782  0.3478 -0.3314 -0.2088
  192MPD1    C4 2975   1.607   3.991  12.706 -0.0292  0.2188  0.0294
  192MPD1    C5 2976   1.498   4.058  12.664  0.0479  0.1058 -0.2608
  192MPD1     H 2977   1.461   3.750  12.886 -1.1672 -0.9444 -0.7922
  192MPD1    H1 2978   1.699   4.046  12.688  0.0246 -0.7724 -2.6595
  192MPD1    H2 2979   1.292   4.063  12.638 -0.9963 -1.2810  0.1762
  192MPD1    H3 2980   1.519   4.146  12.605 -0.4412 -0.9570 -2.0425
  192MPD1     N 2981   1.714   3.799  12.813  0.0216 -0.4212  0.2580
  192MPD1    H5 2982   1.799   3.842  12.778  0.1472 -0.7903  0.0978
  192MPD1    N1 2983   1.226   3.858  12.802  0.4198  0.4253  0.1858
  192MPD1    H6 2984   1.154   3.893  12.738  0.3503 -1.5686 -0.8391
  192MPD1    H7 2985   1.222   3.756  12.799 -0.1926  0.4897 -1.5274
  193MPD1     C 2986   1.242   3.318  16.371  1.0255  0.0540  0.0702
  193MPD1    C1 2987   1.182   3.441  16.355 -0.1263 -0.1193 -0.0955
  193MPD1    C2 2988   1.234   3.553  16.421 -0.2558  0.3775  0.6395
  193MPD1    C3 2989   1.351   3.545  16.494  0.5073  0.8862  0.2258
  193MPD1    C4 2990   1.405   3.414  16.517 -1.1666 -1.0578  0.4479
  193MPD1    C5 2991   1.355   3.308  16.451  0.0149  0.6640  0.4108
  193MPD1     H 2992   1.179   3.646  16.419  0.3758  0.7730  1.4631
  193MPD1    H1 2993   1.500   3.392  16.566 -0.8668 -3.1846 -1.0918
  193MPD1    H2 2994   1.198   3.229  16.327 -0.9143  1.8542 -1.6144
  193MPD1    H3 2995   1.413   3.216  16.456 -1.1940 -0.0853  0.5416
  193MPD1     N 2996   1.413   3.653  16.564 -0.1395  0.2636  0.0669
  193MPD1    H5 2997   1.483   3.629  16.634  0.8041  0.0912 -0.9403
  193MPD1    N1 2998   1.056   3.451  16.290 -0.0903  0.1177 -0.0347
  193MPD1    H6 2999   1.019   3.546  16.298 -1.8395 -0.4712 -1.0307
  193MPD1    H7 3000   1.062   3.419  16.194  0.2287 -1.1943  0.4227
  194MPD1     C 3001   0.033   1.731  16.539 -0.8378 -0.6157 -0.6524
  194MPD1    C1 3002   4.659   1.678  16.599 -0.0266  0.3593 -0.2205
  194MPD1    C2 3003   4.647   1.542  16.620 -0.1724  0.1222  0.3298
  194MPD1    C3 3004   0.014   1.463  16.565  0.4419  0.2004 -0.1065
  194MPD1    C4 3005   0.122   1.519  16.505 -0.0644 -0.8179  0.0448
  194MPD1    C5 3006   0.132   1.653  16.490  0.1177  0.2892 -0.9268
  194MPD1     H 3007   4.557   1.507  16.670  0.1660 -1.2082 -0.0136
  194MPD1    H1 3008   0.203   1.461  16.461  1.6040  1.1052  0.5651
  194MPD1    H2 3009   0.051   1.837  16.519  1.2255 -0.8619 -0.0868
  194MPD1    H3 3010   0.219   1.700  16.446 -0.2779  1.2467 -0.6828
  194MPD1     N 3011   0.006   1.324  16.572 -0.7220 -0.1121 -0.9928
  194MPD1    H5 3012   0.090   1.275  16.544  0.3272  0.6364  0.8925
  194MPD1    N1 3013   4.554   1.762  16.644  0.4228 -0.2059  0.2329
  194MPD1    H6 3014   4.481   1.709  16.691 -0.4933  0.6048 -0.2942
  194MPD1    H7 3015   4.529   1.837  16.580  2.5308  0.8295  0.6199
  195MPD1     C 3016   1.518   3.467   0.903 -0.2296 -0.0975 -0.1696
  195MPD1    C1 3017   1.479   3.351   0.967 -0.8526  0.2025  0.4681
  195MPD1    C2 3018   1.478   3.231   0.900  0.8210  1.0865 -0.1829
  195MPD1    C3 3019   1.539   3.219   0.774 -0.1977 -0.7799  0.0094
  195MPD1    C4 3020   1.586   3.335   0.715 -0.1459 -0.5781 -0.1421
  195MPD1    C5 3021   1.581   3.451   0.784 -0.4559  0.2585  0.3260
  195MPD1     H 3022   1.439   3.146   0.955  3.2358  0.3213  0.3348
  195MPD1    H1 3023   1.635   3.326   0.619  3.0835  0.0907  1.4517
  195MPD1    H2 3024   1.495   3.566   0.941  3.4319  0.6219  0.1558
  195MPD1    H3 3025   1.620   3.535   0.729 -0.2412  0.7057  1.1549
  195MPD1     N 3026   1.570   3.092   0.711 -1.0106  0.5240 -0.2640
  195MPD1    H5 3027   1.600   3.089   0.614 -0.0846  0.3399  0.0376
  195MPD1    N1 3028   1.418   3.366   1.093 -0.1903  0.0986  0.5458
  195MPD1    H6 3029   1.460   3.446   1.140  0.8745  0.2859 -0.7197
  195MPD1    H7 3030   1.435   3.280   1.145  1.3864  0.7819  1.1645
  196MPD1     C 3031   1.115   1.203   0.537 -0.1566 -0.9225  0.6599
  196MPD1    C1 3032   1.184   1.297   0.603  0.0687 -0.5768  0.8246
  196MPD1    C2 3033   1.123   1.415   0.634  0.5121 -0.1748 -0.0203
  196MPD1    C3 3034   0.989   1.434   0.618  0.3903  0.0007  0.2963
  196MPD1    C4 3035   0.912   1.335   0.562 -0.1574 -1.0007 -0.6717
  196MPD1    C5 3036   0.982   1.219   0.520 -0.1355 -0.2833  0.2191
  196MPD1     H 3037   1.188   1.496   0.665 -0.4179  0.4100  0.4018
  196MPD1    H1 3038   0.805   1.344   0.547 -0.1278  0.0742 -0.2090
  196MPD1    H2 3039   1.164   1.123   0.484 -0.4192  0.2886 -1.4134
  196MPD1    H3 3040   0.924   1.143   0.469  1.2141  0.2040 -2.0429
  196MPD1     N 3041   0.921   1.555   0.648  0.9501 -0.9247 -0.2718
  196MPD1    H5 3042   0.820   1.549   0.641  0.8591  2.2862 -1.7507
  196MPD1    N1 3043   1.322   1.280   0.624  0.8252  0.5887 -0.0636
  196MPD1    H6 3044   1.354   1.194   0.668 -0.1321  0.8480  1.1389
  196MPD1    H7 3045   1.353   1.348   0.693  0.8755  1.2588 -0.7468
  197MPD1     C 3046   0.048   3.973  17.247  0.3618  0.5219  0.1775
  197MPD1    C1 3047   4.710   4.020  17.138 -0.2968 -0.7078  0.1213
  197MPD1    C2 3048   0.032   4.101  17.047 -0.6887  0.9358  0.3717
  197MPD1    C3 3049   0.149   4.166  17.077  0.3938 -0.3721 -1.1446
  197MPD1    C4 3050   0.212   4.136  17.197 -0.2608  0.5300 -0.2758
  197MPD1    C5 3051   0.164   4.036  17.280  0.3049  0.0820  0.6324
  197MPD1     H 3052   4.709   4.129  16.962 -0.2602  1.2992  0.1908
  197MPD1    H1 3053   0.307   4.187  17.211 -1.2166  2.6010 -1.3523
  197MPD1    H2 3054   0.021   3.886  17.307  2.0548 -1.9618 -2.6910
  197MPD1    H3 3055   0.227   4.002  17.361  1.5037 -0.1782 -0.4070
  197MPD1     N 3056   0.214   4.256  16.990  0.4766  0.1878 -0.4771
  197MPD1    H5 3057   0.311   4.274  17.012  0.4774 -2.3017  1.5964
  197MPD1    N1 3058   4.581   3.967  17.110 -0.0154 -0.1884 -0.6521
  197MPD1    H6 3059   4.525   3.989  17.028  0.3276 -0.1368 -0.8701
  197MPD1    H7 3060   4.552   3.884  17.161  1.2701 -0.5836 -0.5845
  198MPD1     C 3061   1.461   2.741  16.408  0.0863  0.7954 -0.6698
  198MPD1    C1 3062   1.585   2.718  16.457 -0.5625  0.4741 -0.0110
  198MPD1    C2 3063   1.691   2.760  16.393 -0.3227  0.5182 -0.3271
  198MPD1    C3 3064   1.682   2.827  16.272 -0.0285  0.2988 -0.2884
  198MPD1    C4 3065   1.558   2.842  16.217  0.4206  0.2909  0.1057
  198MPD1    C5 3066   1.446   2.802  16.290  0.0939  0.7436 -0.5566
  198MPD1     H 3067   1.788   2.743  16.439 -1.4366 -2.0123  1.1051
  198MPD1    H1 3068   1.534   2.903  16.131  0.3970 -2.4243 -1.8122
  198MPD1    H2 3069   1.377   2.715  16.471  0.6262  0.2046 -0.1940
  198MPD1    H3 3070   1.349   2.836  16.256  0.5691 -0.6988 -3.3928
  198MPD1     N 3071   1.803   2.869  16.212 -0.8450  0.1638  0.3482
  198MPD1    H5 3072   1.881   2.830  16.264  0.4561  0.4695 -1.3814
  198MPD1    N1 3073   1.600   2.670  16.590  0.8280  0.4770 -0.4539
  198MPD1    H6 3074   1.684   2.614  16.603  0.0537 -0.3154  1.2637
  198MPD1    H7 3075   1.516   2.632  16.633  1.4092 -0.5247 -0.2179
  199MPD1     C 3076   3.390   4.615   9.312  0.1818  0.6314  0.3363
  199MPD1    C1 3077   3.517   4.669   9.295 -0.5589  0.1997 -0.1127
  199MPD1    C2 3078   3.553   0.022   9.388 -0.5263  0.5237  1.1794
  199MPD1    C3 3079   3.454   0.071   9.482 -0.1048 -0.3563 -0.4608
  199MPD1    C4 3080   3.336   4.733   9.501  0.2927 -0.2362  0.0510
  199MPD1    C5 3081   3.305   4.642   9.410  0.2223  0.5617 -0.3771
  199MPD1     H 3082   3.645   0.074   9.362 -1.9077  1.0970 -2.5368
  199MPD1    H1 3083   3.274   0.026   9.584  0.5430  2.1314 -0.6180
  199MPD1    H2 3084   3.352   4.538   9.246  0.0299  0.1099  1.0315
  199MPD1    H3 3085   3.213   4.585   9.411  1.3797 -1.2772  0.9309
  199MPD1     N 3086   3.472   0.182   9.575  0.3295 -0.0662  0.1168
  199MPD1    H5 3087   3.396   0.192   9.641 -0.5289 -0.8860 -0.7441
  199MPD1    N1 3088   3.602   4.650   9.185 -0.7913 -0.3976 -0.5392
  199MPD1    H6 3089   3.604   4.555   9.148 -1.0986 -0.0544 -1.4455
  199MPD1    H7 3090   3.700   4.664   9.210 -0.7237 -1.5608 -0.1434
  200MPD1     C 3091   2.783   3.544  14.549  0.0935 -1.0407 -0.2970
  200MPD1    C1 3092   2.795   3.613  14.429 -1.3244  0.4077 -0.4156
  200MPD1    C2 3093   2.887   3.716  14.427 -0.1425 -0.1662 -0.5445
  200MPD1    C3 3094   2.951   3.759  14.543 -0.6028  0.0083 -0.2101
  200MPD1    C4 3095   2.928   3.693  14.659 -0.2916  0.1544 -0.3367
  200MPD1    C5 3096   2.850   3.584  14.664  0.9553 -0.0211  0.2833
  200MPD1     H 3097   2.903   3.778  14.339  0.8152 -0.5031 -0.6040
  200MPD1    H1 3098   2.992   3.712  14.745 -0.6723  1.1756 -0.2832
  200MPD1    H2 3099   2.717   3.459  14.560 -0.2063 -0.7493  0.1507
  200MPD1    H3 3100   2.833   3.539  14.761 -0.3865  1.3041  0.6779
  200MPD1     N 3101   3.040   3.866  14.534 -0.2203 -0.1656  0.2754
  200MPD1    H5 3102   3.049   3.920  14.448  0.8653 -0.1756  0.3897
  200MPD1    N1 3103   2.733   3.565  14.311  0.0033  0.0618  0.8020
  200MPD1    H6 3104   2.740   3.635  14.237 -1.4781 -1.2033 -0.5375
  200MPD1    H7 3105   2.634   3.542  14.320  0.2487 -0.9624  0.8255
  201MPD1     C 3106   0.371   3.178  13.881  0.0896  0.3516  0.4692
  201MPD1    C1 3107   0.500   3.164  13.935 -0.0332  0.8266  0.0420
  201MPD1    C2 3108   0.587   3.103  13.848  0.0692 -0.1606 -0.9838
  201MPD1    C3 3109   0.564   3.055  13.726 -0.1345 -0.8149  0.5067
  201MPD1    C4 3110   0.436   3.074  13.675  0.2255  0.0978  0.2244
  201MPD1    C5 3111   0.349   3.133  13.758 -0.0173  0.1249  0.5112
  201MPD1     H 3112   0.686   3.073  13.880 -0.3812  0.3008  0.8436
  201MPD1    H1 3113   0.408   3.048  13.574  3.4351  0.6208 -0.7914
  201MPD1    H2 3114   0.288   3.222  13.936 -0.4027  0.6564 -0.5081
  201MPD1    H3 3115   0.252   3.165  13.723  0.7277  3.4550  1.4755
  201MPD1     N 3116   0.662   2.978  13.666 -0.3119 -0.0400 -0.0898
  201MPD1    H5 3117   0.757   2.978  13.703 -0.5958 -0.2490  0.6334
  201MPD1    N1 3118   0.525   3.190  14.071 -0.3563 -0.4902  0.2377
  201MPD1    H6 3119   0.622   3.204  14.097 -0.0608 -3.7832  0.9893
  201MPD1    H7 3120   0.458   3.253  14.115 -0.6706 -2.2410  2.2815
  202MPD1     C 3121   0.961   3.149   9.503  0.6412  0.2888  0.8784
  202MPD1    C1 3122   0.829   3.129   9.479 -0.6493 -0.1186  0.7176
  202MPD1    C2 3123   0.750   3.098   9.591  0.3710 -0.1945 -1.0193
  202MPD1    C3 3124   0.805   3.024   9.705  0.1865  0.4697  0.1847
  202MPD1    C4 3125   0.939   3.027   9.715 -0.0445  0.1996 -0.3496
  202MPD1    C5 3126   1.012   3.093   9.620  0.4696  0.4250 -0.2876
  202MPD1     H 3127   0.644   3.103   9.571  0.0023  0.7279  1.1612
  202MPD1    H1 3128   0.990   2.989   9.803  0.6267  2.0993  0.0802
  202MPD1    H2 3129   1.029   3.196   9.433 -1.0984  0.9724 -0.3483
  202MPD1    H3 3130   1.116   3.105   9.650  0.7147  1.3810 -1.4973
  202MPD1     N 3131   0.731   2.967   9.811  0.1252  0.2199  0.4999
  202MPD1    H5 3132   0.790   2.911   9.872  1.4088 -0.1423 -1.0606
  202MPD1    N1 3133   0.769   3.188   9.362  0.0577 -0.2272  0.4119
  202MPD1    H6 3134   0.678   3.147   9.344 -0.6111  1.9257 -1.0560
  202MPD1    H7 3135   0.825   3.186   9.277 -1.5509 -0.4292 -0.6340
  203MPD1     C 3136   4.644   3.807  13.385  0.0642  0.1542  0.5615
  203MPD1    C1 3137   4.728   3.699  13.389 -0.0018 -0.1363  0.3207
  203MPD1    C2 3138   4.676   3.570  13.377  0.1872  0.6629  0.0533
  203MPD1    C3 3139   4.538   3.557  13.365  0.2777  0.6038  0.5976
  203MPD1    C4 3140   4.455   3.667  13.380  0.3674 -0.5033  0.8647
  203MPD1    C5 3141   4.511   3.791  13.383  0.2233  0.3347 -0.5146
  203MPD1     H 3142   0.005   3.484  13.377 -1.9499 -0.9999 -1.3684
  203MPD1    H1 3143   4.347   3.662  13.374  0.2588  1.7552  1.0584
  203MPD1    H2 3144   4.682   3.909  13.391 -4.1247  1.8293 -1.3325
  203MPD1    H3 3145   4.440   3.871  13.398  0.4905  0.2976  0.8872
  203MPD1     N 3146   4.483   3.428  13.344 -0.1506  0.2167  0.4726
  203MPD1    H5 3147   4.552   3.353  13.343  0.5439  0.8519  1.1203
  203MPD1    N1 3148   0.127   3.710  13.425 -0.4158 -0.2203 -0.2638
  203MPD1    H6 3149   0.183   3.631  13.396  0.6552  0.0323  1.1085
  203MPD1    H7 3150   0.173   3.790  13.381  0.3994 -0.6364 -0.1533
  204MPD1     C 3151   4.647   4.673  17.713 -0.4278 -0.4305 -1.0457
  204MPD1    C1 3152   4.645   4.683  17.575 -0.8580  0.2999  0.0455
  204MPD1    C2 3153   4.539   4.620  17.518 -0.2597 -0.3747 -0.0762
  204MPD1    C3 3154   4.446   4.545  17.586  0.6431 -0.3146 -0.2969
  204MPD1    C4 3155   4.449   4.532  17.730  0.2029 -0.2924 -0.0612
  204MPD1    C5 3156   4.554   4.599   0.041  0.2253  0.8263  0.0998
  204MPD1     H 3157   4.539   4.619  17.409 -1.0087  1.4291 -0.0893
  204MPD1    H1 3158   4.384   4.475   0.047 -0.5642  0.3255 -0.2957
  204MPD1    H2 3159   4.714   4.737   0.022 -2.2556 -1.1501  1.9476
  204MPD1    H3 3160   4.560   4.581   0.148  0.8762 -0.6563 -0.1858
  204MPD1     N 3161   4.354   4.467  17.508 -0.5654  0.0994 -0.6659
  204MPD1    H5 3162   4.358   4.481  17.408 -1.6020  0.5222 -0.6478
  204MPD1    N1 3163   0.001   0.031  17.506  0.5424 -0.3244  0.2073
  204MPD1    H6 3164   4.725   0.016  17.406 -2.7530  2.5347  0.2105
  204MPD1    H7 3165   0.100   0.024  17.529  0.6971 -0.7062 -0.5863
  205MPD1     C 3166   3.168   2.897  17.183  0.7247 -0.5685 -0.0790
  205MPD1    C1 3167   3.181   3.032  17.215 -0.4855  1.0272  0.4199
  205MPD1    C2 3168   3.303   3.090  17.211  0.6107  0.4764  0.0590
  205MPD1    C3 3169   3.413   3.017  17.166 -0.0376  0.1119 -0.6606
  205MPD1    C4 3170   3.400   2.883  17.145 -0.2300 -0.3176 -0.7270
  205MPD1    C5 3171   3.279   2.825  17.160  0.2286 -0.3396  0.1609
  205MPD1     H 3172   3.328   3.193  17.233 -1.3329  1.3764 -1.9700
  205MPD1    H1 3173   3.478   2.820  17.105 -1.1339 -1.3082 -0.9514
  205MPD1    H2 3174   3.078   2.838  17.194 -0.3886  1.0165 -0.7555
  205MPD1    H3 3175   3.268   2.719  17.142  1.4936 -0.4353 -0.0266
  205MPD1     N 3176   3.547   3.071  17.160 -0.1980 -0.2843 -0.8633
  205MPD1    H5 3177   3.620   3.015  17.116  0.8266 -0.6615  1.3265
  205MPD1    N1 3178   3.071   3.116  17.245 -0.3798 -0.0536 -0.6363
  205MPD1    H6 3179   3.087   3.185  17.317 -1.0434 -0.0966 -0.4543
  205MPD1    H7 3180   2.991   3.065  17.281  0.9215 -2.2260 -0.7953
  206MPD1     C 3181   0.179   0.682  16.435  1.0145  0.1764 -0.0490
  206MPD1    C1 3182   0.132   0.568  16.384 -0.2183  0.2424 -0.1298
  206MPD1    C2 3183   0.034   0.575  16.291 -0.0967  0.5514  0.1085
  206MPD1    C3 3184   4.710   0.692  16.259 -0.7497 -0.0989 -0.2777
  206MPD1    C4 3185   0.013   0.808  16.326  0.2830  0.2134  0.2071
  206MPD1    C5 3186   0.124   0.804  16.407  0.3911 -0.1404 -0.5290
  206MPD1     H 3187   0.008   0.484  16.238  2.4680  0.1127 -0.3967
  206MPD1    H1 3188   4.699   0.900  16.299  1.2504  0.7898  0.3482
  206MPD1    H2 3189   0.265   0.670  16.501  1.7340  3.4919 -0.4044
  206MPD1    H3 3190   0.162   0.895  16.453  0.5270 -0.8125  0.7013
  206MPD1     N 3191   4.600   0.705  16.172  0.4012  0.4233 -0.0607
  206MPD1    H5 3192   4.563   0.799  16.164  0.1546  0.4262  1.0914
  206MPD1    N1 3193   0.203   0.440  16.397 -0.2384  0.7755 -0.1410
  206MPD1    H6 3194   0.225   0.429  16.495 -1.1440  0.8093  0.0696
  206MPD1    H7 3195   0.147   0.358  16.373  1.3136 -0.5103  0.6867
  207MPD1     C 3196   1.494   4.180   9.931  0.4370 -0.0633  0.3747
  207MPD1    C1 3197   1.476   4.055   9.997  0.4163  0.6932 -0.3933
  207MPD1    C2 3198   1.500   4.045  10.131  0.4048 -0.8301  1.4402
  207MPD1    C3 3199   1.554   4.154  10.201 -1.2866 -0.7983  0.0847
  207MPD1    C4 3200   1.566   4.276  10.134  0.4477 -0.2659 -0.1637
  207MPD1    C5 3201   1.529   4.287  10.002  0.1469  0.6161  0.7298
  207MPD1     H 3202   1.496   3.950  10.182  0.6029 -1.3551  0.4774
  207MPD1    H1 3203   1.595   4.370  10.179  0.6804  0.1002 -1.0735
  207MPD1    H2 3204   1.481   4.195   9.824 -2.0844 -2.8804  0.2798
  207MPD1    H3 3205   1.537   4.375   9.939 -0.0411 -0.0281 -0.1990
  207MPD1     N 3206   1.613   4.146  10.331  0.0172  0.1354  0.2679
  207MPD1    H5 3207   1.654   4.233  10.364  1.0130 -0.2158 -0.0368
  207MPD1    N1 3208   1.438   3.944   9.926 -0.3044 -0.0210  0.0215
  207MPD1    H6 3209   1.390   3.883   9.991 -0.6323  0.0953 -0.1113
  207MPD1    H7 3210   1.381   3.960   9.843 -1.6639  0.0783  0.9671
  208MPD1     C 3211   0.695   2.805   0.286  0.0965  0.1903 -0.2700
  208MPD1    C1 3212   0.654   2.676   0.303  0.1813  0.4089 -0.5652
  208MPD1    C2 3213   0.520   2.649   0.271 -0.5076 -0.2712  0.2386
  208MPD1    C3 3214   0.426   2.751   0.229  0.0109 -0.1960  0.2350
  208MPD1    C4 3215   0.482   2.877   0.210 -0.1131  0.8893 -0.1471
  208MPD1    C5 3216   0.616   2.898   0.233 -0.8383  0.1357  0.2004
  208MPD1     H 3217   0.472   2.554   0.294  0.1795 -0.5927  0.3312
  208MPD1    H1 3218   0.426   2.970   0.208 -0.4711  0.6789  0.3126
  208MPD1    H2 3219   0.792   2.841   0.317 -0.7065  1.5076  0.6727
  208MPD1    H3 3220   0.653   2.999   0.223 -2.4154  0.7643  0.7343
  208MPD1     N 3221   0.291   2.720   0.210  0.0861 -0.1061 -0.2321
  208MPD1    H5 3222   0.263   2.623   0.216 -0.2421 -0.1275 -2.2930
  208MPD1    N1 3223   0.735   2.592   0.382  0.5085 -0.3261 -0.4312
  208MPD1    H6 3224   0.719   2.493   0.370 -0.0995 -0.1197 -1.3321
  208MPD1    H7 3225   0.834   2.605   0.362  0.0160  1.9891 -1.4394
  209MPD1     C 3226   2.159   3.140  11.968 -0.0332  0.4730 -0.3731
  209MPD1    C1 3227   2.150   3.280  11.975 -0.0389  0.4076  0.4145
  209MPD1    C2 3228   2.157   3.342  11.851 -0.2956 -0.3433  0.2472
  209MPD1    C3 3229   2.196   3.274  11.735 -0.9016 -1.0546 -0.5806
  209MPD1    C4 3230   2.225   3.138  11.745  0.2847 -0.2015  0.1607
  209MPD1    C5 3231   2.196   3.071  11.858  0.3747  0.5356 -0.5924
  209MPD1     H 3232   2.142   3.448  11.834 -0.8673 -0.3315  0.7962
  209MPD1    H1 3233   2.245   3.080  11.656 -1.0402 -1.1199  0.4677
  209MPD1    H2 3234   2.153   3.078  12.057 -0.9175 -0.4182 -1.0611
  209MPD1    H3 3235   2.202   2.963  11.860 -0.4033  0.5324  2.3465
  209MPD1     N 3236   2.215   3.356  11.624 -0.2962  0.1089 -0.4974
  209MPD1    H5 3237   2.221   3.456  11.637  2.0453 -0.0235 -0.5087
  209MPD1    N1 3238   2.100   3.355  12.083 -0.3138  0.6397 -0.4366
  209MPD1    H6 3239   2.125   3.453  12.089  0.4035  0.4081  0.5061
  209MPD1    H7 3240   2.152   3.315  12.161 -1.1884 -3.6957 -2.0942
  210MPD1     C 3241   1.986   4.081  11.441 -0.0009 -0.2496  0.0019
  210MPD1    C1 3242   2.098   4.054  11.513 -0.3330 -0.2693  0.2298
  210MPD1    C2 3243   2.183   3.956  11.469 -0.1345 -0.0256  0.1608
  210MPD1    C3 3244   2.163   3.892  11.348  0.0165 -0.4827  0.3877
  210MPD1    C4 3245   2.054   3.924  11.272  0.1868  1.1380 -0.0328
  210MPD1    C5 3246   1.966   4.021  11.323  0.1361 -0.6874  0.3062
  210MPD1     H 3247   2.282   3.952  11.511 -0.3409  0.7212  0.7200
  210MPD1    H1 3248   2.026   3.873  11.181  1.4843  0.4332 -0.0418
  210MPD1    H2 3249   1.909   4.148  11.474 -0.2756 -0.8085  0.4996
  210MPD1    H3 3250   1.876   4.044  11.268  0.4496  0.7533  0.4007
  210MPD1     N 3251   2.247   3.789  11.308 -0.1304 -0.1469  0.5175
  210MPD1    H5 3252   2.223   3.722  11.236 -2.6574  0.1172  1.1141
  210MPD1    N1 3253   2.122   4.131  11.627 -0.0550 -0.3867 -0.4350
  210MPD1    H6 3254   2.191   4.086  11.687 -0.8000 -3.3385 -1.7862
  210MPD1    H7 3255   2.035   4.148  11.679  0.4534  0.4148  0.1448
  211MPD1     C 3256   4.054   3.144  15.241 -0.4028 -0.0064 -0.1450
  211MPD1    C1 3257   3.930   3.210  15.249 -0.1419 -0.2671  0.2795
  211MPD1    C2 3258   3.873   3.228  15.374 -0.2772 -0.6276  0.5402
  211MPD1    C3 3259   3.931   3.186  15.489 -0.0747  0.4641 -0.0138
  211MPD1    C4 3260   4.055   3.124  15.477 -0.0204  0.6803  0.4926
  211MPD1    C5 3261   4.121   3.118  15.357 -0.2551 -0.3256  0.1209
  211MPD1     H 3262   3.772   3.265  15.377 -0.5852 -1.2791 -1.9315
  211MPD1    H1 3263   4.110   3.093  15.565 -0.7364 -2.1446 -0.0616
  211MPD1    H2 3264   4.117   3.128  15.155 -1.5724 -0.4230 -0.9278
  211MPD1    H3 3265   4.217   3.067  15.355 -0.6869 -1.0984 -0.8046
  211MPD1     N 3266   3.855   3.191  15.606  0.3006 -0.2552  0.5119
  211MPD1    H5 3267   3.764   3.236  15.601  1.6186  2.2525 -1.1927
  211MPD1    N1 3268   3.862   3.234  15.129 -0.3135  0.3831 -0.6019
  211MPD1    H6 3269   3.920   3.260  15.050 -1.5073  0.7054 -1.3681
  211MPD1    H7 3270   3.801   3.313  15.148 -0.5591 -0.0292  0.3499
  212MPD1     C 3271   3.912   1.430  16.531  0.3428 -0.5832 -0.6867
  212MPD1    C1 3272   3.880   1.456  16.663 -0.9692 -0.4543  0.1356
  212MPD1    C2 3273   3.754   1.406  16.711  1.3428  0.2430  0.1331
  212MPD1    C3 3274   3.683   1.316  16.630 -0.5173  0.3000 -0.4594
  212MPD1    C4 3275   3.721   1.284  16.501  0.0181  0.4245  0.3336
  212MPD1    C5 3276   3.832   1.352  16.451 -0.8486 -0.4076 -0.1903
  212MPD1     H 3277   3.729   1.428  16.814 -1.6721 -0.0195 -0.5419
  212MPD1    H1 3278   3.660   1.218  16.441 -0.8948  2.6805 -1.1907
  212MPD1    H2 3279   3.993   1.473  16.473 -0.3715  1.8276  0.1000
  212MPD1    H3 3280   3.864   1.340  16.348  0.5926  2.3842 -0.0817
  212MPD1     N 3281   3.571   1.249  16.682 -0.5127 -0.1106  0.4352
  212MPD1    H5 3282   3.529   1.174  16.628  0.4294 -1.6333  1.8193
  212MPD1    N1 3283   3.949   1.557  16.737 -0.3792 -0.4708 -0.5470
  212MPD1    H6 3284   3.929   1.562  16.837 -0.1444  2.4218 -0.6447
  212MPD1    H7 3285   4.050   1.553  16.728 -0.3228 -0.6177  0.1426
  213MPD1     C 3286   1.022   2.116  16.244  0.0056 -0.5840 -0.0074
  213MPD1    C1 3287   0.895   2.157  16.204 -0.3400  0.3083 -0.0906
  213MPD1    C2 3288   0.883   2.223  16.077 -0.2021  0.2427  0.3072
  213MPD1    C3 3289   0.997   2.245  16.008 -0.5629  0.1075 -0.2796
  213MPD1    C4 3290   1.124   2.223  16.060  0.5881 -0.2913 -0.0885
  213MPD1    C5 3291   1.132   2.151  16.173 -0.5139  0.1459  0.6744
  213MPD1     H 3292   0.786   2.251  16.039  0.9847  1.4583 -1.8702
  213MPD1    H1 3293   1.220   2.243  16.013  0.8114 -1.5528 -0.1652
  213MPD1    H2 3294   1.043   2.062  16.336 -2.6686 -1.3861  0.1259
  213MPD1    H3 3295   1.233   2.127  16.205 -0.1797  0.3743 -0.2275
  213MPD1     N 3296   0.980   2.290  15.873  0.1727 -0.1578 -0.5672
  213MPD1    H5 3297   0.889   2.270  15.832 -0.7295 -0.7491  1.7163
  213MPD1    N1 3298   0.780   2.098  16.252  0.0952  0.2534  0.5746
  213MPD1    H6 3299   0.701   2.161  16.266 -0.3241 -0.1863  0.2091
  213MPD1    H7 3300   0.801   2.055  16.342  0.7409  0.6686  0.6228
  214MPD1     C 3301   0.228   2.319  15.511  0.2113  0.8676 -0.3192
  214MPD1    C1 3302   0.322   2.374  15.416 -0.0457  0.3691  1.3196
  214MPD1    C2 3303   0.455   2.337  15.409 -0.5886 -0.2261 -0.6405
  214MPD1    C3 3304   0.507   2.270  15.522 -0.5116  0.4075  0.2963
  214MPD1    C4 3305   0.420   2.222  15.620 -0.2912 -0.1439  0.4988
  214MPD1    C5 3306   0.284   2.251  15.611  0.3339  0.3140 -0.0587
  214MPD1     H 3307   0.507   2.367  15.318 -2.7997 -1.0199 -2.1695
  214MPD1    H1 3308   0.447   2.156  15.702 -0.5351 -0.4322  0.3471
  214MPD1    H2 3309   0.121   2.333  15.510 -0.0248 -0.8613  2.2942
  214MPD1    H3 3310   0.213   2.217  15.685 -0.7221  1.3824 -0.5848
  214MPD1     N 3311   0.645   2.247  15.541 -0.0343 -0.6552 -0.3693
  214MPD1    H5 3312   0.686   2.206  15.624  1.3445  2.1684  0.3123
  214MPD1    N1 3313   0.273   2.431  15.301  0.3507 -0.0524  0.2057
  214MPD1    H6 3314   0.329   2.499  15.250  0.3303 -0.5052 -0.4214
  214MPD1    H7 3315   0.180   2.472  15.302  0.4882  0.2614 -0.1362
  215MPD1     C 3316   1.328   2.477  11.158 -0.3948  0.0319 -0.1633
  215MPD1    C1 3317   1.465   2.493  11.175  0.0771  0.8380  0.5847
  215MPD1    C2 3318   1.516   2.619  11.147 -0.0798 -0.6422  0.1387
  215MPD1    C3 3319   1.432   2.726  11.107 -0.3776 -0.2381  0.7295
  215MPD1    C4 3320   1.295   2.708  11.116 -0.3207 -0.1821 -0.5315
  215MPD1    C5 3321   1.242   2.581  11.128 -0.7136  0.0865  0.1643
  215MPD1     H 3322   1.622   2.634  11.163 -0.6614  1.1728  2.2346
  215MPD1    H1 3323   1.232   2.795  11.100 -0.2118 -0.3806 -2.0747
  215MPD1    H2 3324   1.279   2.381  11.164  0.5050 -0.3642  0.7439
  215MPD1    H3 3325   1.136   2.561  11.119 -0.2835 -0.7799 -2.8724
  215MPD1     N 3326   1.499   2.842  11.073  0.4955  0.2481 -0.3325
  215MPD1    H5 3327   1.601   2.841  11.079  0.6079  1.2765 -1.9320
  215MPD1    N1 3328   1.556   2.389  11.201 -0.2849 -0.2627  0.0748
  215MPD1    H6 3329   1.530   2.333  11.283 -0.1208 -2.2445 -1.2267
  215MPD1    H7 3330   1.647   2.422  11.230  1.1489 -3.2596 -0.9938
  216MPD1     C 3331   3.821   0.906  16.664 -0.3537  0.7328  0.4008
  216MPD1    C1 3332   3.884   0.983  16.755  0.0456  1.1257 -0.8786
  216MPD1    C2 3333   3.891   0.940  16.885  0.0859  0.1539 -0.1233
  216MPD1    C3 3334   3.831   0.828  16.918 -0.1235  0.3010 -0.3148
  216MPD1    C4 3335   3.767   0.748  16.830  0.0223 -0.0187  0.5487
  216MPD1    C5 3336   3.759   0.790  16.698  0.1943 -0.0057 -0.1108
  216MPD1     H 3337   3.935   1.002  16.963  2.7602 -0.9021 -0.7857
  216MPD1    H1 3338   3.715   0.656  16.853 -0.2971 -0.1255 -0.6000
  216MPD1    H2 3339   3.812   0.939  16.562 -1.6725  0.0029  0.2832
  216MPD1    H3 3340   3.707   0.731  16.624 -0.1338  0.8645 -0.5706
  216MPD1     N 3341   3.839   0.795  17.055  0.5482  0.4171 -0.0991
  216MPD1    H5 3342   3.905   0.853  17.105  2.3551 -1.3507 -0.4519
  216MPD1    N1 3343   3.963   1.092  16.710 -0.3580  0.0164 -0.6411
  216MPD1    H6 3344   3.927   1.125  16.621  2.9486  0.6669 -1.7590
  216MPD1    H7 3345   3.977   1.167  16.778 -1.0920 -1.1683  0.8034
  217MPD1     C 3346   1.791   3.151  10.228 -0.1254 -0.0262  0.5709
  217MPD1    C1 3347   1.830   3.223  10.336 -0.0929  0.4544  0.0807
  217MPD1    C2 3348   1.973   3.228  10.359  0.1051 -0.2387  1.8772
  217MPD1    C3 3349   2.055   3.144  10.292 -0.0601  0.0277 -0.0613
  217MPD1    C4 3350   2.003   3.040  10.211  0.0151 -0.2244 -0.0855
  217MPD1    C5 3351   1.872   3.057  10.174 -0.1384  0.1145  0.6884
  217MPD1     H 3352   2.018   3.300  10.427 -3.2840  0.4113  3.4483
  217MPD1    H1 3353   2.067   2.974  10.154  2.5394  1.3518  0.9319
  217MPD1    H2 3354   1.686   3.137  10.206 -0.0605 -1.0517  0.9155
  217MPD1    H3 3355   1.834   3.005  10.087 -2.0028  1.7804  0.5160
  217MPD1     N 3356   2.200   3.150  10.310  0.5266  0.4407  0.0141
  217MPD1    H5 3357   2.253   3.083  10.254 -1.1003  1.1371 -2.3760
  217MPD1    N1 3358   1.738   3.321  10.384  0.4930  0.1422 -0.2685
  217MPD1    H6 3359   1.644   3.287  10.362 -0.6601  2.8406  0.4799
  217MPD1    H7 3360   1.743   3.331  10.486  1.6474 -0.1474 -0.2976
  218MPD1     C 3361   0.811   3.259  12.415  0.0753  0.0735  0.3027
  218MPD1    C1 3362   0.914   3.172  12.437 -0.0790 -0.4186 -0.4752
  218MPD1    C2 3363   1.035   3.227  12.484 -0.4565 -0.5998 -0.1584
  218MPD1    C3 3364   1.050   3.363  12.499 -0.0923 -0.5548  0.2108
  218MPD1    C4 3365   0.944   3.446  12.469 -0.0931  0.3492 -0.2797
  218MPD1    C5 3366   0.826   3.394  12.421 -0.3224 -0.3987  0.2142
  218MPD1     H 3367   1.108   3.152  12.513 -0.8758 -0.3656  1.5180
  218MPD1    H1 3368   0.952   3.554  12.467  2.1842  0.2105  0.6094
  218MPD1    H2 3369   0.716   3.217  12.385  0.0237  0.5809 -0.2449
  218MPD1    H3 3370   0.750   3.462  12.382 -1.0517 -1.3007  0.0736
  218MPD1     N 3371   1.174   3.419  12.539 -0.2697 -0.1997  0.9103
  218MPD1    H5 3372   1.255   3.358  12.534 -1.0079 -1.1958  1.1431
  218MPD1    N1 3373   0.888   3.037  12.435 -0.2886  0.3817 -0.0453
  218MPD1    H6 3374   0.800   3.007  12.393 -1.0131  1.3476  0.7603
  218MPD1    H7 3375   0.965   2.977  12.406  0.0314  0.3215  0.9388
  219MPD1     C 3376   1.791   4.166  12.377  0.3415 -0.9457 -0.2657
  219MPD1    C1 3377   1.874   4.071  12.431 -0.6587 -0.0582 -0.4868
  219MPD1    C2 3378   1.822   3.938  12.437 -0.4124  0.2383  0.2627
  219MPD1    C3 3379   1.682   3.915  12.402 -0.1320  0.1830  0.0059
  219MPD1    C4 3380   1.600   4.019  12.366 -0.2544 -0.5795  1.1077
  219MPD1    C5 3381   1.660   4.141  12.350  0.5234  0.0930 -0.8193
  219MPD1     H 3382   1.886   3.858  12.470  0.6876  0.8388 -0.4196
  219MPD1    H1 3383   1.496   3.996  12.346 -0.5297  2.4537 -0.8287
  219MPD1    H2 3384   1.836   4.264  12.367  0.6685 -1.1436 -0.7594
  219MPD1    H3 3385   1.603   4.225  12.312  0.9941  0.2412 -1.2074
  219MPD1     N 3386   1.620   3.792  12.435  0.0938 -0.2432  0.8817
  219MPD1    H5 3387   1.520   3.777  12.424  0.0300  0.3211  0.6948
  219MPD1    N1 3388   2.003   4.099  12.466  0.2681 -0.4103 -0.6077
  219MPD1    H6 3389   2.022   4.196  12.489  0.2412 -0.2456 -1.2656
  219MPD1    H7 3390   2.030   4.050  12.551 -1.3124 -0.5106 -0.1657
  220MPD1     C 3391   1.299   2.600  10.046 -0.0698  0.3947 -0.7847
  220MPD1    C1 3392   1.361   2.714  10.007 -0.1378 -0.3589  0.1799
  220MPD1    C2 3393   1.298   2.834  10.037  0.4572  0.3474 -0.0861
  220MPD1    C3 3394   1.169   2.839  10.085 -0.4256 -0.1563 -0.2397
  220MPD1    C4 3395   1.101   2.720  10.100 -0.6191  0.3505  0.4999
  220MPD1    C5 3396   1.167   2.600  10.076 -0.8228 -0.1623  0.9618
  220MPD1     H 3397   1.351   2.929  10.030 -0.6260  0.8737 -1.0941
  220MPD1    H1 3398   1.001   2.710  10.140 -0.2753 -0.9161  1.0494
  220MPD1    H2 3399   1.346   2.503  10.039  0.5881  0.5932  0.9253
  220MPD1    H3 3400   1.127   2.503  10.101 -3.1308  0.0621 -1.7279
  220MPD1     N 3401   1.115   2.970  10.113  0.2789  0.4842  0.2840
  220MPD1    H5 3402   1.178   3.049  10.107  1.4935 -0.5771 -1.1591
  220MPD1    N1 3403   1.500   2.713   9.986 -0.2705 -0.1265  0.0902
  220MPD1    H6 3404   1.539   2.795   9.940 -0.2519 -0.4131 -0.3950
  220MPD1    H7 3405   1.547   2.628   9.956  0.8639 -0.3696  2.5107
  221MPD1     C 3406   3.422   2.938  16.051 -0.6748  0.2530 -0.0760
  221MPD1    C1 3407   3.404   2.994  16.176  1.4201  0.9528 -0.4859
  221MPD1    C2 3408   3.487   2.957  16.278  0.6961 -0.6588 -0.2213
  221MPD1    C3 3409   3.584   2.859  16.257  0.1482 -0.0166  0.2162
  221MPD1    C4 3410   3.598   2.805  16.131  0.4572 -0.6614 -0.1191
  221MPD1    C5 3411   3.525   2.850  16.026 -0.3960  0.3322 -0.3162
  221MPD1     H 3412   3.462   2.993  16.378  0.7491  2.0583 -1.1801
  221MPD1    H1 3413   3.680   2.737  16.113 -1.4656 -2.3471 -2.5845
  221MPD1    H2 3414   3.368   2.980  15.966 -1.6883 -0.8323  0.0323
  221MPD1    H3 3415   3.548   2.806  15.930  1.3517  0.6987 -0.0681
  221MPD1     N 3416   3.673   2.806  16.349 -0.2317 -0.3545 -0.4229
  221MPD1    H5 3417   3.735   2.737  16.311  0.8720 -0.6846  1.9516
  221MPD1    N1 3418   3.284   3.065  16.201 -0.6957 -0.7258  0.0732
  221MPD1    H6 3419   3.304   3.129  16.278 -1.8547 -0.1155 -0.1334
  221MPD1    H7 3420   3.243   3.112  16.121  2.2196  1.1344 -0.3529
  222MPD1     C 3421   2.734   0.496   0.492  0.2197  0.7870 -0.5718
  222MPD1    C1 3422   2.821   0.502   0.594  0.4761 -0.0410  0.0810
  222MPD1    C2 3423   2.862   0.623   0.654  0.4619  0.0626  0.0279
  222MPD1    C3 3424   2.805   0.745   0.602  0.1796  0.1894 -0.3753
  222MPD1    C4 3425   2.725   0.739   0.494 -0.0943 -1.1485 -0.0990
  222MPD1    C5 3426   2.687   0.615   0.443 -0.1021 -0.4378 -1.0540
  222MPD1     H 3427   2.929   0.623   0.739 -0.0228  3.2950  0.3975
  222MPD1    H1 3428   2.696   0.828   0.439 -0.9785 -1.8938 -0.8473
  222MPD1    H2 3429   2.697   0.405   0.444  0.8349 -0.0442  0.5320
  222MPD1    H3 3430   2.617   0.620   0.360  0.2831  0.1137 -1.3399
  222MPD1     N 3431   2.824   0.868   0.669  0.3930  0.3398  0.1307
  222MPD1    H5 3432   2.799   0.950   0.615 -0.8487 -0.8728 -1.1534
  222MPD1    N1 3433   2.853   0.381   0.652 -0.0330  0.1672 -0.0957
  222MPD1    H6 3434   2.869   0.309   0.582  0.7326  1.1803 -0.9690
  222MPD1    H7 3435   2.934   0.391   0.712  0.4671 -2.0483 -0.4333
  223MPD1     C 3436   2.423   1.168   1.506 -0.2679  0.6426 -0.0216
  223MPD1    C1 3437   2.502   1.058   1.505  0.0385 -0.6967  0.5200
  223MPD1    C2 3438   2.584   1.039   1.398  0.1880  0.3620  0.3946
  223MPD1    C3 3439   2.602   1.134   1.301  0.1584 -0.2291  0.3260
  223MPD1    C4 3440   2.533   1.247   1.315  0.4272  0.0377  0.3351
  223MPD1    C5 3441   2.441   1.264   1.413  0.7113  0.2497  0.9678
  223MPD1     H 3442   2.643   0.948   1.396 -0.4372 -0.0340 -0.1490
  223MPD1    H1 3443   2.550   1.340   1.261  1.2576  1.0943  2.4214
  223MPD1    H2 3444   2.348   1.187   1.582 -1.9560 -0.6270 -1.3606
  223MPD1    H3 3445   2.387   1.358   1.425 -0.5180 -0.5207  1.4703
  223MPD1     N 3446   2.703   1.105   1.204  0.1147 -0.2632 -0.8240
  223MPD1    H5 3447   2.746   1.013   1.203 -0.9066 -0.7404 -0.2234
  223MPD1    N1 3448   2.477   0.957   1.602  0.2889  0.1517 -0.3118
  223MPD1    H6 3449   2.558   0.899   1.621  0.3814  0.5106  0.3946
  223MPD1    H7 3450   2.451   1.003   1.689 -1.0296 -0.9881 -0.1013
  224MPD1     C 3451   4.359   3.539   9.599  0.3485  0.4678 -0.7109
  224MPD1    C1 3452   4.297   3.658   9.613 -0.0152  0.4571  0.8973
  224MPD1    C2 3453   4.183   3.660   9.696  0.6251 -0.2108 -1.0719
  224MPD1    C3 3454   4.137   3.545   9.758  0.5458  0.1632  0.9817
  224MPD1    C4 3455   4.201   3.429   9.745 -0.0161  0.6121 -0.7192
  224MPD1    C5 3456   4.308   3.427   9.655 -0.4147  0.3148 -0.2857
  224MPD1     H 3457   4.126   3.751   9.707  0.6406 -0.2203 -0.9053
  224MPD1    H1 3458   4.167   3.339   9.795  0.7744 -0.3638 -1.9275
  224MPD1    H2 3459   4.439   3.523   9.527 -0.5736  0.0466 -1.6542
  224MPD1    H3 3460   4.357   3.331   9.642 -0.0858  0.4426  0.0108
  224MPD1     N 3461   4.017   3.534   9.843  0.1236 -0.3355  0.5723
  224MPD1    H5 3462   3.998   3.442   9.881 -0.9821 -0.2182  0.2947
  224MPD1    N1 3463   4.336   3.762   9.527 -0.1323  0.2193 -0.2894
  224MPD1    H6 3464   4.429   3.755   9.486 -0.0709  0.5881 -0.2060
  224MPD1    H7 3465   4.312   3.852   9.568  2.0853 -0.2381  2.0048
  225MPD1     C 3466   1.603   4.371  11.898 -0.6632 -0.0727 -0.2554
  225MPD1    C1 3467   1.495   4.348  11.801 -0.0009  0.8958 -0.3948
  225MPD1    C2 3468   1.372   4.377  11.859 -0.4432  0.8913  0.2836
  225MPD1    C3 3469   1.338   4.386  11.995  0.9788  0.5360  0.2000
  225MPD1    C4 3470   1.442   4.381  12.081  0.7115 -0.1013 -0.6235
  225MPD1    C5 3471   1.576   4.377  12.033 -0.3292  0.3208 -0.2505
  225MPD1     H 3472   1.290   4.377  11.788  0.4884  0.8601 -0.7943
  225MPD1    H1 3473   1.424   4.388  12.187 -2.0635 -2.5105 -0.9531
  225MPD1    H2 3474   1.707   4.372  11.867 -0.8162 -2.8063 -0.8541
  225MPD1    H3 3475   1.664   4.378  12.098 -0.4864 -0.8826 -0.0048
  225MPD1     N 3476   1.210   4.388  12.044  0.6283 -0.3567 -0.2931
  225MPD1    H5 3477   1.204   4.384  12.145  1.2842 -1.6983 -0.3049
  225MPD1    N1 3478   1.516   4.343  11.662 -0.0384 -0.9146  0.7064
  225MPD1    H6 3479   1.611   4.319  11.636  0.8004  1.3986  1.6897
  225MPD1    H7 3480   1.453   4.275  11.618  0.3199 -0.7458 -0.0654
  226MPD1     C 3481   3.781   3.263   9.569  0.4878 -0.1512  0.3878
  226MPD1    C1 3482   3.869   3.370   9.559 -0.2364  0.3674  0.0679
  226MPD1    C2 3483   3.833   3.502   9.577  0.0377 -0.2543 -0.5506
  226MPD1    C3 3484   3.701   3.526   9.613 -0.0711  0.3242 -0.7190
  226MPD1    C4 3485   3.619   3.417   9.635  0.1686  0.1177 -0.3558
  226MPD1    C5 3486   3.655   3.286   9.609  0.0775  0.3666 -0.7739
  226MPD1     H 3487   3.906   3.581   9.562  0.6854 -0.8510 -0.5908
  226MPD1    H1 3488   3.520   3.435   9.675  0.1500  0.8025 -0.7154
  226MPD1    H2 3489   3.808   3.161   9.543 -0.8043 -0.2461 -0.5761
  226MPD1    H3 3490   3.584   3.205   9.625  0.9022 -0.2000  0.0376
  226MPD1     N 3491   3.657   3.657   9.645 -0.1614 -0.1242  0.2612
  226MPD1    H5 3492   3.723   3.733   9.632 -1.4276  1.1226  0.9892
  226MPD1    N1 3493   3.993   3.342   9.495 -0.4194 -0.2923 -0.5133
  226MPD1    H6 3494   4.022   3.254   9.535  0.2045  0.9268  1.7116
  226MPD1    H7 3495   4.066   3.412   9.507  0.0464 -0.7143 -0.8559
  227MPD1     C 3496   2.804   4.269   9.724 -0.8464  0.2734  0.2868
  227MPD1    C1 3497   2.827   4.143   9.776  0.2379  0.5903 -0.7129
  227MPD1    C2 3498   2.952   4.087   9.773 -0.6783 -0.2051  0.7283
  227MPD1    C3 3499   3.055   4.153   9.705 -0.1701  0.0609 -0.6013
  227MPD1    C4 3500   3.028   4.275   9.642 -0.9504  0.3533 -0.5482
  227MPD1    C5 3501   2.904   4.329   9.652  0.3493 -0.2737 -0.1805
  227MPD1     H 3502   2.973   3.994   9.824  0.0385 -1.0350 -1.0792
  227MPD1    H1 3503   3.094   4.328   9.575  0.4198 -0.0626  0.4560
  227MPD1    H2 3504   2.706   4.313   9.741 -1.0079 -1.1673  3.0243
  227MPD1    H3 3505   2.890   4.431   9.619  2.7179 -0.0511 -0.5469
  227MPD1     N 3506   3.178   4.092   9.711 -0.1870  0.4114  0.0618
  227MPD1    H5 3507   3.184   4.001   9.754 -0.1885  1.3957  2.1667
  227MPD1    N1 3508   2.721   4.087   9.850  0.4341  0.7840  0.8890
  227MPD1    H6 3509   2.629   4.130   9.850  0.3890  0.6966  0.0066
  227MPD1    H7 3510   2.723   3.986   9.858  1.1440  0.3811 -3.9707
  228MPD1     C 3511   1.822   1.272  12.312  0.0450 -0.3278 -0.5716
  228MPD1    C1 3512   1.916   1.276  12.410 -0.3713 -0.6686  0.7044
  228MPD1    C2 3513   1.890   1.358  12.521  0.5859 -0.3714  0.8859
  228MPD1    C3 3514   1.782   1.444  12.537  0.0850 -0.2500 -0.0093
  228MPD1    C4 3515   1.690   1.435  12.436 -0.1766  0.5157 -0.6581
  228MPD1    C5 3516   1.711   1.353  12.330 -0.3759  0.0440 -0.4622
  228MPD1     H 3517   1.958   1.359  12.605  1.3048  2.6136  0.2892
  228MPD1    H1 3518   1.602   1.497  12.441 -0.5779  0.1067 -2.8292
  228MPD1    H2 3519   1.835   1.214  12.221 -0.8826 -1.7914  0.2284
  228MPD1    H3 3520   1.640   1.350  12.248 -1.3233  1.5012  0.2961
  228MPD1     N 3521   1.779   1.538  12.646 -0.2581 -0.4567 -0.1643
  228MPD1    H5 3522   1.856   1.536  12.712 -1.5789 -0.3837  1.3977
  228MPD1    N1 3523   2.028   1.192  12.397 -0.3722  0.2357 -0.2407
  228MPD1    H6 3524   2.110   1.216  12.452 -1.0124  1.6601  0.0736
  228MPD1    H7 3525   2.050   1.171  12.299 -0.1903 -0.2940 -0.0855
  229MPD1     C 3526   2.611   3.766  14.038  0.0634 -0.0686  0.0289
  229MPD1    C1 3527   2.713   3.850  14.070 -0.9104  0.1118  0.0244
  229MPD1    C2 3528   2.721   3.904  14.200 -0.1037  0.3023 -0.6819
  229MPD1    C3 3529   2.613   3.879  14.285  0.6251 -0.5493 -0.4886
  229MPD1    C4 3530   2.505   3.801  14.248 -0.4107 -0.3853 -0.3688
  229MPD1    C5 3531   2.505   3.745  14.125  0.2984  0.9163  0.1952
  229MPD1     H 3532   2.800   3.972  14.228  0.3384 -0.0937 -0.9578
  229MPD1    H1 3533   2.420   3.786  14.314 -0.1122 -1.0399 -0.1341
  229MPD1    H2 3534   2.602   3.718  13.942 -0.6161 -0.4469  0.2805
  229MPD1    H3 3535   2.426   3.688  14.077  1.0939  0.9903 -1.2135
  229MPD1     N 3536   2.599   3.937  14.418  0.1563 -0.3991 -0.2143
  229MPD1    H5 3537   2.528   3.896  14.478  2.2123 -2.9715  0.4320
  229MPD1    N1 3538   2.823   3.858  13.983 -0.0711  0.5961 -0.4057
  229MPD1    H6 3539   2.798   3.855  13.884  1.0659 -0.7433 -0.6448
  229MPD1    H7 3540   2.880   3.939  14.007  0.3137  0.0665  0.4597
  230MPD1     C 3541   2.678   4.531  15.327  0.1817  0.0906 -0.2941
  230MPD1    C1 3542   2.753   4.420  15.342  0.4799  0.5490  0.0102
  230MPD1    C2 3543   2.797   4.350  15.230  0.6218  0.1108  0.6723
  230MPD1    C3 3544   2.749   4.390  15.108  0.3585  0.4027 -0.0733
  230MPD1    C4 3545   2.679   4.515  15.097 -0.4684  0.4399  0.3799
  230MPD1    C5 3546   2.644   4.582  15.211  0.2830  0.5095 -0.1377
  230MPD1     H 3547   2.856   4.260  15.238 -1.4997 -1.1259  2.2631
  230MPD1    H1 3548   2.661   4.556  14.998 -1.0747  0.1076  0.3519
  230MPD1    H2 3549   2.660   4.598  15.410  1.4283 -0.0287  0.0612
  230MPD1    H3 3550   2.600   4.681  15.206 -0.0102  0.3192 -1.2572
  230MPD1     N 3551   2.776   4.304  15.002  0.2871 -0.3707  0.0089
  230MPD1    H5 3552   2.841   4.229  15.027  0.4692  0.0173  0.6963
  230MPD1    N1 3553   2.815   4.393  15.466  0.7447  0.0440 -0.2353
  230MPD1    H6 3554   2.855   4.300  15.469  1.5492  0.4715  1.7061
  230MPD1    H7 3555   2.758   4.421  15.545 -0.2019 -2.0035 -0.1900
  231MPD1     C 3556   1.064   2.671  15.635  0.2942 -0.9161  0.2088
  231MPD1    C1 3557   0.976   2.663  15.533 -0.2335  0.4312  0.0804
  231MPD1    C2 3558   1.007   2.706  15.406  0.3540  0.7300  0.2687
  231MPD1    C3 3559   1.118   2.785  15.391 -0.3705  0.5050  0.6052
  231MPD1    C4 3560   1.209   2.799  15.493 -0.2260 -0.3931  0.3927
  231MPD1    C5 3561   1.180   2.737  15.614  0.1221  0.4013  0.5737
  231MPD1     H 3562   0.933   2.700  15.327  0.5217  0.6717  0.1146
  231MPD1    H1 3563   1.309   2.838  15.480 -0.5726 -0.2373 -1.8311
  231MPD1    H2 3564   1.038   2.634  15.733  1.8353  0.9991  1.3504
  231MPD1    H3 3565   1.252   2.736  15.695 -0.9419 -0.0662  1.5091
  231MPD1     N 3566   1.144   2.849  15.260  0.2193 -0.0499  0.4365
  231MPD1    H5 3567   1.076   2.826  15.189 -0.4978 -0.0794  1.1377
  231MPD1    N1 3568   0.862   2.580  15.542  0.1359 -0.4263 -0.1734
  231MPD1    H6 3569   0.805   2.581  15.626  0.3575  1.0129 -0.0458
  231MPD1    H7 3570   0.805   2.601  15.460  1.5775 -4.1963 -2.1691
  232MPD1     C 3571   3.085   4.221  17.530 -0.1635  0.1579 -0.1413
  232MPD1    C1 3572   3.017   4.225  17.650  0.2415  0.6825  0.5631
  232MPD1    C2 3573   2.893   4.282  17.645  0.5065 -0.1955 -0.0495
  232MPD1    C3 3574   2.841   4.350  17.535 -0.3719 -0.2386 -0.1035
  232MPD1    C4 3575   2.911   4.346  17.418  0.4799 -0.0024  0.3213
  232MPD1    C5 3576   3.028   4.276  17.419  0.0645 -0.5919 -0.7683
  232MPD1     H 3577   2.824   4.277  17.729 -1.2676 -0.4751 -1.5325
  232MPD1    H1 3578   2.874   4.391  17.326  2.5687  0.0026 -0.5232
  232MPD1    H2 3579   3.184   4.179  17.519 -0.7544 -0.7457 -2.0076
  232MPD1    H3 3580   3.080   4.266  17.324  0.0950 -0.1074 -0.8052
  232MPD1     N 3581   2.715   4.410  17.550  0.1341  0.1330  0.1425
  232MPD1    H5 3582   2.679   4.392  17.643 -2.2138 -0.4923 -0.8945
  232MPD1    N1 3583   3.055   4.150   0.010 -0.0421  0.2182  0.3521
  232MPD1    H6 3584   3.156   4.140   0.016  0.0450  1.2717  0.5760
  232MPD1    H7 3585   3.030   4.194   0.098 -1.7483 -0.9587  0.4546
  233MPD1     C 3586   4.053   3.162   0.026  1.1903 -0.7360  0.1542
  233MPD1    C1 3587   4.164   3.172   0.105  0.1584 -0.3473 -0.0324
  233MPD1    C2 3588   4.205   3.052   0.158 -0.0168  0.5665  0.1480
  233MPD1    C3 3589   4.136   2.931   0.148  0.5966 -0.2135  0.0348
  233MPD1    C4 3590   4.023   2.928   0.071  0.4293  0.9992  0.0405
  233MPD1    C5 3591   3.978   3.048   0.017  0.0280 -0.1753 -0.3092
  233MPD1     H 3592   4.304   3.061   0.202 -0.5421  1.4483  1.1546
  233MPD1    H1 3593   3.973   2.835   0.043  1.1680  0.7286 -0.3936
  233MPD1    H2 3594   4.026   3.246  17.711 -0.2730 -0.7971  0.6921
  233MPD1    H3 3595   3.893   3.038  17.699  0.9851  0.1497 -1.6083
  233MPD1     N 3596   4.175   2.814   0.214 -0.4017 -0.6218 -0.3693
  233MPD1    H5 3597   4.129   2.727   0.187 -1.6783  0.2685 -1.0657
  233MPD1    N1 3598   4.235   3.288   0.108 -0.1894  0.0312 -0.4166
  233MPD1    H6 3599   4.290   3.290   0.194 -0.0483 -2.4013 -0.4596
  233MPD1    H7 3600   4.181   3.373   0.096 -0.2494  0.0756  0.1924
  234MPD1     C 3601   2.778   2.418   9.013 -1.0145  0.5794  0.1454
  234MPD1    C1 3602   2.696   2.420   9.129 -1.2616 -0.0056 -0.3803
  234MPD1    C2 3603   2.757   2.464   9.248 -0.0551  0.2369  0.2535
  234MPD1    C3 3604   2.890   2.492   9.258 -0.6636 -0.3284  0.6169
  234MPD1    C4 3605   2.968   2.493   9.145  0.8202 -0.0609 -0.3051
  234MPD1    C5 3606   2.910   2.454   9.027  0.0400  0.0612  0.8640
  234MPD1     H 3607   2.699   2.473   9.338 -0.6713  2.6013 -0.3730
  234MPD1    H1 3608   3.072   2.524   9.139  1.8976 -3.3285  1.5427
  234MPD1    H2 3609   2.733   2.399   8.917 -0.6362 -1.9542  0.4569
  234MPD1    H3 3610   2.976   2.447   8.941 -0.5068  1.4627  0.3266
  234MPD1     N 3611   2.936   2.537   9.383 -0.2518 -0.1805 -0.2353
  234MPD1    H5 3612   2.872   2.555   9.460 -1.4518  1.5820 -1.6324
  234MPD1    N1 3613   2.556   2.400   9.123  0.3052 -0.1688 -0.0317
  234MPD1    H6 3614   2.513   2.372   9.211  1.9640 -1.7617  0.2518
  234MPD1    H7 3615   2.532   2.327   9.056 -0.7584 -1.3916  1.6775
  235MPD1     C 3616   0.827   0.940  10.545  0.6276 -0.0006  0.1822
  235MPD1    C1 3617   0.913   0.831  10.540  0.4639  0.0193  0.1261
  235MPD1    C2 3618   1.016   0.830  10.638 -0.6087 -0.5621 -0.1109
  235MPD1    C3 3619   1.016   0.909  10.750 -0.5931  0.4364  0.3598
  235MPD1    C4 3620   0.925   1.008  10.758 -0.6443  0.0971  0.7039
  235MPD1    C5 3621   0.833   1.028  10.654  0.1888  0.2678 -0.0512
  235MPD1     H 3622   1.094   0.756  10.622  0.6007  1.1411 -2.1278
  235MPD1    H1 3623   0.921   1.082  10.837 -0.8933  0.8655 -0.0259
  235MPD1    H2 3624   0.762   0.963  10.461  1.7651  0.3800 -0.6056
  235MPD1    H3 3625   0.785   1.125  10.650 -0.4503  0.0070  1.2226
  235MPD1     N 3626   1.110   0.882  10.855 -0.0044  1.0322 -0.0254
  235MPD1    H5 3627   1.164   0.798  10.837 -0.1988  0.6917  0.9532
  235MPD1    N1 3628   0.910   0.746  10.431 -0.3024 -1.2927 -0.2567
  235MPD1    H6 3629   0.949   0.663  10.474 -0.6021 -1.3626 -0.1212
  235MPD1    H7 3630   0.815   0.717  10.408  0.4707 -3.8771 -0.2327
  236MPD1     C 3631   0.139   1.751  10.873  0.0943 -0.9901 -0.4939
  236MPD1    C1 3632   0.072   1.736  10.753  1.0096 -0.4109 -0.8402
  236MPD1    C2 3633   0.143   1.685  10.645 -0.4620  0.3601  0.2221
  236MPD1    C3 3634   0.273   1.646  10.663  0.0183  0.9770  0.8221
  236MPD1    C4 3635   0.338   1.666  10.781  0.8129 -0.1040 -0.1095
  236MPD1    C5 3636   0.272   1.726  10.884  0.7175  0.3496  0.5620
  236MPD1     H 3637   0.093   1.660  10.552 -0.1793  0.1370  0.1271
  236MPD1    H1 3638   0.442   1.634  10.791  0.5824 -1.0419 -0.7358
  236MPD1    H2 3639   0.092   1.806  10.954 -0.8206 -0.7382 -1.2107
  236MPD1    H3 3640   0.323   1.757  10.975  1.4007 -0.6609  0.5289
  236MPD1     N 3641   0.349   1.582  10.562  0.1879  0.0689  0.0775
  236MPD1    H5 3642   0.441   1.559  10.599 -0.0610 -0.4019  0.4034
  236MPD1    N1 3643   4.674   1.740  10.739  0.5642 -0.2229 -1.0110
  236MPD1    H6 3644   4.634   1.808  10.803  0.0468 -0.8202 -0.6919
  236MPD1    H7 3645   4.641   1.756  10.644  3.2695  0.3644 -1.8559
  237MPD1     C 3646   1.334   3.417  15.284  0.2663  0.6006 -0.1867
  237MPD1    C1 3647   1.295   3.497  15.182 -0.2339 -0.5645 -0.2180
  237MPD1    C2 3648   1.185   3.583  15.205 -0.0908 -0.5527 -0.5817
  237MPD1    C3 3649   1.103   3.565  15.316  0.3305 -0.5850 -0.0902
  237MPD1    C4 3650   1.148   3.482  15.416 -0.2370 -0.0161  0.6676
  237MPD1    C5 3651   1.266   3.420  15.399 -0.4686 -0.2786 -0.0308
  237MPD1     H 3652   1.151   3.655  15.133  0.9966  0.7973  0.2668
  237MPD1    H1 3653   1.096   3.473  15.511 -1.9730 -0.2894 -0.3007
  237MPD1    H2 3654   1.430   3.368  15.278  0.4035  0.7660  0.5683
  237MPD1    H3 3655   1.307   3.359  15.480 -1.7754 -0.8158  0.2376
  237MPD1     N 3656   0.984   3.639  15.343 -0.2524 -0.6544  0.5094
  237MPD1    H5 3657   0.955   3.623  15.438 -2.2926 -0.9829 -0.1791
  237MPD1    N1 3658   1.383   3.516  15.075  0.9282 -0.0677  0.3267
  237MPD1    H6 3659   1.441   3.440  15.040  2.2445  1.3449 -0.5328
  237MPD1    H7 3660   1.331   3.552  14.995  1.5237  1.9887  0.8609
  238MPD1     C 3661   2.983   1.687  15.298 -0.2216  0.3632 -0.0407
  238MPD1    C1 3662   2.855   1.656  15.346 -0.6069 -0.2410  0.2031
  238MPD1    C2 3663   2.762   1.750  15.325  0.0291 -0.1568 -0.1010
  238MPD1    C3 3664   2.774   1.870  15.255  0.2757 -0.4427  0.5240
  238MPD1    C4 3665   2.898   1.905  15.214  0.3105 -0.0957  0.0784
  238MPD1    C5 3666   3.004   1.814  15.236 -0.1423  0.5745 -0.1507
  238MPD1     H 3667   2.662   1.710  15.334  0.0580 -0.5172 -1.3710
  238MPD1    H1 3668   2.913   1.996  15.158 -0.9216 -0.3612 -0.6659
  238MPD1    H2 3669   3.074   1.635  15.323  0.0489  1.6490  1.7406
  238MPD1    H3 3670   3.100   1.854  15.204  0.1477 -0.3765 -0.4996
  238MPD1     N 3671   2.660   1.956  15.227  0.5827  0.3362  0.4269
  238MPD1    H5 3672   2.674   2.029  15.158 -4.0690  0.1774 -0.7289
  238MPD1    N1 3673   2.837   1.541  15.428  0.1251 -0.5369 -0.1777
  238MPD1    H6 3674   2.741   1.507  15.432  0.0609 -0.3262  0.1676
  238MPD1    H7 3675   2.894   1.465  15.391  2.9732  1.2478  0.5288
  239MPD1     C 3676   2.933   3.127  15.665 -0.1741  0.0711  0.6171
  239MPD1    C1 3677   2.806   3.167  15.638 -0.0386  0.3101 -0.2818
  239MPD1    C2 3678   2.763   3.194  15.511 -0.3917  0.0296 -0.2014
  239MPD1    C3 3679   2.852   3.181  15.400 -0.0089 -0.0441  0.5728
  239MPD1    C4 3680   2.981   3.138  15.430  0.6175 -0.6781 -0.7327
  239MPD1    C5 3681   3.026   3.119  15.558  0.1281  1.0596 -0.3707
  239MPD1     H 3682   2.660   3.224  15.496 -0.2398  0.2351 -0.8356
  239MPD1    H1 3683   3.050   3.113  15.350  0.6175 -2.2163 -0.2501
  239MPD1    H2 3684   2.967   3.112  15.767  0.0351  2.1142  0.8459
  239MPD1    H3 3685   3.125   3.086  15.587 -0.4915  0.3078  0.8965
  239MPD1     N 3686   2.809   3.174  15.268 -0.2785  0.3314 -0.5378
  239MPD1    H5 3687   2.880   3.155  15.198 -0.3033 -1.3993 -0.0944
  239MPD1    N1 3688   2.713   3.176  15.740  0.3293 -0.2449 -0.1591
  239MPD1    H6 3689   2.620   3.214  15.726  1.6240  1.7278 -3.4929
  239MPD1    H7 3690   2.747   3.198  15.834  1.0731  0.9771 -0.7129
  240MPD1     C 3691   2.737   2.548  14.228  0.1197  0.1496 -0.1710
  240MPD1    C1 3692   2.622   2.620  14.189 -0.1654  0.4843  0.1474
  240MPD1    C2 3693   2.529   2.662  14.285 -1.0489 -0.6296 -0.2380
  240MPD1    C3 3694   2.552   2.639  14.420  0.7102 -0.0948 -0.4270
  240MPD1    C4 3695   2.675   2.582  14.451 -0.1896  0.0725 -0.0055
  240MPD1    C5 3696   2.760   2.535  14.358 -0.0027  0.7221  0.3313
  240MPD1     H 3697   2.439   2.715  14.257  0.2342  1.2704 -0.7526
  240MPD1    H1 3698   2.716   2.554  14.547  0.1675 -0.1805 -0.2316
  240MPD1    H2 3699   2.801   2.499  14.155  0.5895 -0.1452  0.4356
  240MPD1    H3 3700   2.848   2.479  14.386 -0.8107 -0.3284  0.8095
  240MPD1     N 3701   2.455   2.659  14.520  0.6017 -0.4532  0.0941
  240MPD1    H5 3702   2.364   2.696  14.494  0.0971 -0.7862  1.3984
  240MPD1    N1 3703   2.588   2.622  14.054 -0.1766 -0.2040  0.0115
  240MPD1    H6 3704   2.523   2.694  14.024  0.2676  0.4842  0.7238
  240MPD1    H7 3705   2.659   2.623  13.982  1.2379  1.3955  1.4655
  241MPD1     C 3706   2.200   2.536  15.586  0.9657 -0.0801  0.3462
  241MPD1    C1 3707   2.317   2.584  15.537 -0.7497  0.3929 -0.2477
  241MPD1    C2 3708   2.317   2.617  15.399  0.5505 -0.2578 -0.0911
  241MPD1    C3 3709   2.197   2.605  15.324  0.1322 -0.0587  0.4713
  241MPD1    C4 3710   2.082   2.561  15.384  0.0861 -0.1508  0.0394
  241MPD1    C5 3711   2.087   2.517  15.511 -0.6720 -0.2027 -0.1357
  241MPD1     H 3712   2.405   2.657  15.349  2.7069 -1.6413  2.6204
  241MPD1    H1 3713   1.988   2.549  15.331 -0.4180  4.3890 -0.1176
  241MPD1    H2 3714   2.209   2.498  15.687 -0.8934 -0.9045  0.1924
  241MPD1    H3 3715   1.992   2.489  15.555 -0.2488 -2.6890 -0.8392
  241MPD1     N 3716   2.188   2.624  15.183  0.6574  0.1862  0.0574
  241MPD1    H5 3717   2.094   2.609  15.150  1.2066  1.5231 -2.0677
  241MPD1    N1 3718   2.433   2.562  15.603  0.4512 -0.6778  0.0452
  241MPD1    H6 3719   2.413   2.592  15.698 -2.5955 -1.3347 -0.3873
  241MPD1    H7 3720   2.512   2.623  15.580 -0.0833 -0.0229 -0.0334
  242MPD1     C 3721   2.367   1.498  15.289 -0.5245  0.6228  0.0968
  242MPD1    C1 3722   2.425   1.403  15.369  0.5904  0.7735 -0.4684
  242MPD1    C2 3723   2.401   1.272  15.338 -0.1823  0.6009 -0.0330
  242MPD1    C3 3724   2.323   1.236  15.229  0.2027  0.2918  0.0809
  242MPD1    C4 3725   2.259   1.338  15.153 -0.0851 -0.1205  0.5804
  242MPD1    C5 3726   2.278   1.470  15.189 -0.0254  0.2159  0.1988
  242MPD1     H 3727   2.458   1.198  15.393 -2.1085 -0.6134  0.3336
  242MPD1    H1 3728   2.190   1.320  15.071  0.6440 -0.9101  0.1353
  242MPD1    H2 3729   2.372   1.602  15.322  0.4941 -0.1600  2.4348
  242MPD1    H3 3730   2.235   1.554  15.135  0.0208 -1.3149 -2.2369
  242MPD1     N 3731   2.297   1.102  15.191 -0.2347  0.1179 -0.3516
  242MPD1    H5 3732   2.239   1.086  15.110 -2.2831 -0.5061  1.2251
  242MPD1    N1 3733   2.534   1.430  15.460 -0.3205  0.0791  0.1659
  242MPD1    H6 3734   2.528   1.524  15.499  0.6850 -0.4056  1.4909
  242MPD1    H7 3735   2.542   1.355  15.528  1.0026 -1.0608 -1.2451
  243MPD1     C 3736   0.100   0.339  17.077  0.3760 -0.7998 -0.1984
  243MPD1    C1 3737   0.003   0.436  17.045  0.1389  0.0116  0.5686
  243MPD1    C2 3738   4.616   0.416  17.094  0.1434 -0.2439  0.3704
  243MPD1    C3 3739   4.580   0.308  17.172 -0.6499  0.5340 -0.2188
  243MPD1    C4 3740   4.684   0.216  17.202 -0.1747 -0.4740  0.4482
  243MPD1    C5 3741   0.074   0.228  17.149  0.1783 -0.6238 -0.0308
  243MPD1     H 3742   4.540   0.491  17.072  0.0582 -0.9840 -1.8717
  243MPD1    H1 3743   4.656   0.126  17.254 -0.3104  0.6759  2.3658
  243MPD1    H2 3744   0.202   0.344  17.040  0.4135 -2.5318 -0.3175
  243MPD1    H3 3745   0.151   0.156  17.176 -0.1292 -0.5244  1.1254
  243MPD1     N 3746   4.444   0.282  17.190 -0.4622  0.6812  0.0329
  243MPD1    H5 3747   4.381   0.361  17.179 -0.1388  0.9560  0.1222
  243MPD1    N1 3748   0.023   0.543  16.954 -0.1773  0.0363 -0.2537
  243MPD1    H6 3749   0.121   0.549  16.926 -0.6113 -0.0260 -1.7338
  243MPD1    H7 3750   4.707   0.626  16.977 -0.3836  0.4250 -2.1901
  244MPD1     C 3751   3.916   4.446   0.090  0.2049  0.2500 -0.0535
  244MPD1    C1 3752   4.037   4.510   0.089  0.1036  0.4802 -0.1343
  244MPD1    C2 3753   4.076   4.577  17.722  0.3761  0.3105  0.3754
  244MPD1    C3 3754   3.991   4.590  17.613  0.4829  0.1815 -0.0596
  244MPD1    C4 3755   3.877   4.519  17.609 -0.3577 -0.4053 -0.1224
  244MPD1    C5 3756   3.843   4.444  17.720 -0.0683  1.1970  0.2002
  244MPD1     H 3757   4.170   4.627  17.699  0.1616  0.2303 -0.6764
  244MPD1    H1 3758   3.800   4.523  17.533 -0.9643  1.0625  0.5675
  244MPD1    H2 3759   3.884   4.395   0.181  2.3961  1.0173  1.1498
  244MPD1    H3 3760   3.759   4.377  17.706  0.2462  0.6079  1.1046
  244MPD1     N 3761   4.040   4.677  17.507  1.1382 -0.1154  0.5981
  244MPD1    H5 3762   4.126   4.723  17.536  2.1759 -0.7411 -1.4941
  244MPD1    N1 3763   4.135   4.499   0.191  0.3696  0.0216  0.3067
  244MPD1    H6 3764   4.098   4.496   0.286 -0.9034 -1.8081 -0.2514
  244MPD1    H7 3765   4.205   4.573   0.189  1.6488 -1.2402 -1.1215
  245MPD1     C 3766   0.222   0.266  12.922  0.8151 -0.3177  0.4113
  245MPD1    C1 3767   0.182   0.309  13.048 -0.5180  0.4045 -0.2907
  245MPD1    C2 3768   0.257   0.415  13.097 -0.8958 -0.3156  0.3287
  245MPD1    C3 3769   0.370   0.471  13.036  0.0039  0.3965 -0.2471
  245MPD1    C4 3770   0.410   0.423  12.915 -0.5492  0.3789  0.3702
  245MPD1    C5 3771   0.334   0.325  12.860  0.4635  0.0274 -0.1030
  245MPD1     H 3772   0.227   0.442  13.197 -2.5448  0.1598 -0.3037
  245MPD1    H1 3773   0.503   0.449  12.865 -1.9341 -0.0498 -2.4550
  245MPD1    H2 3774   0.177   0.181  12.872 -0.7392  0.7890 -0.0563
  245MPD1    H3 3775   0.364   0.304  12.758 -1.4404  3.4318 -1.3999
  245MPD1     N 3776   0.446   0.568  13.108 -0.0197  0.1123 -0.3638
  245MPD1    H5 3777   0.402   0.607  13.191  3.2955 -2.0578  2.4171
  245MPD1    N1 3778   0.067   0.271  13.113 -0.0469 -0.0878  0.0817
  245MPD1    H6 3779   0.014   0.341  13.165 -0.4114  0.0930 -0.5356
  245MPD1    H7 3780   0.022   0.190  13.072  0.0398 -0.1291  0.0683
  246MPD1     C 3781   2.102   2.087  10.257 -0.1854 -0.0886  0.7740
  246MPD1    C1 3782   2.061   1.955  10.262  0.3329  0.7553 -0.2885
  246MPD1    C2 3783   1.965   1.916  10.177  0.6757  0.2931 -0.0693
  246MPD1    C3 3784   1.929   2.003  10.081 -0.3203  0.4680  0.3983
  246MPD1    C4 3785   1.968   2.141  10.079 -0.1704 -0.1026  0.0458
  246MPD1    C5 3786   2.066   2.177  10.161  0.5999 -0.3442  0.4088
  246MPD1     H 3787   1.933   1.812  10.169  2.4014 -0.1836 -0.6869
  246MPD1    H1 3788   1.943   2.210   9.999  0.4662  0.1114  0.0289
  246MPD1    H2 3789   2.155   2.134  10.338 -1.4608  0.0190  1.5476
  246MPD1    H3 3790   2.101   2.280  10.163 -0.7465  0.1762 -2.7075
  246MPD1     N 3791   1.838   1.953   9.989 -0.6488  0.0480 -0.1825
  246MPD1    H5 3792   1.806   1.857   9.988 -0.4842 -0.0032 -0.5058
  246MPD1    N1 3793   2.087   1.888  10.380 -0.1494  0.1458 -0.3127
  246MPD1    H6 3794   2.086   1.788  10.365  0.2505  0.0994 -0.0368
  246MPD1    H7 3795   2.182   1.914  10.407 -0.4561 -0.7893  1.6520
  247MPD1     C 3796   4.536   1.213  16.071  0.3687 -0.3276 -0.5971
  247MPD1    C1 3797   4.583   1.248  16.192  0.4207  0.6016  0.1507
  247MPD1    C2 3798   4.718   1.237  16.219 -0.4063  0.8111 -0.1830
  247MPD1    C3 3799   0.061   1.162  16.132 -0.4378  0.3269  0.7792
  247MPD1    C4 3800   0.017   1.135  16.012 -0.0783  0.6088 -0.0425
  247MPD1    C5 3801   4.624   1.166  15.976  0.0208 -0.1050 -0.5570
  247MPD1     H 3802   0.021   1.279  16.310  2.7504  0.9454 -1.6361
  247MPD1    H1 3803   0.082   1.079  15.947 -1.1395  1.5769 -1.9189
  247MPD1    H2 3804   4.430   1.213  16.050  0.6209 -0.3072 -1.8717
  247MPD1    H3 3805   4.581   1.134  15.881 -1.0172  1.2956 -0.5702
  247MPD1     N 3806   0.194   1.119  16.153 -0.5876  0.3413 -0.2755
  247MPD1    H5 3807   0.250   1.091  16.073  1.1763 -0.8074  1.3486
  247MPD1    N1 3808   4.495   1.271  16.301 -0.1481  0.4544 -0.1953
  247MPD1    H6 3809   4.539   1.335  16.368 -0.1385 -0.3089  0.5283
  247MPD1    H7 3810   4.412   1.321  16.271 -0.4440 -0.9334 -1.6791
  248MPD1     C 3811   2.155   1.111  17.717  0.9554 -0.2364  0.8018
  248MPD1    C1 3812   2.070   1.006  17.730 -0.0111 -0.1541 -0.3282
  248MPD1    C2 3813   2.026   0.973   0.106  0.5677 -0.1628  0.2394
  248MPD1    C3 3814   2.074   1.035   0.226  0.4528 -0.1617  0.2068
  248MPD1    C4 3815   2.156   1.142   0.206 -0.4116  0.5044  0.3789
  248MPD1    C5 3816   2.198   1.178   0.083  0.2898  0.3824 -0.0689
  248MPD1     H 3817   1.963   0.886   0.115 -0.2282  0.3405 -0.4544
  248MPD1    H1 3818   2.193   1.210   0.282  2.5067 -0.3373 -0.2637
  248MPD1    H2 3819   2.188   1.134  17.617 -0.2611  0.2184  0.5051
  248MPD1    H3 3820   2.260   1.265   0.063  1.3191 -0.3794 -0.2222
  248MPD1     N 3821   2.023   1.001   0.355  0.5814  0.1079  0.1618
  248MPD1    H5 3822   1.950   0.931   0.350 -1.0465  1.6464  2.3959
  248MPD1    N1 3823   2.013   0.943  17.613 -0.0086  0.0873  0.6171
  248MPD1    H6 3824   1.989   0.847  17.638  4.0826 -1.0613  0.1097
  248MPD1    H7 3825   2.073   0.951  17.531 -1.5862  0.4081 -0.5046
  249MPD1     C 3826   1.856   0.293  10.616  0.4309 -0.1860  0.8565
  249MPD1    C1 3827   1.851   0.433  10.607 -0.5854 -0.1430  0.3032
  249MPD1    C2 3828   1.952   0.497  10.535 -0.4275  0.5930 -0.8894
  249MPD1    C3 3829   2.039   0.420  10.461 -0.1144  0.2815 -0.0252
  249MPD1    C4 3830   2.040   0.285  10.474  0.1694  1.2530  0.1422
  249MPD1    C5 3831   1.955   0.222  10.558 -0.7095 -0.1720  1.0094
  249MPD1     H 3832   1.956   0.605  10.531  1.1158  0.5935  0.9526
  249MPD1    H1 3833   2.105   0.218  10.418 -0.4816  0.3810  0.4327
  249MPD1    H2 3834   1.787   0.240  10.680 -0.2294  1.5445  1.5814
  249MPD1    H3 3835   1.960   0.119  10.590  0.3833 -0.3166  0.3765
  249MPD1     N 3836   2.131   0.489  10.381  0.1837  0.0879 -0.1425
  249MPD1    H5 3837   2.134   0.590  10.380 -1.4799  0.1290 -0.6928
  249MPD1    N1 3838   1.759   0.506  10.687  0.4895  0.4399 -0.3421
  249MPD1    H6 3839   1.668   0.462  10.685  0.6299  0.0248  1.8731
  249MPD1    H7 3840   1.747   0.605  10.669  0.1414  0.6491  1.0248
  250MPD2     C 3841   4.183   3.869  12.927 -0.0067  0.6497  0.4617
  250MPD2    C1 3842   4.061   3.911  12.968  0.2120  0.6741  0.1102
  250MPD2    C2 3843   3.946   3.854  12.903  0.1187  0.1620  0.5291
  250MPD2    C3 3844   3.955   3.753  12.806 -0.6518  0.9185 -0.6665
  250MPD2    C4 3845   4.082   3.714  12.770 -0.3731 -0.1998  0.6252
  250MPD2    C5 3846   4.187   3.773  12.839 -0.0763  0.4382  0.1656
  250MPD2     H 3847   3.851   3.891  12.941  1.5997  2.5817  1.8505
  250MPD2    H1 3848   4.096   3.646  12.688  1.2414 -0.4183  1.0876
  250MPD2    H2 3849   4.276   3.909  12.965  0.2545  1.5267 -1.0932
  250MPD2    H3 3850   4.287   3.741  12.811 -0.2359 -0.3382  0.4827
  250MPD2     N 3851   3.841   3.692  12.752 -0.0902  0.1449 -0.3044
  250MPD2    H5 3852   3.853   3.633  12.671 -1.5967 -1.0181  0.3169
  250MPD2    N1 3853   4.056   4.011  13.063 -0.2286  0.1807  0.0615
  250MPD2    H7 3854   4.147   4.053  13.081  0.7187 -1.7510 -0.2624
  251TMC3    C1 3855   3.976   4.191  13.184  0.8762  0.5635 -0.1734
  251TMC3    C2 3856   3.877   4.295  13.178 -0.0070  0.3216 -0.5227
  251TMC3    C3 3857   3.919   4.422  13.225  0.1572  0.1998 -0.2065
  251TMC3    C4 3858   4.101   4.214  13.231 -0.6085  0.0616 -0.5975
  251TMC3    C5 3859   4.135   4.342  13.270 -0.7649 -0.2249 -0.4439
  251TMC3    C6 3860   4.048   4.445  13.268  0.2764 -1.0119  0.7944
  251TMC3     C 3861   3.944   4.066  13.120  0.7902 -0.2471  0.0863
  251TMC3     O 3862   3.825   4.039  13.095  0.6359  0.1978 -0.1643
  251TMC3     H 3863   3.776   4.263  13.159 -0.1829  0.9787 -0.6909
  251TMC3    H1 3864   4.168   4.133  13.257  1.0696  1.5671 -0.1657
  251TMC3    H2 3865   4.088   4.542  13.298  1.0511 -0.9186 -0.5340
  251TMC3    C7 3866   4.265   4.360  13.334  0.3028 -0.5933  0.3186
  251TMC3    C8 3867   3.820   4.524  13.212 -0.5979 -0.0593  0.1593
  251TMC3    O1 3868   4.270   4.434  13.429  0.2031  0.8010 -0.4281
  251TMC3    O2 3869   3.705   4.483  13.226 -0.3726 -0.0362 -0.4011
  252TMC3    C1 3870   3.776   1.521   9.669  0.2357  0.2694  0.7484
  252TMC3    C2 3871   3.839   1.624   9.740 -0.4608 -0.1517  0.2327
  252TMC3    C3 3872   3.971   1.594   9.777  0.6202 -0.4753 -0.5009
  252TMC3    C4 3873   3.825   1.394   9.654  0.1335 -0.2741  0.2322
  252TMC3    C5 3874   3.958   1.370   9.691  0.5862 -0.2625 -0.4689
  252TMC3    C6 3875   4.030   1.471   9.756  0.2632 -0.6266 -0.1670
  252TMC3     C 3876   3.640   1.542   9.613  0.0239 -0.2768  0.0844
  252TMC3     O 3877   3.562   1.452   9.599 -0.4641  0.1063  0.1491
  252TMC3     H 3878   3.786   1.716   9.762 -1.6104 -0.1754 -2.4548
  252TMC3    H1 3879   3.780   1.320   9.590 -0.0057  0.3958 -0.4454
  252TMC3    H2 3880   4.138   1.458   9.750  0.4587  1.2526 -0.7555
  252TMC3    C7 3881   4.031   1.246   9.656 -0.4314 -0.1542 -0.4471
  252TMC3    C8 3882   4.031   1.690   9.870 -0.1511 -0.0588  0.1234
  252TMC3    O1 3883   4.154   1.243   9.655  0.7634  0.0310 -0.3566
  252TMC3    O2 3884   3.968   1.796   9.882 -0.3285  0.1655  0.3783
  253MPD2     C 3885   0.534   4.052  15.341  0.0315  0.3225 -0.5593
  253MPD2    C1 3886   0.392   4.027  15.333  0.0252 -0.4077 -0.4556
  253MPD2    C2 3887   0.326   3.977  15.447  0.2608  0.5155 -0.7497
  253MPD2    C3 3888   0.387   3.972  15.568 -0.2320  1.1648  0.0012
  253MPD2    C4 3889   0.517   4.018  15.575  0.2877  0.7170  0.5154
  253MPD2    C5 3890   0.592   4.060  15.466 -0.4724 -0.3146 -0.1325
  253MPD2     H 3891   0.221   3.955  15.430  0.3254  0.2711 -0.8409
  253MPD2    H1 3892   0.552   4.011  15.678 -0.8174  1.2827  0.9308
  253MPD2    H2 3893   0.602   4.086  15.264 -0.1693  0.9422 -0.4587
  253MPD2    H3 3894   0.689   4.107  15.470 -0.8988  0.5118  0.3565
  253MPD2     N 3895   0.318   3.927  15.681  0.0657  0.0282  0.0117
  253MPD2    H5 3896   0.364   3.945  15.770  0.0641  0.9981 -0.1746
  253MPD2    N1 3897   0.314   4.034  15.218  0.2129  0.2520  0.2197
  253MPD2    H7 3898   0.215   4.015  15.224  0.0112  1.1976 -0.0900
  254TMC3    C1 3899   0.137   3.901  15.822 -0.2535 -0.1553  0.6913
  254TMC3    C2 3900   0.004   3.916  15.824  0.2178 -0.0061 -0.1036
  254TMC3    C3 3901   4.676   3.881  15.935  0.5346 -0.2379 -0.2711
  254TMC3    C4 3902   0.209   3.842  15.924  0.1256 -0.2025 -0.0648
  254TMC3    C5 3903   0.140   3.807  16.035 -0.3501 -0.2131  0.3638
  254TMC3    C6 3904   0.002   3.821  16.039  0.5153  0.7795  0.6614
  254TMC3     C 3905   0.190   3.891  15.688  0.0623 -0.5004 -0.3938
  254TMC3     O 3906   0.106   3.864  15.604  1.1538 -0.8806 -1.1168
  254TMC3     H 3907   4.688   3.969  15.746 -1.3683 -0.0981  0.8938
  254TMC3    H1 3908   0.314   3.816  15.914 -0.6570 -1.7194 -4.1161
  254TMC3    H2 3909   4.670   3.796  16.118 -0.5317  2.5452  0.3018
  254TMC3    C7 3910   0.212   3.783  16.154 -0.2705  0.0386 -0.0594
  254TMC3    C8 3911   4.550   3.955  15.963  0.3124  0.2566  0.1560
  254TMC3    O1 3912   0.153   3.744  16.255 -0.3949  0.2481  0.4003
  254TMC3    O2 3913   4.538   3.986  16.078 -0.3992 -0.2799  0.5119
  255MPD2     C 3914   3.230   1.619  10.647 -0.1549 -0.0247  0.2420
  255MPD2    C1 3915   3.182   1.733  10.588  0.6919  0.4987 -0.9494
  255MPD2    C2 3916   3.113   1.725  10.470  0.3482  0.2279 -0.5137
  255MPD2    C3 3917   3.098   1.607  10.399  0.0567  0.3250  0.1213
  255MPD2    C4 3918   3.153   1.489  10.449 -0.5256  0.3564  0.0266
  255MPD2    C5 3919   3.232   1.505  10.567  0.7687 -0.2683  0.0119
  255MPD2     H 3920   3.071   1.814  10.426  1.4301  0.2115 -1.5782
  255MPD2    H1 3921   3.134   1.393  10.403  0.7260  0.3864 -0.5402
  255MPD2    H2 3922   3.281   1.628  10.742 -1.0975  1.5662  0.5843
  255MPD2    H3 3923   3.269   1.410  10.603 -0.8055  0.0444  2.4253
  255MPD2     N 3924   3.024   1.627  10.286 -1.0479  0.0000  0.3813
  255MPD2    H5 3925   2.988   1.721  10.274 -3.5311 -0.9793  0.0686
  255MPD2    N1 3926   3.199   1.862  10.640 -0.3970 -0.1178  0.1600
  255MPD2    H7 3927   3.207   1.878  10.740 -0.9149  1.1732 -0.0096
  256TMC3    C1 3928   3.171   2.086  10.650  0.1025  0.1602  0.6710
  256TMC3    C2 3929   3.236   2.101  10.768 -0.0042 -0.0443 -0.1517
  256TMC3    C3 3930   3.212   2.221  10.841  0.0973  0.5193 -0.1110
  256TMC3    C4 3931   3.093   2.183  10.599 -0.6626  0.0168  0.5306
  256TMC3    C5 3932   3.070   2.295  10.673 -0.2348 -0.0099  0.5037
  256TMC3    C6 3933   3.132   2.319  10.794  0.3464  0.4926 -0.0213
  256TMC3     C 3934   3.177   1.976  10.568 -0.1877  0.1962  0.3708
  256TMC3     O 3935   3.196   1.998  10.446 -0.3875 -0.6732 -0.0810
  256TMC3     H 3936   3.313   2.033  10.802 -2.0328 -1.3563  1.8765
  256TMC3    H1 3937   3.054   2.164  10.500  1.9314 -0.5459 -0.3597
  256TMC3    H2 3938   3.078   2.390  10.855  1.4643  1.7080 -0.4540
  256TMC3    C7 3939   2.968   2.385  10.628  0.0809  0.1631 -0.6519
  256TMC3    C8 3940   3.286   2.235  10.967 -0.5972  0.1091 -0.2483
  256TMC3    O1 3941   2.871   2.329  10.575 -0.6140  0.1659  0.3377
  256TMC3    O2 3942   3.331   2.137  11.025  0.1334  0.3683 -0.6046
  257MPD2     C 3943   3.086   3.948  13.563 -0.0170  0.7781  0.4854
  257MPD2    C1 3944   2.979   3.911  13.482  0.3211  0.1019  0.5078
  257MPD2    C2 3945   2.914   3.792  13.509 -0.1443 -0.1432 -0.2754
  257MPD2    C3 3946   2.947   3.713  13.610 -0.2417  0.5951  0.1559
  257MPD2    C4 3947   3.049   3.749  13.693  0.4305 -0.7323  0.0748
  257MPD2    C5 3948   3.118   3.862  13.664 -0.9064  0.3331 -0.3597
  257MPD2     H 3949   2.836   3.751  13.446  0.2395  0.8811 -1.4119
  257MPD2    H1 3950   3.084   3.686  13.775 -1.3538 -4.2918 -1.8941
  257MPD2    H2 3951   3.156   4.028  13.540  1.2073 -0.5042 -0.3018
  257MPD2    H3 3952   3.212   3.887  13.712 -1.2845 -2.3266  1.7052
  257MPD2     N 3953   2.876   3.594  13.606  0.7465 -0.1092 -0.1256
  257MPD2    H5 3954   2.803   3.585  13.537 -0.8940 -1.4706  1.8078
  257MPD2    N1 3955   2.943   3.987  13.370 -0.0691 -0.4029 -0.1376
  257MPD2    H7 3956   2.866   3.951  13.314  0.0385 -1.5957  0.4686
  258TMC3    C1 3957   2.807   3.378  13.668  0.0592  0.0249  0.3892
  258TMC3    C2 3958   2.716   3.377  13.564 -0.0355  0.3748  0.2054
  258TMC3    C3 3959   2.656   3.255  13.533 -0.5725 -0.3161  0.3567
  258TMC3    C4 3960   2.824   3.269  13.747 -0.3267 -0.2194  0.1936
  258TMC3    C5 3961   2.753   3.154  13.712  0.4299 -0.4672 -0.6816
  258TMC3    C6 3962   2.667   3.141  13.603  0.4151  0.2396 -0.3811
  258TMC3     C 3963   2.892   3.493  13.696 -0.2058  0.1564 -0.1378
  258TMC3     O 3964   2.978   3.480  13.782 -0.0974  0.1022  0.1795
  258TMC3     H 3965   2.711   3.458  13.493 -0.7845 -0.5546 -0.7959
  258TMC3    H1 3966   2.880   3.282  13.839  4.1667 -0.4468 -2.5156
  258TMC3    H2 3967   2.612   3.049  13.587  0.5533 -0.1117  1.1546
  258TMC3    C7 3968   2.737   3.061  13.817  0.0274  0.0890  0.1286
  258TMC3    C8 3969   2.606   3.249  13.398 -0.1101  0.2049 -0.7124
  258TMC3    O1 3970   2.633   3.000  13.847 -0.4546  0.1600  0.6969
  258TMC3    O2 3971   2.553   3.345  13.345  0.2516 -0.2969 -0.0563
  259MPD2     C 3972   1.974   0.513   0.763 -0.5546  0.4629 -0.0850
  259MPD2    C1 3973   1.868   0.428   0.728 -0.3874 -0.5637 -0.1832
  259MPD2    C2 3974   1.784   0.471   0.629  0.2957 -0.2368  0.0447
  259MPD2    C3 3975   1.812   0.584   0.557  0.4867  0.1427  0.9155
  259MPD2    C4 3976   1.913   0.666   0.597 -0.0427  1.1059  0.3213
  259MPD2    C5 3977   1.988   0.636   0.702 -0.6459 -0.2994  0.0089
  259MPD2     H 3978   1.703   0.404   0.600  1.8480 -1.5702 -1.2256
  259MPD2    H1 3979   1.926   0.760   0.546  0.8917  1.1897  0.7167
  259MPD2    H2 3980   2.039   0.486   0.845 -1.4149  1.2970  0.8827
  259MPD2    H3 3981   2.051   0.717   0.737 -0.6553 -0.1859 -0.2356
  259MPD2     N 3982   1.723   0.614   0.452  0.7911  0.2841 -0.3157
  259MPD2    H5 3983   1.662   0.538   0.423  1.2642 -0.3115  0.2639
  259MPD2    N1 3984   1.855   0.304   0.805 -0.6276  0.3152  0.1576
  259MPD2    H7 3985   1.936   0.287   0.863  0.2565 -0.3978 -1.2905
  260TMC3    C1 3986   1.655   0.693   0.242  0.2286 -0.7098 -0.1614
  260TMC3    C2 3987   1.741   0.692   0.129  1.0134  0.1205 -0.2524
  260TMC3    C3 3988   1.767   0.576   0.059  0.0989  0.5132  0.1063
  260TMC3    C4 3989   1.574   0.594   0.263 -0.6457  0.2469 -0.0557
  260TMC3    C5 3990   1.607   0.477   0.200  0.2464 -0.1745  0.0869
  260TMC3    C6 3991   1.698   0.463   0.096 -0.1930 -0.0587 -0.4838
  260TMC3     C 3992   1.743   0.710   0.350  0.0058 -0.6064  0.4835
  260TMC3     O 3993   1.838   0.791   0.344 -0.3359  0.1694 -0.0061
  260TMC3     H 3994   1.809   0.776   0.124  0.6913  0.4365  0.6327
  260TMC3    H1 3995   1.487   0.602   0.328 -1.9878 -0.8931 -1.7295
  260TMC3    H2 3996   1.715   0.368   0.046 -0.5857 -0.8959  0.9720
  260TMC3    C7 3997   1.578   0.355   0.284 -0.3292 -0.5199  0.2378
  260TMC3    C8 3998   1.881   0.578  17.721  0.4999 -0.0099  0.9298
  260TMC3    O1 3999   1.520   0.379   0.391 -0.0337  0.3358 -0.0011
  260TMC3    O2 4000   1.933   0.688  17.700  0.2174  0.1754 -0.8385
  261MPD2     C 4001   3.431   3.409  12.145  0.5462  0.0455  0.0711
  261MPD2    C1 4002   3.472   3.525  12.201  0.2003  0.5042  0.2144
  261MPD2    C2 4003   3.482   3.636  12.117 -0.3976  0.1467 -0.0735
  261MPD2    C3 4004   3.444   3.633  11.980 -0.3743  0.5509  0.3772
  261MPD2    C4 4005   3.388   3.513  11.930 -0.0784  0.0231  0.3634
  261MPD2    C5 4006   3.389   3.400  12.011  0.1959 -0.8915 -0.4413
  261MPD2     H 4007   3.517   3.727  12.166  1.1288  0.8051 -2.3952
  261MPD2    H1 4008   3.347   3.505  11.830  0.1290 -2.0172  0.4362
  261MPD2    H2 4009   3.406   3.323  12.206 -2.6648  1.4484  0.7107
  261MPD2    H3 4010   3.363   3.303  11.970 -2.1706  0.0036 -1.0497
  261MPD2     N 4011   3.452   3.755  11.905 -0.2527  0.1260 -0.3679
  261MPD2    H5 4012   3.503   3.832  11.947  0.4948 -0.6180  0.0899
  261MPD2    N1 4013   3.519   3.550  12.335  0.3703  0.0349 -0.7570
  261MPD2    H7 4014   3.508   3.644  12.371 -0.6395  0.6860 -2.7556
  262TMC3    C1 4015   3.436   3.912  11.737  0.0051  0.4463  0.0610
  262TMC3    C2 4016   3.401   4.015  11.814 -0.2759 -1.2769 -0.2512
  262TMC3    C3 4017   3.446   4.137  11.763  0.4712 -0.6310 -0.5231
  262TMC3    C4 4018   3.517   3.917  11.629  0.8808 -0.1059 -0.4001
  262TMC3    C5 4019   3.575   4.038  11.604 -0.4641 -0.9517 -0.0532
  262TMC3    C6 4020   3.536   4.157  11.659  1.0083 -1.3402  0.3200
  262TMC3     C 4021   3.402   3.775  11.775 -0.5256  0.4747 -0.6132
  262TMC3     O 4022   3.348   3.700  11.700 -0.0253 -0.2039  0.2536
  262TMC3     H 4023   3.333   3.998  11.897 -1.1142 -3.3041 -1.3560
  262TMC3    H1 4024   3.555   3.831  11.576  1.4559 -1.6974  2.5600
  262TMC3    H2 4025   3.575   4.254  11.631  0.6477 -0.6393  2.2942
  262TMC3    C7 4026   3.685   4.038  11.510 -0.5461  0.0726  0.0291
  262TMC3    C8 4027   3.378   4.261  11.811  0.2051  0.1379 -0.2449
  262TMC3    O1 4028   3.731   3.929  11.479 -0.2560 -0.0631 -0.1261
  262TMC3    O2 4029   3.415   4.364  11.760  0.5866 -0.4644 -0.0309
  263MPD2     C 4030   4.297   3.605  12.050  0.5876  1.1879 -0.0854
  263MPD2    C1 4031   4.283   3.470  12.000  0.4831  1.0707  0.2139
  263MPD2    C2 4032   4.210   3.450  11.880  0.5198  0.1452 -0.7379
  263MPD2    C3 4033   4.149   3.555  11.816  0.7704  0.5439 -0.6111
  263MPD2    C4 4034   4.172   3.688  11.866 -0.3295  0.6120 -0.6044
  263MPD2    C5 4035   4.241   3.712  11.979  0.3778  0.7623 -0.8946
  263MPD2     H 4036   4.210   3.351  11.837 -1.4192 -0.0399 -0.2846
  263MPD2    H1 4037   4.126   3.770  11.811 -0.8447  1.1580  0.6469
  263MPD2    H2 4038   4.356   3.623  12.139  1.8095 -3.8495  0.1331
  263MPD2    H3 4039   4.259   3.812  12.017 -0.3187  0.4171  0.3485
  263MPD2     N 4040   4.076   3.519  11.697 -0.2179 -0.2406  0.4965
  263MPD2    H5 4041   4.051   3.421  11.685  1.2998 -0.6911  0.9842
  263MPD2    N1 4042   4.345   3.364  12.068 -0.7314  0.1770  0.2436
  263MPD2    H7 4043   4.390   3.393  12.154 -1.4504  0.3943  0.5472
  264TMC3    C1 4044   3.985   3.528  11.486  0.1733  0.3069  0.2918
  264TMC3    C2 4045   3.896   3.580  11.403  0.1666 -0.0698  0.4408
  264TMC3    C3 4046   3.888   3.536  11.275  0.1394 -0.6874 -0.3632
  264TMC3    C4 4047   4.080   3.445  11.439 -0.2047  0.2306  0.5143
  264TMC3    C5 4048   4.070   3.403  11.312  0.1879  0.2014 -1.0183
  264TMC3    C6 4049   3.976   3.443  11.228 -0.1306  0.5699  0.4176
  264TMC3     C 4050   4.029   3.607  11.603  0.6376  0.1800 -0.1268
  264TMC3     O 4051   4.007   3.724  11.589 -0.5035 -0.0730 -0.1774
  264TMC3     H 4052   3.834   3.663  11.435 -0.8566 -0.8382  0.4423
  264TMC3    H1 4053   4.162   3.417  11.504  1.2182  1.6574 -0.6659
  264TMC3    H2 4054   3.977   3.421  11.121 -0.4671 -1.7918  0.8845
  264TMC3    C7 4055   4.192   3.376  11.232 -0.5305 -0.3601 -0.0995
  264TMC3    C8 4056   3.823   3.616  11.171  0.0672 -0.4419 -0.3252
  264TMC3    O1 4057   4.170   3.306  11.129 -0.6001 -0.5294  0.1307
  264TMC3    O2 4058   3.838   3.578  11.056 -0.6495 -0.2548 -0.0953
  265MPD2     C 4059   1.274   3.147  15.913  0.7121  0.2272 -0.2966
  265MPD2    C1 4060   1.344   3.257  15.865  0.1779  0.1479  0.2471
  265MPD2    C2 4061   1.439   3.232  15.759 -0.2261 -0.1734 -0.1739
  265MPD2    C3 4062   1.441   3.117  15.695  0.1359 -0.3303 -0.4857
  265MPD2    C4 4063   1.374   3.006  15.750 -0.1323  0.0646  0.2803
  265MPD2    C5 4064   1.294   3.026  15.853 -0.4743 -0.0359 -0.6907
  265MPD2     H 4065   1.494   3.319  15.725  0.5070 -2.1697 -4.1261
  265MPD2    H1 4066   1.373   2.910  15.700  0.6758 -0.2894  0.9321
  265MPD2    H2 4067   1.198   3.150  15.991  0.8641 -2.9658 -0.0158
  265MPD2    H3 4068   1.238   2.939  15.884 -0.8127  0.5453  0.2926
  265MPD2     N 4069   1.504   3.088  15.569  0.1137 -0.3835 -0.0077
  265MPD2    H5 4070   1.479   3.008  15.512  1.6478  0.5392 -1.9561
  265MPD2    N1 4071   1.332   3.384  15.926  0.0093  0.6021 -0.0752
  265MPD2    H7 4072   1.407   3.449  15.905  1.3181 -0.5189  1.0992
  266TMC3    C1 4073   1.231   3.568  16.030  0.2307 -0.2989  0.1422
  266TMC3    C2 4074   1.345   3.613  16.097  0.3929  0.1804  0.3438
  266TMC3    C3 4075   1.341   3.743  16.138  0.4279  0.3310 -0.3753
  266TMC3    C4 4076   1.118   3.636  16.046  0.2026 -0.3340  0.5533
  266TMC3    C5 4077   1.111   3.765  16.107 -0.1201 -0.2969 -0.8154
  266TMC3    C6 4078   1.225   3.821  16.148 -0.5114  0.4798  0.3873
  266TMC3     C 4079   1.215   3.429  15.996  0.9830  0.2581  0.5950
  266TMC3     O 4080   1.108   3.371  16.005 -0.0056 -0.3606  0.3335
  266TMC3     H 4081   1.420   3.536  16.112 -0.8576 -0.7011  2.0173
  266TMC3    H1 4082   1.030   3.594  16.000  1.6355 -0.1948 -2.2878
  266TMC3    H2 4083   1.235   3.927  16.171 -1.9202  0.3433  1.6161
  266TMC3    C7 4084   1.013   3.868  16.048  0.3070  0.0700 -0.4242
  266TMC3    C8 4085   1.460   3.780  16.215 -0.5856  0.1200  0.5109
  266TMC3    O1 4086   0.957   3.843  15.942 -0.2462 -0.6942  0.2103
  266TMC3    O2 4087   1.537   3.691  16.243  0.0158 -0.7490 -0.6305
  267MPD2     C 4088   4.349   0.177  17.652 -0.9071  0.0411 -0.3500
  267MPD2    C1 4089   4.407   0.277  17.579  0.4218 -0.2173 -0.1167
  267MPD2    C2 4090   4.334   0.377  17.528  0.0385 -0.2864 -0.1773
  267MPD2    C3 4091   4.207   0.390  17.562  0.4544 -0.5659 -0.1177
  267MPD2    C4 4092   4.140   0.297  17.640 -0.7156 -0.6685 -0.5938
  267MPD2    C5 4093   4.213   0.188  17.678 -0.5480  0.1053  0.1041
  267MPD2     H 4094   4.383   0.451  17.466  0.3331 -0.6501 -0.3768
  267MPD2    H1 4095   4.034   0.302  17.662 -0.4794  0.8469  0.1880
  267MPD2    H2 4096   4.401   0.099  17.705 -1.4665 -0.4425 -0.5077
  267MPD2    H3 4097   4.178   0.106  17.739  0.1132 -1.1869 -1.2630
  267MPD2     N 4098   4.115   0.493  17.522 -0.3731 -0.2044 -0.7077
  267MPD2    H5 4099   4.022   0.473  17.555 -0.2168 -0.7141 -0.5672
  267MPD2    N1 4100   4.551   0.278  17.555 -0.1226 -0.2237  0.2336
  267MPD2    H7 4101   4.588   0.192  17.594 -0.7065  0.3370  1.9866
  268TMC3    C1 4102   0.035   0.349  17.504  0.0488  0.3840 -0.1950
  268TMC3    C2 4103   0.109   0.428  17.429 -0.2366 -0.1477 -0.0519
  268TMC3    C3 4104   0.226   0.478  17.475 -0.0176  0.5528  0.6543
  268TMC3    C4 4105   0.084   0.308  17.626 -0.1096  0.0302 -0.0163
  268TMC3    C5 4106   0.197   0.354  17.670 -0.3826  0.2927  0.2753
  268TMC3    C6 4107   0.275   0.443  17.596 -0.1286 -0.3714 -0.4595
  268TMC3     C 4108   4.634   0.377  17.500  0.3463 -0.5558  0.8180
  268TMC3     O 4109   4.599   0.478  17.438 -0.0897  0.1694 -0.1539
  268TMC3     H 4110   0.058   0.452  17.336  2.7120  1.0265 -1.3810
  268TMC3    H1 4111   0.017   0.262  17.698  0.4011 -0.8508 -0.1038
  268TMC3    H2 4112   0.364   0.492  17.633 -0.0783 -1.4512  0.8822
  268TMC3    C7 4113   0.225   0.313   0.059  0.7423 -0.4214  0.6790
  268TMC3    C8 4114   0.308   0.558  17.391  0.0209 -0.0863  0.2112
  268TMC3    O1 4115   0.178   0.202   0.101  0.1887 -1.1232 -0.5488
  268TMC3    O2 4116   0.427   0.549  17.413 -0.4381 -0.2011 -0.0477
  269MPD2     C 4117   4.296   4.081  15.390 -0.7966  0.2804  1.2818
  269MPD2    C1 4118   4.163   4.060  15.402  1.4614  0.0830 -0.2391
  269MPD2    C2 4119   4.082   4.174  15.382 -0.4595  0.4556  0.1700
  269MPD2    C3 4120   4.128   4.290  15.328  0.3531  0.3726  0.3328
  269MPD2    C4 4121   4.264   4.300  15.312 -1.3119  0.0398 -0.0513
  269MPD2    C5 4122   4.347   4.199  15.349 -0.5588 -0.4059  0.4498
  269MPD2     H 4123   3.979   4.162  15.412  0.4547 -0.0916  3.1332
  269MPD2    H1 4124   4.314   4.392  15.281 -1.7989  0.4564  0.4058
  269MPD2    H2 4125   4.369   4.002  15.403 -1.0952 -0.0218  1.1196
  269MPD2    H3 4126   4.455   4.203  15.343 -0.7393  2.1356 -1.1578
  269MPD2     N 4127   4.025   4.392  15.301  0.3531 -0.6281 -0.0719
  269MPD2    H5 4128   3.930   4.370  15.330 -0.4585  0.2316 -2.0560
  269MPD2    N1 4129   4.118   3.936  15.454  0.5689 -0.0195  0.1593
  269MPD2    H7 4130   4.185   3.861  15.467  2.9831  2.0900 -0.0732
  270TMC3    C1 4131   3.968   3.768  15.499 -0.3561 -0.3428  0.0999
  270TMC3    C2 4132   3.840   3.725  15.508  0.2732 -0.5465  0.5807
  270TMC3    C3 4133   3.813   3.599  15.566 -0.4468 -0.1685 -0.1698
  270TMC3    C4 4134   4.069   3.695  15.563  0.7095  0.4199 -0.1330
  270TMC3    C5 4135   4.042   3.577  15.635 -0.5463  0.6963 -0.0154
  270TMC3    C6 4136   3.912   3.535  15.632 -0.1388 -0.3073 -0.5554
  270TMC3     C 4137   3.986   3.901  15.456  0.3539 -0.3964  0.1057
  270TMC3     O 4138   3.883   3.965  15.443 -0.1572  0.0073  0.1315
  270TMC3     H 4139   3.758   3.774  15.457  3.1608  2.5486 -1.0719
  270TMC3    H1 4140   4.171   3.733  15.569  0.6161  0.5773  0.4277
  270TMC3    H2 4141   3.902   3.435  15.671  0.3941  0.2971  1.1172
  270TMC3    C7 4142   4.134   3.472  15.611 -0.0956 -0.3548  0.0628
  270TMC3    C8 4143   3.711   3.527  15.501  0.1468 -0.1391 -0.9720
  270TMC3    O1 4144   4.145   3.383  15.691 -0.3146 -0.4362  0.1711
  270TMC3    O2 4145   3.644   3.443  15.560  0.5284 -0.1904  0.1052
  271MPD2     C 4146   3.420   4.155  13.754 -0.3979  0.2712  0.0656
  271MPD2    C1 4147   3.352   4.079  13.846  0.2610  0.4557 -0.3073
  271MPD2    C2 4148   3.217   4.101  13.865 -0.7813 -0.7879  0.6248
  271MPD2    C3 4149   3.155   4.194  13.789 -0.0239  0.1193  0.8344
  271MPD2    C4 4150   3.225   4.273  13.703  0.7900 -0.3992  0.0700
  271MPD2    C5 4151   3.361   4.259  13.685 -0.5322 -0.2130 -0.4127
  271MPD2     H 4152   3.167   4.043  13.943 -2.1848  0.4395  0.6419
  271MPD2    H1 4153   3.166   4.334  13.635  0.9379  0.9336  1.1245
  271MPD2    H2 4154   3.527   4.145  13.741 -0.2072  3.6626 -1.1369
  271MPD2    H3 4155   3.417   4.307  13.606  1.5048 -0.9749  0.5555
  271MPD2     N 4156   3.010   4.207  13.780 -0.7384 -0.0055 -0.1220
  271MPD2    H5 4157   2.980   4.269  13.705  1.1695  1.1048  0.0066
  271MPD2    N1 4158   3.417   3.991  13.940 -0.1229 -0.6840 -0.2273
  271MPD2    H7 4159   3.350   3.952  14.006 -1.5455 -0.2176 -1.3969
  272TMC3    C1 4160   3.573   3.860  14.046  0.4365 -0.1995  0.2218
  272TMC3    C2 4161   3.698   3.812  14.048 -1.2478 -0.4166 -0.1319
  272TMC3    C3 4162   3.733   3.710  14.140  0.4306 -0.4183  0.5589
  272TMC3    C4 4163   3.472   3.808  14.128  0.6655 -0.1746 -0.1501
  272TMC3    C5 4164   3.517   3.721  14.227  0.1972 -0.3032 -0.4795
  272TMC3    C6 4165   3.642   3.667  14.231 -0.1693 -0.0062  0.3037
  272TMC3     C 4166   3.553   3.959  13.947 -0.2933 -0.1118 -0.5474
  272TMC3     O 4167   3.650   4.002  13.889 -0.1517  0.8050  0.9363
  272TMC3     H 4168   3.778   3.852  13.987 -1.6294  0.1599 -0.2516
  272TMC3    H1 4169   3.373   3.849  14.142 -1.0351 -3.5694 -2.3116
  272TMC3    H2 4170   3.662   3.602  14.315 -0.4025  1.0982  1.2139
  272TMC3    C7 4171   3.427   3.703  14.340  0.2256  0.1766 -0.6218
  272TMC3    C8 4172   3.868   3.661  14.146  0.9086  0.2809  0.2310
  272TMC3    O1 4173   3.307   3.703  14.314 -0.2774 -0.2999  0.3893
  272TMC3    O2 4174   3.942   3.690  14.050 -0.6954 -0.3238 -0.1641
  273MPD2     C 4175   4.523   1.984  12.213  0.4061  0.2874  0.2327
  273MPD2    C1 4176   4.636   2.064  12.220 -0.9288 -0.5206 -0.1763
  273MPD2    C2 4177   4.660   2.140  12.111  0.1616 -0.8262  0.1283
  273MPD2    C3 4178   4.594   2.115  11.996 -0.2970 -0.1295 -0.2026
  273MPD2    C4 4179   4.483   2.030  11.981 -0.0353  0.5290 -0.1113
  273MPD2    C5 4180   4.447   1.968  12.101  0.0269 -0.2650 -0.3930
  273MPD2     H 4181   0.005   2.209  12.103  0.2236 -0.7636  1.3601
  273MPD2    H1 4182   4.438   1.999  11.887 -0.3417 -0.5490  0.4016
  273MPD2    H2 4183   4.498   1.907  12.285 -0.1869 -0.1277 -0.4140
  273MPD2    H3 4184   4.361   1.903  12.106 -0.0424 -0.2679 -1.5464
  273MPD2     N 4185   4.638   2.175  11.874 -0.1028 -0.2932  0.2189
  273MPD2    H5 4186   4.587   2.151  11.790  0.3249  3.8691 -1.2569
  273MPD2    N1 4187   4.722   2.047  12.329 -0.1568  0.1431 -0.3142
  273MPD2    H7 4188   4.684   2.006  12.413  0.4178  0.2170 -0.0244
  274TMC3    C1 4189   0.056   2.265  11.720 -0.6062  0.1403 -0.4856
  274TMC3    C2 4190   4.714   2.227  11.614  0.2013 -0.1287 -0.0315
  274TMC3    C3 4191   0.030   2.250  11.488 -1.3261 -0.7566 -0.0084
  274TMC3    C4 4192   0.179   2.326  11.710 -0.2622  0.0670  0.8447
  274TMC3    C5 4193   0.212   2.356  11.584 -0.0725 -0.2683  0.2312
  274TMC3    C6 4194   0.155   2.308  11.476 -0.6272  0.3346 -0.3558
  274TMC3     C 4195   4.731   2.274  11.852 -1.1180 -0.2769 -0.0292
  274TMC3     O 4196   0.055   2.340  11.934  0.0336 -0.0156 -0.0301
  274TMC3     H 4197   4.609   2.204  11.626  0.1875 -0.6060 -1.1391
  274TMC3    H1 4198   0.238   2.354  11.797 -0.3870  0.4525  0.8076
  274TMC3    H2 4199   0.180   2.357  11.383  0.3477  0.3927 -0.0676
  274TMC3    C7 4200   0.260   2.492  11.579  0.7058  0.1719 -0.2015
  274TMC3    C8 4201   4.656   2.304  11.410 -0.0730 -0.0211  0.2283
  274TMC3    O1 4202   0.317   2.526  11.475  0.4119 -0.3219  0.1898
  274TMC3    O2 4203   4.569   2.364  11.469  0.2237 -0.0818  0.6125
  275MPD2     C 4204   4.508   0.509  14.415  0.0410 -0.1003  0.0469
  275MPD2    C1 4205   4.502   0.436  14.526  0.1851 -0.4361 -0.0164
  275MPD2    C2 4206   4.397   0.346  14.540 -0.3868  0.6339 -0.1262
  275MPD2    C3 4207   4.296   0.344  14.448 -0.0388 -0.0524 -1.2297
  275MPD2    C4 4208   4.298   0.432  14.347 -0.0601 -0.1867 -1.0981
  275MPD2    C5 4209   4.403   0.508  14.327 -0.1521 -0.0712 -0.6679
  275MPD2     H 4210   4.390   0.278  14.624 -2.1751  0.6917 -0.2365
  275MPD2    H1 4211   4.219   0.429  14.272 -2.1687 -0.5170  1.1165
  275MPD2    H2 4212   4.590   0.578  14.397  1.3579 -1.3868  1.1276
  275MPD2    H3 4213   4.405   0.569  14.238 -1.0492 -0.5617 -1.0251
  275MPD2     N 4214   4.197   0.248  14.452  0.7731  0.5971 -0.5039
  275MPD2    H5 4215   4.120   0.270  14.389  1.4401  1.0493 -1.1580
  275MPD2    N1 4216   4.600   0.436  14.628  0.0816  0.6733  0.1537
  275MPD2    H7 4217   4.580   0.374  14.706 -2.0460 -0.5892 -1.3698
  276TMC3    C1 4218   0.065   0.499  14.745 -0.9305  0.2377 -0.3901
  276TMC3    C2 4219   0.049   0.380  14.809  0.3494 -0.5059 -0.4485
  276TMC3    C3 4220   0.109   0.368  14.932  0.7075  0.5413  0.1439
  276TMC3    C4 4221   0.130   0.606  14.797 -0.3628  0.0951 -0.0220
  276TMC3    C5 4222   0.194   0.589  14.916  0.4762 -0.5680 -0.0140
  276TMC3    C6 4223   0.175   0.474  14.990  0.5833  0.1831 -0.1255
  276TMC3     C 4224   4.718   0.509  14.630 -0.7666  0.5532 -0.0405
  276TMC3     O 4225   0.025   0.595  14.555 -0.2711  0.3867  0.1660
  276TMC3     H 4226   0.002   0.292  14.766  1.1108 -1.0541 -0.1551
  276TMC3    H1 4227   0.148   0.694  14.736  0.9097  0.4542  0.8620
  276TMC3    H2 4228   0.227   0.463  15.085  1.8506  0.0791 -0.8374
  276TMC3    C7 4229   0.309   0.673  14.954  0.5706 -0.0741  0.0509
  276TMC3    C8 4230   0.090   0.258  15.033 -0.1447  0.4004 -0.3127
  276TMC3    O1 4231   0.376   0.626  15.043 -0.4169  0.1433  0.2171
  276TMC3    O2 4232   0.100   0.286  15.149  0.6101 -0.5059  0.1997
  277MPD2     C 4233   1.930   3.900  13.283  0.7478 -0.2243  0.5004
  277MPD2    C1 4234   1.796   3.898  13.263 -0.6448  0.3656  0.3337
  277MPD2    C2 4235   1.720   3.834  13.354 -0.6034 -0.3092 -1.0796
  277MPD2    C3 4236   1.775   3.785  13.472  0.1837 -1.0125  0.3842
  277MPD2    C4 4237   1.913   3.787  13.491  0.2203  0.3607 -0.1769
  277MPD2    C5 4238   1.993   3.840  13.391  1.0283 -0.3738  0.6274
  277MPD2     H 4239   1.612   3.843  13.353 -0.3644  2.5483 -0.1360
  277MPD2    H1 4240   1.963   3.750  13.580 -0.0973  1.2485  0.3662
  277MPD2    H2 4241   2.004   3.945  13.218 -0.6670 -1.1337 -1.7179
  277MPD2    H3 4242   2.101   3.839  13.396  1.0502 -2.2564 -0.1143
  277MPD2     N 4243   1.692   3.724  13.566 -0.0487  0.3353 -0.8268
  277MPD2    H5 4244   1.593   3.720  13.545 -0.0473 -1.8925 -0.3991
  277MPD2    N1 4245   1.744   3.975  13.155  0.3351 -0.3898  0.5263
  277MPD2    H7 4246   1.809   4.017  13.089 -1.2896  0.9131 -0.2627
  278TMC3    C1 4247   1.619   3.618  13.761  0.4948  0.5256 -0.2116
  278TMC3    C2 4248   1.633   3.500  13.834 -0.1551 -0.1853  0.1324
  278TMC3    C3 4249   1.514   3.438  13.871  0.0649 -0.0609 -0.4413
  278TMC3    C4 4250   1.497   3.671  13.730  0.1236  0.1344  0.6293
  278TMC3    C5 4251   1.384   3.603  13.772 -0.1191  0.0652 -0.4331
  278TMC3    C6 4252   1.385   3.486  13.843 -0.3285 -0.5318 -0.0369
  278TMC3     C 4253   1.735   3.669  13.685 -0.5358 -0.5858  0.0702
  278TMC3     O 4254   1.844   3.652  13.738 -0.2199 -0.5456 -0.0357
  278TMC3     H 4255   1.725   3.443  13.838  0.0947  0.3961  3.2320
  278TMC3    H1 4256   1.482   3.762  13.674 -0.2879 -0.6144 -0.4679
  278TMC3    H2 4257   1.296   3.443  13.887  0.3392  0.0857  1.9129
  278TMC3    C7 4258   1.264   3.637  13.696  0.3784 -0.1023 -0.0068
  278TMC3    C8 4259   1.529   3.292  13.887 -0.6773  0.2542  0.6592
  278TMC3    O1 4260   1.292   3.700  13.594 -0.7671 -0.0419 -0.3014
  278TMC3    O2 4261   1.638   3.246  13.890  0.0955  0.3614  1.0498
  279MPD2     C 4262   1.104   3.421   0.606  0.4967  0.0338 -0.3112
  279MPD2    C1 4263   1.006   3.414   0.518 -0.4316 -0.4086 -0.3489
  279MPD2    C2 4264   1.033   3.372   0.389  0.4315  0.0311 -0.0653
  279MPD2    C3 4265   1.162   3.343   0.356  0.6847  0.1028  0.1175
  279MPD2    C4 4266   1.265   3.341   0.447 -0.0692  0.4235  0.3166
  279MPD2    C5 4267   1.233   3.381   0.570  0.1498  0.9474 -0.3607
  279MPD2     H 4268   0.955   3.378   0.313 -0.3053 -1.2600  0.5952
  279MPD2    H1 4269   1.366   3.312   0.420 -0.7539 -3.2224  1.7400
  279MPD2    H2 4270   1.081   3.459   0.705 -0.7794 -1.2869 -0.0897
  279MPD2    H3 4271   1.309   3.379   0.647 -2.1435  0.0441  1.9014
  279MPD2     N 4272   1.199   3.312   0.227 -0.0369 -0.6504 -0.3005
  279MPD2    H5 4273   1.297   3.328   0.206  0.0746  0.1285  0.8597
  279MPD2    N1 4274   0.880   3.469   0.556 -0.2050 -0.9302 -0.9049
  279MPD2    H7 4275   0.879   3.514   0.647 -2.0044  0.2905 -1.5294
  280TMC3    C1 4276   0.651   3.501   0.529  0.5240  0.8216 -0.3799
  280TMC3    C2 4277   0.554   3.438   0.458  0.1732 -0.3536  0.4805
  280TMC3    C3 4278   0.484   3.516   0.372  0.2109 -0.2255  0.1115
  280TMC3    C4 4279   0.678   3.635   0.508 -0.6189 -0.0352 -0.4045
  280TMC3    C5 4280   0.603   3.705   0.421  0.3166 -0.1127 -0.3148
  280TMC3    C6 4281   0.503   3.644   0.345  0.2158  0.2544 -0.1314
  280TMC3     C 4282   0.767   3.424   0.502  0.4413  0.0519 -0.0300
  280TMC3     O 4283   0.751   3.331   0.425 -0.2814  0.5491 -0.1245
  280TMC3     H 4284   0.536   3.331   0.460 -0.8849 -0.1965 -0.9572
  280TMC3    H1 4285   0.756   3.694   0.556 -1.5250 -1.0030  2.2843
  280TMC3    H2 4286   0.441   3.694   0.272  0.9833 -0.1213 -1.0421
  280TMC3    C7 4287   0.659   3.839   0.377 -1.0015  0.6053 -0.3935
  280TMC3    C8 4288   0.459   3.440   0.249  0.9049  0.2914 -0.1540
  280TMC3    O1 4289   0.741   3.891   0.447  0.4569 -0.0869  0.2481
  280TMC3    O2 4290   0.352   3.468   0.189  0.7363 -0.2724 -0.5622
  281TMC3    C1 4291   4.551   4.446  14.088  0.0371 -0.4823  0.0427
  281TMC3    C2 4292   4.576   4.464  13.952  0.8211 -0.2498 -0.7677
  281TMC3    C3 4293   4.641   4.367  13.886  0.1159  0.9334  0.0333
  281TMC3    C4 4294   4.573   4.326  14.144  0.8555  0.0875 -0.3731
  281TMC3    C5 4295   4.627   4.225  14.067  0.2032  0.7238 -0.3764
  281TMC3    C6 4296   4.674   4.247  13.943  0.5272 -0.0195  0.6713
  281TMC3     C 4297   4.422   4.493  14.120 -0.3514  0.0311 -0.4640
  281TMC3     O 4298   4.411   4.507  14.238  0.0878  0.0771  0.2519
  281TMC3     H 4299   4.554   4.563  13.912 -0.1097 -0.4272 -0.7093
  281TMC3    H1 4300   4.521   4.300  14.236  1.2234 -0.0830 -0.2175
  281TMC3    H2 4301   4.722   4.171  13.881  2.8802  2.3176 -0.3370
  281TMC3    C7 4302   4.647   4.096  14.135  0.5573  0.3794  0.2500
  281TMC3    C8 4303   4.593   4.372  13.749 -1.0397 -0.7578  0.7010
  281TMC3    O1 4304   4.697   4.092  14.247  0.1244 -0.1286 -0.3063
  281TMC3    O2 4305   4.500   4.448  13.729  0.2501  0.3289  0.2113
  282MPD2     C 4306   1.590   0.268  14.779  0.1023 -0.0779 -0.6022
  282MPD2    C1 4307   1.505   0.382  14.786  0.1503  0.1700 -0.1759
  282MPD2    C2 4308   1.400   0.403  14.699 -0.0144 -0.4534  0.7871
  282MPD2    C3 4309   1.381   0.312  14.596 -0.4410  0.0739 -0.2413
  282MPD2    C4 4310   1.472   0.208  14.581 -0.2571  0.4564  0.4464
  282MPD2    C5 4311   1.570   0.185  14.670  0.2850 -0.1813  0.1095
  282MPD2     H 4312   1.331   0.486  14.708 -1.6323 -1.6739 -0.2157
  282MPD2    H1 4313   1.461   0.131  14.505 -2.6156 -1.2456  2.5214
  282MPD2    H2 4314   1.672   0.241  14.844 -0.6751  1.1108  0.8725
  282MPD2    H3 4315   1.632   0.101  14.639  0.2083 -0.5626  0.9858
  282MPD2     N 4316   1.285   0.343  14.497  0.3528 -1.0894 -0.4442
  282MPD2    H5 4317   1.244   0.435  14.510  0.6304 -1.0732  0.2892
  282MPD2    N1 4318   1.515   0.478  14.890 -0.4010 -0.1954  0.5399
  282MPD2    H7 4319   1.435   0.539  14.902 -0.9721 -0.9549  0.5893
  283TMC3    C1 4320   1.573   0.534  15.110 -0.4878  0.0042  0.3539
  283TMC3    C2 4321   1.676   0.572  15.189  0.4025  0.5921  0.0577
  283TMC3    C3 4322   1.650   0.644  15.303 -0.2892 -0.7939 -0.0961
  283TMC3    C4 4323   1.440   0.535  15.156 -0.2284 -0.7487  0.5959
  283TMC3    C5 4324   1.415   0.612  15.267  0.4604  0.4643 -0.0898
  283TMC3    C6 4325   1.520   0.664  15.340  0.2227  0.5016  0.0263
  283TMC3     C 4326   1.608   0.464  14.984 -0.1683 -0.1729  0.0780
  283TMC3     O 4327   1.724   0.432  14.970  0.7335  0.1939 -0.1070
  283TMC3     H 4328   1.776   0.571  15.147 -0.0682 -2.0027 -1.0315
  283TMC3    H1 4329   1.370   0.498  15.083 -2.0735  2.4193  0.7696
  283TMC3    H2 4330   1.490   0.720  15.428 -2.0245  0.6636 -0.8512
  283TMC3    C7 4331   1.283   0.598  15.339 -0.7896  0.0133  0.0888
  283TMC3    C8 4332   1.752   0.736  15.354 -0.1402 -0.2712 -0.1416
  283TMC3    O1 4333   1.289   0.634  15.455 -0.0284 -0.3177  1.1973
  283TMC3    O2 4334   1.870   0.690  15.340 -0.2543 -0.5166  0.3731
  284MPD2     C 4335   4.219   4.540  11.905 -0.2190 -0.1994 -0.1073
  284MPD2    C1 4336   4.340   4.603  11.874  0.5205  0.3713  0.9482
  284MPD2    C2 4337   4.441   4.594  11.963  0.1246  0.7169 -0.7029
  284MPD2    C3 4338   4.417   4.526  12.082  0.7692  0.7106 -0.0619
  284MPD2    C4 4339   4.295   4.472  12.112  0.1913  0.4172  0.3103
  284MPD2    C5 4340   4.188   4.485  12.028 -0.0299  0.7635  0.1864
  284MPD2     H 4341   4.537   4.638  11.939  0.8597 -0.6325 -0.2209
  284MPD2    H1 4342   4.280   4.417  12.204 -3.7627 -0.2087 -0.6881
  284MPD2    H2 4343   4.134   4.556  11.840 -0.1961  2.7041  0.5767
  284MPD2    H3 4344   4.095   4.432  12.045 -0.8118  2.4142  1.0674
  284MPD2     N 4345   4.518   4.499  12.178 -0.4654  0.4569 -0.3786
  284MPD2    H5 4346   4.485   4.446  12.258 -1.1025  1.5774  0.1002
  284MPD2    N1 4347   4.365   4.666  11.748  0.1101  0.5149 -0.1970
  284MPD2    H7 4348   4.459   4.705  11.744  0.4736 -0.1314  1.7260
  285TMC3    C1 4349   4.350   4.719  11.522  0.1221  0.3108  0.0342
  285TMC3    C2 4350   4.343   4.643  11.406 -0.1571 -0.5710  0.1192
  285TMC3    C3 4351   4.420   4.674  11.301 -0.4823 -0.4094  0.1966
  285TMC3    C4 4352   4.430   0.089  11.529 -0.2637 -0.0023  0.5354
  285TMC3    C5 4353   4.514   0.122  11.421 -0.0935  0.1040  0.2849
  285TMC3    C6 4354   4.514   0.037  11.314  0.2850  0.2078 -0.0541
  285TMC3     C 4355   4.282   4.661  11.641  0.1192  0.1485 -0.0368
  285TMC3     O 4356   4.187   4.584  11.621 -0.1840 -0.2682 -0.7179
  285TMC3     H 4357   4.279   4.555  11.397 -2.1994  1.0018 -0.8310
  285TMC3    H1 4358   4.430   0.146  11.621  0.7857  2.6370 -1.0945
  285TMC3    H2 4359   4.575   0.060  11.228  0.3366 -0.6741 -0.2438
  285TMC3    C7 4360   4.479   0.255  11.388  0.2079 -0.1599  0.8336
  285TMC3    C8 4361   4.405   4.597  11.178  0.3276  0.1615 -0.3755
  285TMC3    O1 4362   4.403   0.316  11.460  0.3010 -0.2977  0.2553
  285TMC3    O2 4363   4.293   4.550  11.173 -0.1930  0.4908  0.2393
  286MPD2     C 4364   0.157   3.074   1.307 -0.0410  0.3548  0.4840
  286MPD2    C1 4365   0.111   2.971   1.234  0.3678 -0.2008 -0.3183
  286MPD2    C2 4366   0.172   2.849   1.236  0.4263  0.1221  0.5988
  286MPD2    C3 4367   0.285   2.825   1.316 -0.3000 -0.7633  0.3525
  286MPD2    C4 4368   0.331   2.924   1.398  0.2149 -0.0855  0.1018
  286MPD2    C5 4369   0.264   3.046   1.393  0.4328  0.1828  0.1739
  286MPD2     H 4370   0.140   2.789   1.152  0.7927  0.8078 -0.0317
  286MPD2    H1 4371   0.406   2.900   1.473 -0.1051 -3.1896 -0.5430
  286MPD2    H2 4372   0.125   3.177   1.307 -0.8145  0.1144 -2.3680
  286MPD2    H3 4373   0.298   3.128   1.455 -1.7572  1.9181 -0.8990
  286MPD2     N 4374   0.359   2.705   1.318  0.4202  0.4719 -0.3236
  286MPD2    H5 4375   0.441   2.699   1.377 -0.1862  0.7791  0.5562
  286MPD2    N1 4376   0.003   2.988   1.143 -0.0988  0.3200  0.1753
  286MPD2    H7 4377   4.717   2.910   1.083 -0.9671  0.7542 -0.0549
  287TMC3    C1 4378   0.432   2.482   1.245  0.4706  0.8007 -0.5180
  287TMC3    C2 4379   0.403   2.377   1.162 -0.0493 -0.7230 -0.2583
  287TMC3    C3 4380   0.502   2.300   1.106  0.3618  0.4525  0.6452
  287TMC3    C4 4381   0.562   2.512   1.265  0.2704 -0.2790  0.0582
  287TMC3    C5 4382   0.657   2.431   1.210  0.4323  0.1285  0.0817
  287TMC3    C6 4383   0.632   2.329   1.128  0.5331 -0.0076  0.3730
  287TMC3     C 4384   0.333   2.596   1.236 -0.2085  0.3868 -0.0538
  287TMC3     O 4385   0.227   2.568   1.180  0.1993 -0.1197  0.5496
  287TMC3     H 4386   0.300   2.344   1.158 -0.2900  0.2094 -1.5929
  287TMC3    H1 4387   0.593   2.591   1.333  0.6221 -0.9380  0.6743
  287TMC3    H2 4388   0.711   2.289   1.064 -1.1492 -2.0440 -0.4349
  287TMC3    C7 4389   0.789   2.441   1.266 -0.0765  0.1057  0.9630
  287TMC3    C8 4390   0.464   2.227   0.986  0.4912 -0.1997  0.9848
  287TMC3    O1 4391   0.816   2.553   1.315 -0.2617 -0.0470 -0.4187
  287TMC3    O2 4392   0.347   2.200   0.973 -0.1556  0.1311 -0.2905
  288TMC3    C1 4393   2.373   3.079  14.553 -0.4341 -0.1238  0.0274
  288TMC3    C2 4394   2.253   3.128  14.577  0.3339 -0.2904  0.0219
  288TMC3    C3 4395   2.203   3.216  14.481 -0.5319 -0.3773 -0.0686
  288TMC3    C4 4396   2.442   3.099  14.435  0.4495 -0.1893 -0.9358
  288TMC3    C5 4397   2.386   3.180  14.345  0.0096  1.1824 -0.5862
  288TMC3    C6 4398   2.272   3.250  14.368  0.4475  0.0018  0.2735
  288TMC3     C 4399   2.436   3.002  14.657  0.4747  0.0594 -0.5084
  288TMC3     O 4400   2.360   2.968  14.748  0.2569 -0.4117 -0.4512
  288TMC3     H 4401   2.202   3.114  14.672  0.0924 -1.2842 -0.2560
  288TMC3    H1 4402   2.538   3.052  14.418 -0.4868 -2.0183 -1.2276
  288TMC3    H2 4403   2.241   3.332  14.305 -2.0783 -1.7831 -0.8057
  288TMC3    C7 4404   2.463   3.221  14.231 -0.6031  0.0503 -0.3742
  288TMC3    C8 4405   2.094   3.307  14.511 -0.1604 -0.5429 -0.1551
  288TMC3    O1 4406   2.578   3.178  14.232 -0.5185  0.2338  0.8785
  288TMC3    O2 4407   2.079   3.408  14.444  0.3052  0.0234  0.1869
  289MPD2     C 4408   1.807   2.257  14.882  0.4221  0.1182  0.0961
  289MPD2    C1 4409   1.835   2.357  14.792 -0.0325 -0.4235 -0.0379
  289MPD2    C2 4410   1.757   2.364  14.676  0.0485  0.2816  0.6764
  289MPD2    C3 4411   1.640   2.284  14.662 -0.1575 -0.0459 -0.0584
  289MPD2    C4 4412   1.610   2.195  14.763  0.3619 -0.9378  1.1373
  289MPD2    C5 4413   1.691   2.186  14.870 -0.5364 -0.1583 -0.4252
  289MPD2     H 4414   1.786   2.424  14.591  0.7208 -0.3642  0.4458
  289MPD2    H1 4415   1.523   2.131  14.757 -0.3558 -0.0006  1.5870
  289MPD2    H2 4416   1.878   2.252  14.964  1.6663  1.2861 -0.9000
  289MPD2    H3 4417   1.656   2.110  14.938 -3.0410  0.2140 -1.2942
  289MPD2     N 4418   1.561   2.279  14.540  0.1333 -0.2388  0.1139
  289MPD2    H5 4419   1.482   2.215  14.542  0.5157 -0.7830 -2.2688
  289MPD2    N1 4420   1.958   2.425  14.808 -0.2260  0.6010 -0.5088
  289MPD2    H7 4421   2.007   2.416  14.897 -1.1864 -1.1423 -0.1571
  290TMC3    C1 4422   1.470   2.346  14.340  0.6676 -0.0915  0.5404
  290TMC3    C2 4423   1.415   2.458  14.285  0.3107 -0.3522 -0.0789
  290TMC3    C3 4424   1.305   2.441  14.205 -0.4104 -0.7737 -0.6113
  290TMC3    C4 4425   1.419   2.220  14.321  0.1606  0.5473 -0.3959
  290TMC3    C5 4426   1.304   2.204  14.249  0.2956  0.0504 -0.3868
  290TMC3    C6 4427   1.248   2.317  14.193  0.5122 -0.3460 -0.1638
  290TMC3     C 4428   1.570   2.370  14.438 -0.8455 -0.2109  0.0665
  290TMC3     O 4429   1.648   2.463  14.422  0.3080  0.5519  0.0035
  290TMC3     H 4430   1.466   2.553  14.288  0.4839 -0.4148 -1.1448
  290TMC3    H1 4431   1.467   2.130  14.356 -0.0035  0.4494 -0.4224
  290TMC3    H2 4432   1.160   2.301  14.132  0.0935 -1.6016  0.7555
  290TMC3    C7 4433   1.222   2.092  14.265  0.2205  0.2147 -0.0177
  290TMC3    C8 4434   1.243   2.552  14.137  1.0701 -0.0276 -0.4056
  290TMC3    O1 4435   1.280   1.989  14.292  0.1998  0.2259 -0.0809
  290TMC3    O2 4436   1.189   2.514  14.035  0.0391 -0.0168  0.1462
  291MPD2     C 4437   1.017   2.225   0.548 -0.6826 -0.1250  0.5158
  291MPD2    C1 4438   1.148   2.202   0.515 -0.6063  0.6083 -0.3045
  291MPD2    C2 4439   1.239   2.307   0.524 -0.4756  0.3748  0.4987
  291MPD2    C3 4440   1.202   2.429   0.585  0.0085  0.1367 -0.0643
  291MPD2    C4 4441   1.065   2.452   0.616  0.2184  0.6043  0.2306
  291MPD2    C5 4442   0.977   2.348   0.603  0.7252 -0.3611  0.5568
  291MPD2     H 4443   1.344   2.284   0.510 -0.8542 -0.4924 -0.9353
  291MPD2    H1 4444   1.036   2.546   0.660 -2.2413 -0.1763  0.2823
  291MPD2    H2 4445   0.946   2.142   0.544 -0.3235 -0.4427  0.6903
  291MPD2    H3 4446   0.873   2.368   0.623  0.3655 -1.5400 -0.1065
  291MPD2     N 4447   1.298   2.539   0.608  0.1618 -0.4243 -0.3563
  291MPD2    H5 4448   1.265   2.631   0.636 -2.1979 -0.7177 -2.1816
  291MPD2    N1 4449   1.184   2.073   0.471 -0.7697 -0.0470 -0.4976
  291MPD2    H7 4450   1.283   2.058   0.456 -0.8250 -1.7265  0.7224
  292TMC3    C1 4451   1.202   1.848   0.432 -0.2021  0.6973 -0.0414
  292TMC3    C2 4452   1.309   1.832   0.515  0.3297  0.7290  0.7003
  292TMC3    C3 4453   1.380   1.717   0.511  0.1320 -0.2848  0.2065
  292TMC3    C4 4454   1.158   1.743   0.349  0.1598  0.1091 -0.1749
  292TMC3    C5 4455   1.230   1.630   0.347 -0.4265  0.0476 -0.1688
  292TMC3    C6 4456   1.333   1.613   0.429 -0.2686  0.1180 -0.5894
  292TMC3     C 4457   1.109   1.957   0.452  0.5182 -1.1494 -0.1932
  292TMC3     O 4458   0.992   1.933   0.470 -0.7361  0.2305  0.1507
  292TMC3     H 4459   1.340   1.909   0.585  2.0033  0.9251 -0.2597
  292TMC3    H1 4460   1.068   1.752   0.289 -0.9828 -1.9027  1.2468
  292TMC3    H2 4461   1.382   1.517   0.433  1.2294  0.9030 -0.1311
  292TMC3    C7 4462   1.174   1.513   0.281 -0.0636  0.0414  0.1667
  292TMC3    C8 4463   1.440   1.671   0.637 -0.4441 -0.7301  0.2556
  292TMC3    O1 4464   1.247   1.416   0.261 -0.6244  0.3497 -0.2453
  292TMC3    O2 4465   1.400   1.717   0.744 -0.0563 -0.5808 -0.4736
  293MPD2     C 4466   2.917   3.105  13.282 -0.2868 -0.2636 -0.1165
  293MPD2    C1 4467   2.929   3.242  13.298 -0.4083  0.7406 -0.9015
  293MPD2    C2 4468   3.017   3.286  13.397  0.4031  0.6631 -0.5798
  293MPD2    C3 4469   3.066   3.197  13.489  0.0934  0.1602  0.4032
  293MPD2    C4 4470   3.042   3.063  13.474  0.0170 -0.1530  0.0315
  293MPD2    C5 4471   2.956   3.015  13.375  0.8987  0.0865  0.1125
  293MPD2     H 4472   3.035   3.392  13.413  1.0749  0.6469 -1.2549
  293MPD2    H1 4473   3.074   2.990  13.547  0.3553 -1.0456 -1.0149
  293MPD2    H2 4474   2.852   3.058  13.209  1.2086 -0.6482 -1.1961
  293MPD2    H3 4475   2.917   2.914  13.366  0.7289  0.1707 -0.1039
  293MPD2     N 4476   3.141   3.258  13.595 -0.3091 -0.1236 -0.4426
  293MPD2    H5 4477   3.180   3.349  13.573  1.0246 -0.2254  1.4363
  293MPD2    N1 4478   2.863   3.314  13.199  0.6256  0.1113 -0.6995
  293MPD2    H7 4479   2.806   3.260  13.135  0.4108  0.8925 -1.1661
  294TMC3    C1 4480   2.801   3.474  13.051  0.3446  0.7570  0.0169
  294TMC3    C2 4481   2.676   3.418  13.029  1.0593 -0.1502 -0.4447
  294TMC3    C3 4482   2.616   3.443  12.907  0.4386 -0.0489  1.1037
  294TMC3    C4 4483   2.863   3.552  12.963  0.3194  0.2951 -0.5290
  294TMC3    C5 4484   2.809   3.555  12.836  0.6265 -0.3671  0.1452
  294TMC3    C6 4485   2.686   3.507  12.806  0.0251 -0.1158 -0.0806
  294TMC3     C 4486   2.868   3.448  13.180 -0.4257 -0.0144 -0.1420
  294TMC3     O 4487   2.937   3.533  13.236 -0.4707 -0.5568 -0.3332
  294TMC3     H 4488   2.634   3.340  13.091  3.3602 -1.1020 -0.1257
  294TMC3    H1 4489   2.965   3.580  12.987 -0.4283  1.5896  1.1334
  294TMC3    H2 4490   2.643   3.519  12.708 -0.3866 -0.9976 -0.0045
  294TMC3    C7 4491   2.884   3.622  12.737 -0.9367  0.7403 -0.4392
  294TMC3    C8 4492   2.483   3.413  12.889 -0.4852 -0.1173  0.1940
  294TMC3    O1 4493   2.955   3.706  12.787 -0.2224  0.1374  0.3167
  294TMC3    O2 4494   2.415   3.418  12.992 -0.0984 -0.3336 -0.0815
  295MPD2     C 4495   2.838   2.575   0.881 -0.1265  0.3289 -0.2082
  295MPD2    C1 4496   2.846   2.439   0.901 -0.2447 -0.3965  0.2314
  295MPD2    C2 4497   2.765   2.392   0.999  0.8368 -0.0168  0.0270
  295MPD2    C3 4498   2.688   2.472   1.079 -0.1856 -0.5694  0.0468
  295MPD2    C4 4499   2.687   2.602   1.061 -0.1304  0.1059  0.5800
  295MPD2    C5 4500   2.769   2.657   0.967  0.4978  0.0277 -0.3725
  295MPD2     H 4501   2.763   2.286   1.023  2.5765 -0.3603 -1.2923
  295MPD2    H1 4502   2.619   2.668   1.114 -0.4977 -0.2794  0.5790
  295MPD2    H2 4503   2.887   2.632   0.803  0.8701  1.6693  1.3881
  295MPD2    H3 4504   2.770   2.763   0.943  3.8035 -0.5524 -2.6451
  295MPD2     N 4505   2.606   2.435   1.186  0.1886 -0.3703  0.1427
  295MPD2    H5 4506   2.559   2.510   1.236  0.7754 -0.1079  0.2986
  295MPD2    N1 4507   2.930   2.363   0.819 -0.2105 -0.6393 -0.2763
  295MPD2    H7 4508   2.975   2.411   0.741  0.9539  0.7209  1.2491
  296TMC3    C1 4509   2.467   2.305   1.320  0.8150  0.2393  0.8040
  296TMC3    C2 4510   2.390   2.420   1.337  0.0067 -0.9702 -0.0052
  296TMC3    C3 4511   2.307   2.430   1.443 -0.5249  0.3994 -0.3227
  296TMC3    C4 4512   2.456   2.203   1.408  0.0027  0.5965 -0.7467
  296TMC3    C5 4513   2.365   2.211   1.511  0.6048  1.4323 -0.0837
  296TMC3    C6 4514   2.290   2.326   1.527  0.2224 -0.2446 -0.2836
  296TMC3     C 4515   2.575   2.309   1.221  0.3066 -0.0053  0.1375
  296TMC3     O 4516   2.618   2.199   1.188 -0.0867 -0.7833  0.0660
  296TMC3     H 4517   2.396   2.506   1.271  1.2809 -0.9444  0.1441
  296TMC3    H1 4518   2.509   2.111   1.383  0.9237  1.2364 -1.1651
  296TMC3    H2 4519   2.229   2.330   1.617 -1.0582  1.0275 -1.2081
  296TMC3    C7 4520   2.326   2.085   1.576  0.8295  0.0002 -0.0607
  296TMC3    C8 4521   2.241   2.556   1.468  0.7319  0.8742 -0.0104
  296TMC3    O1 4522   2.211   2.096   1.624 -0.9837  0.4920 -0.3956
  296TMC3    O2 4523   2.138   2.554   1.531  0.2643 -0.2548 -0.4330
  297MPD2     C 4524   0.493   4.105  16.769  0.7275  0.0517  0.7030
  297MPD2    C1 4525   0.492   4.151  16.637 -0.4348 -0.0573 -0.2827
  297MPD2    C2 4526   0.601   4.224  16.599  0.1840  0.4106  0.5983
  297MPD2    C3 4527   0.720   4.217  16.664  0.5972 -0.1483  0.8320
  297MPD2    C4 4528   0.722   4.155  16.789 -0.1249  0.2206  0.0831
  297MPD2    C5 4529   0.607   4.111  16.850  0.0243 -0.1856 -0.0363
  297MPD2     H 4530   0.598   4.271  16.502  2.0616 -0.4377  0.1429
  297MPD2    H1 4531   0.816   4.141  16.842 -0.3851 -0.8836  0.2567
  297MPD2    H2 4532   0.403   4.063  16.814 -0.4070 -0.2336 -1.8624
  297MPD2    H3 4533   0.597   4.071  16.950 -0.9794  1.2670  0.4454
  297MPD2     N 4534   0.831   4.282  16.605  0.1135 -0.5223 -0.6429
  297MPD2    H5 4535   0.807   4.342  16.527 -0.7808  0.2487  0.2264
  297MPD2    N1 4536   0.384   4.150  16.554  0.7383 -0.5958  0.3102
  297MPD2    H7 4537   0.396   4.201  16.467  0.9030 -2.4484 -0.7564
  298TMC3    C1 4538   0.160   4.110  16.475  0.0499  0.0441 -0.5420
  298TMC3    C2 4539   0.205   4.108  16.347 -0.0826 -0.0502  0.2047
  298TMC3    C3 4540   0.113   4.138  16.248  0.1837 -1.1293  0.4153
  298TMC3    C4 4541   0.041   4.145  16.523  0.3658  0.3585 -0.2190
  298TMC3    C5 4542   4.683   4.171  16.423  0.5224  0.0865 -0.2406
  298TMC3    C6 4543   4.720   4.165  16.290  0.1392 -0.0490  0.0397
  298TMC3     C 4544   0.263   4.081  16.575 -0.3341 -0.3561  0.1472
  298TMC3     O 4545   0.236   4.017  16.677  0.2112 -0.3023  0.3396
  298TMC3     H 4546   0.308   4.081  16.323  0.5405  1.0095  1.6286
  298TMC3    H1 4547   0.011   4.147  16.627  0.8532  0.0673 -0.0714
  298TMC3    H2 4548   4.641   4.196  16.223 -0.3970 -1.3957  0.0417
  298TMC3    C7 4549   4.567   4.244  16.461  0.0392  0.1517 -0.3289
  298TMC3    C8 4550   0.161   4.167  16.114  0.2056  0.0031 -0.7192
  298TMC3    O1 4551   4.580   4.303  16.568 -0.2523 -0.0922  0.6858
  298TMC3    O2 4552   0.276   4.135  16.080 -0.5873  0.5960  0.7819
  299MPD2     C 4553   0.942   3.718   9.927  0.1658 -0.2729 -0.1185
  299MPD2    C1 4554   0.911   3.802  10.031 -0.7449 -0.1517 -0.7372
  299MPD2    C2 4555   0.783   3.835  10.061 -0.4590  0.3550  0.2642
  299MPD2    C3 4556   0.684   3.790   9.978 -0.4756 -0.1161 -0.3394
  299MPD2    C4 4557   0.717   3.703   9.877  0.5351 -0.2999 -0.6396
  299MPD2    C5 4558   0.844   3.666   9.855 -0.5484  0.4421  1.2127
  299MPD2     H 4559   0.746   3.895  10.143 -2.5009 -0.8505  0.2403
  299MPD2    H1 4560   0.647   3.650   9.813 -1.8552 -0.2654  1.9340
  299MPD2    H2 4561   1.040   3.674   9.914  0.5614  0.3220  0.8412
  299MPD2    H3 4562   0.857   3.590   9.779 -3.3152 -0.9166  2.0790
  299MPD2     N 4563   0.544   3.821   9.998 -0.0105 -0.3610 -0.4660
  299MPD2    H5 4564   0.478   3.758   9.954 -1.0564  1.2793 -1.2342
  299MPD2    N1 4565   1.021   3.865  10.097 -0.0955 -0.2257  0.0566
  299MPD2    H7 4566   1.113   3.857  10.056 -0.7838  0.3555 -1.5955
  300TMC3    C1 4567   0.355   3.947  10.068 -0.4400 -0.0832 -0.6942
  300TMC3    C2 4568   0.300   4.070  10.072  0.7201 -0.6605 -0.7808
  300TMC3    C3 4569   0.169   4.092  10.092 -0.5568  0.0700  1.1309
  300TMC3    C4 4570   0.272   3.837  10.091 -0.1177  0.7057  0.1802
  300TMC3    C5 4571   0.138   3.862  10.108  0.4705  0.2847  0.0350
  300TMC3    C6 4572   0.086   3.988  10.105 -0.0755 -0.6769  0.0668
  300TMC3     C 4573   0.498   3.935  10.061  0.2155 -0.5881 -0.0778
  300TMC3     O 4574   0.562   4.041  10.076 -0.3217 -0.1796  0.4571
  300TMC3     H 4575   0.367   4.151  10.047  0.5182 -1.1861 -3.0412
  300TMC3    H1 4576   0.313   3.737  10.089 -1.9864  0.0041 -2.6106
  300TMC3    H2 4577   4.717   4.004  10.093 -0.1250 -0.8116  0.3217
  300TMC3    C7 4578   0.057   3.764  10.165  0.3537 -0.9096 -0.1219
  300TMC3    C8 4579   0.119   4.233  10.077 -0.7302  0.6114 -0.0376
  300TMC3    O1 4580   0.072   3.648  10.121 -0.5076 -0.2963  0.4113
  300TMC3    O2 4581   0.011   4.248  10.016  0.4742 -0.4658 -0.2903
  301MPD2     C 4582   3.349   4.729   1.486 -0.1743  0.2205 -0.0325
  301MPD2    C1 4583   3.321   4.728   1.354  0.6221 -0.4205  0.2200
  301MPD2    C2 4584   3.344   4.618   1.278  0.5801  0.2380 -0.2367
  301MPD2    C3 4585   3.395   4.494   1.337 -0.6926  0.2961 -0.5866
  301MPD2    C4 4586   3.434   4.499   1.473 -0.0013  0.1724 -0.5181
  301MPD2    C5 4587   3.407   4.616   1.541 -0.3726  0.1041 -0.5291
  301MPD2     H 4588   3.327   4.629   1.171 -1.3680 -0.3200  0.0252
  301MPD2    H1 4589   3.476   4.410   1.518 -0.4960  0.9236  1.4333
  301MPD2    H2 4590   3.339   0.075   1.554  0.7311 -0.0581  0.4472
  301MPD2    H3 4591   3.441   4.623   1.644 -0.9286 -0.4887 -0.2988
  301MPD2     N 4592   3.420   4.371   1.270 -0.1427 -0.0228  0.3910
  301MPD2    H5 4593   3.442   4.286   1.321 -2.5184 -0.0005  1.4292
  301MPD2    N1 4594   3.271   0.103   1.289  0.0810  0.3104  0.0340
  301MPD2    H7 4595   3.265   0.093   1.188  2.4691  1.8372 -0.2544
  302TMC3    C1 4596   3.494   4.236   1.094 -0.3586  0.2078 -0.5943
  302TMC3    C2 4597   3.554   4.148   1.181 -0.2174 -0.2564 -0.0552
  302TMC3    C3 4598   3.569   4.015   1.138 -0.1654  0.0206  0.6878
  302TMC3    C4 4599   3.454   4.187   0.969 -0.3127 -0.4826  0.1890
  302TMC3    C5 4600   3.462   4.055   0.936  0.1057  0.2276  0.4215
  302TMC3    C6 4601   3.522   3.966   1.019 -0.3040 -0.1727  0.1716
  302TMC3     C 4602   3.436   4.360   1.136  0.3564 -0.3981  0.0745
  302TMC3     O 4603   3.424   4.443   1.048 -0.2857  0.0666 -0.1368
  302TMC3     H 4604   3.595   4.189   1.272 -0.3675  2.1175 -1.0548
  302TMC3    H1 4605   3.406   4.262   0.907 -4.2019 -3.9193 -0.9661
  302TMC3    H2 4606   3.538   3.862   0.993  2.0327  0.7352 -2.0748
  302TMC3    C7 4607   3.422   4.014   0.802 -0.2866 -0.6784  0.7330
  302TMC3    C8 4608   3.684   3.941   1.195  0.5311  1.0658  0.3847
  302TMC3    O1 4609   3.416   3.892   0.785 -0.5138  0.5653 -0.4633
  302TMC3    O2 4610   3.752   4.008   1.271  0.5136  0.2142 -0.3307
  303MPD2     C 4611   3.276   4.161  10.433 -0.4675 -0.5002  0.0656
  303MPD2    C1 4612   3.154   4.144  10.487  0.5717 -0.4743  0.1924
  303MPD2    C2 4613   3.057   4.238  10.459 -1.3192 -0.6179  0.5913
  303MPD2    C3 4614   3.079   4.346  10.379 -0.2729  0.4932 -0.3078
  303MPD2    C4 4615   3.199   4.371  10.318 -0.0416 -0.3076  0.3258
  303MPD2    C5 4616   3.293   4.273  10.355  0.0998 -0.9893  0.7140
  303MPD2     H 4617   2.958   4.219  10.499 -1.3321 -0.1853  0.7654
  303MPD2    H1 4618   3.229   4.454  10.255 -2.6445  0.0381 -0.4299
  303MPD2    H2 4619   3.356   4.089  10.444 -1.0679 -1.3571 -1.1024
  303MPD2    H3 4620   3.394   4.275  10.315 -0.0496 -0.3755  0.3718
  303MPD2     N 4621   2.982   4.449  10.359  0.4918  0.0119  0.2198
  303MPD2    H5 4622   3.010   4.534  10.311  1.0817 -1.3538 -1.8432
  303MPD2    N1 4623   3.123   4.028  10.565  0.0123  0.0726 -0.2469
  303MPD2    H7 4624   3.192   3.954  10.572 -1.3890 -1.2930 -0.7880
  304TMC3    C1 4625   3.000   3.863  10.684 -0.1023  0.1597  1.2360
  304TMC3    C2 4626   2.932   3.843  10.794 -0.6588  0.6650 -0.4251
  304TMC3    C3 4627   2.883   3.718  10.811  0.0952 -0.6445  0.3703
  304TMC3    C4 4628   3.031   3.767  10.592  0.5533  0.5637  0.2422
  304TMC3    C5 4629   2.981   3.643  10.611 -0.0160 -0.1381 -0.4249
  304TMC3    C6 4630   2.908   3.616  10.727  0.0021 -0.7327 -0.5138
  304TMC3     C 4631   3.003   3.995  10.635 -0.0538  0.2807  0.9135
  304TMC3     O 4632   2.902   4.058  10.655  1.0191  0.0825  0.3136
  304TMC3     H 4633   2.896   3.926  10.854 -2.9552  0.3137 -1.3112
  304TMC3    H1 4634   3.096   3.787  10.507 -1.3909 -0.3709 -1.4633
  304TMC3    H2 4635   2.862   3.520  10.748 -2.3729  0.8669  1.5044
  304TMC3    C7 4636   2.928   3.579  10.498 -0.2575  0.3839 -0.6618
  304TMC3    C8 4637   2.737   3.711  10.836  1.2235  0.3041  0.1422
  304TMC3    O1 4638   2.990   3.566  10.392 -0.1406  0.0345 -0.5056
  304TMC3    O2 4639   2.676   3.631  10.766 -0.2080 -0.5031  0.4508
  305MPD2     C 4640   1.166   0.754  14.000 -0.1392  1.0075  0.0584
  305MPD2    C1 4641   1.266   0.658  13.985 -0.1461  0.3811  0.8854
  305MPD2    C2 4642   1.275   0.605  13.858  0.4736 -0.7137  0.4529
  305MPD2    C3 4643   1.202   0.635  13.747  0.3639  0.4492  0.2571
  305MPD2    C4 4644   1.098   0.721  13.770  0.6973  0.0670 -0.0924
  305MPD2    C5 4645   1.078   0.780  13.897  0.2925 -0.3919  0.1775
  305MPD2     H 4646   1.352   0.529  13.849  0.4875 -0.4670 -1.5492
  305MPD2    H1 4647   1.023   0.752  13.698  0.9128 -1.7718 -1.0845
  305MPD2    H2 4648   1.156   0.816  14.088 -0.9680  1.4027 -0.3139
  305MPD2    H3 4649   0.997   0.851  13.904  2.9542  2.4614  1.6965
  305MPD2     N 4650   1.229   0.586  13.614 -0.5173 -0.3702  0.1558
  305MPD2    H5 4651   1.170   0.626  13.542  1.0327 -0.9512 -1.4227
  305MPD2    N1 4652   1.352   0.633  14.094  0.4787  0.2864 -0.0715
  305MPD2    H7 4653   1.334   0.682  14.181  0.9888  1.0794 -0.4197
  306TMC3    C1 4654   1.545   0.557  14.211 -0.0202  0.1737 -0.3583
  306TMC3    C2 4655   1.637   0.456  14.216 -0.7561 -0.1345 -0.6908
  306TMC3    C3 4656   1.688   0.413  14.342 -0.2898 -1.1288 -0.7634
  306TMC3    C4 4657   1.525   0.630  14.323 -0.1898 -0.5971 -0.1241
  306TMC3    C5 4658   1.582   0.594  14.441 -0.0356  0.3105  0.3771
  306TMC3    C6 4659   1.663   0.477  14.457 -0.7435  0.0671 -0.3109
  306TMC3     C 4660   1.461   0.550  14.091 -0.2739 -0.0077  0.8408
  306TMC3     O 4661   1.490   0.468  14.007  0.4483 -0.1057  0.6393
  306TMC3     H 4662   1.647   0.385  14.134 -1.7457  0.5883 -1.4415
  306TMC3    H1 4663   1.458   0.714  14.316  0.1642 -0.1278  1.9284
  306TMC3    H2 4664   1.709   0.451  14.552 -0.3462 -0.2559 -0.5934
  306TMC3    C7 4665   1.564   0.685  14.553  1.4304 -0.3018 -0.0749
  306TMC3    C8 4666   1.805   0.336  14.328 -0.2543 -0.0530  0.3936
  306TMC3    O1 4667   1.479   0.773  14.542  0.2829  0.1460  0.7032
  306TMC3    O2 4668   1.869   0.353  14.224 -0.9216  0.2823 -0.2998
  307MPD2     C 4669   0.032   3.929   0.753  0.0668  0.2314 -0.2409
  307MPD2    C1 4670   4.663   4.012   0.719 -0.4849 -0.2765 -0.4661
  307MPD2    C2 4671   4.536   3.970   0.745 -0.4500  0.6828 -0.1282
  307MPD2    C3 4672   4.510   3.857   0.820  0.1003  0.7675  0.4442
  307MPD2    C4 4673   4.617   3.783   0.865 -0.0313 -0.2464 -0.1691
  307MPD2    C5 4674   0.009   3.812   0.826 -1.1071  0.4060  0.1041
  307MPD2     H 4675   4.451   4.029   0.713 -0.4229 -0.0723 -1.5680
  307MPD2    H1 4676   4.599   3.692   0.922  2.6980  0.0750  1.2064
  307MPD2    H2 4677   0.136   3.948   0.728  0.6555  1.4510  3.2482
  307MPD2    H3 4678   0.096   3.768   0.874 -1.9853 -2.3613 -0.8262
  307MPD2     N 4679   4.376   3.832   0.858  0.1595 -0.0349  0.3581
  307MPD2    H5 4680   4.305   3.903   0.838 -1.7700 -1.7106  1.2424
  307MPD2    N1 4681   4.678   4.133   0.643  0.2273  0.3736  0.8517
  307MPD2    H7 4682   4.591   4.177   0.617  0.7871  1.5082  0.9104
  308TMC3    C1 4683   3.971   3.648   0.870  0.1764 -0.0940 -0.0759
  308TMC3    C2 4684   3.918   3.774   0.887 -0.0202  0.2562  1.1087
  308TMC3    C3 4685   4.004   3.873   0.929 -0.7232  0.2427 -0.5354
  308TMC3    C4 4686   4.106   3.625   0.887 -0.3372  0.2881 -0.1819
  308TMC3    C5 4687   4.185   3.722   0.946  0.5452  0.5323 -0.2732
  308TMC3    C6 4688   4.134   3.848   0.963  0.8684  0.5601  0.1609
  308TMC3     C 4689   3.899   3.545   0.801 -0.0912  0.1615  0.1257
  308TMC3     O 4690   3.951   3.436   0.785 -0.1177  0.2775  0.5989
  308TMC3     H 4691   3.813   3.795   0.876 -0.2085 -2.3359 -1.9303
  308TMC3    H1 4692   4.155   3.530   0.869  0.5459  0.2704  2.3437
  308TMC3    H2 4693   4.187   3.919   1.026  0.0740  0.4570  0.9540
  308TMC3    C7 4694   4.327   3.714   0.914  0.1278 -0.3388 -0.8923
  308TMC3    C8 4695   3.950   3.980   1.007  0.0267  0.2075  0.1107
  308TMC3    O1 4696   4.388   3.615   0.951  0.4810 -0.0313  0.3915
  308TMC3    O2 4697   4.014   4.029   1.098 -0.3999  0.4773 -0.3958
  309MPD2     C 4698   3.240   3.556  17.096 -0.1047  0.2706  0.4308
  309MPD2    C1 4699   3.228   3.687  17.049 -0.2043 -0.3519  0.3487
  309MPD2    C2 4700   3.119   3.758  17.094  0.6350 -0.5036 -0.0387
  309MPD2    C3 4701   3.024   3.701  17.173 -0.8444  0.2349 -0.2967
  309MPD2    C4 4702   3.035   3.569  17.217 -0.5082  0.7279  0.0413
  309MPD2    C5 4703   3.144   3.501  17.179 -0.8709 -0.3466 -0.3283
  309MPD2     H 4704   3.098   3.857  17.055  0.5575  0.7940  3.3307
  309MPD2    H1 4705   2.962   3.517  17.278  1.4325 -2.0328  0.0212
  309MPD2    H2 4706   3.321   3.490  17.065 -0.1802 -0.1220  1.0589
  309MPD2    H3 4707   3.149   3.400  17.220 -0.7009  0.0364  0.5980
  309MPD2     N 4708   2.915   3.779  17.219 -0.1618 -0.2310 -0.1039
  309MPD2    H5 4709   2.850   3.726  17.277  0.6489 -0.6346  0.4349
  309MPD2    N1 4710   3.324   3.747  16.963  0.3535 -0.3625  0.2795
  309MPD2    H7 4711   3.292   3.835  16.924  1.8193 -0.4395 -1.0973
  310TMC3    C1 4712   3.510   3.762  16.812  0.4259 -0.0267  0.1026
  310TMC3    C2 4713   3.464   3.878  16.758  1.1963  0.1036 -0.1784
  310TMC3    C3 4714   3.537   3.936  16.661 -0.0781  0.6198  0.5687
  310TMC3    C4 4715   3.627   3.711  16.767  0.4201  0.3658 -0.2608
  310TMC3    C5 4716   3.694   3.769  16.659  0.3091  0.1415 -0.2193
  310TMC3    C6 4717   3.651   3.883  16.606 -0.6981 -0.4266 -0.6767
  310TMC3     C 4718   3.444   3.695  16.919  0.1468  0.5787 -0.0140
  310TMC3     O 4719   3.506   3.604  16.975 -0.8912  0.0523 -0.2992
  310TMC3     H 4720   3.383   3.935  16.802  0.7676 -0.5352 -0.1449
  310TMC3    H1 4721   3.663   3.615  16.802  2.6885 -0.2597 -4.3304
  310TMC3    H2 4722   3.683   3.919  16.509  2.3400  0.3963  0.6285
  310TMC3    C7 4723   3.753   3.682  16.559 -0.0786  0.4681 -0.0208
  310TMC3    C8 4724   3.452   4.023  16.584  0.3488  0.0490  0.6736
  310TMC3    O1 4725   3.731   3.697  16.441 -0.9031  0.3639 -0.6248
  310TMC3    O2 4726   3.332   3.993  16.598 -0.6863  0.5240 -0.6121
  311MPD2     C 4727   0.830   0.693  12.113 -0.1500  0.0305 -0.8840
  311MPD2    C1 4728   0.827   0.776  12.221 -0.4293 -0.0862  0.7516
  311MPD2    C2 4729   0.728   0.761  12.319  0.0191 -0.4564 -0.0028
  311MPD2    C3 4730   0.639   0.658  12.305  0.0155  0.6117  0.0894
  311MPD2    C4 4731   0.630   0.585  12.183  0.1610 -0.2476 -1.3959
  311MPD2    C5 4732   0.726   0.606  12.092  0.7337  0.1288  0.2838
  311MPD2     H 4733   0.738   0.814  12.413 -0.1102 -2.3314  1.0551
  311MPD2    H1 4734   0.552   0.511  12.172  0.3556 -0.7827  0.7993
  311MPD2    H2 4735   0.902   0.707  12.033 -0.9101 -2.0448 -1.9392
  311MPD2    H3 4736   0.723   0.550  11.998 -2.3132  1.1085 -0.1766
  311MPD2     N 4737   0.555   0.641  12.418  0.3695  0.5687  0.2615
  311MPD2    H5 4738   0.574   0.698  12.500 -0.5479 -0.2461  1.0333
  311MPD2    N1 4739   0.920   0.873  12.244 -0.4240  0.0492  0.5023
  311MPD2    H7 4740   0.898   0.934  12.322  1.8147  0.3280  0.8977
  312TMC3    C1 4741   0.374   0.571  12.538 -0.6624 -0.2933  0.1491
  312TMC3    C2 4742   0.254   0.510  12.531 -0.0903 -0.3698  0.0188
  312TMC3    C3 4743   0.149   0.557  12.611  0.5746  0.2453 -0.1030
  312TMC3    C4 4744   0.402   0.673  12.629  0.0318  0.9618  0.0310
  312TMC3    C5 4745   0.302   0.708  12.710  0.2202 -0.2768 -0.5265
  312TMC3    C6 4746   0.180   0.649  12.708  0.0496  0.4064  0.2429
  312TMC3     C 4747   0.451   0.558  12.421 -0.3855  0.2273 -0.2117
  312TMC3     O 4748   0.400   0.500  12.328 -0.7655  0.5723  0.3334
  312TMC3     H 4749   0.236   0.441  12.449 -0.5362 -0.2020 -0.0246
  312TMC3    H1 4750   0.501   0.716  12.644 -0.0461  1.5151 -1.0581
  312TMC3    H2 4751   0.098   0.693  12.763 -1.0863 -0.7979 -0.4774
  312TMC3    C7 4752   0.327   0.820  12.801  0.1843 -0.3785 -0.0055
  312TMC3    C8 4753   0.010   0.514  12.602  0.1932 -0.2366  0.1108
  312TMC3    O1 4754   0.408   0.899  12.763  0.0124  0.1991 -0.1468
  312TMC3    O2 4755   4.688   0.524  12.707  0.1577 -0.7522  1.0292
  313MPD2     C 4756   0.099   4.456  10.453  0.2140  0.5667 -0.3038
  313MPD2    C1 4757   0.014   4.552  10.411 -0.2494 -0.6136  0.5805
  313MPD2    C2 4758   4.643   4.522  10.338 -0.4347  0.2071 -0.3189
  313MPD2    C3 4759   4.610   4.386  10.314  0.1056  0.0451  0.2319
  313MPD2    C4 4760   4.683   4.286  10.384 -0.0400  0.3536  0.0525
  313MPD2    C5 4761   0.066   4.324  10.447  0.0475  0.2658 -0.2077
  313MPD2     H 4762   4.591   4.611  10.303 -0.7539  0.6792  1.3816
  313MPD2    H1 4763   4.651   4.182  10.380 -1.2897  0.6772  1.3218
  313MPD2    H2 4764   0.196   4.478  10.497 -0.1050  0.4089  0.4806
  313MPD2    H3 4765   0.129   4.250  10.495 -0.7066  0.5900  1.2918
  313MPD2     N 4766   4.497   4.366  10.226 -0.5879  0.9146 -0.4362
  313MPD2    H5 4767   4.439   4.447  10.207  1.1133  2.1491 -0.3925
  313MPD2    N1 4768   0.043   4.690  10.440  0.0839  0.1158  0.1115
  313MPD2    H7 4769   4.727   0.028  10.397  1.3692  0.9532 -0.0001
  314TMC3    C1 4770   0.136   0.149  10.530 -0.1389  0.0002 -0.6820
  314TMC3    C2 4771   0.160   0.202  10.654 -0.2182  0.7008 -1.0569
  314TMC3    C3 4772   0.144   0.339  10.660  0.1188  0.3771 -0.7927
  314TMC3    C4 4773   0.108   0.214  10.416 -0.0759  0.3628  0.1495
  314TMC3    C5 4774   0.089   0.349  10.430 -0.5658  0.8044  0.2598
  314TMC3    C6 4775   0.105   0.411  10.552  0.5927 -0.2261 -0.4477
  314TMC3     C 4776   0.134   0.007  10.528  0.1764 -0.6374  0.1674
  314TMC3     O 4777   0.203   4.691  10.613  0.4483  0.2813  0.0496
  314TMC3     H 4778   0.167   0.133  10.737  0.2476  1.6117 -0.3422
  314TMC3    H1 4779   0.111   0.168  10.318 -0.1133 -0.7983  0.6950
  314TMC3    H2 4780   0.111   0.519  10.553  0.9335 -0.2117 -3.0040
  314TMC3    C7 4781   0.022   0.422  10.316 -0.6815 -0.5686  0.1566
  314TMC3    C8 4782   0.153   0.411  10.785  0.6959  0.0083 -0.2897
  314TMC3    O1 4783   4.722   0.365  10.208 -0.1014  0.3192  0.2659
  314TMC3    O2 4784   0.109   0.527  10.791  0.5019  0.8052 -0.2296
  315MPD2     C 4785   4.441   3.859   0.050  0.0853  0.2219 -0.3329
  315MPD2    C1 4786   4.566   3.810   0.033 -0.0826  0.4914 -0.6235
  315MPD2    C2 4787   4.648   3.890  17.699  0.2353 -0.0498 -0.2779
  315MPD2    C3 4788   4.611   4.013  17.648  0.1535  0.5088  0.4176
  315MPD2    C4 4789   4.478   4.049  17.658 -0.0471  0.0436  0.1948
  315MPD2    C5 4790   4.400   3.971  17.741 -0.2644  0.1336  0.6634
  315MPD2     H 4791   0.013   3.859  17.682 -0.6675 -2.8636 -0.5521
  315MPD2    H1 4792   4.445   4.148  17.629 -0.2087 -0.0818 -0.0478
  315MPD2    H2 4793   4.370   3.807   0.113  0.1280  0.6676  0.0870
  315MPD2    H3 4794   4.308   4.014   0.031 -0.7715  1.1153 -1.7277
  315MPD2     N 4795   4.713   4.090  17.586  0.1844  0.4656 -0.4957
  315MPD2    H5 4796   0.069   4.052  17.599  0.2753  1.1779  0.9560
  315MPD2    N1 4797   4.594   3.676   0.071 -0.1976  0.0751 -0.0689
  315MPD2    H7 4798   4.693   3.656   0.061 -0.4296 -0.1501 -1.9674
  316TMC3    C1 4799   0.077   4.269  17.477 -0.3939  0.6241  0.4941
  316TMC3    C2 4800   0.189   4.260  17.555 -0.3436  0.1740  0.0816
  316TMC3    C3 4801   0.299   4.339  17.539 -0.5829  0.2458  0.6784
  316TMC3    C4 4802   0.069   4.360  17.375 -0.3926 -0.6346 -0.6869
  316TMC3    C5 4803   0.173   4.445  17.362  0.5210 -0.0660  0.0582
  316TMC3    C6 4804   0.283   4.439  17.444 -0.3606  0.4602 -0.1087
  316TMC3     C 4805   4.692   4.209  17.516 -0.4837  0.2937 -0.7576
  316TMC3     O 4806   4.593   4.245  17.456  0.7500  0.0873 -0.1150
  316TMC3     H 4807   0.177   4.202  17.646 -0.4093  1.0508  0.6313
  316TMC3    H1 4808   4.706   4.384  17.343 -0.8004 -0.9804  0.3236
  316TMC3    H2 4809   0.367   4.506  17.429  1.6166 -1.8084  0.8283
  316TMC3    C7 4810   0.186   4.510  17.232  0.7477  0.4595  0.3223
  316TMC3    C8 4811   0.419   4.317  17.625 -1.1011  0.0193 -0.6563
  316TMC3    O1 4812   0.292   4.562  17.200  0.2650  0.0683 -0.0546
  316TMC3    O2 4813   0.507   4.396  17.606  0.1889 -0.1697  0.0299
  317MPD2     C 4814   1.503   2.762  13.505 -0.4506  1.0554  0.5133
  317MPD2    C1 4815   1.490   2.666  13.411  0.2657 -0.3011  0.1290
  317MPD2    C2 4816   1.552   2.546  13.436  0.1068  0.0035 -0.6017
  317MPD2    C3 4817   1.630   2.521  13.548 -0.1678 -0.3370 -0.7015
  317MPD2    C4 4818   1.653   2.628  13.633 -0.5068 -0.4439  0.2660
  317MPD2    C5 4819   1.587   2.746  13.612  0.0550 -0.1849 -0.1129
  317MPD2     H 4820   1.554   2.474  13.355 -0.3150 -0.7851  0.0875
  317MPD2    H1 4821   1.711   2.617  13.724  2.5223  0.4316 -1.5883
  317MPD2    H2 4822   1.460   2.860  13.489  0.7288  1.3972 -0.5276
  317MPD2    H3 4823   1.599   2.826  13.684  0.8491  0.9700 -1.5301
  317MPD2     N 4824   1.670   2.387  13.566  0.3485 -0.3519 -0.1768
  317MPD2    H5 4825   1.645   2.325  13.489  0.5375  0.1644 -0.6582
  317MPD2    N1 4826   1.416   2.695  13.290 -0.4477  0.5173 -0.4036
  317MPD2    H7 4827   1.426   2.632  13.211  2.1437  1.9370 -1.2169
  318TMC3    C1 4828   1.773   2.192  13.675 -0.1578 -0.2678 -0.4029
  318TMC3    C2 4829   1.678   2.110  13.625 -0.3854  0.4803 -0.1434
  318TMC3    C3 4830   1.677   1.976  13.658 -0.0425  1.2071 -1.0419
  318TMC3    C4 4831   1.870   2.145  13.767 -0.4289  0.0962  0.2472
  318TMC3    C5 4832   1.865   2.006  13.790 -0.3863 -0.2475  0.3252
  318TMC3    C6 4833   1.777   1.925  13.734  0.3877  1.0282 -0.7405
  318TMC3     C 4834   1.760   2.344  13.665 -0.1920  0.6177 -0.1772
  318TMC3     O 4835   1.790   2.407  13.767 -0.6281  0.1219 -0.1313
  318TMC3     H 4836   1.597   2.159  13.572 -0.3483  1.3663  0.6245
  318TMC3    H1 4837   1.938   2.219  13.808 -0.3323  0.6708 -0.9357
  318TMC3    H2 4838   1.774   1.823  13.773 -0.7835  1.0837 -0.6815
  318TMC3    C7 4839   1.964   1.942  13.877 -0.1996 -0.2782  1.1506
  318TMC3    C8 4840   1.581   1.895  13.586 -0.0084 -0.9185  0.1977
  318TMC3    O1 4841   1.952   1.824  13.897 -0.5413  0.9275  0.0455
  318TMC3    O2 4842   1.577   1.778  13.617 -0.3525  0.8532 -0.9835
  319MPD2     C 4843   2.552   3.631  17.067  0.1010  0.1639  0.0003
  319MPD2    C1 4844   2.561   3.495  17.085  0.8047 -0.5788  0.2371
  319MPD2    C2 4845   2.503   3.404  16.996  0.3218  0.6529  0.9452
  319MPD2    C3 4846   2.421   3.451  16.898 -0.5324 -0.1744 -0.3242
  319MPD2    C4 4847   2.413   3.589  16.880 -0.4322 -0.4718 -0.7003
  319MPD2    C5 4848   2.474   3.678  16.966 -1.2357 -0.0013  0.0165
  319MPD2     H 4849   2.528   3.300  17.013  1.2517  0.3707 -2.2850
  319MPD2    H1 4850   2.357   3.629  16.795  0.2883 -1.1891 -1.5132
  319MPD2    H2 4851   2.607   3.696  17.134 -0.1604 -0.4720  0.8380
  319MPD2    H3 4852   2.468   3.782  16.938  1.7345  0.1809  0.1225
  319MPD2     N 4853   2.353   3.365  16.810  0.5081 -0.4441  0.3313
  319MPD2    H5 4854   2.303   3.404  16.731  0.1321  0.7461  1.1534
  319MPD2    N1 4855   2.641   3.444  17.188 -0.1190  0.7493  0.1588
  319MPD2    H7 4856   2.646   3.343  17.184 -1.5261  0.7415 -1.3059
  320TMC3    C1 4857   2.255   3.170  16.726 -0.2163 -0.3960 -0.3800
  320TMC3    C2 4858   2.140   3.239  16.688  0.9313  0.0726  0.0984
  320TMC3    C3 4859   2.030   3.172  16.633  0.1808 -0.8263 -0.5812
  320TMC3    C4 4860   2.257   3.034  16.713  0.5316 -0.0266  0.5387
  320TMC3    C5 4861   2.153   2.969  16.665  0.3242 -0.4188 -0.0522
  320TMC3    C6 4862   2.035   3.035  16.625  0.5953 -0.1007 -0.4325
  320TMC3     C 4863   2.342   3.230  16.825 -0.0034  0.0974  0.0874
  320TMC3     O 4864   2.389   3.147  16.900 -1.2711 -0.5310 -0.4593
  320TMC3     H 4865   2.134   3.342  16.722 -0.1141 -0.5064  1.6484
  320TMC3    H1 4866   2.345   2.984  16.751 -0.5035 -0.6865  2.0638
  320TMC3    H2 4867   1.960   2.969  16.582 -0.2316  0.9916 -0.6487
  320TMC3    C7 4868   2.146   2.825  16.666 -0.0574  0.6129 -0.3452
  320TMC3    C8 4869   1.965   3.237  16.525 -0.9858  0.2297 -0.4171
  320TMC3    O1 4870   2.034   2.780  16.678  0.6959  0.6718  0.1199
  320TMC3    O2 4871   2.022   3.332  16.478 -0.2803  0.1351  0.0637
  321TMC3    C1 4872   2.731   3.405  17.398  0.5857 -0.1266  0.6374
  321TMC3    C2 4873   2.653   3.297  17.422  0.1135  0.2448 -0.8084
  321TMC3    C3 4874   2.695   3.215  17.520  0.0475 -0.2130 -0.0548
  321TMC3    C4 4875   2.842   3.441  17.471 -0.0667 -0.4295  0.4341
  321TMC3    C5 4876   2.882   3.366  17.574 -0.2272  0.3208  0.3272
  321TMC3    C6 4877   2.802   3.253  17.597 -0.3572  0.4871  0.1867
  321TMC3     C 4878   2.686   3.500  17.303  0.3367 -0.8459 -0.7709
  321TMC3     O 4879   2.697   3.620  17.336 -0.1215 -0.1154  0.2891
  321TMC3     H 4880   2.566   3.268  17.364  0.1630  0.3223 -0.9210
  321TMC3    H1 4881   2.904   3.528  17.450 -0.8313  0.3080  1.2150
  321TMC3    H2 4882   2.819   3.186  17.681  0.4037  2.1808  1.3832
  321TMC3    C7 4883   3.021   3.318  17.566 -0.4839 -0.5005  0.3830
  321TMC3    C8 4884   2.682   3.074  17.493  0.5200 -0.2261  0.3577
  321TMC3    O1 4885   3.023   3.203  17.533  0.1363 -0.4154  0.5064
  321TMC3    O2 4886   2.593   3.021  17.426 -0.2024  0.8543 -0.7467
  322MPD2     C 4887   1.230   0.093  13.531 -0.2243  0.3730  0.0535
  322MPD2    C1 4888   1.271   0.009  13.631 -0.5598 -0.6462 -0.2928
  322MPD2    C2 4889   1.328   4.623  13.602 -0.3680  0.4368  0.8811
  322MPD2    C3 4890   1.351   4.587  13.470  0.5896 -0.7328  0.0099
  322MPD2    C4 4891   1.314   4.672  13.371  0.2577  0.4446  0.3396
  322MPD2    C5 4892   1.258   0.050  13.394 -0.2291 -0.0711 -0.9037
  322MPD2     H 4893   1.381   4.561  13.673 -1.5757 -1.3266  0.2499
  322MPD2    H1 4894   1.326   4.647  13.266  1.8128  2.7327 -0.0324
  322MPD2    H2 4895   1.187   0.189  13.559  1.3522  0.6951  1.4173
  322MPD2    H3 4896   1.230   0.113  13.310 -1.1812  0.5039 -0.1629
  322MPD2     N 4897   1.405   4.456  13.442  0.1384  0.3973  0.2194
  322MPD2    H5 4898   1.414   4.399  13.525 -1.6121 -0.0428  0.1188
  322MPD2    N1 4899   1.253   0.057  13.763  0.0283 -0.5529 -0.4222
  322MPD2    H7 4900   1.233   0.155  13.781  1.7252 -0.2934  0.0929
  323TMC3    C1 4901   1.358   0.047  13.974 -0.0602  0.4214  0.3167
  323TMC3    C2 4902   1.445   0.139  13.913 -0.4652 -0.0253  0.4217
  323TMC3    C3 4903   1.562   0.162  13.972  0.2100  0.7363 -0.3918
  323TMC3    C4 4904   1.398   4.713  14.084  0.8523 -0.0553 -0.8680
  323TMC3    C5 4905   1.512   0.009  14.141  0.7063  0.5022  0.2942
  323TMC3    C6 4906   1.597   0.106  14.092  0.8339 -0.0368  0.0941
  323TMC3     C 4907   1.274   4.718  13.874 -0.3516 -0.3738  0.4339
  323TMC3     O 4908   1.272   4.597  13.875 -0.0058 -0.6178 -0.4580
  323TMC3     H 4909   1.403   0.212  13.845 -0.7506  0.2367  0.8834
  323TMC3    H1 4910   1.345   4.624  14.114 -0.0880  0.3919 -1.2039
  323TMC3    H2 4911   1.692   0.119  14.143  1.5313  1.4610 -1.5772
  323TMC3    C7 4912   1.556   4.667  14.248 -0.3235 -0.0181 -0.2491
  323TMC3    C8 4913   1.666   0.203  13.890 -0.1405 -0.1405 -0.0578
  323TMC3    O1 4914   1.674   4.646  14.248  0.1849  0.3060 -0.0710
  323TMC3    O2 4915   1.777   0.222  13.938  0.2112  0.2614 -0.3075
  324MPD2     C 4916   3.031   0.914  14.720  0.2648  0.0571 -0.0359
  324MPD2    C1 4917   3.028   1.041  14.661 -0.2976 -0.1390 -0.8815
  324MPD2    C2 4918   2.900   1.089  14.616  0.3029 -0.5286 -0.4042
  324MPD2    C3 4919   2.780   1.006  14.625 -0.1307  0.0286  0.3224
  324MPD2    C4 4920   2.789   0.878  14.670 -0.1668 -0.3059  0.2834
  324MPD2    C5 4921   2.912   0.839  14.719  0.1936 -0.5135 -0.2148
  324MPD2     H 4922   2.888   1.188  14.574  1.2757 -0.9288 -1.6236
  324MPD2    H1 4923   2.709   0.804  14.664 -1.0615  0.6924 -0.1990
  324MPD2    H2 4924   3.121   0.873  14.765 -1.0157 -1.6734  0.9500
  324MPD2    H3 4925   2.927   0.735  14.743 -0.7363 -0.6478 -0.2547
  324MPD2     N 4926   2.654   1.038  14.568 -0.5645  0.4354  0.2482
  324MPD2    H5 4927   2.579   0.974  14.589  0.6380 -0.7614  0.9295
  324MPD2    N1 4928   3.143   1.121  14.656  0.0851 -0.3750  0.2765
  324MPD2    H7 4929   3.122   1.214  14.621  0.4449 -0.1492  0.6628
  325TMC3    C1 4930   2.491   1.180  14.483  0.0550 -0.1579 -0.0634
  325TMC3    C2 4931   2.389   1.102  14.512  0.7672  0.1923  0.6569
  325TMC3    C3 4932   2.259   1.142  14.480 -0.0672 -0.2660 -0.1109
  325TMC3    C4 4933   2.465   1.303  14.432  0.1792  0.1233 -0.5564
  325TMC3    C5 4934   2.338   1.343  14.404  0.2281 -0.2411 -0.2222
  325TMC3    C6 4935   2.232   1.265  14.429  0.1489 -0.4520 -0.2743
  325TMC3     C 4936   2.637   1.146  14.488 -0.2761  0.2526 -0.3633
  325TMC3     O 4937   2.715   1.206  14.417  0.1107 -0.0888 -0.2753
  325TMC3     H 4938   2.413   1.001  14.544 -1.1458 -0.1514  0.9657
  325TMC3    H1 4939   2.548   1.369  14.412  0.5272  0.4600  1.9647
  325TMC3    H2 4940   2.132   1.290  14.397  0.0068 -0.1211  0.4540
  325TMC3    C7 4941   2.305   1.477  14.443 -1.0889  0.0568 -0.4939
  325TMC3    C8 4942   2.167   1.041  14.444  0.3286 -0.7559  0.3012
  325TMC3    O1 4943   2.188   1.509  14.429  0.2782  0.4062 -0.7251
  325TMC3    O2 4944   2.223   0.937  14.410 -0.0622  0.3647 -1.1010
  326MPD2     C 4945   4.431   3.277  11.641  0.0718  0.1439 -0.1463
  326MPD2    C1 4946   4.492   3.206  11.544 -0.1723  0.5247  0.1368
  326MPD2    C2 4947   4.627   3.224  11.511 -0.1860 -0.3794 -0.8213
  326MPD2    C3 4948   4.698   3.324  11.573  0.4198 -0.1360  0.6570
  326MPD2    C4 4949   4.642   3.394  11.677  0.3730  0.0381  0.2987
  326MPD2    C5 4950   4.510   3.372  11.716 -0.0538  0.7079 -0.5390
  326MPD2     H 4951   4.666   3.164  11.429 -0.8361  1.9133 -2.8026
  326MPD2    H1 4952   4.703   3.465  11.731  1.0072  0.4825 -0.9991
  326MPD2    H2 4953   4.327   3.269  11.670 -0.1359 -1.5451 -1.3270
  326MPD2    H3 4954   4.466   3.413  11.805 -0.0971  0.4007 -0.4174
  326MPD2     N 4955   0.090   3.369  11.541  0.5616 -0.1757 -0.0962
  326MPD2    H5 4956   0.134   3.441  11.598  1.3388 -0.1792 -0.7096
  326MPD2    N1 4957   4.422   3.125  11.455 -0.5652 -0.1892 -0.2488
  326MPD2    H7 4958   4.481   3.103  11.376  0.7267 -1.0673  0.9542
  327TMC3    C1 4959   4.240   3.008  11.356 -0.2644  0.4181 -0.6170
  327TMC3    C2 4960   4.110   3.043  11.321  0.9140  0.4203  0.4046
  327TMC3    C3 4961   4.067   2.992  11.197 -0.5022 -0.3181 -0.5988
  327TMC3    C4 4962   4.320   2.922  11.281 -0.6769 -0.8572 -0.0856
  327TMC3    C5 4963   4.263   2.876  11.166  0.6482 -0.1342 -0.0725
  327TMC3    C6 4964   4.141   2.905  11.122  0.7520  0.5727  0.1309
  327TMC3     C 4965   4.293   3.074  11.472  0.4385  0.2030  0.0583
  327TMC3     O 4966   4.216   3.102  11.564  0.1823  0.3394 -0.0370
  327TMC3     H 4967   4.062   3.125  11.374 -1.6167  1.5107 -3.5357
  327TMC3    H1 4968   4.425   2.903  11.295 -0.1058  3.3044  1.4434
  327TMC3    H2 4969   4.101   2.865  11.030  1.3063 -1.2201  0.6762
  327TMC3    C7 4970   4.341   2.780  11.091 -0.6205 -0.0349 -0.1480
  327TMC3    C8 4971   3.957   3.051  11.136  0.3158 -0.5757 -0.4457
  327TMC3    O1 4972   4.319   2.783  10.972  0.2559 -0.0578  0.4958
  327TMC3    O2 4973   3.966   3.067  11.016 -0.3333 -0.6763 -0.3380
  328MPD2     C 4974   2.208   2.106  17.365  0.3177  0.2748 -0.6675
  328MPD2    C1 4975   2.089   2.060  17.412  0.5184 -0.4369  0.0703
  328MPD2    C2 4976   1.979   2.060  17.324  0.4275 -0.7445 -0.4721
  328MPD2    C3 4977   1.989   2.109  17.203  0.2459  0.0460  0.3139
  328MPD2    C4 4978   2.112   2.141  17.148  0.6320 -0.6115  0.8929
  328MPD2    C5 4979   2.219   2.144  17.238 -0.1022  0.0735  0.0133
  328MPD2     H 4980   1.883   2.039  17.369  0.6418  0.4467  0.5497
  328MPD2    H1 4981   2.126   2.203  17.060 -1.6556  2.2524  2.5367
  328MPD2    H2 4982   2.290   2.103  17.437 -2.1454 -0.5901  2.1177
  328MPD2    H3 4983   2.315   2.176  17.200 -0.1230 -2.5941 -2.2882
  328MPD2     N 4984   1.877   2.141  17.118 -0.0765 -0.1504  0.4716
  328MPD2    H5 4985   1.882   2.192  17.030 -1.6653 -3.0048 -1.2608
  328MPD2    N1 4986   2.087   2.027  17.549  0.0106 -0.0427  0.6103
  328MPD2    H7 4987   2.165   2.053  17.608 -0.3105  0.9556  0.5816
  329TMC3    C1 4988   2.022   1.953   0.003  0.1838 -0.0325  0.1711
  329TMC3    C2 4989   2.080   2.062   0.053  0.3220 -0.3110  0.2796
  329TMC3    C3 4990   2.119   2.048   0.179  0.6602 -0.0570  0.7950
  329TMC3    C4 4991   2.001   1.834   0.070 -0.5197  0.7835  0.2803
  329TMC3    C5 4992   2.047   1.826   0.199 -0.2342  1.0206 -0.7345
  329TMC3    C6 4993   2.107   1.933   0.258  0.1291  0.5642 -0.1984
  329TMC3     C 4994   1.986   1.958  17.610 -0.8881  0.2339  0.4594
  329TMC3     O 4995   1.882   1.904  17.568  0.2050 -0.1557  0.6796
  329TMC3     H 4996   2.074   2.158   0.003  0.6580  0.0870  1.0026
  329TMC3    H1 4997   1.955   1.750   0.020  1.1041  0.5217 -0.7731
  329TMC3    H2 4998   2.129   1.926   0.364 -1.3048  0.2327  0.0765
  329TMC3    C7 4999   2.065   1.700   0.273 -0.2035  0.5031 -0.2766
  329TMC3    C8 5000   2.094   2.170   0.253  0.5713 -0.2322 -0.3986
  329TMC3    O1 5001   2.093   1.598   0.214 -0.0325  0.3346 -0.5961
  329TMC3    O2 5002   2.042   2.161   0.366 -0.3102  0.4778 -0.0683
  330TMC3    C1 5003   3.884   2.020  10.367 -0.9926  0.0703 -0.1692
  330TMC3    C2 5004   3.824   1.945  10.274 -0.2539  0.0635  0.1892
  330TMC3    C3 5005   3.851   1.809  10.276 -0.2663  0.0611  0.1815
  330TMC3    C4 5006   3.971   1.967  10.465 -0.0257  0.0515 -0.0706
  330TMC3    C5 5007   3.989   1.830  10.469 -0.2572  0.3702 -0.7763
  330TMC3    C6 5008   3.930   1.748  10.382 -0.2515  0.0215  0.9737
  330TMC3     C 5009   3.854   2.164  10.374  0.7941 -0.4795  0.1225
  330TMC3     O 5010   3.930   2.239  10.433 -0.1715  0.0846  0.5278
  330TMC3     H 5011   3.758   1.987  10.198  0.5617  0.2607 -0.4043
  330TMC3    H1 5012   4.004   2.034  10.543 -1.9372 -0.1732  0.9400
  330TMC3    H2 5013   3.926   1.641  10.392 -0.7542 -0.2624 -2.4886
  330TMC3    C7 5014   4.098   1.786  10.556 -0.1001  0.0745  0.2594
  330TMC3    C8 5015   3.774   1.718  10.190  0.3952 -0.1261  0.1358
  330TMC3    O1 5016   4.164   1.874  10.612  0.5643  0.5039 -0.4895
  330TMC3    O2 5017   3.672   1.760  10.139 -0.0723 -0.1644 -0.0745
  331MPD2     C 5018   2.447   0.799  12.929 -0.6882 -0.0390  0.2111
  331MPD2    C1 5019   2.552   0.833  12.846 -0.4316  0.7456  0.1159
  331MPD2    C2 5020   2.641   0.737  12.810  0.0893  0.2594 -0.2198
  331MPD2    C3 5021   2.631   0.605  12.845  0.4381 -0.5671 -0.1389
  331MPD2    C4 5022   2.526   0.572  12.930 -0.0315 -0.0838  0.3355
  331MPD2    C5 5023   2.443   0.671  12.975 -0.0665 -0.9225  0.5982
  331MPD2     H 5024   2.727   0.762  12.749  0.5808  0.6016  0.6171
  331MPD2    H1 5025   2.489   0.472  12.951  1.9064 -1.3300 -2.2885
  331MPD2    H2 5026   2.367   0.864  12.963  0.2920  1.5064 -0.3989
  331MPD2    H3 5027   2.365   0.643  13.045 -0.5976 -3.2077 -0.8815
  331MPD2     N 5028   2.702   0.503  12.779 -0.0405  0.4315  0.3916
  331MPD2    H5 5029   2.755   0.540  12.701  2.0100 -0.7108  1.2278
  331MPD2    N1 5030   2.569   0.959  12.788  0.4691  0.3723  0.0746
  331MPD2    H7 5031   2.648   0.970  12.724  2.0660 -0.9956  1.8076
  332TMC3    C1 5032   2.763   0.288  12.708 -0.6555 -0.3797 -0.4025
  332TMC3    C2 5033   2.784   0.316  12.577 -0.4009 -0.3008 -0.0421
  332TMC3    C3 5034   2.889   0.258  12.505 -0.3316  0.1501  0.3518
  332TMC3    C4 5035   2.846   0.202  12.780  0.0692  0.4899 -0.1856
  332TMC3    C5 5036   2.951   0.154  12.702 -0.4068  0.6398 -0.1284
  332TMC3    C6 5037   2.981   0.186  12.569 -0.0099  0.2957 -0.0422
  332TMC3     C 5038   2.678   0.367  12.796  0.4386  0.4821 -0.3691
  332TMC3     O 5039   2.628   0.306  12.889  0.5116  0.6483 -0.2782
  332TMC3     H 5040   2.711   0.386  12.537 -0.1403 -1.0863 -1.9088
  332TMC3    H1 5041   2.828   0.179  12.884 -1.5002  3.3795  0.1840
  332TMC3    H2 5042   3.065   0.142  12.517 -0.3391 -0.8678  0.4025
  332TMC3    C7 5043   3.048   0.089  12.785 -0.8878 -0.0692  0.3079
  332TMC3    C8 5044   2.943   0.341  12.400 -0.0304  0.9129 -0.2936
  332TMC3    O1 5045   3.002   0.033  12.882  0.0303 -0.6946 -0.0030
  332TMC3    O2 5046   3.054   0.392  12.416 -0.1638  0.2664  0.5506
  333MPD2     C 5047   2.938   0.574  11.323 -0.3704 -0.6256 -0.3333
  333MPD2    C1 5048   2.940   0.463  11.237 -0.2235 -0.6829 -0.1096
  333MPD2    C2 5049   2.897   0.341  11.294 -0.7637 -0.2158  0.2450
  333MPD2    C3 5050   2.857   0.340  11.429 -0.1432 -0.2563 -0.4677
  333MPD2    C4 5051   2.853   0.453  11.511 -0.8967 -0.0527  0.5239
  333MPD2    C5 5052   2.899   0.567  11.456 -0.5366  0.3665  0.0631
  333MPD2     H 5053   2.880   0.254  11.231 -2.0965  2.3670 -2.9470
  333MPD2    H1 5054   2.846   0.456  11.619  0.2950 -2.3123  0.6588
  333MPD2    H2 5055   2.968   0.673  11.291  0.9354 -1.1483 -0.7563
  333MPD2    H3 5056   2.905   0.656  11.518 -1.6054  0.1441  0.4919
  333MPD2     N 5057   2.809   0.217  11.481  0.4613  0.7788 -0.2344
  333MPD2    H5 5058   2.830   0.126  11.441  1.7429  0.4625  1.1872
  333MPD2    N1 5059   2.984   0.480  11.110  0.2527 -0.3561  0.7478
  333MPD2    H7 5060   3.013   0.572  11.079 -0.5750 -0.7793 -1.3152
  334TMC3    C1 5061   3.053   0.460  10.894  0.2999  0.1816  0.2578
  334TMC3    C2 5062   3.169   0.412  10.838  0.0911 -0.0694 -0.8350
  334TMC3    C3 5063   3.235   0.497  10.754  0.4788 -0.1653  0.5450
  334TMC3    C4 5064   3.000   0.582  10.870  0.5201  0.5255  0.3559
  334TMC3    C5 5065   3.070   0.661  10.781 -0.9558 -0.4030  0.2962
  334TMC3    C6 5066   3.188   0.619  10.725 -0.6100  0.5741 -0.0836
  334TMC3     C 5067   3.001   0.387  11.009 -0.6821  0.0870 -0.3658
  334TMC3     O 5068   3.007   0.266  11.017 -0.1840  0.3859 -0.0665
  334TMC3     H 5069   3.202   0.312  10.862  0.7868  0.1421 -0.9005
  334TMC3    H1 5070   2.926   0.630  10.933 -0.9651  0.9113 -1.6734
  334TMC3    H2 5071   3.232   0.678  10.645  0.4368 -3.2573 -2.2976
  334TMC3    C7 5072   3.069   0.810  10.806  0.4298  0.0965 -0.1462
  334TMC3    C8 5073   3.365   0.457  10.710  0.3465 -0.3371  0.4258
  334TMC3    O1 5074   3.039   0.838  10.920  0.2676 -0.0510 -0.0408
  334TMC3    O2 5075   3.386   0.339  10.683  0.6265  0.3486 -0.6456
  335TMC3    C1 5076   3.383   2.013   0.077 -0.1058 -0.1914  0.1250
  335TMC3    C2 5077   3.256   1.981   0.029 -0.5871  0.1067  0.2744
  335TMC3    C3 5078   3.224   2.003  17.641 -0.6321  0.3332 -0.0262
  335TMC3    C4 5079   3.477   2.075  17.736 -0.4931 -0.2089  0.0954
  335TMC3    C5 5080   3.440   2.084  17.600  0.2139  0.5994 -0.2428
  335TMC3    C6 5081   3.320   2.048  17.552 -0.2229  0.5695  0.3217
  335TMC3     C 5082   3.421   1.962   0.212 -0.2516 -0.1793  0.1106
  335TMC3     O 5083   3.332   1.919   0.283 -0.2635  0.3435  0.7231
  335TMC3     H 5084   3.185   1.925   0.089 -0.1495 -0.8966 -0.1540
  335TMC3    H1 5085   3.574   2.111   0.023  0.2491 -1.7854 -0.3463
  335TMC3    H2 5086   3.287   2.052  17.449 -2.3759 -0.9016  0.9417
  335TMC3    C7 5087   3.524   2.153  17.507 -0.4203 -1.1594 -0.5044
  335TMC3    C8 5088   3.110   1.923  17.594 -0.8254 -0.3572 -0.0176
  335TMC3    O1 5089   3.499   2.138  17.389  0.8671  0.4164  0.3600
  335TMC3    O2 5090   3.085   1.823  17.657  0.6102  0.2021 -0.4410
  336MPD2     C 5091   2.537   4.504  16.189 -0.3158  0.0854 -0.3154
  336MPD2    C1 5092   2.484   4.396  16.126  0.1381  0.5813  0.0736
  336MPD2    C2 5093   2.512   4.273  16.163 -0.1490  0.1536  0.6713
  336MPD2    C3 5094   2.603   4.250  16.268 -0.8261 -0.3562  0.1973
  336MPD2    C4 5095   2.648   4.355  16.341  0.4638  0.3955  0.4018
  336MPD2    C5 5096   2.614   4.484  16.301  0.0100  0.5885  0.1141
  336MPD2     H 5097   2.479   4.198  16.092 -1.6068  0.6660  0.7950
  336MPD2    H1 5098   2.710   4.334  16.427 -2.5102 -1.1436  2.1522
  336MPD2    H2 5099   2.521   4.602  16.147  1.3567  0.4103 -0.2062
  336MPD2    H3 5100   2.642   4.568  16.363 -1.0692  1.0979 -0.0822
  336MPD2     N 5101   2.638   4.122  16.310 -0.6399 -0.2653  0.2867
  336MPD2    H5 5102   2.703   4.119  16.388 -1.2732  1.3861  0.8852
  336MPD2    N1 5103   2.400   4.406  16.014  0.2213  0.1225  0.2426
  336MPD2    H7 5104   2.379   4.320  15.964 -0.0902 -1.4012  2.9829
  337TMC3    C1 5105   2.229   4.492  15.869 -0.3679 -0.4791 -0.4724
  337TMC3    C2 5106   2.171   4.367  15.848 -0.0226 -0.2359 -0.7782
  337TMC3    C3 5107   2.062   4.366  15.761 -0.0990  0.0492 -0.0834
  337TMC3    C4 5108   2.199   4.605  15.800  0.1420 -0.1509  0.1833
  337TMC3    C5 5109   2.098   4.592  15.710 -0.9130 -0.2789  0.0194
  337TMC3    C6 5110   2.023   4.481  15.687 -0.9548  0.1505 -0.7145
  337TMC3     C 5111   2.328   4.516  15.969  0.6187  0.4677  0.5023
  337TMC3     O 5112   2.335   4.629  16.009  0.0360 -0.0487  0.2398
  337TMC3     H 5113   2.192   4.281  15.911 -0.1362 -0.6227 -1.2745
  337TMC3    H1 5114   2.241   4.703  15.821  1.6498 -0.6609 -0.4645
  337TMC3    H2 5115   1.955   4.480  15.602 -1.6399  1.0398 -0.1671
  337TMC3    C7 5116   2.084   4.706  15.617 -0.0016 -0.1942 -1.3985
  337TMC3    C8 5117   2.003   4.238  15.730 -0.0102 -0.3550  0.4951
  337TMC3    O1 5118   2.183   0.031  15.596  0.6690  0.1931  0.1950
  337TMC3    O2 5119   2.055   4.138  15.782  0.1103  0.0396 -0.4907
  338MPD2     C 5120   2.896   3.975   1.069 -0.9574 -0.3242  0.1855
  338MPD2    C1 5121   2.881   4.023   0.941 -0.3415 -0.6393 -0.1649
  338MPD2    C2 5122   2.803   4.135   0.918  0.4024  0.1163  0.1016
  338MPD2    C3 5123   2.731   4.197   1.019  0.5355 -0.0903 -0.6557
  338MPD2    C4 5124   2.732   4.134   1.143 -0.0219 -0.5101  0.0855
  338MPD2    C5 5125   2.823   4.037   1.171  0.0783  0.7247 -0.0618
  338MPD2     H 5126   2.785   4.161   0.814  0.6031 -0.5130 -0.0898
  338MPD2    H1 5127   2.670   4.178   1.220  0.2870  0.3914 -0.1852
  338MPD2    H2 5128   2.953   3.889   1.098 -0.1076 -0.7458 -2.7073
  338MPD2    H3 5129   2.837   3.998   1.271 -0.5757  1.0041  0.1402
  338MPD2     N 5130   2.646   4.308   0.985  0.9477  0.2094  0.5670
  338MPD2    H5 5131   2.652   4.327   0.886  1.0921 -0.5226  0.4329
  338MPD2    N1 5132   2.921   3.961   0.823 -0.1388 -0.3391 -0.3639
  338MPD2    H7 5133   2.891   4.015   0.742  1.5286  0.7540 -0.2588
  339TMC3    C1 5134   2.443   4.440   0.991 -0.5894  0.3068 -0.0716
  339TMC3    C2 5135   2.322   4.419   1.049  0.0281  0.5530 -1.0335
  339TMC3    C3 5136   2.215   4.422   0.960 -0.1488  0.2062 -0.2154
  339TMC3    C4 5137   2.466   4.470   0.859  0.4091  0.1563 -0.7484
  339TMC3    C5 5138   2.355   4.480   0.776  0.0244 -0.2583 -0.2374
  339TMC3    C6 5139   2.227   4.458   0.829  0.6338  0.2604 -0.6180
  339TMC3     C 5140   2.539   4.360   1.062  0.8763 -0.0160 -0.4746
  339TMC3     O 5141   2.521   4.359   1.183 -0.0370  0.2455 -0.3733
  339TMC3     H 5142   2.296   4.391   1.151 -0.0343  0.5893 -1.0390
  339TMC3    H1 5143   2.568   4.475   0.822  0.4943  1.6417 -0.3036
  339TMC3    H2 5144   2.140   4.442   0.766 -0.0135  1.6043 -0.0717
  339TMC3    C7 5145   2.372   4.455   0.631 -0.5214  0.5963  0.6089
  339TMC3    C8 5146   2.080   4.394   0.996 -0.2748  0.4019 -0.8098
  339TMC3    O1 5147   2.457   4.518   0.565 -0.2356 -0.2740 -0.2490
  339TMC3    O2 5148   1.982   4.432   0.928  0.2458 -0.1058 -0.7849
  340MPD2     C 5149   2.724   2.844  10.631  0.0428  0.2823  0.0902
  340MPD2    C1 5150   2.684   2.715  10.604  0.3874 -0.7559  0.2620
  340MPD2    C2 5151   2.766   2.604  10.603  0.2879  0.3904 -0.0066
  340MPD2    C3 5152   2.899   2.619  10.635 -0.7733 -0.2311 -0.0916
  340MPD2    C4 5153   2.941   2.745  10.662 -0.6012  0.2943  0.1040
  340MPD2    C5 5154   2.855   2.858  10.655  0.4200 -0.3665 -0.1541
  340MPD2     H 5155   2.730   2.509  10.565 -0.7035  0.7157  0.1169
  340MPD2    H1 5156   3.044   2.763  10.692 -0.0758  1.6086 -2.4622
  340MPD2    H2 5157   2.661   2.932  10.621  1.3962  0.9597 -2.6603
  340MPD2    H3 5158   2.894   2.959  10.668 -1.3588  0.0524  1.7950
  340MPD2     N 5159   2.995   2.520  10.648  0.1794 -0.3270 -0.4210
  340MPD2    H5 5160   3.089   2.553  10.667 -1.2237  1.9857  2.5631
  340MPD2    N1 5161   2.548   2.685  10.585 -0.7369  0.2679  0.0904
  340MPD2    H7 5162   2.525   2.587  10.573  0.3389  0.6427 -4.6093
  341TMC3    C1 5163   2.335   2.698  10.546 -0.0119  0.2896  0.2661
  341TMC3    C2 5164   2.348   2.583  10.612 -0.0920 -0.4918  0.3036
  341TMC3    C3 5165   2.302   2.470  10.548  0.0715  0.2828  0.0974
  341TMC3    C4 5166   2.299   2.706  10.415  0.4964  0.0774 -0.4450
  341TMC3    C5 5167   2.250   2.589  10.353  0.3502 -0.0366 -0.1106
  341TMC3    C6 5168   2.266   2.469  10.420 -0.0321 -0.0334 -0.2967
  341TMC3     C 5169   2.448   2.780  10.573 -0.5713 -0.5778 -0.1263
  341TMC3     O 5170   2.434   2.901  10.570 -0.1302  0.1789 -1.1587
  341TMC3     H 5171   2.356   2.585  10.720 -2.0636  3.7582  0.3699
  341TMC3    H1 5172   2.314   2.798  10.360 -2.3027 -0.9622 -2.9791
  341TMC3    H2 5173   2.232   2.381  10.367 -0.4800 -0.5558  0.8637
  341TMC3    C7 5174   2.222   2.580  10.212 -0.3681 -0.8750 -0.6963
  341TMC3    C8 5175   2.313   2.346  10.622  0.1450 -0.5457 -0.8831
  341TMC3    O1 5176   2.283   2.498  10.146  0.1941 -0.1618  0.0080
  341TMC3    O2 5177   2.283   2.335  10.735 -0.2512  0.5784 -0.2542
  342MPD2     C 5178   0.610   0.190  17.614 -0.8319  0.7687  0.1403
  342MPD2    C1 5179   0.716   0.190  17.523 -0.0245  0.7127 -0.2390
  342MPD2    C2 5180   0.800   0.299  17.520 -0.1824 -0.8125  0.5976
  342MPD2    C3 5181   0.774   0.402  17.612  0.0056  0.1149  0.6826
  342MPD2    C4 5182   0.678   0.398  17.707  0.0503  0.7962 -0.5031
  342MPD2    C5 5183   0.599   0.291  17.700  0.0988  0.4548 -0.3399
  342MPD2     H 5184   0.863   0.314  17.433  0.4177 -1.1223  0.9777
  342MPD2    H1 5185   0.656   0.475   0.032 -0.5404  2.1041 -2.0411
  342MPD2    H2 5186   0.537   0.109  17.617  0.6976 -0.6640 -1.3791
  342MPD2    H3 5187   0.507   0.282   0.009  1.3805 -3.0395  1.2173
  342MPD2     N 5188   0.849   0.523  17.615  0.1220 -0.8496  0.1974
  342MPD2    H5 5189   0.829   0.587  17.691 -1.5033 -1.5531  0.3694
  342MPD2    N1 5190   0.746   0.084  17.438 -0.2285  0.3403  0.2444
  342MPD2    H7 5191   0.831   0.093  17.384 -0.4003  1.2063  0.1239
  343TMC3    C1 5192   0.715   4.621  17.309 -0.6758  0.6002 -0.3139
  343TMC3    C2 5193   0.793   4.662  17.203 -0.3883 -0.6362 -0.4377
  343TMC3    C3 5194   0.822   4.571  17.114  0.0504  0.1034  0.0412
  343TMC3    C4 5195   0.648   4.503  17.303 -0.5494  0.1700 -0.3889
  343TMC3    C5 5196   0.659   4.428  17.188 -0.6806 -0.0675  0.8984
  343TMC3    C6 5197   0.764   4.445  17.107 -0.0490  0.1051 -0.2249
  343TMC3     C 5198   0.661   4.721  17.401 -0.2599  1.1033 -0.1370
  343TMC3     O 5199   0.540   4.703  17.427 -0.0445 -0.1197  0.1078
  343TMC3     H 5200   0.831   0.027  17.201  0.3288 -0.8836  0.7289
  343TMC3    H1 5201   0.581   4.465  17.380  1.8559  1.3216  2.2760
  343TMC3    H2 5202   0.786   4.373  17.028  2.9195 -0.0503  0.7365
  343TMC3    C7 5203   0.585   4.307  17.196  0.5071 -0.0055 -0.0886
  343TMC3    C8 5204   0.912   4.608  17.006 -0.1724 -0.5450  0.6662
  343TMC3    O1 5205   0.502   4.280  17.110 -0.2192 -0.4260  0.0832
  343TMC3    O2 5206   0.932   4.728  16.986  0.0330 -0.4024  0.3217
  344MPD2     C 5207   1.049   4.418   9.766 -0.5207 -0.4782  0.1240
  344MPD2    C1 5208   1.095   4.439   9.894 -0.0894  0.0185 -0.5606
  344MPD2    C2 5209   1.083   4.568   9.942  0.0759 -0.2887 -0.0364
  344MPD2    C3 5210   1.049   4.677   9.860 -0.4278  0.0607  0.4060
  344MPD2    C4 5211   1.004   4.657   9.728 -0.5522 -0.5882  0.9374
  344MPD2    C5 5212   0.996   4.524   9.689  0.5641  0.8081 -0.0591
  344MPD2     H 5213   1.114   4.594  10.043 -0.4965  0.3096 -0.0132
  344MPD2    H1 5214   0.971   0.006   9.671 -0.5869 -1.0938  0.1820
  344MPD2    H2 5215   1.045   4.314   9.734  1.1189 -0.1470 -1.2042
  344MPD2    H3 5216   0.953   4.493   9.595  2.3110 -0.1880 -0.5266
  344MPD2     N 5217   1.039   0.068   9.916  0.3596 -0.8169  0.1071
  344MPD2    H5 5218   0.996   0.134   9.851  1.8361  1.4628  1.4629
  344MPD2    N1 5219   1.137   4.326   9.971 -0.2015 -0.2461 -0.0353
  344MPD2    H7 5220   1.145   4.235   9.926  1.6874  1.0874 -2.4166
  345TMC3    C1 5221   1.099   0.252  10.048  0.1496  0.0332 -0.8623
  345TMC3    C2 5222   1.169   0.296  10.163 -0.3499 -0.3568  0.1474
  345TMC3    C3 5223   1.121   0.403  10.234 -0.1097  0.5252 -0.0726
  345TMC3    C4 5224   0.983   0.324  10.016  1.2605  0.1984 -0.9781
  345TMC3    C5 5225   0.950   0.436  10.090 -0.0278  0.4082 -0.0273
  345TMC3    C6 5226   1.020   0.482  10.193  0.6838 -0.1540  0.2137
  345TMC3     C 5227   1.115   0.108  10.020 -0.0231  0.8570 -1.3337
  345TMC3     O 5228   1.208   0.049  10.073 -0.1983 -0.2985 -0.3256
  345TMC3     H 5229   1.248   0.233  10.201  0.0833 -0.3620 -0.7799
  345TMC3    H1 5230   0.912   0.290   9.942  1.6396  0.5254 -1.4876
  345TMC3    H2 5231   0.997   0.571  10.251 -1.1641  0.2569 -1.1112
  345TMC3    C7 5232   0.840   0.513  10.046 -0.7971  0.2758 -0.2249
  345TMC3    C8 5233   1.227   0.486  10.302 -0.6652  0.0780  0.2736
  345TMC3    O1 5234   0.736   0.467   9.997 -0.2061 -0.4629 -0.4508
  345TMC3    O2 5235   1.189   0.588  10.364 -0.4422 -0.0314  0.1242
  346MPD2     C 5236   1.586   1.341  14.436  0.6515 -0.6386  0.1307
  346MPD2    C1 5237   1.556   1.467  14.379  0.2098 -0.0517 -0.5445
  346MPD2    C2 5238   1.570   1.584  14.462  0.0529  0.1574  0.2696
  346MPD2    C3 5239   1.623   1.572  14.590 -0.4261  0.3185 -0.0244
  346MPD2    C4 5240   1.663   1.447  14.635  0.1106  0.3821  0.3313
  346MPD2    C5 5241   1.642   1.332  14.557  0.1770  0.4733  0.1983
  346MPD2     H 5242   1.563   1.685  14.423  0.6678  0.4510  0.9219
  346MPD2    H1 5243   1.712   1.432  14.731  1.0397 -0.5756 -0.2987
  346MPD2    H2 5244   1.563   1.251  14.380  0.0786  0.5208 -1.5082
  346MPD2    H3 5245   1.660   1.233  14.597  2.3307  0.6832 -0.2751
  346MPD2     N 5246   1.652   1.692  14.654  0.3574 -0.4543 -0.4333
  346MPD2    H5 5247   1.615   1.775  14.609  0.3550 -0.3937 -0.3193
  346MPD2    N1 5248   1.511   1.482  14.243  0.7301  0.3882 -0.3110
  346MPD2    H7 5249   1.467   1.568  14.214 -0.8172 -0.8140 -1.4845
  347TMC3    C1 5250   1.797   1.824  14.775 -0.0615  0.0894 -0.2731
  347TMC3    C2 5251   1.802   1.896  14.658  0.0447 -0.4475 -0.5278
  347TMC3    C3 5252   1.915   1.975  14.646 -0.8777 -0.4736 -0.0462
  347TMC3    C4 5253   1.871   1.859  14.889  0.1576  0.5777 -0.1492
  347TMC3    C5 5254   1.957   1.958  14.878  0.7409 -0.0110  0.5647
  347TMC3    C6 5255   1.983   2.017  14.760 -0.7296 -0.2197 -0.3954
  347TMC3     C 5256   1.723   1.701  14.771 -0.2176 -0.4107  0.7654
  347TMC3     O 5257   1.746   1.622  14.865 -0.0457  0.2042 -0.5881
  347TMC3     H 5258   1.760   1.864  14.563 -1.5885 -2.1957  0.7999
  347TMC3    H1 5259   1.857   1.795  14.976 -1.3201  1.6273  0.3887
  347TMC3    H2 5260   2.057   2.094  14.742  0.1105 -1.1580 -0.9318
  347TMC3    C7 5261   2.070   1.924  14.964  0.2148  0.3041 -0.9981
  347TMC3    C8 5262   2.007   1.908  14.557 -0.4029  0.7046 -0.0843
  347TMC3    O1 5263   2.049   1.847  15.059  0.0794 -0.3346 -0.6846
  347TMC3    O2 5264   1.977   1.798  14.522 -0.1377  0.4712 -0.0846
  348MPD2     C 5265   0.531   1.168  12.218  0.1632 -0.1165 -0.2703
  348MPD2    C1 5266   0.459   1.190  12.099 -0.6152 -0.2699 -0.1780
  348MPD2    C2 5267   0.461   1.324  12.046  0.1596  0.0158  0.2956
  348MPD2    C3 5268   0.494   1.430  12.127  0.4879  0.0991  0.6597
  348MPD2    C4 5269   0.566   1.407  12.246  0.7900  0.0071  0.6366
  348MPD2    C5 5270   0.583   1.276  12.284  0.1446 -0.0396 -0.5158
  348MPD2     H 5271   0.408   1.338  11.952 -1.0008  0.0361  0.9478
  348MPD2    H1 5272   0.612   1.488  12.302 -1.3205  1.9268 -0.3798
  348MPD2    H2 5273   0.544   1.073  12.269  0.0418 -1.5743 -2.9267
  348MPD2    H3 5274   0.643   1.263  12.373  0.4002 -0.7417 -0.7920
  348MPD2     N 5275   0.464   1.567  12.088 -0.6637 -0.3009  0.1902
  348MPD2    H5 5276   0.496   1.641  12.151  0.3339 -0.3391 -0.2674
  348MPD2    N1 5277   0.410   1.092  12.012 -0.1860  0.3997  0.8974
  348MPD2    H7 5278   0.362   1.121  11.928 -1.6093  1.0549  1.9323
  349TMC3    C1 5279   0.362   0.876  11.933 -0.7234 -0.5373 -0.5854
  349TMC3    C2 5280   0.421   0.759  11.888  0.0786  0.9069  0.1721
  349TMC3    C3 5281   0.345   0.668  11.821  0.3930  0.6258 -0.0606
  349TMC3    C4 5282   0.235   0.909  11.894  0.2613 -0.4190  0.3158
  349TMC3    C5 5283   0.166   0.830  11.813 -0.3433 -0.2481  0.7123
  349TMC3    C6 5284   0.213   0.698  11.788  0.6365 -0.5960  0.7980
  349TMC3     C 5285   0.430   0.956  12.032  0.2336  0.0942 -0.3295
  349TMC3     O 5286   0.525   0.906  12.089  0.6404 -0.7414  0.2050
  349TMC3     H 5287   0.521   0.734  11.922  0.0129  0.5052  0.0733
  349TMC3    H1 5288   0.194   0.997  11.942  1.7798  1.0298 -1.0242
  349TMC3    H2 5289   0.146   0.633  11.733  2.0370 -0.9973 -0.4384
  349TMC3    C7 5290   0.063   0.875  11.727 -0.0479  0.0068  0.3374
  349TMC3    C8 5291   0.380   0.530  11.853 -0.3457  0.4636  0.1737
  349TMC3    O1 5292   4.731   0.799  11.660 -0.8900  0.0220 -0.3529
  349TMC3    O2 5293   0.498   0.500  11.869  0.1928  0.0617  0.1312
  350MPD2     C 5294   3.691   0.028   9.854  0.4579  0.3931  0.0462
  350MPD2    C1 5295   3.645   4.636   9.871 -0.4631 -0.1705 -0.3031
  350MPD2    C2 5296   3.737   4.542   9.914  0.3504 -0.4669 -0.6058
  350MPD2    C3 5297   3.874   4.569   9.932  0.3970 -0.5170  0.8496
  350MPD2    C4 5298   3.915   4.698   9.902  0.4588 -0.6191 -0.4575
  350MPD2    C5 5299   3.821   0.056   9.869 -0.0263 -0.2693 -0.2236
  350MPD2     H 5300   3.698   4.447   9.949 -0.6946  0.6361  1.2750
  350MPD2    H1 5301   4.021   4.723   9.906  0.3643 -0.3251  0.1522
  350MPD2    H2 5302   3.627   0.113   9.834 -2.2701 -1.5619  0.5186
  350MPD2    H3 5303   3.848   0.159   9.849  0.1259  0.3856  3.3778
  350MPD2     N 5304   3.956   4.473   9.991 -0.0383 -0.0616  0.2601
  350MPD2    H5 5305   3.905   4.387  10.006 -2.9318  1.3196 -1.5562
  350MPD2    N1 5306   3.516   4.592   9.857  0.2524  0.2639  0.2595
  350MPD2    H7 5307   3.507   4.492   9.871 -2.2504  0.3691 -0.6152
  351TMC3    C1 5308   3.283   4.586   9.847  0.5020  0.1480 -0.1435
  351TMC3    C2 5309   3.309   4.450   9.864 -0.5324 -0.3702 -0.6237
  351TMC3    C3 5310   3.218   4.380   9.932 -0.0563  0.5996 -0.4746
  351TMC3    C4 5311   3.175   4.653   9.900  1.0059  0.1031  0.6628
  351TMC3    C5 5312   3.087   4.572   9.966 -0.5536  0.6260 -0.3029
  351TMC3    C6 5313   3.113   4.437   9.994  0.2117  0.3860  0.2728
  351TMC3     C 5314   3.401   4.668   9.835  0.8542 -0.2617  0.0383
  351TMC3     O 5315   3.387   0.053   9.837 -0.1867  0.3935 -0.1079
  351TMC3     H 5316   3.377   4.399   9.798  0.0980  1.3695 -1.3180
  351TMC3    H1 5317   3.171   0.023   9.889  1.7024  0.1152  0.5301
  351TMC3    H2 5318   3.052   4.387  10.069  1.2870 -1.9191 -0.4115
  351TMC3    C7 5319   2.960   4.625   9.975  0.6678  0.1984 -0.5322
  351TMC3    C8 5320   3.274   4.260   9.987  0.3977  0.4940 -0.4484
  351TMC3    O1 5321   2.943   0.001   9.929 -0.3303 -0.7373  0.5635
  351TMC3    O2 5322   3.395   4.266   9.991 -0.5338  0.7462 -0.4668
  352MPD2     C 5323   2.429   0.619   1.427  0.0560 -0.6189 -0.0419
  352MPD2    C1 5324   2.502   0.691   1.333 -0.0825  0.4055 -0.6165
  352MPD2    C2 5325   2.629   0.652   1.305  0.2261 -0.3167  0.4932
  352MPD2    C3 5326   2.683   0.530   1.352  0.0530 -0.3789 -0.4897
  352MPD2    C4 5327   2.602   0.458   1.434  0.0176 -0.7683  0.2257
  352MPD2    C5 5328   2.479   0.506   1.484 -0.2648 -0.1061 -0.5099
  352MPD2     H 5329   2.678   0.726   1.243 -2.6676 -0.6991 -2.2300
  352MPD2    H1 5330   2.631   0.363   1.477  0.6038 -0.0327  1.4827
  352MPD2    H2 5331   2.324   0.642   1.444 -0.1385  0.0876 -2.2147
  352MPD2    H3 5332   2.428   0.448   1.559  0.0560 -2.2179 -1.9130
  352MPD2     N 5333   2.813   0.484   1.308  0.5601 -0.0977 -0.6563
  352MPD2    H5 5334   2.840   0.395   1.348  1.2165  0.6016  0.4468
  352MPD2    N1 5335   2.431   0.785   1.260  0.0880  0.1463  0.1890
  352MPD2    H7 5336   2.341   0.815   1.296 -0.0993  1.0662 -1.0180
  353TMC3    C1 5337   3.022   0.486   1.207  0.0486  0.2430  0.7948
  353TMC3    C2 5338   3.084   0.406   1.305  0.0015  0.1620  0.2754
  353TMC3    C3 5339   3.174   0.317   1.255 -0.6860 -0.3559 -0.5987
  353TMC3    C4 5340   3.058   0.484   1.074 -0.3739 -0.5102  0.0563
  353TMC3    C5 5341   3.151   0.393   1.033 -0.5511  0.1610 -0.5091
  353TMC3    C6 5342   3.217   0.318   1.127 -0.0249  0.0441  0.0627
  353TMC3     C 5343   2.898   0.551   1.226 -0.2735  0.3979  0.5229
  353TMC3     O 5344   2.879   0.659   1.171  0.3344 -0.0357 -0.0794
  353TMC3     H 5345   3.068   0.415   1.412 -1.0463  0.6531  0.0764
  353TMC3    H1 5346   3.011   0.534   0.989  0.8531  0.1546 -0.2311
  353TMC3    H2 5347   3.291   0.245   1.096 -2.7018 -3.2490  1.4351
  353TMC3    C7 5348   3.138   0.340   0.897  0.5964  0.3701  0.3049
  353TMC3    C8 5349   3.227   0.219   1.348  0.1937  0.6717  0.6538
  353TMC3    O1 5350   3.030   0.310   0.857  0.3079  0.0318  0.1292
  353TMC3    O2 5351   3.228   0.251   1.466 -0.5063 -0.1915 -0.1191
  354TMC3    C1 5352   3.829   2.156  13.576 -0.3814 -0.5087 -0.6840
  354TMC3    C2 5353   3.872   2.283  13.591  0.7440 -0.0229  0.1141
  354TMC3    C3 5354   3.873   2.367  13.482  0.1966  0.1410 -0.1753
  354TMC3    C4 5355   3.798   2.106  13.453 -0.5070 -0.8109 -0.0574
  354TMC3    C5 5356   3.801   2.190  13.344 -0.3295 -0.7869  0.5469
  354TMC3    C6 5357   3.839   2.321  13.360  0.3898  0.3787  0.1232
  354TMC3     C 5358   3.879   2.066  13.687  0.0014  0.3767  0.1560
  354TMC3     O 5359   3.912   2.123  13.787  0.2074 -0.2092  0.4104
  354TMC3     H 5360   3.891   2.313  13.694 -1.4630 -2.8377  1.3480
  354TMC3    H1 5361   3.758   2.005  13.454 -0.9652 -0.6229  0.8782
  354TMC3    H2 5362   3.854   2.381  13.271  0.1099  0.4117  0.0986
  354TMC3    C7 5363   3.841   2.118  13.228  0.2583 -1.0257  0.5576
  354TMC3    C8 5364   3.936   2.500  13.477  0.1869  0.4140 -0.4342
  354TMC3    O1 5365   3.814   1.997  13.223  0.2869 -0.2272 -1.0198
  354TMC3    O2 5366   3.990   2.531  13.371  0.2797  0.0895  0.1747
  355MPD2     C 5367   4.153   3.763  11.162 -0.4057  0.6144  0.1183
  355MPD2    C1 5368   4.265   3.760  11.076 -0.6115  0.1613  0.4870
  355MPD2    C2 5369   4.386   3.804  11.123 -0.0567 -0.3703  0.0805
  355MPD2    C3 5370   4.402   3.842  11.249  0.6662  0.5048  0.1961
  355MPD2    C4 5371   4.290   3.854  11.335 -0.2851 -0.2815  0.0719
  355MPD2    C5 5372   4.170   3.810  11.288  0.4442  0.0119 -0.1155
  355MPD2     H 5373   4.466   3.789  11.052 -0.4418 -1.3748 -0.1451
  355MPD2    H1 5374   4.297   3.898  11.434 -0.3997  2.2878 -1.0774
  355MPD2    H2 5375   4.063   3.713  11.128 -2.1707  3.2456  0.9182
  355MPD2    H3 5376   4.093   3.817  11.364 -0.0877 -2.4675 -0.4239
  355MPD2     N 5377   4.528   3.870  11.301 -0.4542  0.4417  0.3535
  355MPD2    H5 5378   4.534   3.920  11.389  2.1259 -0.3084  0.6020
  355MPD2    N1 5379   4.244   3.696  10.950 -0.0269 -0.4253 -0.0411
  355MPD2    H7 5380   4.162   3.640  10.931 -0.3910  0.2720 -0.5586
  356TMC3    C1 5381   0.013   3.932  11.304  0.0250 -0.5306 -0.9925
  356TMC3    C2 5382   0.113   3.991  11.236 -0.2563 -0.7428  0.1707
  356TMC3    C3 5383   0.219   4.056  11.294  0.3629 -0.3653  0.0140
  356TMC3    C4 5384   0.016   3.924  11.441 -0.6263  0.0592  0.1567
  356TMC3    C5 5385   0.120   3.994  11.504  0.5581 -0.6028 -0.0618
  356TMC3    C6 5386   0.226   4.051  11.434  0.2853 -0.2252  0.7659
  356TMC3     C 5387   4.639   3.881  11.228 -0.8431  0.5160 -0.3648
  356TMC3     O 5388   4.664   3.872  11.108  0.3345  0.3012  0.3532
  356TMC3     H 5389   0.110   3.986  11.128 -1.9065  2.8706  0.0660
  356TMC3    H1 5390   4.679   3.871  11.499  0.4659 -4.3430 -2.4901
  356TMC3    H2 5391   0.295   4.119  11.483 -0.3969  0.0845  1.3001
  356TMC3    C7 5392   0.138   3.967  11.640 -0.0108  0.8364 -0.3429
  356TMC3    C8 5393   0.328   4.096  11.208  0.3476 -0.4282 -0.2445
  356TMC3    O1 5394   0.089   3.870  11.692 -0.3383 -0.0961  0.4411
  356TMC3    O2 5395   0.320   4.074  11.086 -0.0474 -0.2529  0.4635
  357MPD2     C 5396   0.208   2.406   0.741  0.2025  0.1122 -0.2259
  357MPD2    C1 5397   0.095   2.394   0.826 -0.2383  0.0324 -0.2944
  357MPD2    C2 5398   4.712   2.455   0.782 -0.4407  0.5973 -0.0418
  357MPD2    C3 5399   4.700   2.522   0.662  1.3359  0.8115  0.9743
  357MPD2    C4 5400   0.075   2.546   0.591 -0.3753 -0.0406  0.1723
  357MPD2    C5 5401   0.197   2.492   0.630  0.2268 -0.1004  0.4198
  357MPD2     H 5402   4.629   2.467   0.851 -0.1178  2.2463  0.0629
  357MPD2    H1 5403   0.079   2.617   0.509 -0.9170  1.2747  1.2806
  357MPD2    H2 5404   0.306   2.375   0.774  0.1512  0.7281  0.5110
  357MPD2    H3 5405   0.281   2.518   0.567 -1.7699  1.5977 -1.5149
  357MPD2     N 5406   4.573   2.562   0.618 -0.4057 -0.2713  0.6787
  357MPD2    H5 5407   4.583   2.607   0.527  0.1648  0.7447  1.2444
  357MPD2    N1 5408   0.099   2.336   0.953 -0.2227  0.8770 -0.4306
  357MPD2    H7 5409   0.194   2.310   0.978 -1.2530  1.0205  3.6107
  358TMC3    C1 5410   4.628   2.236   0.984  0.1376 -0.0807  0.5482
  358TMC3    C2 5411   4.651   2.150   0.881 -0.6869  0.0094  0.4608
  358TMC3    C3 5412   4.539   2.098   0.826  0.1062 -0.3827 -0.0600
  358TMC3    C4 5413   4.506   2.259   1.050  0.3842 -0.3800 -0.6494
  358TMC3    C5 5414   4.406   2.186   1.000 -0.0900 -0.2888  0.4385
  358TMC3    C6 5415   4.416   2.117   0.883 -0.3794  1.3776  0.4360
  358TMC3     C 5416   4.734   2.318   1.040  0.1483 -0.1288  0.5223
  358TMC3     O 5417   0.012   2.311   1.162  0.1013 -0.0889  0.5016
  358TMC3     H 5418   0.010   2.145   0.831 -0.6472 -0.0509  0.5425
  358TMC3    H1 5419   4.495   2.337   1.125  1.3515 -0.4755 -0.4068
  358TMC3    H2 5420   4.340   2.045   0.857  1.7652  0.0847 -2.3433
  358TMC3    C7 5421   4.273   2.196   1.049 -0.2857 -0.0716  0.2687
  358TMC3    C8 5422   4.541   2.104   0.682 -0.1678 -0.0244 -0.5834
  358TMC3    O1 5423   4.192   2.107   1.014 -0.0902  0.4991  0.7454
  358TMC3    O2 5424   4.639   2.158   0.633 -0.1871 -0.2421 -0.2856
  359MPD2     C 5425   4.691   1.874  13.005  0.1374 -0.4382 -0.4055
  359MPD2    C1 5426   4.724   1.836  12.877  0.6926 -0.1156 -0.7241
  359MPD2    C2 5427   4.681   1.710  12.834  0.1150  0.3852 -0.2649
  359MPD2    C3 5428   4.603   1.626  12.910  0.7569  0.5385  0.4438
  359MPD2    C4 5429   4.572   1.665  13.038 -0.5661 -1.0289  0.0887
  359MPD2    C5 5430   4.610   1.789  13.084 -0.2385  0.6145  0.1430
  359MPD2     H 5431   4.724   1.677  12.740 -0.1088 -1.0577  0.1394
  359MPD2    H1 5432   4.526   1.587  13.097 -2.2905 -0.1546 -0.0775
  359MPD2    H2 5433   4.717   1.965  13.057  3.0400 -1.8478  0.6022
  359MPD2    H3 5434   4.576   1.824  13.181 -2.1665  0.2296 -0.3754
  359MPD2     N 5435   4.569   1.494  12.875 -0.0678  0.3249  0.0322
  359MPD2    H5 5436   4.527   1.436  12.947 -0.3147  0.7853  0.2629
  359MPD2    N1 5437   0.050   1.918  12.778  0.3127 -0.1379 -0.2201
  359MPD2    H7 5438   0.048   1.884  12.682 -0.3942 -1.1364  0.1461
  360TMC3    C1 5439   0.185   2.075  12.685 -0.4935 -0.2501  0.3248
  360TMC3    C2 5440   0.309   2.136  12.695  0.3860  0.1958 -0.6737
  360TMC3    C3 5441   0.374   2.172  12.576  0.0752  0.1750  0.1324
  360TMC3    C4 5442   0.118   2.058  12.565  0.0896  0.5314  0.4232
  360TMC3    C5 5443   0.189   2.101  12.455  0.0447  0.4095 -0.0823
  360TMC3    C6 5444   0.313   2.158  12.454  0.1684 -0.1786  0.1185
  360TMC3     C 5445   0.115   2.028  12.808 -0.3769  0.1266  0.2576
  360TMC3     O 5446   0.159   2.058  12.919 -0.4427  0.7631  0.4383
  360TMC3     H 5447   0.369   2.128  12.785 -2.7887  0.1098  1.4297
  360TMC3    H1 5448   0.031   1.995  12.552 -1.1760  1.8804  2.1857
  360TMC3    H2 5449   0.351   2.202  12.363  2.4988 -1.0976  0.6316
  360TMC3    C7 5450   0.117   2.091  12.327 -0.2655 -0.5347  0.4575
  360TMC3    C8 5451   0.500   2.234  12.584  0.5291 -0.0010  0.2053
  360TMC3    O1 5452   0.180   2.125  12.229 -0.4260  0.6167  0.4681
  360TMC3    O2 5453   0.507   2.313  12.676  0.3378  0.2399 -0.1284
  361MPD2     C 5454   2.011   0.988  17.244 -0.2138 -0.3376  1.0446
  361MPD2    C1 5455   1.984   0.870  17.175  0.1960  0.3397  0.3840
  361MPD2    C2 5456   2.089   0.779  17.168  0.2719  0.4255 -0.6916
  361MPD2    C3 5457   2.207   0.799  17.233  0.0006  0.0489  0.1002
  361MPD2    C4 5458   2.216   0.905  17.322 -0.4821 -0.2650  1.0880
  361MPD2    C5 5459   2.124   0.996  17.317 -0.3996 -0.2824  0.7344
  361MPD2     H 5460   2.066   0.691  17.109 -0.2229 -0.4451  0.8006
  361MPD2    H1 5461   2.296   0.921  17.394 -0.7177  1.5154  0.9607
  361MPD2    H2 5462   1.946   1.074  17.251 -2.1777 -1.5575 -1.8662
  361MPD2    H3 5463   2.137   1.078  17.387  2.7245 -0.8605  0.8553
  361MPD2     N 5464   2.316   0.710  17.235  0.3429 -0.1277 -0.1186
  361MPD2    H5 5465   2.395   0.733  17.295  0.1476 -0.1260  0.1382
  361MPD2    N1 5466   1.865   0.845  17.109 -0.2017  0.3141 -0.2188
  361MPD2    H7 5467   1.854   0.763  17.050 -1.4537 -1.0974  1.9570
  362TMC3    C1 5468   1.638   0.832  17.075  0.1090 -0.3541  1.1741
  362TMC3    C2 5469   1.520   0.829  17.135  0.7210 -0.6182 -0.1214
  362TMC3    C3 5470   1.434   0.733  17.102 -0.0238 -1.2809 -0.5366
  362TMC3    C4 5471   1.662   0.765  16.961  0.2989 -0.2390  0.6217
  362TMC3    C5 5472   1.571   0.677  16.917 -0.2600 -0.3840  0.6127
  362TMC3    C6 5473   1.460   0.660  16.988 -0.1705  0.5474 -0.2125
  362TMC3     C 5474   1.746   0.910  17.138 -0.8048 -0.2406  1.0812
  362TMC3     O 5475   1.715   1.008  17.209  0.1924 -0.3345  0.2941
  362TMC3     H 5476   1.499   0.906  17.209  0.7673 -1.6044  0.9238
  362TMC3    H1 5477   1.741   0.805  16.898  0.5295 -1.8578 -0.1188
  362TMC3    H2 5478   1.396   0.579  16.956 -0.2251 -0.5085  2.6456
  362TMC3    C7 5479   1.543   0.672  16.774 -0.1987 -0.1543 -0.0187
  362TMC3    C8 5480   1.290   0.731  17.135 -0.6969 -0.2009  0.5839
  362TMC3    O1 5481   1.506   0.566  16.729  0.0247 -0.0990 -0.8889
  362TMC3    O2 5482   1.226   0.635  17.093 -0.0017 -0.2189 -0.9088
  363TMC3    C1 5483   4.663   3.724   9.800  0.5542  0.0879  0.7674
  363TMC3    C2 5484   4.661   3.604   9.866 -0.0680  0.6904 -1.0670
  363TMC3    C3 5485   4.556   3.577   9.949  0.4180  0.7198  0.1622
  363TMC3    C4 5486   4.570   3.820   9.821 -0.1144 -0.2805  0.2208
  363TMC3    C5 5487   4.468   3.797   9.905 -0.2130 -0.3745 -0.3474
  363TMC3    C6 5488   4.462   3.674   9.973  0.5776  0.6742  1.7074
  363TMC3     C 5489   0.056   3.768   9.755 -0.9930 -1.2062  0.2627
  363TMC3     O 5490   0.143   3.680   9.752  0.4708  0.3235  0.2476
  363TMC3     H 5491   4.726   3.521   9.841 -2.7491 -1.1742 -1.9970
  363TMC3    H1 5492   4.554   3.900   9.750 -0.1695 -0.3149  0.1942
  363TMC3    H2 5493   4.377   3.646  10.035  0.0396 -1.4196  0.0166
  363TMC3    C7 5494   4.348   3.876   9.914 -0.1127  0.2737 -0.2044
  363TMC3    C8 5495   4.531   3.442   9.995 -0.1823 -0.2313  0.5133
  363TMC3    O1 5496   4.252   3.821   9.956 -0.5728 -0.4465 -0.4021
  363TMC3    O2 5497   4.427   3.416  10.053  0.3833 -0.3422 -0.0271
  364MPD2     C 5498   3.525   3.306  11.117 -0.0462  0.5360 -0.0692
  364MPD2    C1 5499   3.632   3.312  11.028 -0.2300 -0.0749 -0.5819
  364MPD2    C2 5500   3.743   3.233  11.062 -0.3249  0.2582 -0.3942
  364MPD2    C3 5501   3.741   3.148  11.175 -0.3616 -0.8378  0.4676
  364MPD2    C4 5502   3.629   3.135  11.255  0.2504  0.4046  0.8006
  364MPD2    C5 5503   3.525   3.219  11.222 -0.0274  0.2955  0.3180
  364MPD2     H 5504   3.828   3.237  10.995 -0.6308  0.3038 -0.7797
  364MPD2    H1 5505   3.626   3.067  11.339  1.6548 -0.4071  0.1902
  364MPD2    H2 5506   3.434   3.360  11.096  0.6339  1.2490 -1.2243
  364MPD2    H3 5507   3.430   3.200  11.271 -1.4765  1.5036 -2.0263
  364MPD2     N 5508   3.848   3.067  11.216  0.6387  0.0882 -0.9697
  364MPD2    H5 5509   3.844   3.047  11.316 -2.2708 -0.9216 -1.2665
  364MPD2    N1 5510   3.617   3.396  10.916  0.2393  0.3605 -0.3361
  364MPD2    H7 5511   3.538   3.459  10.908 -0.3896 -0.5118 -0.8937
  365TMC3    C1 5512   3.668   3.500  10.721 -0.6386  0.1068 -0.4431
  365TMC3    C2 5513   3.626   3.438  10.605  0.3495 -0.7709  0.5178
  365TMC3    C3 5514   3.525   3.504  10.546  0.2531 -0.2736  0.4582
  365TMC3    C4 5515   3.609   3.610  10.784 -0.9181  0.1118  0.4723
  365TMC3    C5 5516   3.505   3.662  10.718  0.2012 -0.1123 -0.1699
  365TMC3    C6 5517   3.469   3.620  10.594 -0.4875  0.2673  0.1813
  365TMC3     C 5518   3.709   3.397  10.810 -0.1537  0.5499 -0.6528
  365TMC3     O 5519   3.811   3.337  10.784  0.7703 -0.0705  0.3572
  365TMC3     H 5520   3.656   3.337  10.578 -0.8272 -0.4196 -2.0154
  365TMC3    H1 5521   3.663   3.665  10.859  0.0708  1.9242 -1.5654
  365TMC3    H2 5522   3.382   3.660  10.543 -2.1882 -1.1028  1.9888
  365TMC3    C7 5523   3.391   3.687  10.802  0.6675  0.4272  0.7819
  365TMC3    C8 5524   3.474   3.454  10.412  0.1409 -0.7340  0.6558
  365TMC3    O1 5525   3.289   3.712  10.739  0.2449  0.4907  0.2866
  365TMC3    O2 5526   3.421   3.534  10.334 -0.1628  0.5067 -0.5537
  366MPD2     C 5527   1.854   3.865  15.263  0.2070 -0.3522  0.1605
  366MPD2    C1 5528   1.981   3.892  15.226 -0.5516  0.3375 -0.2131
  366MPD2    C2 5529   2.069   3.788  15.207 -0.4852  0.3269 -0.6076
  366MPD2    C3 5530   2.033   3.658  15.244  0.2821 -0.8674 -0.2381
  366MPD2    C4 5531   1.900   3.635  15.276  0.7319 -0.5783 -0.0364
  366MPD2    C5 5532   1.814   3.737  15.284  0.0773  1.0712 -0.3877
  366MPD2     H 5533   2.164   3.806  15.158  0.0265 -0.2216  0.2039
  366MPD2    H1 5534   1.869   3.544  15.326 -0.0199  0.2987  1.0829
  366MPD2    H2 5535   1.779   3.942  15.274 -1.5751 -1.7902 -1.7392
  366MPD2    H3 5536   1.713   3.720  15.318  0.1204  2.5417  0.4543
  366MPD2     N 5537   2.124   3.558  15.226  0.3134 -0.1153  0.4606
  366MPD2    H5 5538   2.217   3.587  15.196  0.5172 -0.1767  1.0305
  366MPD2    N1 5539   2.033   4.020  15.218  0.4053 -0.1087 -0.1415
  366MPD2    H7 5540   2.133   4.026  15.202  0.1202  2.6946 -0.8334
  367TMC3    C1 5541   2.038   4.258  15.224 -0.3428 -0.6052 -0.0053
  367TMC3    C2 5542   2.132   4.253  15.327  0.0224  0.9176  0.2873
  367TMC3    C3 5543   2.179   4.370  15.376  0.3245  0.3270  0.0123
  367TMC3    C4 5544   1.981   4.371  15.178 -0.1251  0.3493  0.5626
  367TMC3    C5 5545   2.014   4.484  15.246 -0.0067  0.5384  0.0224
  367TMC3    C6 5546   2.116   4.489  15.338  0.6041  0.0241 -0.2877
  367TMC3     C 5547   1.956   4.137  15.217  0.0434 -0.6006 -0.2766
  367TMC3     O 5548   1.838   4.145  15.189  0.0177 -0.0669 -0.1730
  367TMC3     H 5549   2.167   4.160  15.368 -0.0402 -0.0928 -1.9404
  367TMC3    H1 5550   1.893   4.354  15.118 -0.6893 -2.3766  2.1928
  367TMC3    H2 5551   2.146   4.578  15.393  3.3849 -1.6222  0.8504
  367TMC3    C7 5552   1.886   4.537  15.287 -0.6385 -0.4224 -0.2991
  367TMC3    C8 5553   2.283   4.355  15.470 -0.1049  0.0930 -0.2453
  367TMC3    O1 5554   1.854   4.515  15.401  0.3004  0.4148  0.3371
  367TMC3    O2 5555   2.322   4.240  15.506  0.3547 -0.2581 -0.8976
  368MPD2     C 5556   2.985   0.805  13.270  0.4829  0.4285  0.0217
  368MPD2    C1 5557   3.001   0.915  13.192 -0.5441 -0.4449 -0.9036
  368MPD2    C2 5558   3.101   0.920  13.100 -0.2593 -0.5373  0.5757
  368MPD2    C3 5559   3.187   0.804  13.086 -0.5715 -0.0462  0.1575
  368MPD2    C4 5560   3.175   0.695  13.174 -0.3766  0.4690 -0.7019
  368MPD2    C5 5561   3.059   0.688  13.247  0.1138  0.0179  0.0567
  368MPD2     H 5562   3.134   1.014  13.058 -0.6914 -0.6979 -0.1299
  368MPD2    H1 5563   3.240   0.609  13.176  0.3011  0.9690 -1.2510
  368MPD2    H2 5564   2.907   0.811  13.345  1.1011  1.3241  0.6009
  368MPD2    H3 5565   3.043   0.606  13.316 -2.1995  0.4738  0.0743
  368MPD2     N 5566   3.306   0.821  13.012  0.0082  0.1105  0.1362
  368MPD2    H5 5567   3.378   0.752  13.030 -1.1280 -1.4316 -1.3786
  368MPD2    N1 5568   2.910   1.024  13.214 -0.4690 -0.1860  0.3850
  368MPD2    H7 5569   2.849   1.008  13.293 -1.8122 -0.8931 -0.7863
  369TMC3    C1 5570   2.818   1.240  13.211 -0.5200 -0.6619  0.2831
  369TMC3    C2 5571   2.871   1.366  13.207 -0.4054 -0.7551 -0.3696
  369TMC3    C3 5572   2.822   1.460  13.292 -0.0741 -0.1417 -0.2684
  369TMC3    C4 5573   2.738   1.198  13.310  0.2531 -0.1908 -0.2250
  369TMC3    C5 5574   2.681   1.298  13.379 -0.4280  0.4227  0.5845
  369TMC3    C6 5575   2.718   1.430  13.372 -0.5669 -0.5057  0.0817
  369TMC3     C 5576   2.906   1.145  13.150 -0.2514  0.3063 -1.0371
  369TMC3     O 5577   2.964   1.182  13.051  0.0052  0.0542 -0.3361
  369TMC3     H 5578   2.946   1.391  13.133  0.7218 -0.8604  0.7486
  369TMC3    H1 5579   2.704   1.095  13.317  0.6531 -0.2309  1.0516
  369TMC3    H2 5580   2.655   1.515  13.395 -0.5763 -0.5417  0.1898
  369TMC3    C7 5581   2.563   1.254  13.446 -0.7208  0.3310 -0.2091
  369TMC3    C8 5582   2.861   1.597  13.275  0.3462 -0.3599 -0.2864
  369TMC3    O1 5583   2.522   1.144  13.414  0.0702 -0.1294  0.1782
  369TMC3    O2 5584   2.929   1.617  13.175 -0.2457  0.5812  0.1707
  370TMC3    C1 5585   3.087   1.785  16.297 -0.0214  0.1681  0.2949
  370TMC3    C2 5586   3.038   1.700  16.394 -0.0445  0.8134 -0.0777
  370TMC3    C3 5587   3.039   1.566  16.362  0.3338 -0.2273 -0.4629
  370TMC3    C4 5588   3.122   1.744  16.171  0.1578 -0.7829  1.0373
  370TMC3    C5 5589   3.114   1.608  16.139  0.8243 -0.1178  0.1833
  370TMC3    C6 5590   3.070   1.521  16.236  0.2494  0.7124 -0.2054
  370TMC3     C 5591   3.061   1.928  16.325  0.1649  0.1156 -0.3311
  370TMC3     O 5592   3.008   1.954  16.434  0.0469 -0.1449 -0.1147
  370TMC3     H 5593   2.997   1.745  16.484 -0.9429 -3.2071  1.5214
  370TMC3    H1 5594   3.172   1.811  16.102  1.5203 -2.1781  0.6611
  370TMC3    H2 5595   3.061   1.413  16.229 -2.1352  0.7577  2.3929
  370TMC3    C7 5596   3.162   1.570  16.007  0.4453  0.5196  0.0976
  370TMC3    C8 5597   3.006   1.473  16.467  0.1842  0.1761 -0.0998
  370TMC3    O1 5598   3.202   1.655  15.930  0.2286 -0.2305 -0.3185
  370TMC3    O2 5599   2.975   1.357  16.432 -0.3653 -0.1948  0.1957
  371TMC3    C1 5600   3.951   4.600  15.216 -0.0515  0.6307  0.2675
  371TMC3    C2 5601   3.836   4.592  15.290 -0.3573  0.2079  0.4171
  371TMC3    C3 5602   3.756   4.701  15.291 -0.0789  0.2209  0.2915
  371TMC3    C4 5603   3.986   4.715  15.144 -0.0286  0.7579  1.2251
  371TMC3    C5 5604   3.892   0.075  15.143 -0.3367  0.0026  0.6146
  371TMC3    C6 5605   3.779   0.074  15.215  0.0877 -0.9202 -0.1396
  371TMC3     C 5606   4.056   4.503  15.221  0.1447  0.2809 -0.2576
  371TMC3     O 5607   4.162   4.547  15.174 -0.6489 -0.3078 -0.4100
  371TMC3     H 5608   3.812   4.504  15.349  1.1492 -2.0457 -2.3568
  371TMC3    H1 5609   4.074   4.718  15.081 -0.3143 -3.6292  0.5871
  371TMC3    H2 5610   3.716   0.162  15.220  1.6331  0.2331 -0.9196
  371TMC3    C7 5611   3.936   0.208  15.098  1.1315  0.2108 -0.4025
  371TMC3    C8 5612   3.643   4.688  15.387  0.1668 -0.1586  0.8607
  371TMC3    O1 5613   3.904   0.301  15.169  0.5410  0.3019 -0.0232
  371TMC3    O2 5614   3.615   4.577  15.429  0.2115 -0.4271 -0.0166
  372MPD2     C 5615   3.508   1.325  12.875 -0.2773 -0.4425  0.0471
  372MPD2    C1 5616   3.597   1.273  12.964  0.0713  0.3599  0.1836
  372MPD2    C2 5617   3.551   1.219  13.085  0.1544 -0.1738  0.9513
  372MPD2    C3 5618   3.414   1.214  13.116  0.1511 -0.5163  0.4249
  372MPD2    C4 5619   3.326   1.269  13.027  0.3027 -0.2884 -0.0128
  372MPD2    C5 5620   3.370   1.314  12.906 -0.4190 -0.1887 -0.3385
  372MPD2     H 5621   3.615   1.173  13.159  0.4840  0.6432  1.1787
  372MPD2    H1 5622   3.218   1.260  13.036  0.3585  0.0836  1.0049
  372MPD2    H2 5623   3.530   1.376  12.782  0.0178  0.9541  0.8821
  372MPD2    H3 5624   3.305   1.369  12.839  0.3602  0.7442 -0.3144
  372MPD2     N 5625   3.377   1.153  13.230  0.1472  0.5575  0.5943
  372MPD2    H5 5626   3.447   1.103  13.285  1.8018  2.3176  0.0906
  372MPD2    N1 5627   3.736   1.272  12.948 -0.2741 -0.1860 -0.0843
  372MPD2    H7 5628   3.787   1.228  13.024 -0.1754 -0.9965 -0.6212
  373TMC3    C1 5629   3.240   1.070  13.408  0.4697 -0.0203 -0.4487
  373TMC3    C2 5630   3.165   1.109  13.514 -0.6455 -0.8710 -0.4058
  373TMC3    C3 5631   3.159   1.043  13.633 -0.3058  0.6332  0.0091
  373TMC3    C4 5632   3.309   0.955  13.416 -0.0425 -0.7343  0.3353
  373TMC3    C5 5633   3.289   0.877  13.528  0.4068 -0.3788 -0.5206
  373TMC3    C6 5634   3.215   0.919  13.635 -0.3917 -0.0057 -0.3180
  373TMC3     C 5635   3.259   1.160  13.295 -0.8110 -0.0698 -0.0044
  373TMC3     O 5636   3.168   1.237  13.279  0.2812 -0.3442 -0.6784
  373TMC3     H 5637   3.101   1.197  13.509  0.2351 -0.1904  0.1352
  373TMC3    H1 5638   3.361   0.927  13.325 -2.8383 -0.1553 -1.4049
  373TMC3    H2 5639   3.201   0.867  13.729  0.4929 -1.1309 -0.8010
  373TMC3    C7 5640   3.381   0.761  13.539  0.2583  0.2987 -0.2352
  373TMC3    C8 5641   3.049   1.094  13.723  0.4007  0.9499  0.0834
  373TMC3    O1 5642   3.417   0.705  13.437  0.0749 -0.0216  0.9203
  373TMC3    O2 5643   2.953   1.146  13.667  0.3962 -0.0821  0.5660
  374TMC3    C1 5644   3.638   1.468  10.438  0.1508 -0.2618  0.0293
  374TMC3    C2 5645   3.648   1.576  10.517 -0.2708  0.2289  0.4090
  374TMC3    C3 5646   3.560   1.684  10.505 -0.6387 -0.5646 -1.0384
  374TMC3    C4 5647   3.553   1.470  10.334  0.3124  0.6064  0.0074
  374TMC3    C5 5648   3.459   1.571  10.328 -0.4126  0.3771 -0.0662
  374TMC3    C6 5649   3.457   1.671  10.417 -0.2044 -0.3085 -0.4885
  374TMC3     C 5650   3.751   1.382  10.425  0.1827 -0.4844  0.0091
  374TMC3     O 5651   3.856   1.429  10.460  0.1035 -0.3429  0.5650
  374TMC3     H 5652   3.727   1.576  10.591 -1.0378  1.6289  1.2259
  374TMC3    H1 5653   3.568   1.399  10.253 -1.2978  1.7909 -1.3406
  374TMC3    H2 5654   3.390   1.756  10.419 -0.4289 -0.5141  1.0090
  374TMC3    C7 5655   3.370   1.579  10.215  0.6815  0.1548 -1.1416
  374TMC3    C8 5656   3.591   1.819  10.556 -0.7871  0.1381 -0.2697
  374TMC3    O1 5657   3.331   1.688  10.176 -0.1470 -0.6573 -0.6653
  374TMC3    O2 5658   3.548   1.917  10.499  0.9041  0.0780 -0.1727
  375MPD2     C 5659   4.471   2.190  16.547  0.2374 -0.2112  0.4831
  375MPD2    C1 5660   4.368   2.110  16.544  0.5580  1.1543 -0.5965
  375MPD2    C2 5661   4.368   1.998  16.468 -0.0837  0.3044  0.3547
  375MPD2    C3 5662   4.486   1.964  16.402 -0.4288  0.2737  0.1084
  375MPD2    C4 5663   4.596   2.040  16.421  0.6300  0.0826  0.6266
  375MPD2    C5 5664   4.587   2.160  16.485  0.3237  0.2429 -1.1092
  375MPD2     H 5665   4.286   1.929  16.456 -0.1536  0.0458  2.2877
  375MPD2    H1 5666   4.681   2.027  16.355  0.7737  0.4031  0.7519
  375MPD2    H2 5667   4.471   2.284  16.600 -0.6430  0.6434 -1.0230
  375MPD2    H3 5668   4.665   2.235  16.491  0.1173  0.2592  1.5726
  375MPD2     N 5669   4.508   1.845  16.326  0.0207 -0.4713 -0.3716
  375MPD2    H5 5670   4.603   1.835  16.290 -1.3812 -1.5362 -3.7385
  375MPD2    N1 5671   4.248   2.135  16.611 -0.1343 -0.1438  0.2335
  375MPD2    H7 5672   4.163   2.084  16.589  0.3965 -0.5313 -0.9304
  376TMC3    C1 5673   4.434   1.663  16.190 -0.0781 -0.1467  0.0104
  376TMC3    C2 5674   4.566   1.631  16.178  0.2696  0.1066  0.1582
  376TMC3    C3 5675   4.600   1.592  16.045  0.2143  0.1517  0.5264
  376TMC3    C4 5676   4.343   1.664  16.084  0.3654  0.7632 -1.3577
  376TMC3    C5 5677   4.389   1.624  15.954  0.5921  0.9093  0.4181
  376TMC3    C6 5678   4.521   1.595  15.934 -0.4856  0.0027 -0.1769
  376TMC3     C 5679   4.404   1.759  16.294  0.1183  0.0935  0.0585
  376TMC3     O 5680   4.286   1.765  16.326 -0.5691  0.3798  0.3104
  376TMC3     H 5681   4.626   1.622  16.268  0.5582 -2.0015 -0.2538
  376TMC3    H1 5682   4.241   1.690  16.111  0.0138 -1.3149 -0.6966
  376TMC3    H2 5683   4.564   1.590  15.834 -0.7209  3.5839 -0.4535
  376TMC3    C7 5684   4.301   1.662  15.842  0.2269  0.2264 -0.4993
  376TMC3    C8 5685   0.009   1.568  16.018 -0.4015 -0.5131 -0.0982
  376TMC3    O1 5686   4.185   1.688  15.877 -0.1224  0.4023 -0.2998
  376TMC3    O2 5687   0.088   1.628  16.094  0.0527  0.1271 -0.0819
  377MPD2     C 5688   2.544   1.786  13.227 -0.3772  0.2117  0.5913
  377MPD2    C1 5689   2.508   1.682  13.138 -0.6212 -0.2739 -0.1312
  377MPD2    C2 5690   2.410   1.595  13.174 -0.4219 -0.3680  0.5668
  377MPD2    C3 5691   2.354   1.608  13.297  0.7393 -0.5924  0.0694
  377MPD2    C4 5692   2.386   1.709  13.381  0.9143  0.1996 -0.4835
  377MPD2    C5 5693   2.482   1.796  13.349  0.3462  0.1534  0.2713
  377MPD2     H 5694   2.376   1.516  13.108 -3.2069  2.3556 -1.2487
  377MPD2    H1 5695   2.331   1.713  13.474  0.2830 -0.1654 -0.8412
  377MPD2    H2 5696   2.619   1.854  13.189  0.1151 -1.0811 -0.7806
  377MPD2    H3 5697   2.502   1.881  13.413  0.4223  0.4209 -0.1123
  377MPD2     N 5698   2.236   1.530  13.327  0.0328  0.6779 -0.0212
  377MPD2    H5 5699   2.179   1.572  13.399  0.2316 -0.6675  0.9289
  377MPD2    N1 5700   2.567   1.682  13.009 -0.0457  0.1596  0.5792
  377MPD2    H7 5701   2.638   1.752  12.989  0.6682 -0.6165  0.4418
  378TMC3    C1 5702   2.622   1.629  12.541 -0.3726  0.7708 -0.6937
  378TMC3    C2 5703   2.548   1.619  12.659 -0.2535  0.0701  0.0201
  378TMC3    C3 5704   2.612   1.641  12.777  0.3206  0.2836 -0.0024
  378TMC3    C4 5705   2.760   1.627  12.555 -0.4069  0.3501 -0.3123
  378TMC3    C5 5706   2.821   1.638  12.673  0.1890 -0.0708 -0.1487
  378TMC3    C6 5707   2.750   1.648  12.786  0.4295  0.1869 -0.2761
  378TMC3     C 5708   2.561   1.683  12.427 -0.7174  0.2858  0.3465
  378TMC3     O 5709   2.442   1.703  12.438  0.4079 -0.7223  0.3937
  378TMC3     H 5710   2.440   1.626  12.661 -0.2321  0.8859 -1.9134
  378TMC3    H1 5711   2.819   1.616  12.465  1.2924  1.8107  0.6194
  378TMC3    H2 5712   2.804   1.661  12.879 -0.0219 -3.7657  0.5618
  378TMC3    C7 5713   2.961   1.600  12.691  0.5364  0.4153 -0.5980
  378TMC3    C8 5714   2.530   1.606  12.892  0.7139 -0.0600 -0.6098
  378TMC3    O1 5715   3.012   1.582  12.800 -0.0148 -0.0177 -0.0893
  378TMC3    O2 5716   2.441   1.527  12.875 -0.0153 -0.3412  0.6157
  379MPD2     C 5717   3.346   4.327  16.175 -0.5680 -0.0098 -0.3727
  379MPD2    C1 5718   3.271   4.231  16.244 -0.2242 -0.3126 -0.6539
  379MPD2    C2 5719   3.332   4.160  16.352  0.2335 -0.0558 -0.0762
  379MPD2    C3 5720   3.459   4.181  16.391 -0.6724 -0.3552 -0.2045
  379MPD2    C4 5721   3.534   4.279  16.322  0.0858  0.3961  0.4222
  379MPD2    C5 5722   3.474   4.350  16.217  0.1350  0.2731 -0.1030
  379MPD2     H 5723   3.278   4.086  16.409 -0.1717 -0.0751 -0.4858
  379MPD2    H1 5724   3.638   4.303  16.340  0.1238 -0.5088  1.3552
  379MPD2    H2 5725   3.305   4.387  16.094 -1.7130 -0.2755  0.0156
  379MPD2    H3 5726   3.532   4.429  16.171  0.5112  0.1653  0.1848
  379MPD2     N 5727   3.513   4.112  16.499  0.9533  0.2879 -0.6885
  379MPD2    H5 5728   3.614   4.115  16.504  1.1296 -1.9174 -2.5243
  379MPD2    N1 5729   3.132   4.208  16.208 -0.1649  0.5583 -0.6600
  379MPD2    H7 5730   3.086   4.276  16.148  1.1175  2.3658  0.3728
  380TMC3    C1 5731   2.944   4.090  16.147 -0.2468  0.5319 -0.6663
  380TMC3    C2 5732   2.915   3.966  16.102 -0.4213 -0.2138 -0.0254
  380TMC3    C3 5733   2.842   3.955  15.990 -0.3871 -0.0652  0.2640
  380TMC3    C4 5734   2.890   4.202  16.095  0.0967  0.0557  0.3514
  380TMC3    C5 5735   2.799   4.186  15.988 -0.1353 -0.0279 -0.1750
  380TMC3    C6 5736   2.780   4.062  15.930 -0.3027 -0.1070  0.2751
  380TMC3     C 5737   3.057   4.100  16.237 -0.1960 -0.5394 -0.0699
  380TMC3     O 5738   3.079   4.001  16.307  0.8154  0.3586  0.0618
  380TMC3     H 5739   2.963   3.876  16.140 -0.2479 -0.1114 -0.0013
  380TMC3    H1 5740   2.903   4.300  16.139  1.1144 -0.2841  0.8258
  380TMC3    H2 5741   2.713   4.041  15.847 -0.6571  0.9045  0.3041
  380TMC3    C7 5742   2.777   4.309  15.908  0.0125  0.3952  0.2140
  380TMC3    C8 5743   2.920   3.875  15.900 -1.1939  0.7233 -0.3208
  380TMC3    O1 5744   2.853   4.403  15.928 -0.1145 -0.3109 -0.0479
  380TMC3    O2 5745   3.041   3.879  15.925 -0.7773 -0.0426 -0.5613
  381TMC3    C1 5746   2.831   0.902  16.185  0.2060  0.0491  0.2294
  381TMC3    C2 5747   2.940   0.988  16.171 -0.2034  0.8264 -0.1811
  381TMC3    C3 5748   2.995   1.042  16.280 -0.6794  0.1712 -0.0212
  381TMC3    C4 5749   2.776   0.875  16.308  0.8706  0.1984  0.6718
  381TMC3    C5 5750   2.831   0.938  16.413 -0.0441 -0.6134  0.2457
  381TMC3    C6 5751   2.942   1.018  16.401  0.3616  0.8122  0.0305
  381TMC3     C 5752   2.833   0.786  16.101 -0.4545  0.1961 -0.3971
  381TMC3     O 5753   2.814   0.674  16.149 -0.3879 -0.0778 -0.3741
  381TMC3     H 5754   2.988   0.998  16.075 -1.3866 -1.2374 -0.9880
  381TMC3    H1 5755   2.700   0.798  16.320  0.1122  0.5928 -1.6054
  381TMC3    H2 5756   2.989   1.046  16.495  1.5183  0.7259 -0.5269
  381TMC3    C7 5757   2.802   0.864  16.532 -0.5565 -0.0543 -0.1326
  381TMC3    C8 5758   3.130   1.084  16.271  0.9134 -0.5186  0.4582
  381TMC3    O1 5759   2.815   0.743  16.528  0.3071 -0.1373  0.0822
  381TMC3    O2 5760   3.181   1.028  16.172 -0.1203 -0.1877  0.2284
  382MPD2     C 5761   1.913   3.259  16.923  0.0137  0.1750  0.0622
  382MPD2    C1 5762   2.021   3.257  17.009 -0.3582  0.3642  0.3752
  382MPD2    C2 5763   2.070   3.133  17.051  0.6021 -0.0412 -0.1129
  382MPD2    C3 5764   2.001   3.015  17.012  0.2915  0.3212  0.7489
  382MPD2    C4 5765   1.890   3.019  16.932  0.3504 -1.0063 -0.4993
  382MPD2    C5 5766   1.848   3.144  16.895  0.3358  0.3080  0.5436
  382MPD2     H 5767   2.148   3.118  17.124  1.3100 -0.8148 -1.0312
  382MPD2    H1 5768   1.839   2.932  16.893 -0.5877  0.6903 -3.0164
  382MPD2    H2 5769   1.874   3.351  16.882 -0.7031  0.1609  0.7094
  382MPD2    H3 5770   1.757   3.155  16.837  0.8094 -1.1296 -0.4844
  382MPD2     N 5771   2.042   2.888  17.060 -0.1750  0.0156  0.1245
  382MPD2    H5 5772   1.981   2.814  17.028  0.7260  0.1622 -1.9042
  382MPD2    N1 5773   2.092   3.371  17.051 -0.1638  0.1586  0.1558
  382MPD2    H7 5774   2.177   3.356  17.104  0.6872  0.3772 -1.1411
  383TMC3    C1 5775   2.152   2.715  17.164  0.6020  0.8958  0.0587
  383TMC3    C2 5776   2.030   2.649  17.171  0.0133 -0.0552 -0.3414
  383TMC3    C3 5777   2.014   2.534  17.246  0.5541 -0.4446 -0.1181
  383TMC3    C4 5778   2.255   2.671  17.241 -0.0036  0.2399  0.3814
  383TMC3    C5 5779   2.237   2.561  17.311  0.0552 -0.5907 -0.1340
  383TMC3    C6 5780   2.118   2.490  17.318 -0.0575 -1.2166 -0.0487
  383TMC3     C 5781   2.150   2.855  17.143  0.1889 -0.5744 -0.4660
  383TMC3     O 5782   2.231   2.924  17.203 -0.2715  0.0428  0.3399
  383TMC3     H 5783   1.939   2.672  17.117  0.5963 -1.7633 -2.0150
  383TMC3    H1 5784   2.341   2.735  17.254  0.2926  0.0140 -0.4689
  383TMC3    H2 5785   2.115   2.397  17.374 -1.4125 -2.1275 -1.6354
  383TMC3    C7 5786   2.355   2.496  17.350 -0.2094 -0.0359 -0.6058
  383TMC3    C8 5787   1.875   2.480  17.256 -0.3298  0.1262 -0.5136
  383TMC3    O1 5788   2.348   2.412  17.441  0.0764 -0.0652 -0.2968
  383TMC3    O2 5789   1.798   2.497  17.162 -0.3719  0.0922 -0.0844
  384MPD2     C 5790   3.839   4.414  11.770 -0.6609 -0.6953  0.3864
  384MPD2    C1 5791   3.769   4.375  11.883 -0.0617  1.0923  0.5440
  384MPD2    C2 5792   3.824   4.266  11.946  0.8691 -0.0056  0.2498
  384MPD2    C3 5793   3.954   4.219  11.927  0.5399 -0.0662  0.4372
  384MPD2    C4 5794   4.022   4.268  11.820 -0.0424  0.3141  0.1320
  384MPD2    C5 5795   3.963   4.364  11.750  0.0191  0.9430 -0.2108
  384MPD2     H 5796   3.770   4.223  12.030  0.5844  0.8292  0.4919
  384MPD2    H1 5797   4.118   4.234  11.783 -0.5137  0.1320 -0.9294
  384MPD2    H2 5798   3.805   4.497  11.709  0.9926 -0.2409  0.0946
  384MPD2    H3 5799   4.013   4.400  11.660  0.1692 -1.8263 -1.2375
  384MPD2     N 5800   4.014   4.117  12.009 -0.4212 -0.0476 -0.1773
  384MPD2    H5 5801   4.111   4.093  11.991  0.2907  3.1879 -0.6981
  384MPD2    N1 5802   3.660   4.453  11.922  0.6172 -0.0448 -0.1920
  384MPD2    H7 5803   3.628   4.523  11.855  3.5065  2.3119  0.8708
  385TMC3    C1 5804   4.055   3.988  12.200 -0.5277  0.6971  0.1049
  385TMC3    C2 5805   4.016   3.882  12.278  0.1170  0.5651 -1.0532
  385TMC3    C3 5806   4.119   3.810  12.344  0.3943 -0.3195 -0.7006
  385TMC3    C4 5807   4.190   4.023  12.195 -0.3195  0.0578 -0.6523
  385TMC3    C5 5808   4.278   3.967  12.285 -1.0327  0.2434 -0.6936
  385TMC3    C6 5809   4.243   3.857  12.355 -0.4144 -0.8778  0.3434
  385TMC3     C 5810   3.956   4.065  12.126 -0.4163 -0.0342  0.6925
  385TMC3     O 5811   3.837   4.053  12.154 -0.3954 -0.3417  0.1221
  385TMC3     H 5812   3.911   3.860  12.292  0.6485 -0.5644  1.1561
  385TMC3    H1 5813   4.222   4.116  12.149 -1.7507  0.3125 -1.1466
  385TMC3    H2 5814   4.319   3.797  12.405 -0.9348 -2.1971 -0.4655
  385TMC3    C7 5815   4.374   4.054  12.337 -0.4162  0.6513  0.6126
  385TMC3    C8 5816   4.108   3.666  12.341 -0.3931 -0.5965  1.0342
  385TMC3    O1 5817   4.387   4.162  12.284 -0.4931  0.0309  0.6642
  385TMC3    O2 5818   4.198   3.591  12.378 -1.0853  0.6583 -0.1356
  386TMC3    C1 5819   3.746   1.718  12.160  0.0478 -0.6362 -0.2071
  386TMC3    C2 5820   3.716   1.693  12.028  0.1455  0.1402  0.1307
  386TMC3    C3 5821   3.603   1.745  11.975  0.6279  0.4175 -0.0391
  386TMC3    C4 5822   3.658   1.776  12.244  0.0821  0.1874  0.1361
  386TMC3    C5 5823   3.536   1.817  12.191 -0.1962  0.0449  0.1509
  386TMC3    C6 5824   3.509   1.813  12.055 -0.7101 -0.8079 -0.2751
  386TMC3     C 5825   3.881   1.698  12.208  0.6026  0.1697 -0.0825
  386TMC3     O 5826   3.922   1.766  12.303 -0.0955  0.4904  0.3447
  386TMC3     H 5827   3.799   1.656  11.968 -0.7386 -1.9964  0.2222
  386TMC3    H1 5828   3.686   1.785  12.349 -0.1943  0.4044  0.1909
  386TMC3    H2 5829   3.413   1.843  12.013  0.5611  2.3528 -0.9092
  386TMC3    C7 5830   3.441   1.853  12.289  0.0972 -0.4046 -0.4029
  386TMC3    C8 5831   3.553   1.697  11.849  0.1833 -0.5887 -0.0627
  386TMC3    O1 5832   3.486   1.911  12.387  0.2754 -0.5235 -0.2926
  386TMC3    O2 5833   3.438   1.724  11.822  0.6529  0.1211 -0.2280
  387MPD2     C 5834   0.981   2.198  10.197 -0.4972 -0.1945 -0.0358
  387MPD2    C1 5835   1.033   2.114  10.291 -0.2267 -0.7791 -0.6650
  387MPD2    C2 5836   1.018   1.978  10.285  0.0525  0.3011 -0.2517
  387MPD2    C3 5837   0.951   1.929  10.180  0.0935 -0.5506  0.6316
  387MPD2    C4 5838   0.892   2.008  10.083  0.2879  0.2967  0.1141
  387MPD2    C5 5839   0.901   2.145  10.097 -0.1137  0.8117 -0.3796
  387MPD2     H 5840   1.060   1.914  10.363 -0.1951 -0.0476 -0.4019
  387MPD2    H1 5841   0.834   1.971   9.999  2.5760 -2.8781 -0.0824
  387MPD2    H2 5842   0.992   2.305  10.200 -0.5504 -0.1696 -0.7641
  387MPD2    H3 5843   0.854   2.213  10.027  0.9049  2.4230  0.5028
  387MPD2     N 5844   0.946   1.788  10.167 -0.0185  0.4528  0.5085
  387MPD2    H5 5845   0.997   1.726  10.230 -1.6361 -0.5039  0.8719
  387MPD2    N1 5846   1.122   2.157  10.394  0.4174  0.5084  0.6045
  387MPD2    H7 5847   1.158   2.091  10.463 -0.1132 -0.1791  0.2075
  388TMC3    C1 5848   1.324   2.253  10.459  0.1536  0.2364 -0.1230
  388TMC3    C2 5849   1.393   2.359  10.511  0.0660  0.2194 -0.2395
  388TMC3    C3 5850   1.508   2.324  10.583  0.2615  0.6443 -0.0825
  388TMC3    C4 5851   1.363   2.126  10.464 -0.4142  0.0861 -0.3788
  388TMC3    C5 5852   1.474   2.096  10.540 -0.0980 -0.1894  0.3207
  388TMC3    C6 5853   1.549   2.195  10.598 -0.7231 -0.3615 -0.1254
  388TMC3     C 5854   1.192   2.279  10.397  0.4723 -0.4013 -0.8437
  388TMC3     O 5855   1.178   2.385  10.338 -0.4131  0.1423 -0.8112
  388TMC3     H 5856   1.357   2.461  10.508 -1.4680 -0.3417 -1.2190
  388TMC3    H1 5857   1.329   2.054  10.390  0.4239 -1.0182  0.3136
  388TMC3    H2 5858   1.643   2.181  10.650 -0.4359  1.3085 -0.2085
  388TMC3    C7 5859   1.542   1.971  10.510 -0.4040  0.0995 -0.0116
  388TMC3    C8 5860   1.563   2.436  10.660  0.4811  0.0898 -0.7102
  388TMC3    O1 5861   1.664   1.975  10.495  0.3483  0.0773  0.2914
  388TMC3    O2 5862   1.613   2.386  10.763  0.5705  0.9269  0.2950
  389MPD2     C 5863   0.839   0.302  10.908  0.0141  1.0614 -0.7223
  389MPD2    C1 5864   0.734   0.237  10.857  0.3296 -0.2803 -0.1432
  389MPD2    C2 5865   0.668   0.146  10.935 -0.6827  0.2413  0.5595
  389MPD2    C3 5866   0.719   0.123  11.063 -0.7369 -0.3142  0.1782
  389MPD2    C4 5867   0.825   0.190  11.114  0.6300 -0.1162  0.4622
  389MPD2    C5 5868   0.887   0.283  11.034 -0.2299  0.0196  0.0900
  389MPD2     H 5869   0.584   0.086  10.901 -0.4980 -1.2342  2.6882
  389MPD2    H1 5870   0.858   0.176  11.217 -1.1853 -0.2185  1.0240
  389MPD2    H2 5871   0.874   0.382  10.843  0.7081  0.3859 -1.1793
  389MPD2    H3 5872   0.971   0.339  11.072  2.1981 -3.3331 -0.3820
  389MPD2     N 5873   0.662   0.034  11.154  0.2234 -0.0308  0.2293
  389MPD2    H5 5874   0.704   0.036  11.247 -0.3248  0.6769  0.4583
  389MPD2    N1 5875   0.694   0.268  10.723 -0.1245  0.1192  0.1892
  389MPD2    H7 5876   0.752   0.334  10.672  1.9118 -1.8482 -0.0416
  390TMC3    C1 5877   0.485   4.657  11.264 -0.0431 -0.6863 -0.5624
  390TMC3    C2 5878   0.356   4.612  11.260 -0.3124  0.4314 -0.1963
  390TMC3    C3 5879   0.302   4.555  11.377  0.0682  0.2648  0.2836
  390TMC3    C4 5880   0.541   4.681  11.389 -0.0736 -0.0989  0.2611
  390TMC3    C5 5881   0.477   4.643  11.502  0.3603  0.2937 -0.6687
  390TMC3    C6 5882   0.362   4.576  11.501  0.2753 -0.0067 -0.6330
  390TMC3     C 5883   0.541   4.699  11.136  0.3668 -0.6022 -0.7175
  390TMC3     O 5884   0.475   4.687  11.034  0.3236 -0.6429 -0.4246
  390TMC3     H 5885   0.292   4.627  11.174 -0.7854  2.9052  0.5885
  390TMC3    H1 5886   0.635   4.736  11.393  0.6822 -1.3304 -0.5165
  390TMC3    H2 5887   0.313   4.536  11.589 -0.9284  0.4674 -1.0912
  390TMC3    C7 5888   0.550   4.665  11.624 -0.1160  0.6025  0.6041
  390TMC3    C8 5889   0.175   4.496  11.376  0.1958 -0.4394  0.0229
  390TMC3    O1 5890   0.668   4.695  11.623  0.0486  0.4930  0.2999
  390TMC3    O2 5891   0.127   4.497  11.491  0.0089 -0.4231  0.0573
  391MPD2     C 5892   4.482   1.549  11.883  0.0275  0.3042  0.5127
  391MPD2    C1 5893   4.543   1.664  11.835  0.5119 -0.4033  0.5266
  391MPD2    C2 5894   4.502   1.719  11.716 -0.4888 -0.5857 -0.5901
  391MPD2    C3 5895   4.412   1.653  11.637 -0.3463 -0.0048 -0.6023
  391MPD2    C4 5896   4.347   1.543  11.688  0.6528  0.0911 -0.7537
  391MPD2    C5 5897   4.375   1.499  11.814  0.0547 -0.3848 -0.4418
  391MPD2     H 5898   4.540   1.813  11.678  0.5934 -0.2887  1.2386
  391MPD2    H1 5899   4.270   1.487  11.635 -2.3698  1.8781  1.7343
  391MPD2    H2 5900   4.517   1.501  11.973  1.1122  0.8031  0.3494
  391MPD2    H3 5901   4.319   1.419  11.861 -3.9717  1.6926 -1.6443
  391MPD2     N 5902   4.374   1.717  11.513  0.0287 -0.1987 -0.0689
  391MPD2    H5 5903   4.422   1.804  11.493 -0.6581  0.3055  0.4862
  391MPD2    N1 5904   4.648   1.723  11.905  0.2805  0.1689 -0.8377
  391MPD2    H7 5905   4.654   1.697  12.003 -0.7692 -1.1046 -1.1196
  392TMC3    C1 5906   4.277   1.760  11.305 -0.0596  0.3304  0.0842
  392TMC3    C2 5907   4.162   1.764  11.236 -0.1877  0.2973  0.0620
  392TMC3    C3 5908   4.161   1.852  11.127  0.1518  0.1397 -0.0942
  392TMC3    C4 5909   4.395   1.834  11.268  0.5325 -0.2161  0.5316
  392TMC3    C5 5910   4.387   1.915  11.152  0.2900 -0.0322 -0.1010
  392TMC3    C6 5911   4.264   1.935  11.094 -0.2878 -0.5159 -0.3693
  392TMC3     C 5912   4.284   1.674  11.420  0.7407 -0.2169  0.2754
  392TMC3     O 5913   4.203   1.578  11.432 -0.0158 -0.0139  0.0828
  392TMC3     H 5914   4.076   1.703  11.261 -0.2939 -0.6641 -2.6462
  392TMC3    H1 5915   4.490   1.814  11.316 -0.2990 -0.4740  2.0429
  392TMC3    H2 5916   4.256   2.003  11.010  2.8475 -0.5817 -0.7089
  392TMC3    C7 5917   4.515   1.957  11.098  0.1006 -0.0271 -0.3378
  392TMC3    C8 5918   4.045   1.850  11.038  0.1095  0.1297 -0.3371
  392TMC3    O1 5919   4.614   1.942  11.170 -0.7512  0.1816  0.0894
  392TMC3    O2 5920   3.980   1.742  11.043 -0.2434  0.6031 -0.4156
  393TMC3    C1 5921   3.257   4.364  10.767  0.6912 -0.5401 -0.5376
  393TMC3    C2 5922   3.170   4.301  10.856  0.5041 -0.0422  0.8618
  393TMC3    C3 5923   3.213   4.192  10.923  0.6622  0.4532  1.0223
  393TMC3    C4 5924   3.373   4.309  10.731  0.0337  0.0135  0.0591
  393TMC3    C5 5925   3.415   4.195  10.794  0.2681  0.1164  0.2020
  393TMC3    C6 5926   3.333   4.138  10.897  0.8257 -0.2815 -0.6316
  393TMC3     C 5927   3.220   4.497  10.717 -0.8059  0.6393 -0.4610
  393TMC3     O 5928   3.313   4.564  10.670 -0.3789 -0.1095 -0.5996
  393TMC3     H 5929   3.081   4.353  10.891 -0.2390  0.0177 -1.1551
  393TMC3    H1 5930   3.440   4.353  10.658  0.6558 -1.0898 -0.0312
  393TMC3    H2 5931   3.368   4.045  10.940  1.1896  1.0545  1.9919
  393TMC3    C7 5932   3.497   4.094  10.715 -0.2741  0.3317 -0.0640
  393TMC3    C8 5933   3.138   4.161  11.047  0.2877 -0.1293 -0.4888
  393TMC3    O1 5934   3.470   3.979  10.746 -0.0789  0.5835  0.1477
  393TMC3    O2 5935   3.045   4.232  11.078 -0.1875 -0.4607  0.3833
  394TMC3    C1 5936   0.586   0.239  10.508 -0.8047  0.0588  0.6113
  394TMC3    C2 5937   0.527   0.150  10.424 -0.1613 -0.5180  0.1909
  394TMC3    C3 5938   0.529   0.186  10.294 -0.0856  0.5211  0.5374
  394TMC3    C4 5939   0.653   0.360  10.473  0.0036 -0.1827 -0.4620
  394TMC3    C5 5940   0.632   0.395  10.340 -0.1077  0.8904  0.2042
  394TMC3    C6 5941   0.576   0.310  10.250  0.6320  0.2314  0.2754
  394TMC3     C 5942   0.596   0.201  10.645  0.4779 -0.0103  0.2055
  394TMC3     O 5943   0.515   0.119  10.686 -0.1114 -0.5930 -0.1245
  394TMC3     H 5944   0.473   0.067  10.469  0.0945 -0.9384 -0.2804
  394TMC3    H1 5945   0.657   0.445  10.540 -0.0690  0.1190 -0.8387
  394TMC3    H2 5946   0.589   0.324  10.143  0.9107 -2.8032 -0.0853
  394TMC3    C7 5947   0.597   0.532  10.327 -0.6796  0.2139 -0.5145
  394TMC3    C8 5948   0.417   0.145  10.205  0.4816  0.8698  0.2793
  394TMC3    O1 5949   0.657   0.622  10.391 -0.1530 -0.2008  0.2822
  394TMC3    O2 5950   0.368   0.238  10.136  0.2473  0.1616  0.0062
  395TMC3    C1 5951   0.581   2.094  15.073 -0.1452  0.0499  0.1431
  395TMC3    C2 5952   0.476   2.101  14.981 -0.6783 -0.2649 -0.0101
  395TMC3    C3 5953   0.509   2.171  14.865 -1.0581  0.3900  0.2114
  395TMC3    C4 5954   0.709   2.135  15.048 -0.0036 -0.1217  1.0983
  395TMC3    C5 5955   0.736   2.203  14.935  0.3053  0.0873 -0.3979
  395TMC3    C6 5956   0.638   2.216  14.840  0.1047  0.0892  0.0054
  395TMC3     C 5957   0.563   2.006  15.186  0.0395  0.1999  0.7485
  395TMC3     O 5958   0.662   1.926  15.191  0.4368 -0.0159 -0.1253
  395TMC3     H 5959   0.388   2.049  15.017 -0.5241 -0.3523  0.2433
  395TMC3    H1 5960   0.787   2.138  15.123  0.7263 -1.1304  0.3744
  395TMC3    H2 5961   0.651   2.279  14.754  2.0532 -0.8966 -0.4220
  395TMC3    C7 5962   0.860   2.271  14.922 -0.2208  0.0014 -0.5065
  395TMC3    C8 5963   0.407   2.182  14.762 -0.7496  0.6774  0.3411
  395TMC3    O1 5964   0.914   2.296  15.031 -0.2418 -0.1553  0.5608
  395TMC3    O2 5965   0.432   2.265  14.676 -0.4263 -0.1780 -0.4766
  396MPD2     C 5966   0.071   2.828  17.144  0.1708 -0.0168  0.4288
  396MPD2    C1 5967   0.177   2.874  17.218 -0.9876  0.8366 -0.0445
  396MPD2    C2 5968   0.251   2.974  17.162 -0.4275  0.9828 -0.5450
  396MPD2    C3 5969   0.221   3.033  17.047  0.2705  0.2972  0.7341
  396MPD2    C4 5970   0.118   2.985  16.972  0.3800  0.5865  0.8223
  396MPD2    C5 5971   0.037   2.886  17.024 -1.4155  0.7178  0.0228
  396MPD2     H 5972   0.337   3.011  17.217 -2.0031  1.0422  1.8524
  396MPD2    H1 5973   0.094   3.032  16.877  0.3233  1.5434  1.3132
  396MPD2    H2 5974   4.732   2.762  17.186  0.2892  0.3255  1.1655
  396MPD2    H3 5975   4.691   2.855  16.962 -0.8410  0.4134 -0.6060
  396MPD2     N 5976   0.295   3.149  17.012  0.0497  0.2087 -0.1890
  396MPD2    H5 5977   0.347   3.191  17.088 -0.1144  1.7433 -0.9323
  396MPD2    N1 5978   0.204   2.823  17.350 -0.9041  0.2577  0.1639
  396MPD2    H7 5979   0.152   2.738  17.373 -0.2231 -0.3059 -0.4125
  397TMC3    C1 5980   0.324   2.772  17.540  0.7121 -0.2416  0.2117
  397TMC3    C2 5981   0.424   2.679  17.519  0.4651  0.3934 -1.0440
  397TMC3    C3 5982   0.399   2.546  17.509 -0.1155  0.3890 -0.0722
  397TMC3    C4 5983   0.207   2.721  17.580 -0.2513 -0.2657  0.1580
  397TMC3    C5 5984   0.188   2.588  17.600 -0.0747  0.4918 -0.1144
  397TMC3    C6 5985   0.289   2.496  17.571 -0.5999  0.3677  0.5881
  397TMC3     C 5986   0.307   2.862  17.432 -0.4513 -0.3196  0.4727
  397TMC3     O 5987   0.387   2.952  17.421  0.1193  0.3192 -0.3120
  397TMC3     H 5988   0.515   2.718  17.473  0.8987  0.8734  0.2381
  397TMC3    H1 5989   0.126   2.786  17.608 -0.2826 -1.1190  2.1273
  397TMC3    H2 5990   0.276   2.390  17.590  1.3037  0.0381  0.0973
  397TMC3    C7 5991   0.060   2.549  17.642 -0.2676 -1.1014  0.3696
  397TMC3    C8 5992   0.419   2.513  17.362  0.4171 -0.2981  0.2892
  397TMC3    O1 5993   4.698   2.612  17.605 -0.0770 -0.5013 -0.4908
  397TMC3    O2 5994   0.488   2.584  17.292 -0.0068  0.2581  0.2996
  398MPD2     C 5995   3.391   3.995  17.723 -0.5838 -0.2202  0.0992
  398MPD2    C1 5996   3.426   3.959   0.099 -0.1971  0.0679  0.2859
  398MPD2    C2 5997   3.457   4.064   0.183  0.4430 -0.3769  0.7485
  398MPD2    C3 5998   3.464   4.191   0.137 -0.6502 -0.5874 -0.1570
  398MPD2    C4 5999   3.438   4.229   0.008 -0.0523  1.1537 -0.1458
  398MPD2    C5 6000   3.396   4.122  17.680  0.3563 -0.0343 -0.7656
  398MPD2     H 6001   3.483   4.048   0.287  0.6594 -0.6350  0.6576
  398MPD2    H1 6002   3.443   4.325  17.707  1.2776  1.4580  0.6033
  398MPD2    H2 6003   3.350   3.928  17.648  0.2196  0.9624 -1.3969
  398MPD2    H3 6004   3.366   4.139  17.577  1.5688  1.7228 -0.8301
  398MPD2     N 6005   3.498   4.293   0.224  0.0362  0.0971 -0.0432
  398MPD2    H5 6006   3.509   4.270   0.323  0.6417 -0.4531 -0.2416
  398MPD2    N1 6007   3.419   3.831   0.152  0.8392 -0.3499 -0.7385
  398MPD2    H7 6008   3.462   3.814   0.243  0.4852 -0.4843 -0.5957
  399TMC3    C1 6009   3.378   3.597   0.156  0.8053  0.0576 -0.5508
  399TMC3    C2 6010   3.503   3.558   0.185 -0.6371 -0.4928  0.0209
  399TMC3    C3 6011   3.526   3.423   0.192  0.1946  0.1629  0.4722
  399TMC3    C4 6012   3.273   3.508   0.146  0.0350 -0.2579  0.2840
  399TMC3    C5 6013   3.298   3.375   0.159 -0.3473 -0.1587 -0.4734
  399TMC3    C6 6014   3.429   3.331   0.184 -0.0058  0.6034 -0.1963
  399TMC3     C 6015   3.361   3.720   0.089  0.7317  0.1921 -0.4034
  399TMC3     O 6016   3.287   3.712  17.737 -0.1973 -0.1243 -0.3061
  399TMC3     H 6017   3.590   3.621   0.169 -0.9501 -0.1088 -0.1485
  399TMC3    H1 6018   3.171   3.543   0.130 -0.1287 -0.0659  1.7436
  399TMC3    H2 6019   3.443   3.227   0.209  3.4185  1.4101  1.3909
  399TMC3    C7 6020   3.197   3.271   0.167  0.1118  0.1675  1.0592
  399TMC3    C8 6021   3.663   3.389   0.226  0.6842 -0.7192 -0.1950
  399TMC3    O1 6022   3.242   3.156   0.158 -0.2479 -0.0104 -0.7366
  399TMC3    O2 6023   3.731   3.482   0.252 -0.8495  0.4655  0.4172
  400TMC3    C1 6024   1.642   2.150  17.050 -0.2484  0.0314 -0.0621
  400TMC3    C2 6025   1.552   2.062  17.008  0.7555  0.2601  0.2054
  400TMC3    C3 6026   1.460   2.102  16.916  0.1206  0.3624 -0.0278
  400TMC3    C4 6027   1.656   2.270  17.000 -0.0606 -0.2493 -0.0907
  400TMC3    C5 6028   1.575   2.308  16.897  1.1712 -0.0300  0.1239
  400TMC3    C6 6029   1.483   2.221  16.849  0.1553 -0.2796 -0.4002
  400TMC3     C 6030   1.749   2.099  17.142 -0.1985 -0.6217  0.0286
  400TMC3     O 6031   1.714   2.006  17.216  0.0559 -0.3368  0.5552
  400TMC3     H 6032   1.561   1.963  17.050  0.8841  0.3950  0.4975
  400TMC3    H1 6033   1.741   2.334  17.019 -0.4846  0.4134 -0.4152
  400TMC3    H2 6034   1.405   2.241  16.776  1.7075 -0.6515 -2.1532
  400TMC3    C7 6035   1.548   2.451  16.877  0.1859 -0.1786 -0.2945
  400TMC3    C8 6036   1.370   2.006  16.865  0.2471 -0.0457  0.1322
  400TMC3    O1 6037   1.474   2.471  16.777  0.1781  0.0580 -0.3589
  400TMC3    O2 6038   1.357   2.003  16.744  0.0853 -0.3328 -0.1121
  401MPD2     C 6039   0.784   0.986   1.261 -0.0822 -0.2516 -0.4381
  401MPD2    C1 6040   0.909   0.988   1.198 -0.5231  0.8450 -0.1494
  401MPD2    C2 6041   0.931   0.903   1.102  0.0943  1.4335  0.5980
  401MPD2    C3 6042   0.843   0.808   1.060  0.4667 -0.3725  0.5828
  401MPD2    C4 6043   0.722   0.803   1.120  0.7650  0.1250 -0.4162
  401MPD2    C5 6044   0.694   0.891   1.225 -0.1743 -0.3140  0.0063
  401MPD2     H 6045   1.027   0.910   1.053 -0.6819  2.5493 -0.7812
  401MPD2    H1 6046   0.648   0.727   1.096  1.5487 -1.2288  1.4550
  401MPD2    H2 6047   0.763   1.044   1.350  1.1912 -0.3126 -0.0973
  401MPD2    H3 6048   0.602   0.874   1.279 -1.1237  0.9006 -1.2505
  401MPD2     N 6049   0.882   0.725   0.955  0.4096  0.2012  0.4659
  401MPD2    H5 6050   0.964   0.753   0.902 -0.8691  0.8482 -1.1901
  401MPD2    N1 6051   1.016   1.081   1.223 -0.2130  0.2673  0.6685
  401MPD2    H7 6052   1.105   1.074   1.174 -1.0898  0.9252 -1.0273
  402TMC3    C1 6053   0.874   0.561   0.788 -0.2812  0.2208  0.6313
  402TMC3    C2 6054   0.857   0.429   0.767  0.2419  0.7864  0.3404
  402TMC3    C3 6055   0.898   0.374   0.645 -0.0619  0.1009 -0.1817
  402TMC3    C4 6056   0.927   0.650   0.693 -0.9875 -0.6971 -0.1811
  402TMC3    C5 6057   0.976   0.591   0.574  0.0321  0.1551  0.8530
  402TMC3    C6 6058   0.956   0.454   0.543 -0.7568  0.0314 -0.7210
  402TMC3     C 6059   0.829   0.608   0.915  0.1744 -0.2077  0.4544
  402TMC3     O 6060   0.747   0.534   0.966 -0.1386  0.7016  0.2030
  402TMC3     H 6061   0.826   0.359   0.844  0.1621 -0.5471 -0.8966
  402TMC3    H1 6062   0.934   0.756   0.711  0.5164 -0.8398  0.0691
  402TMC3    H2 6063   0.982   0.418   0.444  1.8550  1.8890 -0.6954
  402TMC3    C7 6064   1.045   0.670   0.478 -0.0115 -0.9517  0.3799
  402TMC3    C8 6065   0.904   0.227   0.642 -0.5844  0.1878  0.8215
  402TMC3    O1 6066   1.039   0.624   0.362  0.1689 -0.2722  0.3818
  402TMC3    O2 6067   0.913   0.172   0.751 -0.5603  0.2375 -0.3852
  403MPD2     C 6068   3.564   3.656  13.442  0.1882  0.2310  0.6478
  403MPD2    C1 6069   3.549   3.681  13.577 -0.1500  0.1821 -0.8222
  403MPD2    C2 6070   3.605   3.791  13.629 -0.1512 -0.6197  0.7873
  403MPD2    C3 6071   3.696   3.863  13.560 -1.4621  0.0621 -0.6308
  403MPD2    C4 6072   3.729   3.835  13.426 -0.1744  0.1175  0.5005
  403MPD2    C5 6073   3.656   3.729  13.365  0.0672  0.1701  0.6801
  403MPD2     H 6074   3.600   3.822  13.733  0.3623  1.1149  0.3088
  403MPD2    H1 6075   3.808   3.889  13.375 -2.6895  1.3849 -2.0082
  403MPD2    H2 6076   3.526   3.562  13.404  0.8384  0.8760 -1.5563
  403MPD2    H3 6077   3.680   3.698  13.264 -1.8227 -1.4121  0.6897
  403MPD2     N 6078   3.749   3.974  13.625 -0.3141  0.2478 -0.8239
  403MPD2    H5 6079   3.704   4.000  13.712  1.0611  0.8145 -0.2864
  403MPD2    N1 6080   3.475   3.590  13.654  0.4522  0.4852 -0.1399
  403MPD2    H7 6081   3.414   3.525  13.606  1.2828 -0.4631  0.1125
  404TMC3    C1 6082   3.363   3.499  13.834 -0.4675 -0.0895  0.0949
  404TMC3    C2 6083   3.345   3.484  13.968  0.0428 -0.0615 -0.6655
  404TMC3    C3 6084   3.264   3.391  14.023  0.2731  0.0024 -0.2210
  404TMC3    C4 6085   3.302   3.408  13.755 -0.5782  0.0435 -0.1827
  404TMC3    C5 6086   3.217   3.309  13.806 -0.2746 -0.5984  0.3921
  404TMC3    C6 6087   3.199   3.299  13.943  0.4353 -0.0667  0.5923
  404TMC3     C 6088   3.467   3.579  13.787 -0.2044 -0.1511 -0.6315
  404TMC3     O 6089   3.540   3.617  13.879  0.1205  0.0838 -0.2479
  404TMC3     H 6090   3.377   3.564  14.035 -0.3342 -1.8532  1.6622
  404TMC3    H1 6091   3.336   3.392  13.653 -1.9001 -0.6856 -0.5088
  404TMC3    H2 6092   3.139   3.220  13.987  0.1927 -0.8070 -1.0875
  404TMC3    C7 6093   3.158   3.210  13.725 -0.5051  0.3344  0.2858
  404TMC3    C8 6094   3.294   3.363  14.166 -0.2089 -0.6107 -0.2772
  404TMC3    O1 6095   3.101   3.109  13.776  0.2274  0.1542  0.4849
  404TMC3    O2 6096   3.415   3.369  14.186 -0.4917 -0.3925  0.7331
  405MPD2     C 6097   3.151   4.413  14.972  0.5001 -0.0039  0.1036
  405MPD2    C1 6098   3.239   4.421  14.862 -0.2933 -0.6700 -0.0103
  405MPD2    C2 6099   3.249   4.534  14.784 -0.9298 -0.2942  0.3479
  405MPD2    C3 6100   3.174   4.646  14.818 -0.1190 -0.5196  0.4269
  405MPD2    C4 6101   3.085   4.636  14.922 -0.2559 -0.6875 -0.4969
  405MPD2    C5 6102   3.072   4.523  14.999 -0.7820 -0.0497 -0.8697
  405MPD2     H 6103   3.321   4.544  14.704 -0.2116 -0.4549  0.9784
  405MPD2    H1 6104   3.017   4.717  14.945  1.1843  0.0783  1.0602
  405MPD2    H2 6105   3.132   4.326  15.035 -2.3355  1.7232  1.6150
  405MPD2    H3 6106   3.002   4.514  15.081 -1.0733 -1.5688 -1.2815
  405MPD2     N 6107   3.191   0.025  14.738 -0.2008  0.0128 -0.3223
  405MPD2    H5 6108   3.266   0.019  14.669  1.3043  1.9569  1.1254
  405MPD2    N1 6109   3.306   4.304  14.830 -0.3278 -0.7319 -0.0968
  405MPD2    H7 6110   3.275   4.220  14.878 -1.6643 -0.3010 -0.2091
  406TMC3    C1 6111   2.970   0.293  14.440 -0.4590  0.4759 -0.2172
  406TMC3    C2 6112   3.030   0.242  14.330 -0.1323 -0.7017 -0.4573
  406TMC3    C3 6113   3.135   0.151  14.359 -0.0107 -0.4116  0.0070
  406TMC3    C4 6114   3.012   0.276  14.566 -0.4397  0.2441 -0.1846
  406TMC3    C5 6115   3.120   0.203  14.596 -0.0018  0.5470 -0.2910
  406TMC3    C6 6116   3.189   0.144  14.487  0.0858  0.2071  0.4533
  406TMC3     C 6117   2.840   0.354  14.429  0.8549  0.3622 -0.5596
  406TMC3     O 6118   2.809   0.436  14.518 -0.1770 -0.0243  0.3648
  406TMC3     H 6119   2.998   0.261  14.227 -0.6060 -0.5516 -0.2848
  406TMC3    H1 6120   2.949   0.321  14.643  0.2772 -1.3103  1.2872
  406TMC3    H2 6121   3.275   0.080  14.504 -1.2760 -1.5575  0.7336
  406TMC3    C7 6122   3.095   0.116  14.708  0.0886  0.1320  0.1532
  406TMC3    C8 6123   3.177   0.054  14.258 -0.6875 -0.2526 -0.5218
  406TMC3    O1 6124   2.986   0.133  14.763  0.1578 -0.1443 -0.2789
  406TMC3    O2 6125   3.148   0.081  14.143 -0.3710  0.1655 -0.5299
  407MPD2     C 6126   0.332   1.878  10.145 -0.2834 -0.7067  0.0708
  407MPD2    C1 6127   0.462   1.836  10.138  0.1839 -0.1816  0.1473
  407MPD2    C2 6128   0.538   1.835  10.250 -0.0902  0.0009  0.0622
  407MPD2    C3 6129   0.488   1.885  10.370  0.3116 -0.0418 -0.3461
  407MPD2    C4 6130   0.359   1.927  10.378 -0.7977  0.1324 -0.5224
  407MPD2    C5 6131   0.280   1.918  10.266 -0.7228  0.0754 -0.5109
  407MPD2     H 6132   0.641   1.803  10.245  0.0883  0.6470 -0.3575
  407MPD2    H1 6133   0.325   1.958  10.476  0.2752 -1.3870  0.3184
  407MPD2    H2 6134   0.261   1.881  10.064  1.2042  0.3380 -1.1994
  407MPD2    H3 6135   0.178   1.956  10.265 -1.0267 -0.7078  0.4719
  407MPD2     N 6136   0.565   1.893  10.485  0.3235 -0.1619 -0.2737
  407MPD2    H5 6137   0.508   1.931  10.560  2.8371  0.3414  1.3843
  407MPD2    N1 6138   0.512   1.797  10.018 -0.3200  0.0956 -0.4471
  407MPD2    H7 6139   0.612   1.784  10.010 -0.1645  0.2064  1.3210
  408TMC3    C1 6140   0.537   1.761   9.793  0.1124 -0.1616  0.0873
  408TMC3    C2 6141   0.529   1.643   9.724  0.6352 -0.2373 -0.2097
  408TMC3    C3 6142   0.628   1.620   9.632 -0.3328 -0.5703 -0.7144
  408TMC3    C4 6143   0.640   1.846   9.781  0.6290 -0.1753 -0.8683
  408TMC3    C5 6144   0.724   1.830   9.673  0.4074  0.2859  0.7472
  408TMC3    C6 6145   0.725   1.715   9.602  0.3442 -0.0200 -0.4689
  408TMC3     C 6146   0.445   1.777   9.901  0.2605 -0.4352 -0.5576
  408TMC3     O 6147   0.332   1.748   9.874 -0.0478  0.2093  0.1902
  408TMC3     H 6148   0.440   1.582   9.727 -0.5877  1.5087 -1.1465
  408TMC3    H1 6149   0.641   1.945   9.825  0.5822 -0.7261  0.3728
  408TMC3    H2 6150   0.790   1.707   9.516  2.8751  0.5636  1.4213
  408TMC3    C7 6151   0.859   1.880   9.685  0.0241  0.6685 -0.2227
  408TMC3    C8 6152   0.685   1.491   9.638 -0.4633 -0.0581  0.1233
  408TMC3    O1 6153   0.942   1.791   9.682  0.6053 -0.5489  0.2275
  408TMC3    O2 6154   0.608   1.395   9.634  0.1391  0.0385  0.2813
  409MPD2     C 6155   0.672   1.702  17.000 -0.2100 -0.0500 -0.0011
  409MPD2    C1 6156   0.738   1.753  17.107  0.0530 -0.0329  0.2970
  409MPD2    C2 6157   0.810   1.867  17.096  0.3127 -0.5923  0.2574
  409MPD2    C3 6158   0.837   1.927  16.976  0.4711  0.2505  0.4929
  409MPD2    C4 6159   0.779   1.872  16.862  0.4733 -0.0911  0.0732
  409MPD2    C5 6160   0.702   1.759  16.876 -0.2753 -0.3189  0.1470
  409MPD2     H 6161   0.856   1.909  17.184  0.9490 -2.1827  0.6831
  409MPD2    H1 6162   0.815   1.901  16.764 -0.8341  1.0277 -0.0721
  409MPD2    H2 6163   0.613   1.611  16.998  1.5090 -1.1621 -0.2992
  409MPD2    H3 6164   0.669   1.716  16.782  1.0368  1.9641 -1.3603
  409MPD2     N 6165   0.919   2.044  16.969 -0.4985  0.5335 -0.0030
  409MPD2    H5 6166   0.953   2.061  16.875  0.5989 -0.3759  0.2207
  409MPD2    N1 6167   0.741   1.699  17.239 -0.1924  0.2976 -0.0461
  409MPD2    H7 6168   0.789   1.760  17.304  0.0877  0.2415 -0.2015
  410TMC3    C1 6169   1.073   2.214  17.041 -0.5908  0.3738 -0.0297
  410TMC3    C2 6170   1.167   2.246  17.133 -0.2272  0.2758 -0.3550
  410TMC3    C3 6171   1.235   2.359  17.121  0.0235  0.4780  0.2671
  410TMC3    C4 6172   1.054   2.291  16.930 -0.4570  0.5573 -0.0978
  410TMC3    C5 6173   1.116   2.418  16.927 -0.1817  0.8390 -0.5581
  410TMC3    C6 6174   1.213   2.447  17.019 -0.3581 -0.0892 -0.5442
  410TMC3     C 6175   0.966   2.123  17.077 -0.1959 -0.9549  0.6798
  410TMC3     O 6176   0.949   2.109  17.199  0.5135 -0.2007  0.3858
  410TMC3     H 6177   1.177   2.183  17.221 -1.2596  1.6256  0.7319
  410TMC3    H1 6178   0.964   2.276  16.871 -1.8280  0.1530  2.0789
  410TMC3    H2 6179   1.271   2.538  17.020 -1.7227  0.7759 -0.1600
  410TMC3    C7 6180   1.135   2.475  16.800  0.0216 -1.1843  0.1815
  410TMC3    C8 6181   1.348   2.390  17.214 -0.6926  0.6263 -0.1032
  410TMC3    O1 6182   1.122   2.395  16.705  0.5486 -0.5038 -0.0171
  410TMC3    O2 6183   1.401   2.498  17.205  0.1972  0.3687  0.4055
  411MPD2     C 6184   1.205   3.197  14.689 -0.0367 -0.9413 -0.0342
  411MPD2    C1 6185   1.107   3.164  14.781  0.1095 -0.0471  0.2517
  411MPD2    C2 6186   1.021   3.054  14.776 -0.7732  0.8850 -0.4109
  411MPD2    C3 6187   1.043   2.973  14.665  0.1937  0.0751 -0.7156
  411MPD2    C4 6188   1.145   2.992  14.579 -0.5162  0.3981  0.3389
  411MPD2    C5 6189   1.220   3.106  14.585 -0.0273  0.4288 -0.1855
  411MPD2     H 6190   0.939   3.032  14.844  1.3279  2.0871  2.5397
  411MPD2    H1 6191   1.158   2.943  14.484 -0.0035  3.1021 -1.0018
  411MPD2    H2 6192   1.262   3.289  14.700 -1.2195 -0.2723  0.5448
  411MPD2    H3 6193   1.297   3.139  14.516 -0.8024  1.5716 -0.5096
  411MPD2     N 6194   0.980   2.852  14.630 -0.0757 -0.5363  0.0966
  411MPD2    H5 6195   0.998   2.813  14.538 -1.1311 -0.3719 -0.1747
  411MPD2    N1 6196   1.084   3.271  14.876 -0.1063 -0.5897  0.3668
  411MPD2    H7 6197   1.121   3.363  14.858 -3.1915  0.7169  0.6464
  412TMC3    C1 6198   0.814   2.681  14.633  0.2301 -0.6072 -0.2034
  412TMC3    C2 6199   0.686   2.642  14.666 -0.1060  0.3983 -0.4316
  412TMC3    C3 6200   0.628   2.534  14.610  0.5270 -0.4509 -0.2917
  412TMC3    C4 6201   0.894   2.606  14.552  0.3516  0.8245  0.4268
  412TMC3    C5 6202   0.833   2.496  14.499  0.4130 -0.4711 -0.0809
  412TMC3    C6 6203   0.705   2.463  14.529 -0.1429 -0.2264  0.8676
  412TMC3     C 6204   0.879   2.792  14.704 -0.5173  0.4122  0.1259
  412TMC3     O 6205   0.830   2.828  14.808  0.4973 -0.1090 -0.0025
  412TMC3     H 6206   0.618   2.696  14.731 -1.3696 -2.6916  0.8492
  412TMC3    H1 6207   0.993   2.629  14.515  0.1313 -0.1575 -0.7705
  412TMC3    H2 6208   0.653   2.391  14.466  0.0830 -1.2988  1.9161
  412TMC3    C7 6209   0.872   2.476  14.364 -0.5234  0.2149  0.8581
  412TMC3    C8 6210   0.522   2.585  14.538 -0.5017  0.0537  0.4884
  412TMC3    O1 6211   0.975   2.417  14.328 -0.4706 -0.9118  0.4976
  412TMC3    O2 6212   0.562   2.641  14.438  0.9278  0.2029  0.7879
  413MPD2     C 6213   2.564   0.476  15.537  0.5775  0.0887 -0.9130
  413MPD2    C1 6214   2.560   0.457  15.400 -0.1143 -0.1689 -0.4539
  413MPD2    C2 6215   2.629   0.352  15.341 -0.4566  0.5414 -0.3236
  413MPD2    C3 6216   2.699   0.267  15.421 -0.3265 -0.1478  0.7848
  413MPD2    C4 6217   2.700   0.282  15.560  0.1021  0.1978 -0.6898
  413MPD2    C5 6218   2.642   0.393  15.614  0.1252  0.5150  0.0911
  413MPD2     H 6219   2.637   0.346  15.233  2.5779  0.0335 -0.0772
  413MPD2    H1 6220   2.742   0.201  15.619 -0.5690  1.3293  1.3367
  413MPD2    H2 6221   2.502   0.554  15.580  2.7944  0.5997  1.3330
  413MPD2    H3 6222   2.638   0.403  15.722  0.3068 -0.2258  0.1681
  413MPD2     N 6223   2.782   0.171  15.355  0.9151  0.4753  0.2721
  413MPD2    H5 6224   2.794   0.180  15.254 -0.1449  1.5972  0.2411
  413MPD2    N1 6225   2.472   0.548  15.329  0.0439 -0.4503 -0.2420
  413MPD2    H7 6226   2.432   0.621  15.387 -2.8035 -1.6229 -0.7222
  414TMC3    C1 6227   2.960   0.017  15.319 -0.3337 -0.7107 -0.3217
  414TMC3    C2 6228   3.018   4.652  15.377  0.1039 -0.5494  0.4128
  414TMC3    C3 6229   3.149   4.624  15.354 -1.0702 -0.3674  0.1913
  414TMC3    C4 6230   3.029   0.110  15.240  0.1420  0.6647 -0.8625
  414TMC3    C5 6231   3.161   0.086  15.226  0.2198  0.5849  0.5018
  414TMC3    C6 6232   3.227   4.714  15.286  0.5514  0.2703 -0.1308
  414TMC3     C 6233   2.875   0.088  15.415 -0.3376  0.1768 -0.1837
  414TMC3     O 6234   2.886   0.049  15.534  0.3060 -0.5132  0.2830
  414TMC3     H 6235   2.952   4.596  15.442 -0.0013 -0.2973  0.5223
  414TMC3    H1 6236   2.987   0.203  15.204 -1.5656  0.0020 -0.5639
  414TMC3    H2 6237   3.334   4.699  15.282  0.3162 -1.0498 -1.2851
  414TMC3    C7 6238   3.236   0.163  15.134  0.1225  0.2173  0.2155
  414TMC3    C8 6239   3.213   4.507  15.408  0.0932 -0.1317  0.1110
  414TMC3    O1 6240   3.354   0.146  15.150 -0.4622  0.1651 -0.2702
  414TMC3    O2 6241   3.299   4.452  15.342 -0.3141 -0.2703  0.2947
  415TMC3    C1 6242   2.763   4.544  10.350  0.1569 -0.0085  0.9041
  415TMC3    C2 6243   2.812   4.669  10.319 -0.5605 -0.0361  0.1896
  415TMC3    C3 6244   2.726   0.044  10.323  0.0349 -0.2482  0.3281
  415TMC3    C4 6245   2.636   4.529  10.372 -0.8094 -0.2436  0.4413
  415TMC3    C5 6246   2.553   4.642  10.378 -0.3348  0.0406  0.0253
  415TMC3    C6 6247   2.592   0.027  10.336 -0.1999 -0.2474  0.0653
  415TMC3     C 6248   2.848   4.435  10.390 -0.3966  0.2659  0.8501
  415TMC3     O 6249   2.784   4.346  10.444  0.3867  0.1307  0.3603
  415TMC3     H 6250   2.919   4.690  10.315 -0.8931  1.5754 -0.3251
  415TMC3    H1 6251   2.600   4.427  10.366  0.2720 -0.6451  0.7748
  415TMC3    H2 6252   2.520   0.108  10.338 -0.3743 -0.4132  0.3784
  415TMC3    C7 6253   2.407   4.624  10.383 -0.0603 -0.5039  0.0656
  415TMC3    C8 6254   2.770   0.172  10.277 -0.2997 -0.2370  0.1939
  415TMC3    O1 6255   2.339   4.725  10.374 -0.1478 -0.2459 -0.1692
  415TMC3    O2 6256   2.685   0.258  10.302 -0.1616  0.0011  0.2287
  416MPD2     C 6257   0.171   2.988  11.694  0.1608 -0.8107 -1.6208
  416MPD2    C1 6258   0.105   2.905  11.792  0.1381  0.5980 -1.0354
  416MPD2    C2 6259   0.124   2.770  11.781  0.0789 -0.4119 -0.0641
  416MPD2    C3 6260   0.205   2.711  11.681  0.7377  0.0568  0.1868
  416MPD2    C4 6261   0.274   2.791  11.593  0.4513  0.2438 -0.2813
  416MPD2    C5 6262   0.252   2.927  11.601 -0.5933 -0.2764 -0.1259
  416MPD2     H 6263   0.083   2.702  11.855 -1.3102 -3.0813 -3.2460
  416MPD2    H1 6264   0.329   2.760  11.505 -0.1546 -0.5447 -0.3843
  416MPD2    H2 6265   0.158   3.095  11.688 -2.1679 -0.9508  0.8622
  416MPD2    H3 6266   0.302   2.990  11.528 -0.3865 -0.4005 -0.0924
  416MPD2     N 6267   0.207   2.570  11.676  0.4200 -0.2944 -0.1952
  416MPD2    H5 6268   0.161   2.524  11.753 -0.1275 -1.2536 -1.1026
  416MPD2    N1 6269   0.025   2.970  11.887  0.7223 -0.0411  0.2032
  416MPD2    H7 6270   0.037   3.070  11.890  1.0775 -0.0201 -2.2522
  417TMC3    C1 6271   4.640   3.011  12.082 -0.4743 -0.4530 -0.6041
  417TMC3    C2 6272   4.628   2.993  12.218 -0.1473  0.2317  0.9310
  417TMC3    C3 6273   4.534   3.063  12.286  0.0375  0.9277  1.0314
  417TMC3    C4 6274   4.563   3.100  12.014 -0.7555 -0.3486 -0.0583
  417TMC3    C5 6275   4.470   3.171  12.086 -0.0649 -0.0027 -0.2354
  417TMC3    C6 6276   4.444   3.148  12.219  0.1521  0.8986  0.1744
  417TMC3     C 6277   4.714   2.914  12.009  0.3264 -0.5307  0.6750
  417TMC3     O 6278   4.725   2.801  12.054  0.2343 -0.1242  0.3993
  417TMC3     H 6279   4.703   2.927  12.261 -1.9662 -0.7758  2.5487
  417TMC3    H1 6280   4.566   3.102  11.906  1.2706  0.5503  0.0169
  417TMC3    H2 6281   4.376   3.210  12.276 -1.7467 -1.0451  0.0230
  417TMC3    C7 6282   4.369   3.242  12.020 -1.2619  1.0069 -0.2753
  417TMC3    C8 6283   4.507   3.039  12.424 -0.0069  0.0999 -0.3613
  417TMC3    O1 6284   4.327   3.185  11.925  0.0910  0.5436  0.4749
  417TMC3    O2 6285   4.426   3.107  12.484 -0.5614 -0.1171 -0.1718
  418TMC3    C1 6286   3.739   4.655   0.390  0.2514 -0.1377 -0.6054
  418TMC3    C2 6287   3.663   4.601   0.282 -0.9068  0.2714  0.1244
  418TMC3    C3 6288   3.570   4.509   0.310  0.3962 -0.4804  0.7658
  418TMC3    C4 6289   3.723   4.610   0.518 -0.1566  0.1810 -0.6529
  418TMC3    C5 6290   3.626   4.510   0.535 -0.1026  0.9527  0.3070
  418TMC3    C6 6291   3.552   4.456   0.433  0.7376 -0.7442  0.2298
  418TMC3     C 6292   3.854   0.007   0.357  0.6107 -0.5149  0.0705
  418TMC3     O 6293   3.857   0.055   0.243 -0.3048  0.0513 -0.3609
  418TMC3     H 6294   3.687   4.630   0.180 -0.7914 -0.5443 -0.0742
  418TMC3    H1 6295   3.788   4.643   0.598  2.6992  0.0227 -2.9355
  418TMC3    H2 6296   3.463   4.400   0.460  0.4226 -0.6413 -0.5958
  418TMC3    C7 6297   3.613   4.419   0.643 -0.4200  0.2181  0.1036
  418TMC3    C8 6298   3.526   4.431   0.197 -0.2557 -0.8640 -0.1550
  418TMC3    O1 6299   3.573   4.306   0.623  0.0665 -0.1436 -0.1205
  418TMC3    O2 6300   3.513   4.496   0.093 -0.5275  0.0432  1.0014
  419MPD2     C 6301   2.237   2.328  12.546  0.4482  0.0799 -0.2023
  419MPD2    C1 6302   2.184   2.453  12.559  0.1206  0.2112  0.0960
  419MPD2    C2 6303   2.117   2.486  12.675 -0.1844 -0.1345  0.9171
  419MPD2    C3 6304   2.109   2.402  12.785 -0.5084 -0.2508 -0.2913
  419MPD2    C4 6305   2.152   2.284  12.763 -0.0968  0.3459 -0.4934
  419MPD2    C5 6306   2.220   2.244  12.655 -0.1339  0.1814 -0.0739
  419MPD2     H 6307   2.089   2.590  12.685  1.5566  0.4190  0.0723
  419MPD2    H1 6308   2.153   2.213  12.845 -0.7686  1.9612  0.8817
  419MPD2    H2 6309   2.282   2.287  12.456 -2.0674 -2.1981 -0.4174
  419MPD2    H3 6310   2.265   2.146  12.655 -1.3383 -0.3763  0.6141
  419MPD2     N 6311   2.052   2.435  12.911 -0.3317 -0.0345  0.1043
  419MPD2    H5 6312   2.030   2.364  12.980 -2.4607  0.6800  0.1792
  419MPD2    N1 6313   2.195   2.562  12.470  0.3200 -0.1372  0.3801
  419MPD2    H7 6314   2.139   2.645  12.486  0.9488  0.4871 -0.7170
  420TMC3    C1 6315   1.898   2.563  13.048 -0.1344  0.3610  0.0509
  420TMC3    C2 6316   1.810   2.660  13.016 -0.0511  0.1946 -0.3494
  420TMC3    C3 6317   1.787   2.747  13.115 -0.7173  0.3887 -0.7458
  420TMC3    C4 6318   1.956   2.560  13.179  0.0709 -0.0823  0.1709
  420TMC3    C5 6319   1.918   2.651  13.270  0.2997  0.0160  0.4009
  420TMC3    C6 6320   1.838   2.752  13.240  0.4579  0.1435 -0.6583
  420TMC3     C 6321   2.004   2.560  12.948 -0.0462  0.0625  0.1207
  420TMC3     O 6322   2.008   2.659  12.881 -0.4079  0.6782 -0.2644
  420TMC3     H 6323   1.756   2.657  12.922  0.0967 -2.7409 -0.3169
  420TMC3    H1 6324   2.034   2.488  13.203 -0.1214  0.1751  1.6010
  420TMC3    H2 6325   1.792   2.817  13.314  1.4052 -0.8588  0.8117
  420TMC3    C7 6326   1.973   2.647  13.406  0.3186 -0.4082  0.4325
  420TMC3    C8 6327   1.720   2.863  13.070  0.0606 -0.1499 -0.1975
  420TMC3    O1 6328   2.027   2.540  13.442  0.2929 -0.1551  0.4574
  420TMC3    O2 6329   1.715   2.884  12.949  0.6601 -0.2546 -0.2805
  421TMC3    C1 6330   3.872   4.162  13.682  0.8643 -0.0956  0.1100
  421TMC3    C2 6331   3.768   4.244  13.689  0.3033  0.0900  0.4298
  421TMC3    C3 6332   3.758   4.330  13.798 -0.2608  0.0727  0.6205
  421TMC3    C4 6333   3.953   4.144  13.787  0.2617  0.2284  0.3138
  421TMC3    C5 6334   3.925   4.211  13.898 -0.8583 -0.0215  0.2720
  421TMC3    C6 6335   3.833   4.305  13.910 -0.1075 -0.3677  0.5607
  421TMC3     C 6336   3.854   4.057  13.588  0.2098 -0.7454  0.1599
  421TMC3     O 6337   3.932   4.057  13.493 -0.0953 -0.2341 -0.0248
  421TMC3     H 6338   3.688   4.255  13.616 -0.5777 -2.1255  1.0830
  421TMC3    H1 6339   4.042   4.082  13.779 -0.5769 -0.6382 -2.3324
  421TMC3    H2 6340   3.815   4.359  14.002  0.9776  2.3242 -0.7950
  421TMC3    C7 6341   4.023   4.205  14.007  0.6272 -0.5983  0.7285
  421TMC3    C8 6342   3.656   4.439  13.802  0.0794  0.5264 -0.0336
  421TMC3    O1 6343   4.025   4.303  14.079  0.8608 -0.0650 -0.0070
  421TMC3    O2 6344   3.664   4.507  13.907 -0.1020  0.4772 -0.1464
  422TMC3    C1 6345   1.282   1.050  12.374 -0.4851 -0.3075  0.2430
  422TMC3    C2 6346   1.216   1.149  12.439  0.0871 -0.0363  0.4319
  422TMC3    C3 6347   1.097   1.187  12.394 -0.0089 -0.1024  0.1601
  422TMC3    C4 6348   1.215   0.986  12.271  0.2644  0.3846  0.7063
  422TMC3    C5 6349   1.092   1.022  12.234 -0.0913 -0.9386  0.6601
  422TMC3    C6 6350   1.028   1.125  12.288  0.0836 -0.4893 -0.3483
  422TMC3     C 6351   1.416   1.015  12.402 -0.4735 -0.2082  0.0503
  422TMC3     O 6352   1.456   1.046  12.515 -0.5537 -0.0228  0.9044
  422TMC3     H 6353   1.246   1.199  12.530  1.0092 -0.1454  0.1889
  422TMC3    H1 6354   1.266   0.898  12.232  1.9547  2.0647 -0.8571
  422TMC3    H2 6355   0.924   1.141  12.260  0.4489  1.8481 -0.4086
  422TMC3    C7 6356   1.029   0.911  12.168 -0.3319  0.3931  0.1337
  422TMC3    C8 6357   1.044   1.320  12.441 -0.1513 -0.5903 -0.3121
  422TMC3    O1 6358   1.088   0.847  12.083  0.5439 -0.8897 -0.1218
  422TMC3    O2 6359   1.087   1.362  12.547 -0.3667  0.0823  0.0207
  423MPD2     C 6360   2.627   1.460   0.781 -0.6518  0.3743  0.3251
  423MPD2    C1 6361   2.614   1.325   0.770  0.1194 -0.4204 -0.1169
  423MPD2    C2 6362   2.686   1.265   0.661  0.5404  0.2396 -0.0976
  423MPD2    C3 6363   2.744   1.343   0.563  0.6641  0.4079 -0.3382
  423MPD2    C4 6364   2.746   1.476   0.574 -0.0185  0.0608  0.6558
  423MPD2    C5 6365   2.695   1.531   0.686  0.8489  0.8142 -0.7135
  423MPD2     H 6366   2.673   1.158   0.655 -1.4426  0.6440 -3.1584
  423MPD2    H1 6367   2.781   1.538   0.493 -1.3819 -0.1067 -0.0641
  423MPD2    H2 6368   2.597   1.505   0.876  0.5760 -0.5450  1.1518
  423MPD2    H3 6369   2.694   1.639   0.698  1.8864  0.7349  0.0660
  423MPD2     N 6370   2.795   1.285   0.440  0.2156 -0.4259  0.5241
  423MPD2    H5 6371   2.812   1.350   0.364 -1.4306  1.0222  1.4046
  423MPD2    N1 6372   2.535   1.243   0.855 -0.0074  0.3922  0.7437
  423MPD2    H7 6373   2.551   1.143   0.853 -0.7524  0.2855  0.0335
  424TMC3    C1 6374   2.372   1.188   1.009 -0.4233 -0.3086  0.4296
  424TMC3    C2 6375   2.433   1.064   1.015  0.1930  0.0472  0.8017
  424TMC3    C3 6376   2.383   0.965   1.102  1.0777  0.0656 -0.0056
  424TMC3    C4 6377   2.263   1.225   1.093 -0.0358  0.2590 -0.1593
  424TMC3    C5 6378   2.214   1.121   1.167  0.6324  0.3640  0.3781
  424TMC3    C6 6379   2.275   0.994   1.173 -0.7109 -0.0529 -0.1211
  424TMC3     C 6380   2.435   1.295   0.935 -0.1213  0.0473  0.5591
  424TMC3     O 6381   2.401   1.417   0.942  0.2106 -0.5121  0.3801
  424TMC3     H 6382   2.522   1.027   0.965  0.0299 -0.4042  0.8450
  424TMC3    H1 6383   2.226   1.327   1.094 -0.2833  0.1291  2.0602
  424TMC3    H2 6384   2.234   0.928   1.248 -1.9697 -0.2044 -0.9429
  424TMC3    C7 6385   2.117   1.158   1.270  0.1656  0.6251  0.0921
  424TMC3    C8 6386   2.470   0.851   1.140 -0.1167 -0.2759 -0.3496
  424TMC3    O1 6387   2.100   1.082   1.368  0.4062  0.1899 -0.0573
  424TMC3    O2 6388   2.567   0.836   1.068  0.9383  0.1007 -0.6526
  425MPD2     C 6389   1.771   0.647  17.391  0.4305  0.2652 -0.0859
  425MPD2    C1 6390   1.691   0.538  17.440 -0.8126  0.1240  0.9988
  425MPD2    C2 6391   1.573   0.569  17.494 -0.1436 -0.5209 -0.1866
  425MPD2    C3 6392   1.539   0.697  17.516 -0.1039  0.3620  0.7047
  425MPD2    C4 6393   1.618   0.798  17.477  0.0373  0.4432  0.8503
  425MPD2    C5 6394   1.736   0.774  17.422 -0.7768 -0.1673  0.7993
  425MPD2     H 6395   1.501   0.489  17.502  1.3336 -1.8840 -0.5666
  425MPD2    H1 6396   1.598   0.903  17.497  0.3723  0.6182  0.2950
  425MPD2    H2 6397   1.867   0.616  17.351  1.5294  1.7423  1.4182
  425MPD2    H3 6398   1.796   0.857  17.387  1.2481 -1.6206  0.8676
  425MPD2     N 6399   1.411   0.707  17.578  0.4081 -0.2078  0.0372
  425MPD2    H5 6400   1.362   0.622  17.606  0.7753  0.4514  2.7374
  425MPD2    N1 6401   1.730   0.409  17.398 -0.0413  0.1396  0.6989
  425MPD2    H7 6402   1.790   0.408  17.316 -3.8385 -1.3518 -2.0268
  426TMC3    C1 6403   1.721   0.160  17.409  0.2121 -0.2517  0.5985
  426TMC3    C2 6404   1.844   0.135  17.351 -0.6876  0.4540  0.0155
  426TMC3    C3 6405   1.868   0.005  17.308 -0.5068  0.0853  0.7338
  426TMC3    C4 6406   1.636   0.053  17.444 -0.6269 -0.3504 -0.3882
  426TMC3    C5 6407   1.668   4.666  17.418  0.5029  0.0116  0.1078
  426TMC3    C6 6408   1.782   4.642  17.343 -0.3044 -0.3098 -0.0032
  426TMC3     C 6409   1.676   0.294  17.461  0.5594 -0.7038 -0.8760
  426TMC3     O 6410   1.609   0.294  17.565 -0.5895  0.0277  0.2462
  426TMC3     H 6411   1.909   0.216  17.321  0.3726  0.1722  1.5266
  426TMC3    H1 6412   1.537   0.080  17.480 -1.1127 -1.1716 -1.1184
  426TMC3    H2 6413   1.814   4.544  17.309 -0.4280  0.1358 -1.4066
  426TMC3    C7 6414   1.594   4.550  17.464  0.2963  0.1675  0.1845
  426TMC3    C8 6415   1.954   4.712  17.189  0.4419 -0.4248 -0.3088
  426TMC3    O1 6416   1.638   4.436  17.442  1.0166  0.1872  0.6041
  426TMC3    O2 6417   1.937   4.607  17.131 -0.2629 -0.3561 -0.2366
  427MPD2     C 6418   0.157   3.178  14.876 -0.5231  0.7356  0.2344
  427MPD2    C1 6419   0.088   3.102  14.969  0.4787 -0.5287  0.4450
  427MPD2    C2 6420   4.686   3.091  14.961  0.5163 -0.4467 -0.3042
  427MPD2    C3 6421   4.625   3.146  14.854  0.1257  0.1217 -0.3256
  427MPD2    C4 6422   4.690   3.229  14.763 -0.1893  0.5243 -0.0917
  427MPD2    C5 6423   0.088   3.239  14.777 -0.3511 -0.1115 -0.8921
  427MPD2     H 6424   4.642   3.025  15.035 -1.4662  0.1220 -0.9813
  427MPD2    H1 6425   4.632   3.271  14.682 -2.2725  1.8314  2.0562
  427MPD2    H2 6426   0.265   3.177  14.865 -0.2893  1.1440  2.3832
  427MPD2    H3 6427   0.133   3.299  14.699  1.0989 -0.2898 -0.1772
  427MPD2     N 6428   4.485   3.118  14.827 -0.3451  0.2501 -0.0586
  427MPD2    H5 6429   4.448   3.135  14.735  0.4675  0.7860 -0.2825
  427MPD2    N1 6430   0.160   3.020  15.068 -0.1214  0.2884  0.3795
  427MPD2    H7 6431   0.106   2.965  15.133  0.2031  0.2403  0.6108
  428TMC3    C1 6432   0.325   2.926  15.203  0.0407  0.3160  0.3209
  428TMC3    C2 6433   0.223   2.878  15.279 -0.5216 -0.0987  0.2869
  428TMC3    C3 6434   0.261   2.791  15.378  0.3407  0.6768  0.0498
  428TMC3    C4 6435   0.455   2.908  15.236 -0.0319 -0.1815 -0.0104
  428TMC3    C5 6436   0.487   2.826  15.341  0.3985 -0.2126  0.0108
  428TMC3    C6 6437   0.393   2.760  15.413  0.5740 -0.5958  0.3004
  428TMC3     C 6438   0.292   3.018  15.094  0.0911  0.1449  0.0081
  428TMC3     O 6439   0.385   3.063  15.029 -0.4610  0.1940 -0.2936
  428TMC3     H 6440   0.121   2.872  15.244 -1.0589  2.7387  1.4573
  428TMC3    H1 6441   0.518   2.977  15.181  0.3552  0.9410  1.8549
  428TMC3    H2 6442   0.414   2.688  15.490  1.9790  2.2765  2.6194
  428TMC3    C7 6443   0.619   2.830  15.404 -1.0028 -0.3949 -0.6492
  428TMC3    C8 6444   0.159   2.709  15.435  0.2833 -0.4523 -0.6560
  428TMC3    O1 6445   0.628   2.751  15.500  0.0173  0.0773 -0.3170
  428TMC3    O2 6446   0.066   2.662  15.364  0.4233 -0.0751 -0.5701
  429MPD2     C 6447   1.410   2.844   0.263 -0.6080  0.5570 -0.1556
  429MPD2    C1 6448   1.474   2.768   0.167 -0.7191  0.0266 -0.3223
  429MPD2    C2 6449   1.549   2.828   0.068 -0.6526 -0.6641  0.6866
  429MPD2    C3 6450   1.553   2.968   0.062  0.6602 -0.4847  0.2490
  429MPD2    C4 6451   1.486   3.042   0.157 -0.4859  0.0030  0.1752
  429MPD2    C5 6452   1.417   2.981   0.257  0.2459  0.6901 -1.1062
  429MPD2     H 6453   1.604   2.766  17.746 -0.0006 -0.0564  0.6609
  429MPD2    H1 6454   1.482   3.149   0.140 -0.4939 -0.0028  0.1393
  429MPD2    H2 6455   1.371   2.785   0.345 -0.9678  1.6724  0.4705
  429MPD2    H3 6456   1.366   3.046   0.327 -0.6168 -0.3123 -0.8094
  429MPD2     N 6457   1.620   3.024  17.699  1.3161 -0.2264 -0.0416
  429MPD2    H5 6458   1.666   2.956  17.639  1.8765  0.4869 -0.4177
  429MPD2    N1 6459   1.477   2.629   0.163 -0.3454  0.2502  0.3597
  429MPD2    H7 6460   1.541   2.583   0.099 -0.5639 -1.3108  1.2664
  430TMC3    C1 6461   1.704   3.173  17.542 -0.9326  0.1343  0.1171
  430TMC3    C2 6462   1.674   3.283  17.472 -0.3633  0.4785  0.1677
  430TMC3    C3 6463   1.706   3.290  17.338  0.2762  0.2739  0.1735
  430TMC3    C4 6464   1.756   3.063  17.479 -0.4493  0.3255 -0.2048
  430TMC3    C5 6465   1.773   3.063  17.342 -0.1696 -0.8082 -0.1762
  430TMC3    C6 6466   1.744   3.176  17.272  0.0410  0.2484  0.4698
  430TMC3     C 6467   1.642   3.159  17.669  0.7168 -0.0764 -0.4543
  430TMC3     O 6468   1.597   3.257  17.726  0.1531  0.4898 -0.5092
  430TMC3     H 6469   1.627   3.370  17.516 -0.6234 -1.5589  3.9183
  430TMC3    H1 6470   1.793   2.978  17.536  0.4926  0.0063 -1.2694
  430TMC3    H2 6471   1.784   3.177  17.171  1.7285 -1.7460  1.1232
  430TMC3    C7 6472   1.749   2.938  17.273  0.0601  0.6466  0.7259
  430TMC3    C8 6473   1.607   3.360  17.256  0.2766  0.0471 -0.6923
  430TMC3    O1 6474   1.796   2.830  17.320  0.2227  0.5455  0.0577
  430TMC3    O2 6475   1.560   3.301  17.160 -0.3292 -0.1831  0.0716
  431MPD2     C 6476   2.221   3.318  12.791 -0.2186 -0.2042 -0.3649
  431MPD2    C1 6477   2.337   3.295  12.729  0.1670 -0.3808  0.5007
  431MPD2    C2 6478   2.336   3.221  12.619  0.4599 -0.0437 -0.5105
  431MPD2    C3 6479   2.227   3.149  12.569  0.0110 -0.4335 -0.2114
  431MPD2    C4 6480   2.114   3.168  12.635  0.0434 -0.0053 -0.2516
  431MPD2    C5 6481   2.103   3.255  12.742  0.1324 -0.0266  0.2420
  431MPD2     H 6482   2.428   3.204  12.563  2.6996  1.1787  2.7701
  431MPD2    H1 6483   2.026   3.109  12.610  0.8410 -1.3214  0.0860
  431MPD2    H2 6484   2.210   3.367  12.887  0.4516  1.7876 -1.3096
  431MPD2    H3 6485   2.006   3.276  12.785  0.5554 -0.0827  1.2238
  431MPD2     N 6486   2.229   3.053  12.464 -0.5836  0.3725 -0.6430
  431MPD2    H5 6487   2.157   2.982  12.456 -0.4690  0.3863 -1.6860
  431MPD2    N1 6488   2.455   3.361  12.767  0.3396  0.3014  0.1594
  431MPD2    H7 6489   2.530   3.368  12.698  0.7801 -2.3215  0.3691
  432TMC3    C1 6490   2.332   2.909  12.304  0.2352  0.2453  0.1380
  432TMC3    C2 6491   2.386   2.920  12.181  0.4284 -0.1988 -0.3445
  432TMC3    C3 6492   2.390   2.804  12.107  0.2766  0.0438 -0.1270
  432TMC3    C4 6493   2.275   2.798  12.351  0.4028  0.2132 -1.1162
  432TMC3    C5 6494   2.282   2.680  12.279  0.3968 -0.1520  0.3060
  432TMC3    C6 6495   2.348   2.681  12.160  0.0272  0.4545 -0.8842
  432TMC3     C 6496   2.343   3.032  12.386 -0.0129  0.6231  0.7261
  432TMC3     O 6497   2.406   3.120  12.333  0.6402  0.3607  0.2907
  432TMC3     H 6498   2.423   3.011  12.136 -0.6547 -0.7983 -2.4525
  432TMC3    H1 6499   2.240   2.797  12.454  1.8217 -0.5479 -0.6340
  432TMC3    H2 6500   2.371   2.588  12.108  1.1331  0.2382 -0.0174
  432TMC3    C7 6501   2.266   2.554  12.354 -0.3015  0.1665 -0.2682
  432TMC3    C8 6502   2.475   2.795  11.994  1.0580 -0.3521 -0.9949
  432TMC3    O1 6503   2.334   2.460  12.302 -0.0475  0.1227 -0.1229
  432TMC3    O2 6504   2.448   2.717  11.905  0.2445 -0.1719 -0.0862
  433MPD2     C 6505   0.704   1.926  11.228  0.5846 -0.7799 -0.4515
  433MPD2    C1 6506   0.773   1.813  11.279 -0.0017 -0.0354  0.3350
  433MPD2    C2 6507   0.862   1.828  11.380  0.0646 -0.6777  0.0873
  433MPD2    C3 6508   0.877   1.948  11.441 -0.0676  0.4196 -0.0946
  433MPD2    C4 6509   0.802   2.056  11.394 -0.1222  0.0547  0.4199
  433MPD2    C5 6510   0.724   2.044  11.287 -0.1107  0.4807 -0.7047
  433MPD2     H 6511   0.916   1.740  11.414  0.4212 -0.4643  0.0745
  433MPD2    H1 6512   0.791   2.149  11.449 -0.1108 -0.0125  0.5352
  433MPD2    H2 6513   0.635   1.924  11.144 -1.5197  0.5870  1.2470
  433MPD2    H3 6514   0.664   2.133  11.270  1.5436  1.5242 -1.0422
  433MPD2     N 6515   0.939   1.946  11.569 -0.0354 -0.0928  0.9191
  433MPD2    H5 6516   0.965   1.856  11.610  1.5257  0.5066  1.2248
  433MPD2    N1 6517   0.751   1.680  11.230 -0.2745  0.0375 -0.3054
  433MPD2    H7 6518   0.816   1.608  11.261 -0.5288 -0.0479  0.0276
  434TMC3    C1 6519   0.682   1.504  11.098  0.1209 -0.6801  0.3543
  434TMC3    C2 6520   0.745   1.419  11.180  0.2276  0.2078 -0.4769
  434TMC3    C3 6521   0.757   1.292  11.131 -0.3382  0.2786  0.3465
  434TMC3    C4 6522   0.621   1.462  10.977  0.1006  0.1616  0.3777
  434TMC3    C5 6523   0.643   1.335  10.932 -0.5126  0.6121 -0.0221
  434TMC3    C6 6524   0.712   1.250  11.010  0.2670 -0.0070 -0.3150
  434TMC3     C 6525   0.667   1.640  11.131  0.0673  0.4400  0.1904
  434TMC3     O 6526   0.588   1.701  11.065  0.4709  0.0758 -0.1861
  434TMC3     H 6527   0.772   1.443  11.283 -1.0990 -1.4817  0.2642
  434TMC3    H1 6528   0.564   1.534  10.920 -1.3062  1.8995  3.9682
  434TMC3    H2 6529   0.725   1.145  10.987 -1.6745 -0.4455  0.6326
  434TMC3    C7 6530   0.569   1.299  10.809  0.4221 -0.1280 -0.8115
  434TMC3    C8 6531   0.828   1.205  11.214 -0.0713  0.3399 -0.1434
  434TMC3    O1 6532   0.562   1.393  10.731 -0.2756  0.6256  0.2576
  434TMC3    O2 6533   0.916   1.265  11.276 -0.1714 -0.0321 -0.3621
  435MPD2     C 6534   3.420   1.775  15.416 -0.7584  0.2287 -0.1291
  435MPD2    C1 6535   3.378   1.750  15.545  0.2483 -0.3388 -0.0833
  435MPD2    C2 6536   3.448   1.656  15.621 -0.7346 -0.0199  0.3593
  435MPD2    C3 6537   3.551   1.585  15.559  0.0692 -0.1370 -0.2612
  435MPD2    C4 6538   3.586   1.612  15.432  0.4084 -0.1048 -0.0547
  435MPD2    C5 6539   3.527   1.708  15.363 -0.2337  0.5550  0.0451
  435MPD2     H 6540   3.431   1.637  15.726 -0.3739  0.4017  0.4907
  435MPD2    H1 6541   3.674   1.568  15.386 -0.1004 -0.6496 -0.5113
  435MPD2    H2 6542   3.377   1.853  15.354  0.7302  2.0173  1.0717
  435MPD2    H3 6543   3.570   1.733  15.267 -0.6740 -0.5864 -0.4384
  435MPD2     N 6544   3.620   1.492  15.638 -0.3216 -0.2408  0.1782
  435MPD2    H5 6545   3.604   1.492  15.738 -2.0069 -0.5175 -0.0902
  435MPD2    N1 6546   3.261   1.793  15.604 -0.3363 -0.2080 -0.4748
  435MPD2    H7 6547   3.227   1.752  15.691 -3.4133  1.1203 -1.0221
  436TMC3    C1 6548   2.885   1.854  15.765 -0.0671  0.3600  0.5642
  436TMC3    C2 6549   3.003   1.826  15.706  0.0628 -0.0697 -0.5321
  436TMC3    C3 6550   3.042   1.899  15.598  0.1984  0.8690 -0.0040
  436TMC3    C4 6551   2.792   1.941  15.710 -0.2332  0.7569 -0.2654
  436TMC3    C5 6552   2.841   2.007  15.602 -0.8545 -0.1976  0.0241
  436TMC3    C6 6553   2.967   1.996  15.551  0.0547 -0.3331 -0.1583
  436TMC3     C 6554   2.848   1.758  15.871  0.1357 -0.2986  0.0413
  436TMC3     O 6555   2.883   1.642  15.868  0.0578  0.3364 -0.0532
  436TMC3     H 6556   3.070   1.762  15.762 -0.6905 -0.5488 -0.1622
  436TMC3    H1 6557   2.688   1.952  15.741 -1.0020 -1.1602 -2.1591
  436TMC3    H2 6558   3.012   2.057  15.474 -1.9940  0.8045 -0.4555
  436TMC3    C7 6559   2.748   2.098  15.541 -0.6003  0.6503  1.0678
  436TMC3    C8 6560   3.174   1.881  15.539 -0.2115 -0.1574  0.3974
  436TMC3    O1 6561   2.638   2.101  15.586 -0.6281  1.0790 -0.0666
  436TMC3    O2 6562   3.197   1.955  15.443  0.1382 -0.8350  0.0104
  437TMC3    C1 6563   2.011   3.607  13.099 -0.0261  0.4645 -0.2712
  437TMC3    C2 6564   1.875   3.617  13.063 -0.2048  0.1908 -0.4363
  437TMC3    C3 6565   1.856   3.644  12.932  0.6140 -0.5031 -0.0601
  437TMC3    C4 6566   2.113   3.611  13.008 -0.3340  0.1018  0.1146
  437TMC3    C5 6567   2.082   3.619  12.870  0.0040  0.3687  0.1547
  437TMC3    C6 6568   1.951   3.652  12.833  0.1880  0.2995  0.0342
  437TMC3     C 6569   2.040   3.538  13.228 -0.8851 -0.7372 -0.1946
  437TMC3     O 6570   2.154   3.543  13.269  0.4293  0.2900  0.1141
  437TMC3     H 6571   1.801   3.626  13.141 -0.6899 -0.4563 -0.8188
  437TMC3    H1 6572   2.216   3.598  13.037 -0.2747  1.1882  0.3871
  437TMC3    H2 6573   1.927   3.653  12.727 -1.0310  0.9551  0.3192
  437TMC3    C7 6574   2.187   3.657  12.781 -0.0970  0.0682 -0.0026
  437TMC3    C8 6575   1.718   3.688  12.900  0.2643  0.0899 -0.0749
  437TMC3    O1 6576   2.173   3.625  12.664 -0.0426 -0.0628  0.1063
  437TMC3    O2 6577   1.629   3.639  12.966 -0.1956  0.6105  0.4823
  438MPD2     C 6578   3.690   4.286  16.785  0.6747  0.1375 -0.4727
  438MPD2    C1 6579   3.829   4.268  16.800 -0.4796  0.0671  0.4032
  438MPD2    C2 6580   3.874   4.283  16.932 -0.5985  0.5672  0.2056
  438MPD2    C3 6581   3.792   4.320  17.035 -0.3962 -0.2346 -1.2903
  438MPD2    C4 6582   3.653   4.327  17.019 -0.7974  0.3971  0.6598
  438MPD2    C5 6583   3.608   4.312  16.892  0.3613 -0.3690  0.0330
  438MPD2     H 6584   3.976   4.259  16.962 -0.7075  0.3069  0.3708
  438MPD2    H1 6585   3.586   4.342  17.102 -1.5783  3.2371 -0.4746
  438MPD2    H2 6586   3.635   4.262  16.695  2.2844 -1.0594 -1.1560
  438MPD2    H3 6587   3.505   4.317  16.859  0.4283  1.0570  0.0271
  438MPD2     N 6588   3.845   4.333  17.166  0.1606  0.1831 -0.8576
  438MPD2    H5 6589   3.788   4.291  17.239 -0.9113  0.4558 -1.5367
  438MPD2    N1 6590   3.919   4.222  16.704 -0.0037  0.2243  0.1792
  438MPD2    H7 6591   4.018   4.225  16.725  0.5351 -0.2300 -2.2247
  439TMC3    C1 6592   3.989   4.077  16.539  0.0065  0.6947 -0.4248
  439TMC3    C2 6593   3.975   4.036  16.410  0.4562 -0.6078  0.3798
  439TMC3    C3 6594   4.031   3.916  16.372 -0.5759 -0.1256  0.2999
  439TMC3    C4 6595   4.046   4.003  16.639 -0.1560 -0.4444  0.5657
  439TMC3    C5 6596   4.096   3.885  16.598 -0.5037 -0.3256  0.2850
  439TMC3    C6 6597   4.092   3.836  16.467 -0.5156  0.0410  0.0063
  439TMC3     C 6598   3.889   4.177  16.576  0.4769 -0.2723  0.3495
  439TMC3     O 6599   3.783   4.176  16.512  0.0165 -0.2884 -0.0114
  439TMC3     H 6600   3.923   4.103  16.342  1.5601  2.6942  2.8089
  439TMC3    H1 6601   4.060   4.031  16.743  0.6587 -0.2705  0.4056
  439TMC3    H2 6602   4.126   3.735  16.446  2.6403  1.0235  0.3382
  439TMC3    C7 6603   4.232   3.874  16.645 -0.9785  0.2506 -0.3727
  439TMC3    C8 6604   4.101   3.897  16.246 -0.2898  1.5163 -0.0426
  439TMC3    O1 6605   4.271   3.920  16.751  0.5857 -0.0481  0.5727
  439TMC3    O2 6606   4.206   3.829  16.252 -0.7578  0.4407 -0.3528
  440MPD2     C 6607   2.795   3.620  15.065  0.6943 -0.3407 -1.0759
  440MPD2    C1 6608   2.871   3.723  15.020  0.0035 -0.0741  0.1498
  440MPD2    C2 6609   2.999   3.740  15.069  0.9293 -0.1621  0.0236
  440MPD2    C3 6610   3.051   3.650  15.161  0.5002 -0.8627 -0.0053
  440MPD2    C4 6611   2.964   3.549  15.203  0.4227  0.0477  0.2618
  440MPD2    C5 6612   2.845   3.531  15.154 -0.9457  0.4802  0.3999
  440MPD2     H 6613   3.051   3.830  15.038  1.4169 -1.1443 -1.9803
  440MPD2    H1 6614   3.001   3.485  15.282  0.9704 -0.3108 -0.2767
  440MPD2    H2 6615   2.696   3.594  15.030  0.3262 -1.9258  1.1203
  440MPD2    H3 6616   2.784   3.448  15.188  0.4859 -0.1707  1.3674
  440MPD2     N 6617   3.173   3.667  15.233 -0.3416  0.2271 -0.0080
  440MPD2    H5 6618   3.183   3.604  15.312 -0.9841  2.4423  1.8455
  440MPD2    N1 6619   2.819   3.819  14.936 -0.2835  0.8954  0.5572
  440MPD2    H7 6620   2.873   3.900  14.907  2.1908 -0.1504  2.3246
  441TMC3    C1 6621   3.378   3.759  15.303  0.1758 -0.2059 -0.1818
  441TMC3    C2 6622   3.453   3.878  15.325  0.3954  0.0363  0.6260
  441TMC3    C3 6623   3.496   3.903  15.453  0.9682 -0.6330  0.2315
  441TMC3    C4 6624   3.381   3.666  15.398  1.0204 -0.5284 -0.3732
  441TMC3    C5 6625   3.420   3.689  15.524 -0.2631 -0.6144 -1.0866
  441TMC3    C6 6626   3.483   3.809  15.556  0.5569 -0.9886  0.4667
  441TMC3     C 6627   3.280   3.743  15.202 -0.2523 -0.9482 -0.2460
  441TMC3     O 6628   3.287   3.825  15.110 -0.8825  0.0308 -0.3771
  441TMC3     H 6629   3.440   3.959  15.254  2.0254 -0.3940 -0.1577
  441TMC3    H1 6630   3.344   3.567  15.373 -2.0768  0.6448 -0.4158
  441TMC3    H2 6631   3.516   3.842  15.654  1.3066 -0.6275  0.0881
  441TMC3    C7 6632   3.325   3.653  15.620 -0.3572  0.1396  0.0162
  441TMC3    C8 6633   3.469   4.036  15.488 -0.6632 -0.4568 -0.0330
  441TMC3    O1 6634   3.332   3.725  15.714 -0.5058 -0.0416 -0.8361
  441TMC3    O2 6635   3.511   4.125  15.414  0.3722  0.1510  0.5199
  442MPD2     C 6636   1.457   0.301  16.507  0.9009 -0.4902  0.0804
  442MPD2    C1 6637   1.345   0.275  16.577  0.4871 -1.0169  0.3136
  442MPD2    C2 6638   1.264   0.165  16.535  0.1775  0.0741 -0.0631
  442MPD2    C3 6639   1.302   0.076  16.428 -0.2110  0.5351  0.8340
  442MPD2    C4 6640   1.417   0.111  16.361  1.0157  0.1734 -0.1884
  442MPD2    C5 6641   1.496   0.214  16.405  0.0857  0.9198  0.1593
  442MPD2     H 6642   1.168   0.138  16.578 -0.9124  2.7259 -0.8410
  442MPD2    H1 6643   1.446   0.052  16.274  0.0974 -0.6466  0.0662
  442MPD2    H2 6644   1.521   0.384  16.534 -0.4039  0.1491  1.1896
  442MPD2    H3 6645   1.587   0.246  16.354 -0.7882  0.7655 -1.4778
  442MPD2     N 6646   1.234   4.694  16.389  0.5174 -0.5493  0.1839
  442MPD2    H5 6647   1.287   4.632  16.329 -3.6894 -1.7026 -2.3515
  442MPD2    N1 6648   1.295   0.371  16.670 -0.1191 -0.5518  0.2565
  442MPD2    H7 6649   1.339   0.459  16.692 -1.6942  0.7985 -1.9872
  443TMC3    C1 6650   1.146   0.458  16.827 -0.0347 -0.2536 -0.2159
  443TMC3    C2 6651   1.147   0.586  16.768  0.4007  0.2318  0.6303
  443TMC3    C3 6652   1.038   0.665  16.788  0.6804  0.5112  0.9463
  443TMC3    C4 6653   1.040   0.415  16.914 -0.6881 -0.2417  0.7319
  443TMC3    C5 6654   0.934   0.498  16.932  0.0322  0.5046  0.6105
  443TMC3    C6 6655   0.928   0.623  16.872  0.1148  0.3251 -0.5583
  443TMC3     C 6656   1.187   0.345  16.750 -0.0448  0.3612 -0.5964
  443TMC3     O 6657   1.141   0.237  16.777  0.1217  0.2583  0.7007
  443TMC3     H 6658   1.222   0.613  16.695  0.3694 -0.5150  0.3173
  443TMC3    H1 6659   1.039   0.316  16.959 -1.5507  0.1864  1.6529
  443TMC3    H2 6660   0.854   0.697  16.899  0.2108  0.2979 -0.2312
  443TMC3    C7 6661   0.828   0.462  17.020  0.1531  0.3313  0.3097
  443TMC3    C8 6662   1.004   0.736  16.658 -0.5591 -0.1078  0.2794
  443TMC3    O1 6663   0.761   0.555  17.070  0.5927 -0.2674  0.1929
  443TMC3    O2 6664   1.066   0.701  16.561 -0.2088 -0.1151  0.2618
  444MPD2     C 6665   1.143   4.614  16.812 -0.1996  0.4199 -0.1767
  444MPD2    C1 6666   1.105   4.501  16.886  0.1204  0.4671  0.7071
  444MPD2    C2 6667   1.171   4.381  16.873 -0.4132  0.0888 -0.4455
  444MPD2    C3 6668   1.278   4.375  16.785 -0.2557  0.5676  0.4084
  444MPD2    C4 6669   1.318   4.481  16.710  0.3097 -0.5273 -0.0602
  444MPD2    C5 6670   1.253   4.604  16.728 -0.0656 -0.8751 -0.1098
  444MPD2     H 6671   1.138   4.293  16.929 -0.3646  1.3494  1.5458
  444MPD2    H1 6672   1.405   4.469  16.645 -1.0278  0.8500 -2.0882
  444MPD2    H2 6673   1.095   4.711  16.814  0.2493  0.6577 -0.7266
  444MPD2    H3 6674   1.288   4.687  16.667  0.7667 -1.3276 -0.2513
  444MPD2     N 6675   1.334   4.250  16.767 -0.0618 -0.1844 -0.5968
  444MPD2    H5 6676   1.280   4.183  16.821  0.3082  2.6066  3.2264
  444MPD2    N1 6677   0.995   4.501  16.980 -0.6037 -0.5855  0.4281
  444MPD2    H7 6678   0.988   4.414  17.031 -1.0770 -0.2279  0.9841
  445TMC3    C1 6679   1.498   4.089  16.714 -0.1676  0.3345 -0.1459
  445TMC3    C2 6680   1.411   4.001  16.659 -0.6870 -0.1558  0.0944
  445TMC3    C3 6681   1.456   3.877  16.626  0.8300  0.2423  0.1006
  445TMC3    C4 6682   1.631   4.063  16.724 -0.1972  0.1101  0.3103
  445TMC3    C5 6683   1.666   3.937  16.680  0.0888  0.7351  0.3977
  445TMC3    C6 6684   1.581   3.832  16.641 -0.3259  0.6484  0.0793
  445TMC3     C 6685   1.455   4.228  16.706  0.8663 -0.0829 -0.0741
  445TMC3     O 6686   1.549   4.306  16.691 -0.2174  0.0352 -0.4589
  445TMC3     H 6687   1.307   4.029  16.649 -0.5228 -0.1678 -1.7303
  445TMC3    H1 6688   1.698   4.147  16.733 -0.5947  0.6763 -2.1304
  445TMC3    H2 6689   1.626   3.743  16.601 -0.0938  1.2714 -1.0287
  445TMC3    C7 6690   1.808   3.904  16.690 -0.7322 -0.0876 -0.1184
  445TMC3    C8 6691   1.366   3.781  16.557  0.0811  0.4539  0.2366
  445TMC3    O1 6692   1.849   3.800  16.639  0.7910  0.4511  0.3735
  445TMC3    O2 6693   1.263   3.828  16.510 -0.3318 -0.3216  0.4845
  446MPD2     C 6694   0.630   1.059  11.716  0.7102 -0.0958  0.3740
  446MPD2    C1 6695   0.611   1.134  11.604 -0.2276 -0.0606 -0.6229
  446MPD2    C2 6696   0.708   1.219  11.570  0.6374  0.2844  0.4974
  446MPD2    C3 6697   0.823   1.232  11.637 -0.2409 -0.0943  0.2559
  446MPD2    C4 6698   0.840   1.155  11.750 -0.4866 -0.0547  0.0620
  446MPD2    C5 6699   0.746   1.064  11.795  0.2734  1.3774 -0.7337
  446MPD2     H 6700   0.697   1.265  11.473 -1.7323  0.4541  0.8358
  446MPD2    H1 6701   0.937   1.150  11.798 -0.7952  2.5101  0.9436
  446MPD2    H2 6702   0.556   0.987  11.748  1.6994 -0.0418  2.7941
  446MPD2    H3 6703   0.769   0.983  11.863  1.0212  0.3424 -2.2172
  446MPD2     N 6704   0.921   1.331  11.596 -0.1845 -0.5845 -0.2662
  446MPD2    H5 6705   0.893   1.395  11.522  0.8177 -0.0262 -0.1631
  446MPD2    N1 6706   0.502   1.109  11.516 -0.8045 -0.5296  0.0325
  446MPD2    H7 6707   0.484   1.176  11.442  0.4461 -0.2405 -0.0128
  447TMC3    C1 6708   1.136   1.444  11.590 -0.7971 -0.8536  0.2238
  447TMC3    C2 6709   1.108   1.474  11.458 -0.0835 -0.6383 -0.3581
  447TMC3    C3 6710   1.209   1.530  11.387 -0.2937 -0.1016  0.3551
  447TMC3    C4 6711   1.259   1.468  11.645 -0.2378 -0.2342  0.3577
  447TMC3    C5 6712   1.357   1.523  11.568 -0.5930 -0.5062 -0.3739
  447TMC3    C6 6713   1.331   1.564  11.437  0.0480 -0.1597 -0.1890
  447TMC3     C 6714   1.048   1.347  11.656  0.4639  0.4073  0.0649
  447TMC3     O 6715   1.102   1.269  11.732  0.3620 -0.4363  0.2402
  447TMC3     H 6716   1.010   1.461  11.414 -0.2033 -2.7575  0.5184
  447TMC3    H1 6717   1.272   1.432  11.747 -3.3295 -1.7016  0.2348
  447TMC3    H2 6718   1.404   1.604  11.368 -0.4500  1.3321  0.1439
  447TMC3    C7 6719   1.490   1.541  11.618 -0.2589 -0.8435 -0.0989
  447TMC3    C8 6720   1.172   1.561  11.250  0.2865 -0.4116 -0.2367
  447TMC3    O1 6721   1.590   1.543  11.552 -0.2177 -0.1483 -0.0303
  447TMC3    O2 6722   1.052   1.569  11.226 -0.7101 -0.1269  0.1645
  448TMC3    C1 6723   4.667   1.107  16.630 -0.2081 -0.3602 -0.5745
  448TMC3    C2 6724   4.572   1.014  16.605  0.4834 -0.2110  0.5647
  448TMC3    C3 6725   4.608   0.885  16.647  0.5058 -0.3269  0.3085
  448TMC3    C4 6726   0.060   1.076  16.662  0.0626  0.3482  0.6365
  448TMC3    C5 6727   0.087   0.950  16.708  0.4864 -1.0820 -0.7260
  448TMC3    C6 6728   4.727   0.857  16.708  0.5103 -0.1006  0.1312
  448TMC3     C 6729   4.636   1.252  16.612 -0.0087  0.6291 -0.6591
  448TMC3     O 6730   4.515   1.269  16.634 -0.1025 -0.3137 -0.2531
  448TMC3     H 6731   4.468   1.036  16.581  0.4902  0.9905  1.6260
  448TMC3    H1 6732   0.135   1.154  16.665 -0.2816  0.5337  5.3018
  448TMC3    H2 6733   0.011   0.751  16.718  0.7988 -0.0157  0.4439
  448TMC3    C7 6734   0.211   0.914  16.766  0.3781  0.0011  0.5920
  448TMC3    C8 6735   4.514   0.771  16.626 -0.2144 -0.0067 -0.0475
  448TMC3    O1 6736   0.319   0.947  16.718  0.5800 -0.3279  0.0589
  448TMC3    O2 6737   4.537   0.665  16.683  0.5178  0.3179 -0.4440
  449MPD2     C 6738   0.886   4.094  13.922 -0.4531 -0.4742 -0.0914
  449MPD2    C1 6739   0.830   4.217  13.916 -0.3706  0.1797 -0.0683
  449MPD2    C2 6740   0.707   4.233  13.987 -0.1205 -0.2131  0.2062
  449MPD2    C3 6741   0.652   4.129  14.060 -0.0989  0.0782 -0.4544
  449MPD2    C4 6742   0.721   4.006  14.073 -0.3132 -0.3220  0.0933
  449MPD2    C5 6743   0.834   3.991  14.002 -0.2999 -0.2283 -0.1101
  449MPD2     H 6744   0.660   4.331  13.994  1.4641  0.6840 -1.9618
  449MPD2    H1 6745   0.678   3.915  14.113  1.3398 -1.2817 -0.2885
  449MPD2    H2 6746   0.973   4.079  13.858 -2.1919 -0.6324 -2.4431
  449MPD2    H3 6747   0.881   3.893  14.002 -1.3930 -0.7458 -1.7080
  449MPD2     N 6748   0.527   4.154  14.113  0.1174 -0.5061  0.2107
  449MPD2    H5 6749   0.483   4.238  14.078 -2.2478 -0.8366  2.4078
  449MPD2    N1 6750   0.869   4.332  13.842  0.0866 -0.3669  0.1569
  449MPD2    H7 6751   0.811   4.412  13.862  0.4912 -0.4184  1.5271
  450TMC3    C1 6752   0.989   4.488  13.715 -0.1668 -0.3691  0.8475
  450TMC3    C2 6753   0.976   4.504  13.581 -0.8426  0.2102  0.0173
  450TMC3    C3 6754   0.904   4.617  13.545  0.0403  0.0021 -0.1347
  450TMC3    C4 6755   0.935   4.573  13.813 -0.6348  0.0763  0.4157
  450TMC3    C5 6756   0.857   4.678  13.769  0.4158 -0.8486  0.3998
  450TMC3    C6 6757   0.845   4.700  13.632  0.3097 -0.4093 -0.3703
  450TMC3     C 6758   0.979   4.348  13.759  0.1279  0.5993  0.4408
  450TMC3     O 6759   1.069   4.262  13.731 -0.8377 -0.4723 -0.0568
  450TMC3     H 6760   1.025   4.428  13.522  0.7373  0.9152  0.4309
  450TMC3    H1 6761   0.972   4.571  13.915 -0.4022  1.1065  0.3553
  450TMC3    H2 6762   0.780   0.044  13.603  1.2903  0.6219  0.3639
  450TMC3    C7 6763   0.738   4.669  13.849 -0.0663 -0.3747 -0.6261
  450TMC3    C8 6764   0.900   4.656  13.402 -0.3105  0.1871 -0.9589
  450TMC3    O1 6765   0.721   4.563  13.900  0.1411  0.3027  0.4126
  450TMC3    O2 6766   0.837   0.024  13.378  0.1029 -0.3545 -0.1228
  451MPD2     C 6767   1.873   2.440   1.262  0.1048 -0.7238 -0.5158
  451MPD2    C1 6768   1.964   2.498   1.175  0.3412  0.0090 -0.1679
  451MPD2    C2 6769   2.073   2.423   1.120 -0.5325  0.2132 -0.3625
  451MPD2    C3 6770   2.083   2.293   1.161 -0.2857  0.0016  0.3704
  451MPD2    C4 6771   1.993   2.233   1.255  0.7834  0.1016 -0.0265
  451MPD2    C5 6772   1.887   2.308   1.301 -0.5851 -0.6074  0.9987
  451MPD2     H 6773   2.151   2.465   1.057 -0.3923  1.9963  0.9940
  451MPD2    H1 6774   2.012   2.134   1.294  1.3558  1.1147  2.2469
  451MPD2    H2 6775   1.798   2.502   1.310  0.2168 -1.2582  0.3458
  451MPD2    H3 6776   1.819   2.275   1.379 -1.1301  0.8920  1.1432
  451MPD2     N 6777   2.182   2.204   1.110 -0.4176 -0.0830  0.5725
  451MPD2    H5 6778   2.188   2.110   1.148 -0.5125 -0.7139 -0.9448
  451MPD2    N1 6779   1.941   2.639   1.142 -0.0451 -0.0876  0.3769
  451MPD2    H7 6780   1.871   2.689   1.195 -0.1016  1.5067 -1.2043
  452TMC3    C1 6781   2.383   2.132   0.994  0.4933 -0.4991  0.7521
  452TMC3    C2 6782   2.358   1.999   1.024  0.1486  0.0067  0.3769
  452TMC3    C3 6783   2.440   1.904   0.970 -0.0123  0.2009  0.8600
  452TMC3    C4 6784   2.490   2.164   0.915 -0.1974  0.2637 -0.3576
  452TMC3    C5 6785   2.574   2.067   0.865 -0.4724 -0.0299  0.1300
  452TMC3    C6 6786   2.557   1.934   0.901  0.3586  0.1956  0.6070
  452TMC3     C 6787   2.286   2.235   1.021  0.0582 -0.5184 -0.1599
  452TMC3     O 6788   2.300   2.339   0.957 -0.7331  0.2924  0.0283
  452TMC3     H 6789   2.266   1.971   1.075 -0.5211 -1.3448 -1.5619
  452TMC3    H1 6790   2.504   2.268   0.886  0.4191  0.3925  0.4011
  452TMC3    H2 6791   2.611   1.850   0.858 -0.0822  0.0391  0.3593
  452TMC3    C7 6792   2.651   2.100   0.745 -0.1738 -0.6698  0.1250
  452TMC3    C8 6793   2.385   1.770   0.963 -0.4397 -0.4647 -0.1225
  452TMC3    O1 6794   2.640   2.214   0.705 -0.5485 -0.6793  0.6809
  452TMC3    O2 6795   2.350   1.720   1.069  0.2179 -0.5246  0.9381
  453TMC3    C1 6796   3.265   0.308  12.080 -0.0990 -0.0645  0.0544
  453TMC3    C2 6797   3.170   0.225  12.135  0.0614  0.3132  0.6451
  453TMC3    C3 6798   3.091   0.159  12.043  0.7980  0.5537 -0.0575
  453TMC3    C4 6799   3.279   0.333  11.943 -0.6370  0.2836 -0.4231
  453TMC3    C5 6800   3.199   0.257  11.859 -0.1134  0.0192 -0.1689
  453TMC3    C6 6801   3.106   0.170  11.907 -0.8338  0.2320  0.6019
  453TMC3     C 6802   3.388   0.272  12.135 -0.4482  0.0302  0.1839
  453TMC3     O 6803   3.490   0.338  12.115 -0.0949  0.0628 -0.4600
  453TMC3     H 6804   3.139   0.241  12.237 -0.7038 -0.9176  0.6081
  453TMC3    H1 6805   3.351   0.403  11.901 -1.8185  1.8600  0.1548
  453TMC3    H2 6806   3.044   0.112  11.840 -1.9811  1.3904  0.6708
  453TMC3    C7 6807   3.205   0.266  11.719 -0.1890 -0.4906  0.1434
  453TMC3    C8 6808   3.046   0.030  12.092 -0.6616  0.0092  0.2540
  453TMC3    O1 6809   3.177   0.167  11.653 -0.2298  0.0535 -0.4202
  453TMC3    O2 6810   3.036   0.011  12.208  0.1054  0.1287  0.9660
  454MPD2     C 6811   2.194   4.044  16.299 -0.4739 -1.0420  0.5413
  454MPD2    C1 6812   2.096   4.089  16.210  0.3110  0.0350 -0.4530
  454MPD2    C2 6813   2.057   4.225  16.221  0.2712  0.8019  0.9069
  454MPD2    C3 6814   2.115   4.311  16.316  0.0672  0.1389  0.2706
  454MPD2    C4 6815   2.211   4.269  16.400  0.4125 -0.4243 -0.0002
  454MPD2    C5 6816   2.249   4.133  16.387 -0.4538  0.5690  0.1386
  454MPD2     H 6817   1.974   4.259  16.161  0.5616 -1.3154 -0.6715
  454MPD2    H1 6818   2.273   4.337  16.457  2.5654 -3.0137  0.7370
  454MPD2    H2 6819   2.235   3.944  16.304 -0.2688 -1.0261 -0.7569
  454MPD2    H3 6820   2.338   4.098  16.438  0.2174  0.3537 -1.2007
  454MPD2     N 6821   2.066   4.441  16.342 -0.0070  0.1238 -0.0241
  454MPD2    H5 6822   2.091   4.484  16.431  1.7225  0.7809 -0.8283
  454MPD2    N1 6823   2.026   4.010  16.113  0.6269 -0.4020 -0.2098
  454MPD2    H7 6824   1.956   4.060  16.059  1.3622 -0.0829 -0.8742
  455TMC3    C1 6825   1.872   4.579  16.333 -0.1728 -0.5822 -0.3405
  455TMC3    C2 6826   1.905   4.625  16.454  0.5536 -0.1994  0.1426
  455TMC3    C3 6827   1.812   4.625  16.554  0.4264 -0.8165  0.4814
  455TMC3    C4 6828   1.742   4.542  16.311  0.0767 -0.1838 -0.2530
  455TMC3    C5 6829   1.652   4.532  16.414  0.4866 -0.6218 -0.6801
  455TMC3    C6 6830   1.689   4.569  16.539  0.4053  0.6685 -0.8603
  455TMC3     C 6831   1.967   4.496  16.256  0.0632  0.0562  0.5321
  455TMC3     O 6832   1.940   4.476  16.136  0.2139  0.2700 -0.3123
  455TMC3     H 6833   2.004   4.660  16.482  0.4453 -0.2917  0.6312
  455TMC3    H1 6834   1.718   4.513  16.209  1.0557  3.9575 -1.6531
  455TMC3    H2 6835   1.623   4.557  16.624 -0.0507 -1.8287 -1.5527
  455TMC3    C7 6836   1.610   4.399  16.404  0.3062 -0.7078 -0.2715
  455TMC3    C8 6837   1.838   4.697  16.669  0.0453  0.1064 -0.2371
  455TMC3    O1 6838   1.499   4.391  16.353  0.2613  0.0887 -0.2853
  455TMC3    O2 6839   1.769   4.665  16.766 -0.9499 -0.5081  0.0344
  456MPD2     C 6840   4.237   4.240  16.281 -0.0408 -0.0255  0.2084
  456MPD2    C1 6841   4.335   4.276  16.381 -0.9514 -0.4852  0.2762
  456MPD2    C2 6842   4.296   4.367  16.476 -0.6729  0.2248 -0.1498
  456MPD2    C3 6843   4.170   4.432  16.485  0.0589 -0.1540  0.2526
  456MPD2    C4 6844   4.079   4.394  16.390  0.3680  0.6595  0.3194
  456MPD2    C5 6845   4.113   4.303  16.295  0.0410  0.2021 -0.1199
  456MPD2     H 6846   4.370   4.399  16.549  0.4268 -1.4050 -0.5555
  456MPD2    H1 6847   3.984   4.445  16.377  0.6424  0.7013 -1.6008
  456MPD2    H2 6848   4.255   4.184  16.190  0.3001 -0.6805  0.6744
  456MPD2    H3 6849   4.029   4.280  16.231  1.8597 -0.5069 -2.2466
  456MPD2     N 6850   4.152   4.527  16.589  0.4230 -0.2613  0.2220
  456MPD2    H5 6851   4.228   4.556  16.650 -1.6742  0.5718  2.4394
  456MPD2    N1 6852   4.463   4.221  16.372 -0.6656  0.1613  0.3094
  456MPD2    H7 6853   4.484   4.154  16.299 -1.3900 -0.4656  0.6707
  457TMC3    C1 6854   4.083   4.714  16.695 -0.1751  0.4236  0.2357
  457TMC3    C2 6855   4.098   0.103  16.655  0.8446  0.4142 -0.2335
  457TMC3    C3 6856   4.184   0.191  16.726  0.2068  0.3293  0.6154
  457TMC3    C4 6857   4.144   4.662  16.805 -0.4898 -0.6895 -0.8137
  457TMC3    C5 6858   4.234   0.010  16.873  0.9819 -0.6420  0.2887
  457TMC3    C6 6859   4.252   0.146  16.837  1.2183  1.1040  0.5445
  457TMC3     C 6860   4.062   4.626  16.584  0.1388 -0.1453 -0.0442
  457TMC3     O 6861   3.964   4.641  16.512 -0.0846 -0.3711 -0.2381
  457TMC3     H 6862   4.051   0.137  16.563  1.1670  0.8737 -0.2275
  457TMC3    H1 6863   4.127   4.565  16.848 -1.2338 -0.3264 -0.2921
  457TMC3    H2 6864   4.323   0.208  16.890  1.5121  0.1531  1.2561
  457TMC3    C7 6865   4.341   4.673  16.937 -0.0745 -0.2758 -0.6421
  457TMC3    C8 6866   4.221   0.326  16.675  0.1744 -0.3743 -0.3398
  457TMC3    O1 6867   4.333   4.568  17.002  0.8251  0.2681 -0.3875
  457TMC3    O2 6868   4.301   0.381  16.750 -0.1688 -0.2305 -0.3967
  458MPD2     C 6869   2.652   3.870  12.668 -0.3359  0.6983  0.0959
  458MPD2    C1 6870   2.613   3.902  12.798 -0.0377  0.0825 -0.1608
  458MPD2    C2 6871   2.495   3.845  12.856  1.2443  0.0782 -0.5941
  458MPD2    C3 6872   2.410   3.775  12.780 -0.1172  0.2590  0.2045
  458MPD2    C4 6873   2.446   3.751  12.645 -0.1714 -0.1655  0.0485
  458MPD2    C5 6874   2.566   3.795  12.593 -0.5087  0.6027 -0.6916
  458MPD2     H 6875   2.465   3.860  12.959  3.4664 -0.2374  0.0992
  458MPD2    H1 6876   2.384   3.684  12.587  0.2390  0.7366 -1.4174
  458MPD2    H2 6877   2.732   3.914  12.609 -0.8379  1.0359 -0.3396
  458MPD2    H3 6878   2.590   3.774  12.490 -1.1506  2.4735 -1.2140
  458MPD2     N 6879   2.294   3.727  12.842  0.3917 -0.1946 -0.0430
  458MPD2    H5 6880   2.269   3.763  12.934 -2.3332  0.3975 -1.0137
  458MPD2    N1 6881   2.697   3.995  12.865 -0.3750  0.2962  0.3579
  458MPD2    H7 6882   2.784   4.020  12.818 -0.7825 -2.1428 -1.7018
  459TMC3    C1 6883   2.784   4.134  13.031 -0.8552  0.5160 -0.3993
  459TMC3    C2 6884   2.860   4.206  12.942 -0.0406  0.1668 -0.9962
  459TMC3    C3 6885   2.988   4.239  12.981 -0.2773 -0.1812  0.2708
  459TMC3    C4 6886   2.829   4.108  13.159  0.1261  0.0446 -0.1632
  459TMC3    C5 6887   2.953   4.155  13.201  0.2087  0.5630 -0.7360
  459TMC3    C6 6888   3.042   4.205  13.109  0.0300 -0.8467 -0.2579
  459TMC3     C 6889   2.683   4.047  12.995 -0.0742 -0.3064 -0.4161
  459TMC3     O 6890   2.602   4.009  13.080 -0.2599  0.3048 -0.6185
  459TMC3     H 6891   2.824   4.243  12.847 -2.5642 -1.6981 -0.7811
  459TMC3    H1 6892   2.760   4.063  13.230  1.4753  0.3456  1.3491
  459TMC3    H2 6893   3.147   4.225  13.127 -0.2389  0.0694  0.2557
  459TMC3    C7 6894   3.001   4.105  13.329  0.2264 -0.0774 -0.0933
  459TMC3    C8 6895   3.073   4.290  12.884 -0.4721 -0.0046 -0.1056
  459TMC3    O1 6896   3.088   4.173  13.378 -0.1891 -0.4169 -0.0590
  459TMC3    O2 6897   3.194   4.278  12.909 -0.0072 -0.5012  0.0730
  460MPD2     C 6898   1.382   1.595  10.953 -0.2601  0.2886  0.3846
  460MPD2    C1 6899   1.276   1.623  11.036  0.1840  0.5859  0.7270
  460MPD2    C2 6900   1.171   1.704  10.985  0.3675  0.2788 -0.1058
  460MPD2    C3 6901   1.185   1.765  10.863 -0.4115  0.0058  0.1943
  460MPD2    C4 6902   1.305   1.746  10.795 -0.7685  0.5296  0.0809
  460MPD2    C5 6903   1.404   1.662  10.837  0.1092  0.3169 -0.3278
  460MPD2     H 6904   1.079   1.717  11.042  1.4683 -0.4640  1.8442
  460MPD2    H1 6905   1.327   1.795  10.701  0.1817  1.7529  0.9473
  460MPD2    H2 6906   1.465   1.535  10.990  0.7860  1.4589 -0.0502
  460MPD2    H3 6907   1.491   1.639  10.776  0.5710  2.7623 -0.5911
  460MPD2     N 6908   1.085   1.852  10.813  0.5978 -0.1073 -0.3896
  460MPD2    H5 6909   1.006   1.876  10.871  1.0526  1.4170 -0.4003
  460MPD2    N1 6910   1.278   1.561  11.162 -0.0982 -0.1842  0.0219
  460MPD2    H7 6911   1.371   1.530  11.188  0.2478 -0.1489 -1.1893
  461TMC3    C1 6912   0.971   1.987  10.673 -0.1450 -0.0429 -0.2768
  461TMC3    C2 6913   0.876   1.890  10.640  0.0265 -0.1123  0.1414
  461TMC3    C3 6914   0.755   1.938  10.594 -0.0544  0.3035 -0.5274
  461TMC3    C4 6915   0.948   2.123  10.665 -0.5907 -0.6254  0.2799
  461TMC3    C5 6916   0.830   2.165  10.611 -0.4553  0.0423 -0.5322
  461TMC3    C6 6917   0.731   2.077  10.585  0.3829 -0.5981 -0.3719
  461TMC3     C 6918   1.095   1.933  10.702  0.3559  0.0557  0.4025
  461TMC3     O 6919   1.181   1.959  10.619 -0.2525 -0.0808 -0.3320
  461TMC3     H 6920   0.903   1.785  10.636 -0.4177 -0.2277  0.1966
  461TMC3    H1 6921   1.036   2.186  10.675  0.0471 -1.4232 -0.2910
  461TMC3    H2 6922   0.642   2.113  10.536  1.1041  1.3428 -0.2513
  461TMC3    C7 6923   0.808   2.301  10.563  0.0176 -0.9624 -0.1500
  461TMC3    C8 6924   0.690   1.845  10.507  0.3253  0.1443  0.1582
  461TMC3    O1 6925   0.693   2.328  10.529 -0.1247  0.0983 -0.1065
  461TMC3    O2 6926   0.757   1.754  10.457  0.6503  0.0382 -0.0262
  462TMC3    C1 6927   1.561   2.847   0.675 -0.1440 -0.2459 -0.0147
  462TMC3    C2 6928   1.668   2.848   0.587 -0.4426 -0.0725  0.5684
  462TMC3    C3 6929   1.688   2.746   0.500  0.0194  0.4488 -0.3637
  462TMC3    C4 6930   1.476   2.743   0.675 -0.0247  0.4840  0.2228
  462TMC3    C5 6931   1.504   2.648   0.579 -0.0370 -0.0036  0.3119
  462TMC3    C6 6932   1.608   2.634   0.499  0.0812 -0.6143 -0.3047
  462TMC3     C 6933   1.539   2.963   0.761 -0.6522  0.5710  0.0327
  462TMC3     O 6934   1.467   2.940   0.856  0.0136  0.4842 -0.0823
  462TMC3     H 6935   1.739   2.930   0.587 -0.3427 -0.1398 -1.4056
  462TMC3    H1 6936   1.399   2.724   0.750  0.8794  0.6189  1.1820
  462TMC3    H2 6937   1.598   2.574   0.410 -1.6076  0.3185 -0.7440
  462TMC3    C7 6938   1.430   2.527   0.580  0.2576 -0.4369 -0.4968
  462TMC3    C8 6939   1.805   2.743   0.416  0.7875 -0.3693  0.9832
  462TMC3    O1 6940   1.502   2.425   0.571  0.3531 -0.2206  0.1419
  462TMC3    O2 6941   1.874   2.841   0.398  0.6431 -0.0704  0.0934
  463MPD2     C 6942   2.968   0.520   1.819  0.2847  0.1837 -0.0193
  463MPD2    C1 6943   2.841   0.574   1.806 -0.6639  0.2569  0.1304
  463MPD2    C2 6944   2.823   0.707   1.799  0.1945 -0.4841  0.3772
  463MPD2    C3 6945   2.928   0.793   1.775 -0.4830  0.0767 -0.1019
  463MPD2    C4 6946   3.053   0.744   1.772  0.4917  0.0216  0.7058
  463MPD2    C5 6947   3.072   0.607   1.797  0.4782 -0.4174 -0.3711
  463MPD2     H 6948   2.721   0.741   1.789  0.5647  0.5518  0.1584
  463MPD2    H1 6949   3.141   0.803   1.748  0.0408  0.4186  0.0178
  463MPD2    H2 6950   3.001   0.417   1.818  0.5743  0.2741  0.6029
  463MPD2    H3 6951   3.171   0.564   1.803  0.5541 -0.3830 -1.3476
  463MPD2     N 6952   2.916   0.925   1.734 -0.5224 -0.2844  0.0225
  463MPD2    H5 6953   3.000   0.980   1.721 -1.4887  1.0106 -0.6967
  463MPD2    N1 6954   2.721   0.500   1.816  0.0776 -0.0877 -0.3389
  463MPD2    H7 6955   2.633   0.548   1.799  0.2097  0.0721 -0.5685
  464TMC3    C1 6956   2.589   0.310   1.821  0.5940 -0.4824  0.1719
  464TMC3    C2 6957   2.472   0.373   1.861 -0.1843 -0.2157  0.0863
  464TMC3    C3 6958   2.353   0.330   1.808 -0.4435  0.0654  0.1198
  464TMC3    C4 6959   2.589   0.200   1.752  0.0076 -0.2516  0.6074
  464TMC3    C5 6960   2.474   0.172   1.685 -0.9179  1.0129  0.1985
  464TMC3    C6 6961   2.356   0.232   1.716 -0.1638  0.7346 -0.2403
  464TMC3     C 6962   2.715   0.361   1.837  0.2989  0.2542 -1.0514
  464TMC3     O 6963   2.804   0.284   1.852  0.2086 -0.3493 -0.0605
  464TMC3     H 6964   2.482   0.460   1.925 -2.9648 -0.6418  1.0714
  464TMC3    H1 6965   2.674   0.135   1.732  0.3824  0.1654  0.8397
  464TMC3    H2 6966   2.261   0.221   1.665 -0.6464 -1.7574  1.2131
  464TMC3    C7 6967   2.498   0.113   1.557 -0.3899  0.5123 -0.2097
  464TMC3    C8 6968   2.247   0.424   1.799 -0.8440  0.5492 -0.4646
  464TMC3    O1 6969   2.617   0.095   1.520  0.3540 -0.4469 -0.2381
  464TMC3    O2 6970   2.166   0.413   1.710 -0.0308 -0.2416 -0.2574
  465MPD2     C 6971   3.880   0.426  16.806 -0.4662 -0.0039  0.4362
  465MPD2    C1 6972   3.864   0.299  16.862  0.6269 -0.0224  0.1295
  465MPD2    C2 6973   3.806   0.199  16.787 -0.0927  0.0212  0.0406
  465MPD2    C3 6974   3.770   0.226  16.656  0.1490 -0.1392  0.3352
  465MPD2    C4 6975   3.787   0.352  16.599  1.0672  1.4971  0.4520
  465MPD2    C5 6976   3.843   0.449  16.679  0.9142 -0.0665 -0.0094
  465MPD2     H 6977   3.793   0.101  16.831 -2.4675 -1.1788 -3.4002
  465MPD2    H1 6978   3.764   0.374  16.495 -2.2932 -1.4534  0.5639
  465MPD2    H2 6979   3.920   0.503  16.871 -0.6133  1.1935 -0.9129
  465MPD2    H3 6980   3.875   0.546  16.643  3.5629 -1.0578 -0.3392
  465MPD2     N 6981   3.707   0.141  16.567  0.1536 -0.4559 -0.0699
  465MPD2    H5 6982   3.700   0.166  16.469 -0.3598 -3.4496 -0.8127
  465MPD2    N1 6983   3.909   0.263  16.991  0.4397 -0.7910  0.2484
  465MPD2    H7 6984   3.880   0.171  17.025 -1.0661 -1.0302 -1.6555
  466TMC3    C1 6985   3.401   4.533  16.489  0.5904 -0.0822 -0.3322
  466TMC3    C2 6986   3.323   4.614  16.415 -0.0557 -0.6801 -0.5923
  466TMC3    C3 6987   3.383   4.735  16.372 -0.9495  0.1607  0.5335
  466TMC3    C4 6988   3.527   4.564  16.521 -0.0903  0.2671  0.5987
  466TMC3    C5 6989   3.584   4.688  16.484  0.1472 -0.6176  0.0714
  466TMC3    C6 6990   3.514   0.031  16.395  0.2636  0.4439 -0.9557
  466TMC3     C 6991   3.331   4.466  16.599 -0.2426  0.2649 -0.0838
  466TMC3     O 6992   3.384   4.473  16.707  0.4806  0.2852  0.1674
  466TMC3     H 6993   3.221   4.600  16.380  0.1795 -1.5457 -0.9200
  466TMC3    H1 6994   3.577   4.499  16.592  0.2831 -0.5380 -0.4002
  466TMC3    H2 6995   3.548   0.129  16.363 -0.2734  0.6169 -1.0057
  466TMC3    C7 6996   3.662   0.013  16.594 -0.3309 -0.9113  0.0529
  466TMC3    C8 6997   3.301   0.098  16.313  0.8557  0.4654  0.2087
  466TMC3    O1 6998   3.659   4.702  16.706 -0.7084  0.1619 -0.0406
  466TMC3    O2 6999   3.242   0.070  16.211  0.1274 -0.1256  0.3994
  467TMC3    C1 7000   4.345   3.313  13.675 -0.5974  0.1167  0.2103
  467TMC3    C2 7001   4.323   3.443  13.703 -0.2170  0.3364  0.4615
  467TMC3    C3 7002   4.247   3.479  13.813  0.0545 -0.0092  0.6170
  467TMC3    C4 7003   4.275   3.216  13.745  0.0209 -0.5099 -0.9203
  467TMC3    C5 7004   4.195   3.253  13.844  0.3025 -0.0727 -0.3206
  467TMC3    C6 7005   4.185   3.384  13.883  0.3325  0.2868 -1.1681
  467TMC3     C 7006   4.485   3.286  13.697 -0.0501  0.4466  0.1600
  467TMC3     O 7007   4.570   3.355  13.644 -0.1507  0.2211  0.3861
  467TMC3     H 7008   4.393   3.512  13.656 -0.1122 -0.4304 -0.5128
  467TMC3    H1 7009   4.280   3.109  13.723  2.5096 -0.5398 -0.2243
  467TMC3    H2 7010   4.123   3.409  13.969 -0.5296 -3.0161 -0.8099
  467TMC3    C7 7011   4.199   3.152  13.951  0.0322  0.0050  0.4148
  467TMC3    C8 7012   4.304   3.593  13.887 -0.6975 -0.2762  0.0794
  467TMC3    O1 7013   4.292   3.074  13.952 -0.5380  0.2408  0.1834
  467TMC3    O2 7014   4.243   3.696  13.857 -0.2495  0.2429 -0.1467
  468MPD2     C 7015   2.979   1.298  10.670 -0.1495 -0.3975  0.6134
  468MPD2    C1 7016   3.021   1.247  10.790  0.4364 -0.2642 -0.2338
  468MPD2    C2 7017   3.045   1.109  10.799  0.2102 -0.9215  0.1952
  468MPD2    C3 7018   3.033   1.024  10.692 -0.4616  0.0376  0.1830
  468MPD2    C4 7019   2.994   1.076  10.570  0.9579 -0.4272 -0.4976
  468MPD2    C5 7020   2.974   1.215  10.560 -0.2386 -0.3803  0.3694
  468MPD2     H 7021   3.080   1.070  10.894  0.9572 -2.2694 -0.6342
  468MPD2    H1 7022   2.988   1.006  10.487  1.1732 -0.0883 -0.7985
  468MPD2    H2 7023   2.954   1.402  10.653 -0.0008  0.0045  2.8476
  468MPD2    H3 7024   2.949   1.249  10.460 -0.8075  1.3427  1.0936
  468MPD2     N 7025   3.070   0.892  10.696  0.2112  0.0277 -0.3192
  468MPD2    H5 7026   3.071   0.843  10.606  0.2501 -1.4455  0.4773
  468MPD2    N1 7027   3.043   1.336  10.905  0.6491  0.0148  0.1675
  468MPD2    H7 7028   3.088   1.292  10.985 -0.8070 -1.3694  0.2510
  469TMC3    C1 7029   3.059   1.531  11.023  1.0725  0.5900  0.0426
  469TMC3    C2 7030   3.175   1.491  11.077 -0.3014 -0.1379 -0.2139
  469TMC3    C3 7031   3.210   1.529  11.203 -0.1675 -0.2906 -0.3420
  469TMC3    C4 7032   2.972   1.613  11.093 -0.0235  0.0107 -0.2714
  469TMC3    C5 7033   3.006   1.638  11.219 -0.3288  0.1425 -0.4159
  469TMC3    C6 7034   3.118   1.597  11.284  0.0331 -0.5066 -0.1351
  469TMC3     C 7035   3.012   1.473  10.905  0.1797  0.8853  0.9632
  469TMC3     O 7036   2.927   1.540  10.844 -0.0454 -0.1477  0.2018
  469TMC3     H 7037   3.252   1.429  11.031 -0.4133  0.5294 -1.3081
  469TMC3    H1 7038   2.877   1.644  11.051  0.2942  1.9409  0.4298
  469TMC3    H2 7039   3.135   1.617  11.389  1.8765  1.1274 -0.7561
  469TMC3    C7 7040   2.899   1.699  11.298  0.4201 -0.2667  0.8421
  469TMC3    C8 7041   3.325   1.469  11.263 -0.8286  0.2823  0.6340
  469TMC3    O1 7042   2.784   1.669  11.258  0.0834  0.3408  0.6682
  469TMC3    O2 7043   3.390   1.386  11.196  0.1437 -0.0050  0.0600
  470TMC3    C1 7044   0.880   1.766   0.744  0.4455 -0.0041 -0.2448
  470TMC3    C2 7045   0.940   1.876   0.796  0.1821 -1.0904  0.2175
  470TMC3    C3 7046   0.883   1.929   0.908  0.5246  0.4553 -0.9521
  470TMC3    C4 7047   0.769   1.712   0.802  0.4052  1.1827  0.1274
  470TMC3    C5 7048   0.721   1.765   0.919 -0.1216  0.3151  0.6180
  470TMC3    C6 7049   0.780   1.874   0.976  0.1662  0.3238  0.1100
  470TMC3     C 7050   0.978   1.673   0.694 -0.0670 -0.0645 -0.1652
  470TMC3     O 7051   1.095   1.699   0.696  0.2475 -0.3732 -0.2466
  470TMC3     H 7052   1.018   1.922   0.737 -0.4046  0.3077  0.5328
  470TMC3    H1 7053   0.717   1.640   0.740  0.4898  1.4972 -0.3124
  470TMC3    H2 7054   0.766   1.906   1.079  1.4620  2.8498 -0.5034
  470TMC3    C7 7055   0.588   1.730   0.951  1.5232 -0.1103 -0.1430
  470TMC3    C8 7056   0.918   2.061   0.950  0.5553  0.5380  0.3388
  470TMC3    O1 7057   0.540   1.632   0.897 -0.8031  0.1356 -0.2095
  470TMC3    O2 7058   0.826   2.131   0.990 -0.3682  1.1392 -0.5826
  471MPD2     C 7059   1.276   3.735  17.141 -0.2048  0.1924  0.5449
  471MPD2    C1 7060   1.290   3.604  17.102  0.4063  0.3569  0.4350
  471MPD2    C2 7061   1.371   3.515  17.171 -0.3169  0.2614 -0.3860
  471MPD2    C3 7062   1.464   3.563  17.263  0.0314 -0.8705  0.1494
  471MPD2    C4 7063   1.448   3.692  17.302  0.7580  0.5510  0.6004
  471MPD2    C5 7064   1.355   3.775  17.247 -0.7248  0.1285  0.2978
  471MPD2     H 7065   1.357   3.411  17.145  4.9514 -0.1087 -1.6127
  471MPD2    H1 7066   1.513   3.743  17.372  2.1720  0.0057 -0.3058
  471MPD2    H2 7067   1.213   3.810  17.095  0.0516 -0.5102 -0.9618
  471MPD2    H3 7068   1.346   3.878  17.279  0.0732  0.4174 -0.4135
  471MPD2     N 7069   1.571   3.488  17.304  0.5412  0.0862  0.1705
  471MPD2    H5 7070   1.636   3.517  17.377  0.7294  1.1334 -0.4135
  471MPD2    N1 7071   1.234   3.543  16.995 -0.2679 -0.0560  0.0513
  471MPD2    H7 7072   1.265   3.447  16.986 -1.9351 -0.4840 -1.0753
  472TMC3    C1 7073   1.099   3.504  16.800 -0.1244  0.0072  0.0935
  472TMC3    C2 7074   0.975   3.530  16.743  0.6936  0.2749 -0.4681
  472TMC3    C3 7075   0.927   3.440  16.653 -0.0485  0.2928 -0.3876
  472TMC3    C4 7076   1.156   3.375  16.792 -0.9815  0.8238 -0.6091
  472TMC3    C5 7077   1.089   3.288  16.720 -0.4161  0.0333  0.1532
  472TMC3    C6 7078   0.979   3.313  16.644 -0.4328 -0.0529 -0.0213
  472TMC3     C 7079   1.135   3.594  16.910  0.3477 -0.7198 -0.4958
  472TMC3     O 7080   1.100   3.711  16.911 -0.4831  0.1082 -0.0652
  472TMC3     H 7081   0.931   3.628  16.755 -0.1446 -0.2349  0.6313
  472TMC3    H1 7082   1.252   3.344  16.831 -1.4813 -0.4259 -0.3771
  472TMC3    H2 7083   0.931   3.234  16.587  1.2844 -1.6387  0.7546
  472TMC3    C7 7084   1.133   3.148  16.724 -0.0477  0.4147  0.0078
  472TMC3    C8 7085   0.812   3.467  16.561 -0.3112  0.3380 -0.2057
  472TMC3    O1 7086   1.208   3.116  16.816  0.4579 -0.5670 -0.0234
  472TMC3    O2 7087   0.782   3.585  16.545 -0.5362 -0.4055  0.0506
  473MPD2     C 7088   0.726   0.741  13.748  0.6734 -0.2842 -0.6095
  473MPD2    C1 7089   0.727   0.872  13.693  0.0353  0.1341  0.1313
  473MPD2    C2 7090   0.751   0.978  13.782 -0.6243 -0.7142  0.0686
  473MPD2    C3 7091   0.767   0.960  13.918 -1.0105 -0.4069  0.4875
  473MPD2    C4 7092   0.759   0.831  13.969  0.4940 -0.4441  0.0098
  473MPD2    C5 7093   0.742   0.727  13.884  0.4424 -0.0398  0.3674
  473MPD2     H 7094   0.757   1.080  13.744 -0.9301 -1.6162 -2.3698
  473MPD2    H1 7095   0.774   0.803  14.072 -1.2847 -0.5321  0.2565
  473MPD2    H2 7096   0.724   0.649  13.691 -0.6746 -0.2466 -0.6217
  473MPD2    H3 7097   0.724   0.626  13.919  3.5427 -0.6487  0.1958
  473MPD2     N 7098   0.803   1.061  14.010  0.1755  0.3220 -0.4070
  473MPD2    H5 7099   0.819   1.044  14.109 -1.7557  0.7452 -0.0353
  473MPD2    N1 7100   0.690   0.901  13.558  0.6686 -0.6872  0.2028
  473MPD2    H7 7101   0.677   1.000  13.536 -0.4761 -0.4149  2.1274
  474TMC3    C1 7102   0.869   1.266  14.083 -0.4842  0.9571 -0.3559
  474TMC3    C2 7103   0.821   1.388  14.111  0.7748  0.1660 -0.0975
  474TMC3    C3 7104   0.871   1.455  14.221  0.3716  0.4758  0.4881
  474TMC3    C4 7105   0.978   1.212  14.160 -0.3619 -0.0729 -0.3747
  474TMC3    C5 7106   1.023   1.287  14.262 -0.4600  0.5823  1.4361
  474TMC3    C6 7107   0.965   1.406  14.298 -0.2899 -0.3400 -0.3614
  474TMC3     C 7108   0.814   1.196  13.974 -0.4802  0.1452 -0.0156
  474TMC3     O 7109   0.747   1.253  13.889  0.5160 -0.0010 -0.2772
  474TMC3     H 7110   0.732   1.427  14.063 -0.6407 -0.9719  1.6182
  474TMC3    H1 7111   1.030   1.120  14.136 -1.2433 -0.9271  0.9818
  474TMC3    H2 7112   0.996   1.465  14.383 -0.0122 -0.0389 -0.6698
  474TMC3    C7 7113   1.120   1.226  14.356 -0.2120 -0.0423 -0.6803
  474TMC3    C8 7114   0.807   1.581  14.246  0.2575  0.1612  0.2922
  474TMC3    O1 7115   1.136   1.104  14.333  0.1137 -0.0440  0.6501
  474TMC3    O2 7116   0.693   1.595  14.201  0.2223  0.7191  0.3863
  475MPD2     C 7117   3.790   3.920  10.338  0.4623  0.1630 -0.0124
  475MPD2    C1 7118   3.827   4.048  10.359  0.0575  0.0993 -0.3492
  475MPD2    C2 7119   3.751   4.124  10.446  0.8128  0.0759  0.0427
  475MPD2    C3 7120   3.653   4.064  10.524 -0.7049  0.4760  0.1162
  475MPD2    C4 7121   3.620   3.936  10.507 -0.2779  0.0420 -0.0550
  475MPD2    C5 7122   3.680   3.861  10.405 -0.4285  0.2877  0.5134
  475MPD2     H 7123   3.771   4.231  10.445 -2.6760  0.7172 -0.7489
  475MPD2    H1 7124   3.537   3.884  10.554 -1.2124  2.1770  0.6642
  475MPD2    H2 7125   3.836   3.857  10.264 -1.4527 -1.5797  0.2742
  475MPD2    H3 7126   3.652   3.757  10.388 -0.2539 -0.1568  2.9959
  475MPD2     N 7127   3.588   4.142  10.624  0.2700  0.2408 -0.4523
  475MPD2    H5 7128   3.625   4.236  10.629  1.4604 -0.2104 -0.7607
  475MPD2    N1 7129   3.924   4.113  10.280 -1.0240 -0.1226  0.0221
  475MPD2    H7 7130   3.925   4.214  10.290 -1.1760  0.0707 -1.8164
  476TMC3    C1 7131   4.109   4.131  10.143 -1.3610  0.2792 -0.3314
  476TMC3    C2 7132   4.049   4.247  10.097  0.1433 -0.6045 -0.0606
  476TMC3    C3 7133   4.138   4.353  10.065  0.2794 -0.0543  0.3020
  476TMC3    C4 7134   4.246   4.131  10.177 -0.4388 -0.2842 -0.0812
  476TMC3    C5 7135   4.323   4.241  10.139 -0.0116 -0.4186 -0.0173
  476TMC3    C6 7136   4.272   4.353  10.082  0.2295 -0.0921  0.1781
  476TMC3     C 7137   4.029   4.049  10.222 -0.4609  0.1420  0.0979
  476TMC3     O 7138   4.079   3.940  10.258 -0.4152  0.2705  0.0629
  476TMC3     H 7139   3.942   4.262  10.096  0.1729 -0.4231 -0.5279
  476TMC3    H1 7140   4.287   4.051  10.237  2.1284  0.2014 -1.1552
  476TMC3    H2 7141   4.340   4.427  10.042 -0.7123  0.3029 -0.6807
  476TMC3    C7 7142   4.455   4.242  10.177  0.0480 -0.6602  0.0839
  476TMC3    C8 7143   4.093   4.480  10.012 -0.0112  0.0185  0.2932
  476TMC3    O1 7144   4.511   4.137  10.190  0.0906  0.1985  0.3385
  476TMC3    O2 7145   4.178   4.562   9.979 -0.6219  0.0578 -0.0292
  477MPD2     C 7146   1.833   0.596  11.827 -0.5489  0.3662 -0.1103
  477MPD2    C1 7147   1.751   0.634  11.925  0.8584  0.5034 -0.3660
  477MPD2    C2 7148   1.776   0.600  12.057 -0.4436  0.3141 -0.1677
  477MPD2    C3 7149   1.903   0.552  12.088 -0.5571  0.0467  0.6830
  477MPD2    C4 7150   1.991   0.519  11.982  0.1422 -0.0946 -0.7185
  477MPD2    C5 7151   1.952   0.539  11.855 -0.9096 -0.1428  0.1322
  477MPD2     H 7152   1.698   0.615  12.130 -1.5362 -0.1476 -1.2364
  477MPD2    H1 7153   2.092   0.484  11.995  0.1506  0.1627 -0.1147
  477MPD2    H2 7154   1.812   0.625  11.725  0.9940  0.1998 -0.4779
  477MPD2    H3 7155   2.029   0.521  11.780 -2.1574  1.3987 -1.5299
  477MPD2     N 7156   1.929   0.519  12.223 -0.4813  0.4869 -0.2251
  477MPD2    H5 7157   1.854   0.521  12.292  0.2295 -2.2960  0.6305
  477MPD2    N1 7158   1.621   0.681  11.895  0.0173 -0.6291 -0.2912
  477MPD2    H7 7159   1.564   0.688  11.979  1.4279 -0.2752  0.6220
  478TMC3    C1 7160   1.434   0.777  11.797 -0.0939  0.1946  0.2624
  478TMC3    C2 7161   1.438   0.887  11.875 -0.3131 -0.3630  0.2451
  478TMC3    C3 7162   1.341   0.981  11.875 -0.1201  0.2828  0.0026
  478TMC3    C4 7163   1.345   0.770  11.698  0.5625  0.4923 -0.2328
  478TMC3    C5 7164   1.236   0.857  11.707  0.1567  0.8788 -0.0752
  478TMC3    C6 7165   1.235   0.973  11.785 -1.0211 -0.0469 -0.1210
  478TMC3     C 7166   1.567   0.717  11.774  0.1189  0.3296  0.8474
  478TMC3     O 7167   1.594   0.660  11.672  0.1145 -0.3881 -0.2168
  478TMC3     H 7168   1.525   0.897  11.940 -1.4880 -0.9076  1.9106
  478TMC3    H1 7169   1.332   0.684  11.633  1.5429 -0.1690  0.4236
  478TMC3    H2 7170   1.153   1.043  11.798 -0.6697  0.2729  0.3887
  478TMC3    C7 7171   1.108   0.811  11.654 -0.5198  0.4881  0.0645
  478TMC3    C8 7172   1.350   1.092  11.973 -0.3075 -0.9272 -0.3052
  478TMC3    O1 7173   1.078   0.691  11.658 -0.5649  0.2393  0.2819
  478TMC3    O2 7174   1.440   1.060  12.050 -0.1159 -0.2846 -0.1725
  479MPD2     C 7175   0.894   3.083  15.347 -0.0959 -0.0412 -0.2522
  479MPD2    C1 7176   0.813   2.989  15.409 -0.3420  0.7558  0.9090
  479MPD2    C2 7177   0.837   2.961  15.547  0.2248  0.2190  0.5112
  479MPD2    C3 7178   0.930   3.039  15.617  0.0200 -0.5552  0.4145
  479MPD2    C4 7179   0.999   3.138  15.551 -0.2981  0.3380  0.1912
  479MPD2    C5 7180   1.000   3.139  15.416 -0.2580  0.1623 -0.3411
  479MPD2     H 7181   0.771   2.895  15.602  0.1582  0.2257  0.4396
  479MPD2    H1 7182   1.070   3.199  15.607 -1.2011 -1.3285  3.1216
  479MPD2    H2 7183   0.879   3.094  15.240  1.0224  1.1521 -0.2903
  479MPD2    H3 7184   1.074   3.199  15.366 -0.4426  0.2785 -0.4741
  479MPD2     N 7185   0.957   3.028  15.760  0.1951  0.2410 -0.2393
  479MPD2    H5 7186   1.032   3.087  15.794 -0.9034  2.5209 -1.7488
  479MPD2    N1 7187   0.703   2.927  15.346 -0.1294 -0.0442  0.5209
  479MPD2    H7 7188   0.690   2.948  15.248 -0.0701  0.5320  0.6403
  480TMC3    C1 7189   0.657   2.675  15.841  0.3157 -0.3391 -0.6767
  480TMC3    C2 7190   0.547   2.754  15.817 -0.0929 -0.5880  0.2783
  480TMC3    C3 7191   0.557   2.891  15.808 -0.2479  0.0139 -0.3163
  480TMC3    C4 7192   0.781   2.730  15.852 -0.2089 -0.0995 -0.3900
  480TMC3    C5 7193   0.789   2.868  15.836 -0.0329 -0.0543  0.6651
  480TMC3    C6 7194   0.681   2.951  15.815  0.0580 -0.0356  0.0597
  480TMC3     C 7195   0.645   2.529  15.857  0.0264 -0.2778 -0.1145
  480TMC3     O 7196   0.747   2.463  15.828  0.2520  0.2972 -0.1011
  480TMC3     H 7197   0.447   2.712  15.817  0.3941 -1.7443 -0.4628
  480TMC3    H1 7198   0.869   2.669  15.866  2.1680  3.3265 -0.3489
  480TMC3    H2 7199   0.698   3.058  15.811  0.9234 -0.0711  2.8449
  480TMC3    C7 7200   0.925   2.927  15.851  1.0150  0.0520 -0.1001
  480TMC3    C8 7201   0.463   2.955  15.711 -0.3937 -0.0556 -0.0659
  480TMC3    O1 7202   0.983   2.903  15.950 -0.5536 -0.2449  0.3536
  480TMC3    O2 7203   0.354   2.906  15.696  0.1359  0.4661  0.1244
  481MPD2     C 7204   2.537   2.307  14.488 -0.0066 -0.1815 -0.5932
  481MPD2    C1 7205   2.405   2.319  14.523  0.2841  0.6116  0.5979
  481MPD2    C2 7206   2.373   2.293  14.659  0.3188  0.4925 -0.2523
  481MPD2    C3 7207   2.468   2.248  14.752 -0.5960 -0.0566  0.2774
  481MPD2    C4 7208   2.599   2.226  14.700 -0.0870 -0.6200  0.9036
  481MPD2    C5 7209   2.630   2.260  14.570 -0.3605 -0.0799 -1.2466
  481MPD2     H 7210   2.274   2.313  14.697  0.2496  0.9493 -0.6827
  481MPD2    H1 7211   2.679   2.183  14.759 -0.4702 -0.4613  1.5327
  481MPD2    H2 7212   2.556   2.333  14.384 -0.1134  1.8811 -0.0876
  481MPD2    H3 7213   2.734   2.237  14.546  0.8300  3.1461  0.7637
  481MPD2     N 7214   2.448   2.219  14.887 -0.5179 -0.2627 -0.2528
  481MPD2    H5 7215   2.530   2.185  14.935  0.3574  0.6377 -1.1247
  481MPD2    N1 7216   2.308   2.356  14.427  0.2282  0.0147 -0.6578
  481MPD2    H7 7217   2.340   2.387  14.336  0.2308 -0.1066 -0.6981
  482TMC3    C1 7218   2.091   2.393  14.338  0.1906  0.4267  0.4189
  482TMC3    C2 7219   1.976   2.318  14.324 -0.0794  0.5030 -1.1301
  482TMC3    C3 7220   1.914   2.328  14.204 -0.4434 -0.1487  0.3941
  482TMC3    C4 7221   2.143   2.478  14.239  0.1506 -0.2261  0.5936
  482TMC3    C5 7222   2.077   2.488  14.117 -0.2225  0.0584 -0.3779
  482TMC3    C6 7223   1.959   2.415  14.103 -0.0582 -0.4101 -0.3374
  482TMC3     C 7224   2.175   2.338  14.446  0.5285  0.0925  0.1838
  482TMC3     O 7225   2.120   2.258  14.523 -0.2122  0.4191 -0.5332
  482TMC3     H 7226   1.925   2.260  14.400  0.3994  1.5949  0.0317
  482TMC3    H1 7227   2.230   2.539  14.256  1.0084 -1.2171 -0.2382
  482TMC3    H2 7228   1.904   2.416  14.010 -1.9191 -0.7685  0.7638
  482TMC3    C7 7229   2.097   2.615  14.043 -0.1669  0.2953 -0.2921
  482TMC3    C8 7230   1.793   2.239  14.176  0.2000  0.8638  0.6108
  482TMC3    O1 7231   2.169   2.688  14.106 -0.1572 -0.1179  0.6733
  482TMC3    O2 7232   1.787   2.130  14.236 -0.2565  0.4414  0.5476
  483TMC3    C1 7233   1.140   1.246   1.334 -0.4718 -0.2106  0.1447
  483TMC3    C2 7234   1.195   1.294   1.219  0.6744  0.1263  0.4485
  483TMC3    C3 7235   1.327   1.305   1.220 -0.6038 -0.9120  0.7618
  483TMC3    C4 7236   1.205   1.233   1.457 -0.6026  0.0389 -0.1026
  483TMC3    C5 7237   1.337   1.263   1.458 -1.2086 -0.8235 -0.0992
  483TMC3    C6 7238   1.396   1.298   1.337 -0.1528  0.4793 -0.0600
  483TMC3     C 7239   1.014   1.171   1.322 -0.3517 -0.1904  0.1016
  483TMC3     O 7240   0.935   1.188   1.415 -0.5426 -0.0766 -0.3843
  483TMC3     H 7241   1.144   1.290   1.124 -0.0281 -0.9306  0.8785
  483TMC3    H1 7242   1.167   1.173   1.539  2.2254 -1.7848 -0.1088
  483TMC3    H2 7243   1.502   1.324   1.337  0.5526 -2.4146  0.0189
  483TMC3    C7 7244   1.428   1.217   1.565  0.5680 -0.3252 -0.1672
  483TMC3    C8 7245   1.374   1.376   1.107  0.1917 -0.0528  0.6999
  483TMC3    O1 7246   1.521   1.288   1.601  0.0250 -0.3908  0.5231
  483TMC3    O2 7247   1.290   1.448   1.061 -0.1528  0.2172 -0.1999
  484MPD2     C 7248   2.980   4.493  12.592  0.6138 -0.2350 -0.1036
  484MPD2    C1 7249   3.061   4.406  12.661 -0.3402  0.1530  1.2163
  484MPD2    C2 7250   3.182   4.365  12.614  0.0475 -0.1447  0.6774
  484MPD2    C3 7251   3.231   4.417  12.494  0.8433 -0.1283  0.2486
  484MPD2    C4 7252   3.141   4.491  12.426  0.2520 -0.1650 -0.2271
  484MPD2    C5 7253   3.018   4.530  12.471  0.2444  0.2995  0.6805
  484MPD2     H 7254   3.241   4.316  12.691  0.6533  1.0221  0.9541
  484MPD2    H1 7255   3.173   4.529  12.329 -1.8584 -1.6733 -1.5303
  484MPD2    H2 7256   2.889   4.533  12.636 -0.2481 -3.0975  0.7121
  484MPD2    H3 7257   2.964   4.596  12.404 -0.1211  0.2907  0.9677
  484MPD2     N 7258   3.349   4.386  12.419  0.4364  0.7552 -0.0663
  484MPD2    H5 7259   3.352   4.425  12.325 -1.4495 -1.4082 -1.0362
  484MPD2    N1 7260   3.006   4.367  12.787 -0.1689 -0.1907 -0.5077
  484MPD2    H7 7261   2.909   4.386  12.809  0.2338 -0.5472  1.6495
  485TMC3    C1 7262   3.563   4.293  12.379  0.0973  1.5546 -0.3705
  485TMC3    C2 7263   3.690   4.323  12.431 -0.1294 -0.3473  0.2929
  485TMC3    C3 7264   3.782   4.371  12.341  0.0483  0.6144 -0.4417
  485TMC3    C4 7265   3.539   4.317  12.245  0.3851  0.9337 -0.4343
  485TMC3    C5 7266   3.636   4.373  12.159  0.2791  0.2681  0.8382
  485TMC3    C6 7267   3.754   4.408  12.215 -0.1208  0.2531 -0.2130
  485TMC3     C 7268   3.453   4.312  12.468 -0.1162  0.5831  0.0472
  485TMC3     O 7269   3.463   4.252  12.574 -0.2658 -0.1215  0.3451
  485TMC3     H 7270   3.707   4.289  12.532 -2.1370  1.9468  1.4133
  485TMC3    H1 7271   3.442   4.295  12.202  0.8719 -1.7110 -0.2003
  485TMC3    H2 7272   3.825   4.464  12.154  0.3212 -0.6734 -0.5406
  485TMC3    C7 7273   3.584   4.439  12.038 -0.6684  0.2200  0.4005
  485TMC3    C8 7274   3.930   4.367  12.374  0.5030 -0.9083 -0.0522
  485TMC3    O1 7275   3.475   4.491  12.062 -0.3808 -0.0945 -0.1776
  485TMC3    O2 7276   4.004   4.374  12.279 -0.4519  0.1692  0.1341
  486MPD2     C 7277   0.215   2.563  12.496  0.6075 -0.3462 -0.5377
  486MPD2    C1 7278   0.177   2.619  12.611 -0.3154 -0.5036 -0.1346
  486MPD2    C2 7279   0.177   2.753  12.623 -0.0826 -0.9534 -0.3784
  486MPD2    C3 7280   0.207   2.829  12.513 -0.0349 -0.1694 -0.2430
  486MPD2    C4 7281   0.256   2.772  12.400  0.6140  0.1304 -0.9621
  486MPD2    C5 7282   0.264   2.635  12.390  0.1013 -0.6186  0.6383
  486MPD2     H 7283   0.135   2.797  12.713  0.7741  0.0468 -0.4678
  486MPD2    H1 7284   0.280   2.836  12.315  0.9194 -0.4830 -1.3363
  486MPD2    H2 7285   0.199   2.457  12.475 -0.4825  0.0448 -1.6812
  486MPD2    H3 7286   0.288   2.588  12.296 -0.4700 -0.6760  0.5179
  486MPD2     N 7287   0.186   2.969  12.519  0.5375 -0.2190 -0.0155
  486MPD2    H5 7288   0.149   2.997  12.609  0.2553  1.5744 -0.6962
  486MPD2    N1 7289   0.120   2.547  12.720 -0.4182  0.0841 -0.1332
  486MPD2    H7 7290   0.102   2.597  12.806 -2.3132 -0.6401 -0.0902
  487TMC3    C1 7291   0.006   2.369  12.818 -0.1674 -0.4987 -0.1475
  487TMC3    C2 7292   4.639   2.289  12.786  0.3695  0.2251  0.1803
  487TMC3    C3 7293   4.563   2.251  12.894 -0.3131  0.2559  0.6187
  487TMC3    C4 7294   0.041   2.409  12.944 -0.3754 -0.2407 -0.0938
  487TMC3    C5 7295   4.694   2.376  13.045  0.4115 -0.6045  0.2358
  487TMC3    C6 7296   4.580   2.298  13.020 -0.9803 -0.0575 -0.3351
  487TMC3     C 7297   0.070   2.420  12.697  0.2634  0.2127  0.0437
  487TMC3     O 7298   0.045   2.364  12.588 -0.2761 -0.4081  0.2144
  487TMC3     H 7299   4.612   2.268  12.683 -2.5198 -2.4389  1.5037
  487TMC3    H1 7300   0.135   2.461  12.961 -1.0908  0.7413  0.8642
  487TMC3    H2 7301   4.526   2.260  13.106  0.0875 -1.0915 -0.1226
  487TMC3    C7 7302   4.694   2.441  13.168 -0.2675 -1.0307 -0.2189
  487TMC3    C8 7303   4.451   2.162  12.862 -0.3251 -0.1021  0.2423
  487TMC3    O1 7304   0.063   2.488  13.204  0.3018  0.6229  0.1156
  487TMC3    O2 7305   4.458   2.084  12.771 -0.2940 -0.6613 -0.6891
  488MPD2     C 7306   0.429   4.684  16.021  0.5235 -0.2736  0.2942
  488MPD2    C1 7307   0.466   0.049  16.111  0.8575  1.0371  0.0610
  488MPD2    C2 7308   0.434   0.018  16.245 -0.4287 -0.1385 -0.1605
  488MPD2    C3 7309   0.376   4.638  16.286 -0.0182  0.2876  0.1967
  488MPD2    C4 7310   0.346   4.543  16.195 -0.1527  0.9986  0.0397
  488MPD2    C5 7311   0.374   4.564  16.064 -0.4473  0.3619 -0.1656
  488MPD2     H 7312   0.453   0.094  16.319 -3.2250 -0.1733  0.6176
  488MPD2    H1 7313   0.291   4.452  16.216  1.1906 -0.1687 -1.4753
  488MPD2    H2 7314   0.440   4.712  15.917 -0.0959 -1.9907 -0.2266
  488MPD2    H3 7315   0.341   4.491  15.991 -1.8290 -1.8033  2.6578
  488MPD2     N 7316   0.360   4.625  16.419  0.1030  0.5481 -0.0634
  488MPD2    H5 7317   0.384   4.706  16.476 -1.8289  0.0068  1.5495
  488MPD2    N1 7318   0.542   0.164  16.080 -0.2902 -0.4217 -0.4825
  488MPD2    H7 7319   0.565   0.227  16.157  1.7180 -0.9887 -0.6244
  489TMC3    C1 7320   0.303   4.531  16.622 -0.0675 -0.5668  0.6590
  489TMC3    C2 7321   0.409   4.596  16.684  0.4124 -0.1627 -0.3994
  489TMC3    C3 7322   0.419   4.574  16.816 -0.2262 -0.4218 -0.1934
  489TMC3    C4 7323   0.208   4.456  16.696 -0.0963  0.4456  0.1151
  489TMC3    C5 7324   0.233   4.430  16.828 -0.5393  0.1806 -0.0164
  489TMC3    C6 7325   0.338   4.492  16.893  0.3235 -0.0467 -0.1468
  489TMC3     C 7326   0.300   4.513  16.480  0.8267  0.0339 -0.2115
  489TMC3     O 7327   0.240   4.420  16.433  0.4521  0.3559 -0.1322
  489TMC3     H 7328   0.492   4.640  16.631 -0.5738  2.0481 -0.0885
  489TMC3    H1 7329   0.126   4.406  16.646  0.6448 -0.3931 -0.2721
  489TMC3    H2 7330   0.376   4.467  16.991  0.3770 -1.4251 -0.5226
  489TMC3    C7 7331   0.153   4.324  16.886  0.2928 -0.7020 -0.0708
  489TMC3    C8 7332   0.524   4.649  16.885 -0.3547  0.1360  0.1297
  489TMC3    O1 7333   0.040   4.325  16.847 -0.7595  0.0571  1.0160
  489TMC3    O2 7334   0.634   4.655  16.834  0.1152 -0.7859  0.5323
  490MPD2     C 7335   1.244   3.846   0.068 -0.4521 -0.8029 -0.2107
  490MPD2    C1 7336   1.368   3.794   0.052  0.3093  0.6667  0.1532
  490MPD2    C2 7337   1.475   3.851   0.112  0.6428 -0.1277  0.2375
  490MPD2    C3 7338   1.464   3.974   0.178  0.0160 -0.2765  0.3818
  490MPD2    C4 7339   1.337   4.023   0.199  0.7414 -0.0669  0.8547
  490MPD2    C5 7340   1.225   3.956   0.151 -0.0583  0.6320 -0.0497
  490MPD2     H 7341   1.571   3.803   0.092  1.3804  1.3380  0.2461
  490MPD2    H1 7342   1.331   4.111   0.262 -0.2619  0.9843 -0.7025
  490MPD2    H2 7343   1.157   3.793   0.031 -1.3042  0.7111 -0.3631
  490MPD2    H3 7344   1.134   4.015   0.147 -0.3002  0.3405  0.9594
  490MPD2     N 7345   1.580   4.051   0.216  0.2467  0.1352  0.6086
  490MPD2    H5 7346   1.573   4.151   0.232  1.5580  0.1718  1.0026
  490MPD2    N1 7347   1.393   3.676  17.727 -0.3786  0.0918 -0.5639
  490MPD2    H7 7348   1.482   3.628  17.734 -1.2856 -1.8409 -2.2720
  491TMC3    C1 7349   1.312   3.477  17.628 -0.7081  0.3186  0.0504
  491TMC3    C2 7350   1.279   3.413  17.748 -0.2210  0.9601  0.0772
  491TMC3    C3 7351   1.164   3.342  17.744 -0.5232  0.1069 -0.3569
  491TMC3    C4 7352   1.249   3.459  17.514 -0.4077  0.2757 -0.5452
  491TMC3    C5 7353   1.130   3.382  17.521  0.4100 -0.0593  0.5504
  491TMC3    C6 7354   1.086   3.330  17.636  0.0993 -0.1673 -1.1628
  491TMC3     C 7355   1.305   3.616  17.643 -0.0256 -0.4480  0.1255
  491TMC3     O 7356   1.202   3.672  17.593 -0.3242 -0.2547 -0.2176
  491TMC3     H 7357   1.340   3.447   0.083  0.8127  1.7261 -0.9797
  491TMC3    H1 7358   1.278   3.517  17.427 -2.4639 -0.2495 -1.5884
  491TMC3    H2 7359   0.989   3.283  17.628 -0.1549  0.2139 -0.4283
  491TMC3    C7 7360   1.034   3.426  17.414 -0.3994  0.3173  0.0148
  491TMC3    C8 7361   1.108   3.309   0.127 -0.7061  0.0950  0.7856
  491TMC3    O1 7362   0.961   3.336  17.368  0.2785 -0.0166  0.3259
  491TMC3    O2 7363   0.985   3.297   0.122 -0.1206  0.1264  0.8321
  492MPD2     C 7364   1.471   4.436  10.669  0.1287  0.7374  0.1220
  492MPD2    C1 7365   1.379   4.333  10.669 -0.5014  0.0742  0.7395
  492MPD2    C2 7366   1.318   4.299  10.789 -0.5141  0.3526 -0.1897
  492MPD2    C3 7367   1.342   4.372  10.909 -0.1305  0.7480  0.3886
  492MPD2    C4 7368   1.439   4.474  10.906  0.1127 -0.4880 -0.2199
  492MPD2    C5 7369   1.491   4.505  10.785  0.8333 -0.5837  0.5679
  492MPD2     H 7370   1.252   4.212  10.788 -0.8364  0.5991 -0.1905
  492MPD2    H1 7371   1.464   4.535  10.992 -0.3471  1.0657 -1.1940
  492MPD2    H2 7372   1.525   4.459  10.578 -0.0132 -1.5728 -0.5485
  492MPD2    H3 7373   1.566   4.584  10.781 -0.5208  0.6465 -0.5232
  492MPD2     N 7374   1.285   4.343  11.039  0.0116 -0.1926  0.2170
  492MPD2    H5 7375   1.307   4.405  11.117 -1.4047  0.4015  0.1465
  492MPD2    N1 7376   1.356   4.266  10.549 -0.2607  0.6154  0.3422
  492MPD2    H7 7377   1.395   4.302  10.462  0.3790  0.5389  0.5958
  493TMC3    C1 7378   1.245   4.127  10.396  0.0659  0.8891 -0.0985
  493TMC3    C2 7379   1.253   4.228  10.298  0.7637 -0.1838 -0.9891
  493TMC3    C3 7380   1.201   4.213  10.171  0.4810 -0.3835 -0.0862
  493TMC3    C4 7381   1.171   4.022  10.365  0.2926  0.4713  0.2070
  493TMC3    C5 7382   1.115   4.012  10.238 -0.0000 -0.7507  0.0619
  493TMC3    C6 7383   1.121   4.109  10.138 -0.4684  0.4121 -0.1335
  493TMC3     C 7384   1.285   4.149  10.535 -0.3659 -0.3214 -0.5945
  493TMC3     O 7385   1.264   4.055  10.608 -0.1498 -0.2828  0.7809
  493TMC3     H 7386   1.316   4.314  10.317  0.2726  0.0452 -0.3876
  493TMC3    H1 7387   1.148   3.949  10.442  1.7267 -0.8210 -0.5990
  493TMC3    H2 7388   1.066   4.107  10.045 -2.1334  0.2495  0.8441
  493TMC3    C7 7389   1.010   3.926  10.215  0.2156 -0.1648 -0.1850
  493TMC3    C8 7390   1.180   4.335  10.102 -0.2266 -0.3236  0.9059
  493TMC3    O1 7391   0.935   3.906  10.308  0.8762 -0.6342  0.1323
  493TMC3    O2 7392   1.196   4.434  10.175 -0.3393 -0.1081 -0.2240
  494TMC3    C1 7393   2.317   0.730   0.645 -0.1698  0.0266  0.0711
  494TMC3    C2 7394   2.307   0.612   0.592  0.2602  0.4690  0.3833
  494TMC3    C3 7395   2.319   0.596   0.455  0.0727 -0.3493  0.0081
  494TMC3    C4 7396   2.353   0.843   0.570 -0.2774  0.7672 -0.9122
  494TMC3    C5 7397   2.378   0.818   0.439 -0.7232 -0.0437 -0.3616
  494TMC3    C6 7398   2.356   0.697   0.369  0.6097  0.0819 -0.7407
  494TMC3     C 7399   2.302   0.741   0.786 -0.3712 -0.3053 -0.2882
  494TMC3     O 7400   2.267   0.850   0.826  0.2952  0.7428 -0.1102
  494TMC3     H 7401   2.260   0.525   0.637 -1.4918  1.5512  0.6475
  494TMC3    H1 7402   2.362   0.937   0.623 -0.1945 -1.1866  2.5001
  494TMC3    H2 7403   2.382   0.674   0.266  2.0314  0.6858 -0.5342
  494TMC3    C7 7404   2.444   0.919   0.348 -0.2311 -0.0702  0.0544
  494TMC3    C8 7405   2.336   0.458   0.409 -0.7080  0.2978 -0.0793
  494TMC3    O1 7406   2.483   0.880   0.235  0.1865  0.1376 -0.5593
  494TMC3    O2 7407   2.376   0.374   0.488 -0.2939  0.1648 -0.0065
  495TMC3    C1 7408   0.941   3.393  15.020 -0.6990 -0.4226  0.0423
  495TMC3    C2 7409   0.879   3.455  14.914  0.4225  0.3643 -0.3819
  495TMC3    C3 7410   0.746   3.487  14.923 -0.1385 -0.0091  0.0822
  495TMC3    C4 7411   0.885   3.387  15.143 -0.2190 -0.4078 -0.2282
  495TMC3    C5 7412   0.754   3.420  15.149  0.8844  0.1107  0.0564
  495TMC3    C6 7413   0.683   3.464  15.037 -0.8680 -0.7243 -0.2571
  495TMC3     C 7414   1.006   3.264  14.989 -0.1527 -0.2743  0.3522
  495TMC3     O 7415   0.957   3.165  15.041 -0.2827  0.4762 -0.1568
  495TMC3     H 7416   0.919   3.437  14.815 -0.3619  1.1338 -0.8458
  495TMC3    H1 7417   0.932   3.345  15.232  0.9075  1.8043  0.2363
  495TMC3    H2 7418   0.575   3.474  15.041 -0.7994  0.4032 -1.4833
  495TMC3    C7 7419   0.688   3.385  15.277  0.1942 -0.3023  0.7343
  495TMC3    C8 7420   0.662   3.487  14.808 -0.4577 -0.3566 -0.7541
  495TMC3    O1 7421   0.750   3.395  15.382 -0.3425 -0.3252 -0.6731
  495TMC3    O2 7422   0.548   3.445  14.811  0.3159 -0.2681 -0.1398
  496MPD2     C 7423   2.423   2.968  15.311 -0.8359 -0.0937  0.5041
  496MPD2    C1 7424   2.493   2.912  15.415 -0.5524  0.0678 -0.0861
  496MPD2    C2 7425   2.443   2.897  15.539  0.3959 -0.0833  0.5812
  496MPD2    C3 7426   2.315   2.941  15.569  0.5048  0.5873  0.0766
  496MPD2    C4 7427   2.244   3.003  15.466  0.1229  0.5068  0.4271
  496MPD2    C5 7428   2.295   3.013  15.338  0.3336  0.2474  0.4143
  496MPD2     H 7429   2.489   2.843  15.621  1.0790 -0.2894  0.0552
  496MPD2    H1 7430   2.142   3.031  15.488 -0.4572  1.8447 -3.8242
  496MPD2    H2 7431   2.467   2.979  15.213  0.2532 -2.0977  0.7757
  496MPD2    H3 7432   2.236   3.052  15.255  1.4945  1.3419  0.1076
  496MPD2     N 7433   2.265   2.917  15.698  0.4147  0.2457 -0.1371
  496MPD2    H5 7434   2.325   2.873  15.767  1.8050  1.6343 -0.4722
  496MPD2    N1 7435   2.616   2.857  15.371  0.4848 -0.7771  0.3138
  496MPD2    H7 7436   2.649   2.875  15.277 -0.4223  0.2603  0.1900
  497TMC3    C1 7437   2.110   2.933  15.880  0.2048  0.1257 -0.4653
  497TMC3    C2 7438   1.982   2.949  15.921  0.1480 -0.3750 -0.1046
  497TMC3    C3 7439   1.957   2.951  16.057 -0.0015 -0.0654 -0.0893
  497TMC3    C4 7440   2.211   2.937  15.973 -0.1054 -0.7996 -0.4098
  497TMC3    C5 7441   2.183   2.956  16.103 -0.7884 -0.5877  0.2488
  497TMC3    C6 7442   2.054   2.951  16.155  0.1715 -0.1607 -0.1271
  497TMC3     C 7443   2.133   2.944  15.741  0.0696 -0.5849 -0.7318
  497TMC3     O 7444   2.041   2.998  15.678  0.1068 -0.0944 -0.1111
  497TMC3     H 7445   1.897   2.947  15.854  0.3815  1.3208 -0.4500
  497TMC3    H1 7446   2.315   2.948  15.947 -0.1641  0.0024 -0.3147
  497TMC3    H2 7447   2.018   2.948  16.257 -0.3549  1.3306 -0.2715
  497TMC3    C7 7448   2.285   2.922  16.188  0.2175  0.3377 -0.2303
  497TMC3    C8 7449   1.816   2.937  16.089 -0.1266 -0.4298  0.2952
  497TMC3    O1 7450   2.353   2.824  16.164 -0.1419 -0.6039  0.5053
  497TMC3    O2 7451   1.731   2.956  16.001 -0.8010 -0.9112  0.2889
  498MPD2     C 7452   3.052   0.505   9.993 -0.6608  0.1580  0.4391
  498MPD2    C1 7453   3.134   0.399  10.031 -0.1552  0.0267 -0.6291
  498MPD2    C2 7454   3.077   0.293  10.103  0.3610  0.2135 -0.0278
  498MPD2    C3 7455   2.949   0.290  10.149  0.0800  0.1502  1.0024
  498MPD2    C4 7456   2.873   0.399  10.124  0.3112  0.1447  0.1657
  498MPD2    C5 7457   2.924   0.505  10.052  0.2600  0.1302  0.1729
  498MPD2     H 7458   3.142   0.208  10.123  1.7147  0.7425 -2.1648
  498MPD2    H1 7459   2.765   0.404  10.132  0.4446  0.3060  1.7291
  498MPD2    H2 7460   3.093   0.598   9.955  1.3680 -0.6384  0.6590
  498MPD2    H3 7461   2.857   0.589  10.038 -0.7387 -0.4956  1.2254
  498MPD2     N 7462   2.893   0.177  10.218  0.4791  0.0124  0.0739
  498MPD2    H5 7463   2.955   0.098  10.229 -0.6467 -0.6861  1.4831
  498MPD2    N1 7464   3.267   0.395   9.991  0.2944 -0.3077  0.2468
  498MPD2    H7 7465   3.316   0.308  10.013  0.6870 -0.1524 -0.0150
  499TMC3    C1 7466   3.465   0.461   9.886  0.0027  0.6880  0.5219
  499TMC3    C2 7467   3.470   0.364   9.791 -0.3550  0.9919  0.1981
  499TMC3    C3 7468   3.578   0.356   9.710  0.3189  0.3307 -0.1498
  499TMC3    C4 7469   3.570   0.553   9.890  1.1599  0.7575 -0.2335
  499TMC3    C5 7470   3.666   0.549   9.794 -0.0803  0.5135 -0.1163
  499TMC3    C6 7471   3.680   0.447   9.709 -0.5675  0.2625 -1.2385
  499TMC3     C 7472   3.336   0.500   9.925 -0.3976  0.5838 -0.4868
  499TMC3     O 7473   3.313   0.621   9.930  0.2191 -0.5062  0.2071
  499TMC3     H 7474   3.384   0.301   9.772  0.2641  0.1519  0.1702
  499TMC3    H1 7475   3.554   0.639   9.954 -1.8752  0.8588 -1.0974
  499TMC3    H2 7476   3.761   0.440   9.638  1.0733  1.4567  0.4984
  499TMC3    C7 7477   3.716   0.680   9.760 -0.5381 -0.1824  0.1814
  499TMC3    C8 7478   3.582   0.259   9.599 -0.2479 -0.9135  0.3051
  499TMC3    O1 7479   3.656   0.782   9.797 -0.2231 -0.1191  0.5614
  499TMC3    O2 7480   3.686   0.258   9.536  0.1306 -0.4050 -0.7909
  500MPD2     C 7481   0.338   1.214  11.058 -0.0569  0.3565 -0.8041
  500MPD2    C1 7482   0.289   1.117  10.972  0.6680 -0.4173 -0.7258
  500MPD2    C2 7483   0.191   1.153  10.880  0.1400 -0.2351  0.4760
  500MPD2    C3 7484   0.138   1.286  10.871  0.0459  0.6897 -0.0360
  500MPD2    C4 7485   0.198   1.382  10.949  0.5034  0.3331 -0.7161
  500MPD2    C5 7486   0.286   1.341  11.049 -0.3656 -0.4761  0.5575
  500MPD2     H 7487   0.155   1.073  10.816 -0.9219  0.0590  0.7018
  500MPD2    H1 7488   0.166   1.485  10.957  0.1805  0.0995  1.0097
  500MPD2    H2 7489   0.414   1.194  11.133 -0.5392  1.2459 -0.0789
  500MPD2    H3 7490   0.318   1.418  11.119 -1.4409  1.8397 -1.5060
  500MPD2     N 7491   0.046   1.328  10.773 -0.1578 -0.5407  0.0297
  500MPD2    H5 7492   0.045   1.428  10.753 -0.8114 -0.9410 -1.9530
  500MPD2    N1 7493   0.345   0.989  10.962  0.1066  0.8231 -0.1708
  500MPD2    H7 7494   0.303   0.926  10.893 -0.6979  1.5022 -0.3023
  501TMC3    C1 7495   0.477   0.795  10.962 -0.6096  0.6894  0.3166
  501TMC3    C2 7496   0.389   0.749  10.868  0.0255 -0.4818 -0.4340
  501TMC3    C3 7497   0.450   0.675  10.769  0.2126 -0.4997 -0.9831
  501TMC3    C4 7498   0.608   0.755  10.974  1.0897 -0.7888 -0.1815
  501TMC3    C5 7499   0.662   0.693  10.867  0.2969  0.2410  0.6640
  501TMC3    C6 7500   0.581   0.645  10.764 -0.4799 -0.0922 -0.3566
  501TMC3     C 7501   0.458   0.934  11.016 -0.3365 -0.2816 -0.2965
  501TMC3     O 7502   0.544   0.993  11.084  0.0453  0.1866  0.5195
  501TMC3     H 7503   0.283   0.771  10.860  0.0165 -0.8892 -1.4696
  501TMC3    H1 7504   0.666   0.795  11.057  1.2523  2.1196 -1.7196
  501TMC3    H2 7505   0.623   0.590  10.680 -1.1208  0.3807 -0.9858
  501TMC3    C7 7506   0.794   0.638  10.877 -0.5366 -0.7156  0.0471
  501TMC3    C8 7507   0.387   0.661  10.642  0.9007  0.3952  0.7990
  501TMC3    O1 7508   0.849   0.606  10.774  0.1165 -0.1985  0.0839
  501TMC3    O2 7509   0.368   0.545  10.602 -0.1162 -0.0204  0.0449
  502TMC3    C1 7510   0.257   4.081  15.003 -0.3082 -0.1001  0.3265
  502TMC3    C2 7511   0.240   4.195  14.939  0.2289  0.3643  0.2262
  502TMC3    C3 7512   0.123   4.216  14.862 -0.1488  0.1538 -0.6958
  502TMC3    C4 7513   0.157   3.985  15.007 -0.4010  0.7471 -0.1531
  502TMC3    C5 7514   0.038   4.007  14.944 -0.1479  0.2920  0.3310
  502TMC3    C6 7515   0.025   4.117  14.860 -0.2096 -0.7669  0.5887
  502TMC3     C 7516   0.363   4.078  15.101 -0.1162 -1.1333  0.5946
  502TMC3     O 7517   0.459   4.151  15.083 -0.2764 -0.3647 -0.0024
  502TMC3     H 7518   0.302   4.282  14.956  1.8585 -0.5273 -1.2210
  502TMC3    H1 7519   0.170   3.893  15.063 -0.0440  0.2213 -1.1032
  502TMC3    H2 7520   4.678   4.121  14.791  0.3220  0.0299 -0.0103
  502TMC3    C7 7521   4.676   3.904  14.954  0.4854  0.1880 -0.1352
  502TMC3    C8 7522   0.074   4.343  14.875 -0.2177  0.7650  0.7572
  502TMC3    O1 7523   4.716   3.792  14.978 -0.4060  0.0078 -0.6585
  502TMC3    O2 7524   0.022   4.387  14.776  0.5437  0.2518  0.5288
  503MPD2     C 7525   2.511   4.692  16.853 -0.6020 -0.1453  0.5282
  503MPD2    C1 7526   2.567   4.704  16.980  0.3442  0.4606  0.3567
  503MPD2    C2 7527   2.583   4.588  17.048 -0.2046 -0.1140  0.1658
  503MPD2    C3 7528   2.550   4.463  17.000 -0.0514 -0.4865  0.0431
  503MPD2    C4 7529   2.505   4.449  16.875  0.0001  0.1681 -0.2111
  503MPD2    C5 7530   2.480   4.565  16.804  0.1089 -0.5244  0.0917
  503MPD2     H 7531   2.614   4.597  17.152  2.2758 -0.7188 -0.5133
  503MPD2    H1 7532   2.482   4.358  16.820 -2.9499  0.8857 -0.1261
  503MPD2    H2 7533   2.488   0.045  16.798 -1.4998 -1.5032 -1.3806
  503MPD2    H3 7534   2.443   4.557  16.703 -0.6445 -0.1732  0.3433
  503MPD2     N 7535   2.584   4.354  17.085  0.1846 -0.4263  0.3235
  503MPD2    H5 7536   2.626   4.374  17.175  0.8309 -3.9040  0.8033
  503MPD2    N1 7537   2.578   0.093  17.052 -0.3825 -0.2677 -0.0814
  503MPD2    H7 7538   2.600   0.081  17.151  2.2674  0.4463 -0.5963
  504TMC3    C1 7539   2.605   4.125  17.174  0.5229  0.2244  0.4520
  504TMC3    C2 7540   2.583   4.159  17.304 -0.6325 -0.4477  0.1578
  504TMC3    C3 7541   2.635   4.077  17.397 -0.3223 -0.2722 -0.0461
  504TMC3    C4 7542   2.668   4.014  17.128  0.1550 -0.1513  0.5742
  504TMC3    C5 7543   2.731   3.934  17.229  0.4337 -0.0874  0.5087
  504TMC3    C6 7544   2.706   3.963  17.358 -0.0607  0.3941 -0.2736
  504TMC3     C 7545   2.546   4.217  17.073  0.2562  0.5220 -0.1513
  504TMC3     O 7546   2.489   4.165  16.978 -0.4894 -0.2970 -0.5621
  504TMC3     H 7547   2.524   4.248  17.324  0.4686  0.5771 -1.2011
  504TMC3    H1 7548   2.684   4.005  17.021  0.1187  1.4702  0.4333
  504TMC3    H2 7549   2.761   3.890  17.417 -1.0142 -2.4372 -2.9315
  504TMC3    C7 7550   2.866   3.903  17.180  1.0856 -0.5982  0.3284
  504TMC3    C8 7551   2.587   4.091  17.535 -0.3057  0.1024  0.2668
  504TMC3    O1 7552   2.903   3.998  17.107  0.2524  0.1715  0.2343
  504TMC3    O2 7553   2.486   4.158  17.552 -0.0049  0.0549 -0.1892
  505MPD2     C 7554   2.300   3.949  11.000  0.1124 -0.0815 -0.2422
  505MPD2    C1 7555   2.319   3.865  10.892  0.1219 -0.2356 -0.0397
  505MPD2    C2 7556   2.446   3.802  10.879 -0.1152  0.4148  0.2307
  505MPD2    C3 7557   2.554   3.826  10.963  0.6558 -0.3162  0.7325
  505MPD2    C4 7558   2.539   3.915  11.069  0.3072 -0.3182 -0.0225
  505MPD2    C5 7559   2.409   3.979  11.082 -0.1885 -0.2925  0.2681
  505MPD2     H 7560   2.472   3.738  10.796  0.6956  0.6259  0.3235
  505MPD2    H1 7561   2.617   3.924  11.143  1.8229  0.0269 -1.6573
  505MPD2    H2 7562   2.202   3.978  11.037 -1.7276 -1.4978 -4.0418
  505MPD2    H3 7563   2.402   4.039  11.173 -0.9699  0.0079  0.0080
  505MPD2     N 7564   2.690   3.792  10.938 -0.1436 -0.1617 -0.0838
  505MPD2    H5 7565   2.762   3.852  10.976  0.2321  0.0283 -1.0985
  505MPD2    N1 7566   2.210   3.824  10.802 -0.5424  0.5824  0.3225
  505MPD2    H7 7567   2.125   3.878  10.801 -0.3332  0.7881 -3.4872
  506TMC3    C1 7568   2.107   3.726  10.612 -0.9706 -0.7581 -0.0177
  506TMC3    C2 7569   2.061   3.850  10.573  0.0692 -0.5607  0.2628
  506TMC3    C3 7570   2.053   3.865  10.438  0.5196  0.1707 -0.3572
  506TMC3    C4 7571   2.128   3.621  10.517  0.0900 -0.3479 -0.1819
  506TMC3    C5 7572   2.111   3.645  10.383  0.0896  0.1958  0.2653
  506TMC3    C6 7573   2.067   3.768  10.347  0.7573 -0.0942 -0.7552
  506TMC3     C 7574   2.214   3.723  10.706 -0.4284 -0.2696  0.6413
  506TMC3     O 7575   2.307   3.647  10.679  0.5266 -0.1054  0.1378
  506TMC3     H 7576   2.052   3.936  10.638  1.8555  0.6200 -1.0265
  506TMC3    H1 7577   2.168   3.527  10.553 -2.5188 -1.2212  0.4498
  506TMC3    H2 7578   2.079   3.795  10.242 -0.4233 -1.1572 -1.1672
  506TMC3    C7 7579   2.223   3.604  10.305 -0.4868 -0.1981 -1.1989
  506TMC3    C8 7580   2.041   3.998  10.382  0.2386 -0.1639 -0.5988
  506TMC3    O1 7581   2.217   3.613  10.183 -0.0660 -0.2975 -0.1607
  506TMC3    O2 7582   1.991   4.015  10.272  0.2276  0.2276  0.3431
  507TMC3    C1 7583   3.204   4.015  14.595 -0.3904 -0.0372  0.3635
  507TMC3    C2 7584   3.271   3.998  14.476  0.0612 -0.3605 -0.4031
  507TMC3    C3 7585   3.394   4.053  14.457  0.4522  0.3562 -0.4741
  507TMC3    C4 7586   3.250   4.098  14.697  0.8371 -0.1465 -0.0310
  507TMC3    C5 7587   3.373   4.157  14.671 -0.1068  0.1675 -0.3624
  507TMC3    C6 7588   3.451   4.130  14.557  0.2640 -0.6312 -0.1484
  507TMC3     C 7589   3.096   3.926  14.640  0.3263 -0.9211 -0.4287
  507TMC3     O 7590   3.087   3.897  14.757  0.2245  0.4459 -0.2287
  507TMC3     H 7591   3.236   3.923  14.405  0.1857  1.0342 -1.9586
  507TMC3    H1 7592   3.181   4.127  14.776  1.6681  0.4371  0.4781
  507TMC3    H2 7593   3.557   4.154  14.559 -0.4716  2.5582  0.3223
  507TMC3    C7 7594   3.390   4.289  14.729  0.3532 -0.3120  0.0746
  507TMC3    C8 7595   3.394   4.127  14.329 -0.2380 -0.1728 -0.1335
  507TMC3    O1 7596   3.450   4.365  14.651 -0.4373 -0.3976 -0.2020
  507TMC3    O2 7597   3.328   4.083  14.231 -0.2410  0.0993  0.0876
  508MPD2     C 7598   4.376   1.660  15.486  0.0383 -0.5089 -0.4656
  508MPD2    C1 7599   4.311   1.682  15.602  0.2047  0.3449 -0.1233
  508MPD2    C2 7600   4.204   1.770  15.594  0.5715 -0.0799  0.4985
  508MPD2    C3 7601   4.179   1.837  15.473 -0.2351 -0.0655  0.0929
  508MPD2    C4 7602   4.245   1.806  15.362 -0.2076 -0.6295  0.0525
  508MPD2    C5 7603   4.344   1.712  15.363  0.2099 -0.2671  0.9003
  508MPD2     H 7604   4.148   1.800  15.682 -1.2868  0.4568 -0.8622
  508MPD2    H1 7605   4.235   1.863  15.270 -2.4118 -2.1359 -0.6326
  508MPD2    H2 7606   4.459   1.590  15.482 -0.4647 -1.1064 -0.4834
  508MPD2    H3 7607   4.388   1.685  15.268 -1.2001 -0.0338  0.1726
  508MPD2     N 7608   4.085   1.948  15.485  0.3252  0.0932 -0.3710
  508MPD2    H5 7609   4.042   1.959  15.577 -1.4825 -2.4606 -0.8981
  508MPD2    N1 7610   4.354   1.629  15.723 -0.3666  0.0275 -0.1306
  508MPD2    H7 7611   4.425   1.557  15.711  1.2840  1.6753 -0.1939
  509TMC3    C1 7612   3.880   2.353  15.402 -0.0826 -0.1304 -0.0857
  509TMC3    C2 7613   3.927   2.401  15.527  0.9484 -0.2938  0.8305
  509TMC3    C3 7614   3.978   2.307  15.612 -0.2549  1.1423  0.6159
  509TMC3    C4 7615   3.912   2.221  15.351 -0.5745 -0.5139  0.4323
  509TMC3    C5 7616   3.960   2.135  15.451  0.4312  0.6924 -0.4694
  509TMC3    C6 7617   3.983   2.173  15.582  0.9208 -0.1994 -0.7295
  509TMC3     C 7618   3.850   2.458  15.307 -0.1059 -0.6108 -0.1192
  509TMC3     O 7619   3.895   2.572  15.327 -0.8988 -0.7786 -0.1755
  509TMC3     H 7620   3.927   2.503  15.563  0.5921 -0.2551  0.7193
  509TMC3    H1 7621   3.889   2.187  15.250  1.2748  0.2097 -0.2367
  509TMC3    H2 7622   4.034   2.112  15.656 -0.4772  1.1886  1.3863
  509TMC3    C7 7623   4.043   2.033  15.396  0.3880  0.0215 -0.0602
  509TMC3    C8 7624   4.027   2.353  15.744 -0.2970  0.3096 -0.4684
  509TMC3    O1 7625   4.071   2.036  15.277  0.0008  0.6138  0.4205
  509TMC3    O2 7626   4.003   2.281  15.839 -0.1254  0.3864  0.3109
  510MPD2     C 7627   1.997   3.434  14.925 -0.0528  0.1561  0.2975
  510MPD2    C1 7628   2.024   3.305  14.970 -0.1174  0.2442  0.7356
  510MPD2    C2 7629   2.147   3.257  14.944  0.1079  0.1851  0.1457
  510MPD2    C3 7630   2.238   3.321  14.860  0.8884 -0.2949 -0.3516
  510MPD2    C4 7631   2.202   3.435  14.798 -0.3432 -0.2462 -0.1512
  510MPD2    C5 7632   2.081   3.494  14.829 -0.1583 -0.2134 -0.6138
  510MPD2     H 7633   2.179   3.178  15.012 -1.6936 -2.1769 -1.7176
  510MPD2    H1 7634   2.265   3.486  14.726 -2.1300  1.4600 -0.4847
  510MPD2    H2 7635   1.904   3.489  14.932  0.8865  1.9144 -1.0679
  510MPD2    H3 7636   2.052   3.582  14.773  0.6332  0.4575  0.0207
  510MPD2     N 7637   2.365   3.271  14.867  0.5555 -0.6481 -0.0695
  510MPD2    H5 7638   2.378   3.193  14.931 -0.3409 -1.7238 -1.1917
  510MPD2    N1 7639   1.948   3.226  15.066  0.4936 -0.1851  0.7455
  510MPD2    H7 7640   1.982   3.133  15.088  0.0920 -0.6916 -0.8610
  511TMC3    C1 7641   1.762   3.162  15.196  0.2236 -0.2524 -0.6462
  511TMC3    C2 7642   1.716   3.206  15.316 -0.3380  0.3480 -0.5214
  511TMC3    C3 7643   1.637   3.119  15.381  0.2782 -0.6504  0.0186
  511TMC3    C4 7644   1.747   3.035  15.146 -0.0425 -0.3065  0.1894
  511TMC3    C5 7645   1.674   2.943  15.220  0.2661 -0.5905  0.1744
  511TMC3    C6 7646   1.616   2.990  15.334  0.0165  0.4283  0.3398
  511TMC3     C 7647   1.824   3.266  15.114  0.4948  0.2773 -0.9181
  511TMC3     O 7648   1.781   3.378  15.123 -0.1433  0.1114  0.2293
  511TMC3     H 7649   1.722   3.310  15.342  4.0624 -0.1910  0.5496
  511TMC3    H1 7650   1.785   3.028  15.045  1.5939  0.2534  0.7585
  511TMC3    H2 7651   1.552   2.925  15.393 -0.6826  0.8502  0.0402
  511TMC3    C7 7652   1.653   2.811  15.166  0.3709  0.0586  0.1814
  511TMC3    C8 7653   1.596   3.168  15.508 -0.7340  0.7374  0.0295
  511TMC3    O1 7654   1.714   2.797  15.059  0.1611  0.2804  0.2216
  511TMC3    O2 7655   1.646   3.270  15.554 -0.3839  0.4298 -0.3828
  512TMC3    C1 7656   0.763   2.839  13.517 -0.1636  0.0685 -0.2317
  512TMC3    C2 7657   0.871   2.826  13.605  0.3900 -0.9879 -0.0126
  512TMC3    C3 7658   0.982   2.760  13.551  0.5957  0.2718  0.9569
  512TMC3    C4 7659   0.765   2.794  13.387 -0.4638  0.6318  0.8662
  512TMC3    C5 7660   0.873   2.724  13.347 -0.2781 -1.0730  0.3700
  512TMC3    C6 7661   0.986   2.713  13.420 -0.3052  0.2521  0.2487
  512TMC3     C 7662   0.650   2.911  13.553 -0.2114  0.3260  0.0089
  512TMC3     O 7663   0.556   2.903  13.478  0.7415  0.0000  0.2501
  512TMC3     H 7664   0.856   2.837  13.712 -0.5447 -2.2575 -0.0132
  512TMC3    H1 7665   0.679   2.795  13.320 -0.4079  0.2909  0.7900
  512TMC3    H2 7666   1.077   2.665  13.385 -0.1763  0.8595 -0.2376
  512TMC3    C7 7667   0.883   2.703  13.200  0.0034 -0.1151  0.0599
  512TMC3    C8 7668   1.111   2.747  13.627 -0.5517 -0.2353 -0.2124
  512TMC3    O1 7669   0.808   2.780  13.140 -0.0525 -0.2321 -0.1455
  512TMC3    O2 7670   1.172   2.641  13.614  0.4110  0.3978  0.5600
  513MPD2     C 7671   3.096   2.558  13.357 -0.4510 -1.0212 -0.5368
  513MPD2    C1 7672   3.176   2.661  13.397 -0.1484 -0.8072 -0.0735
  513MPD2    C2 7673   3.219   2.668  13.528  0.0609 -0.2019 -0.3050
  513MPD2    C3 7674   3.167   2.581  13.622 -0.3643  0.6754  0.1483
  513MPD2    C4 7675   3.086   2.473  13.585  0.2186 -0.1249  0.2240
  513MPD2    C5 7676   3.054   2.463  13.448  0.1968 -0.3883 -0.3762
  513MPD2     H 7677   3.284   2.749  13.559  0.2972 -0.2174 -0.7516
  513MPD2    H1 7678   3.034   2.411  13.657 -0.0106  1.0275  1.0364
  513MPD2    H2 7679   3.068   2.546  13.253  2.9650  0.7582 -1.6342
  513MPD2    H3 7680   3.001   2.375  13.413 -0.2124 -0.0195 -0.6869
  513MPD2     N 7681   3.200   2.614  13.756 -0.5113  0.1246 -0.1234
  513MPD2    H5 7682   3.250   2.702  13.761 -1.9125  0.9131  0.1153
  513MPD2    N1 7683   3.238   2.762  13.317 -0.1614 -0.5244  0.0742
  513MPD2    H7 7684   3.295   2.829  13.367  0.4043 -0.8474 -0.1412
  514TMC3    C1 7685   3.285   2.891  13.130  0.4578 -0.5789  0.6165
  514TMC3    C2 7686   3.209   2.979  13.068  0.4749 -1.1281  0.3334
  514TMC3    C3 7687   3.230   3.112  13.095  0.1518 -0.3725 -0.6151
  514TMC3    C4 7688   3.387   2.925  13.213 -0.0978 -0.2983  0.3177
  514TMC3    C5 7689   3.395   3.051  13.252 -0.2164 -0.1269 -0.7033
  514TMC3    C6 7690   3.315   3.149  13.195  0.1327  0.5204 -0.8676
  514TMC3     C 7691   3.221   2.774  13.178 -0.0366  0.1797  0.4072
  514TMC3     O 7692   3.143   2.717  13.102  0.5048  0.5751 -0.1829
  514TMC3     H 7693   3.129   2.939  13.006  0.9416  0.9861 -1.6015
  514TMC3    H1 7694   3.455   2.850  13.251  0.5871  0.7957  1.2405
  514TMC3    H2 7695   3.302   3.250  13.233 -0.5720  0.4015 -0.7779
  514TMC3    C7 7696   3.408   3.059  13.398  0.2994  0.0290 -0.6710
  514TMC3    C8 7697   3.183   3.218  13.002  0.6408  0.6630  0.4823
  514TMC3    O1 7698   3.406   2.943  13.444 -0.1770  0.1263 -0.6562
  514TMC3    O2 7699   3.226   3.326  13.038  0.0871  0.0204 -0.0391
  515MPD2     C 7700   1.387   4.128  14.549 -0.0030  0.1593 -0.5188
  515MPD2    C1 7701   1.263   4.091  14.595 -0.0502  0.4694 -0.0682
  515MPD2    C2 7702   1.241   4.089  14.733  0.1438  0.4306 -0.9718
  515MPD2    C3 7703   1.344   4.124  14.814  0.0999 -0.7367  0.1521
  515MPD2    C4 7704   1.471   4.162  14.767 -1.0719 -0.1183 -0.6377
  515MPD2    C5 7705   1.494   4.166  14.634 -0.5738  0.2260 -0.6122
  515MPD2     H 7706   1.143   4.068  14.775 -0.3784  0.5490 -2.1253
  515MPD2    H1 7707   1.553   4.187  14.834 -2.3519  5.2756 -1.1021
  515MPD2    H2 7708   1.407   4.135  14.443  0.1776  3.9738 -0.2214
  515MPD2    H3 7709   1.594   4.186  14.598  0.4061  2.7109  3.5375
  515MPD2     N 7710   1.334   4.124  14.957  0.1178 -0.1360 -0.1560
  515MPD2    H5 7711   1.413   4.163  15.009 -0.2391  0.9400 -0.4256
  515MPD2    N1 7712   1.151   4.065  14.511  0.7249  0.1923 -0.4033
  515MPD2    H7 7713   1.064   4.042  14.559 -0.4546  1.2723 -2.0334
  516TMC3    C1 7714   0.995   4.088  14.343 -0.1180 -0.5454 -0.3588
  516TMC3    C2 7715   0.938   4.196  14.289  0.4837 -0.6337  0.7218
  516TMC3    C3 7716   0.816   4.228  14.340  0.4048 -0.7481  0.3695
  516TMC3    C4 7717   0.918   4.005  14.424 -0.4716 -0.1043 -0.1263
  516TMC3    C5 7718   0.787   4.028  14.446  0.6914  0.4368 -0.6164
  516TMC3    C6 7719   0.734   4.144  14.413  0.4574  0.0164  0.1424
  516TMC3     C 7720   1.136   4.092  14.375  0.0110 -0.4793  0.8608
  516TMC3     O 7721   1.221   4.127  14.294  0.0840 -0.3426  0.3834
  516TMC3     H 7722   1.007   4.255  14.229 -2.0873  0.2374 -1.3483
  516TMC3    H1 7723   0.967   3.912  14.451  0.6567  0.8288  1.0222
  516TMC3    H2 7724   0.641   4.178  14.457 -0.1354 -0.1041 -1.0082
  516TMC3    C7 7725   0.736   3.973  14.567 -0.3119  0.5742 -0.2977
  516TMC3    C8 7726   0.766   4.363  14.318 -0.4441  0.0902 -0.2301
  516TMC3    O1 7727   0.814   3.940  14.658  0.6714  0.0607  0.7095
  516TMC3    O2 7728   0.662   4.396  14.379  0.1647 -0.0121 -0.3011
  517MPD2     C 7729   0.786   1.241   0.074  0.6462 -0.2736 -0.8103
  517MPD2    C1 7730   0.920   1.215   0.091 -0.4479 -0.3000  0.7523
  517MPD2    C2 7731   1.001   1.300   0.161  0.3528  0.1687  0.3057
  517MPD2    C3 7732   0.953   1.419   0.212  0.3458 -0.0804  0.4824
  517MPD2    C4 7733   0.815   1.447   0.202  0.0985 -0.3351 -0.1993
  517MPD2    C5 7734   0.739   1.361   0.126  0.4498  0.1357 -0.2720
  517MPD2     H 7735   1.102   1.273   0.187 -0.2479 -1.0856  1.3114
  517MPD2    H1 7736   0.768   1.525   0.261  2.8521  1.4376 -0.3103
  517MPD2    H2 7737   0.715   1.184   0.016  0.1893 -0.7832  0.2407
  517MPD2    H3 7738   0.632   1.379   0.116 -0.0228 -1.4263  1.8810
  517MPD2     N 7739   1.036   1.522   0.265  0.4855 -0.3607  0.0554
  517MPD2    H5 7740   0.990   1.602   0.308  0.4665 -2.1541  3.3670
  517MPD2    N1 7741   0.979   1.091   0.049  0.0855 -0.5364 -0.3713
  517MPD2    H7 7742   1.073   1.060   0.071 -0.3486 -1.9572 -0.5114
  518TMC3    C1 7743   1.008   0.883  17.694  0.0889  0.2789 -0.2558
  518TMC3    C2 7744   0.951   0.764  17.657  0.4673 -0.1600 -0.8769
  518TMC3    C3 7745   1.027   0.668  17.597 -0.2600  0.1181 -0.2656
  518TMC3    C4 7746   1.134   0.909  17.669 -0.2548 -0.0929 -0.0741
  518TMC3    C5 7747   1.204   0.802  17.613  0.1150  0.0003  0.3096
  518TMC3    C6 7748   1.157   0.678  17.574 -0.3815 -0.3713  0.3575
  518TMC3     C 7749   0.914   0.988  17.726  0.4943  0.0017  0.0970
  518TMC3     O 7750   0.796   0.976  17.695 -0.1303  0.3932 -0.2057
  518TMC3     H 7751   0.844   0.751  17.668  0.7994 -1.1031  1.0875
  518TMC3    H1 7752   1.182   1.004  17.687  1.0472 -0.1848 -3.1090
  518TMC3    H2 7753   1.206   0.605  17.510 -1.3943 -1.3463  0.6838
  518TMC3    C7 7754   1.343   0.821  17.600 -0.5780 -0.0616 -0.0326
  518TMC3    C8 7755   0.964   0.550  17.542 -0.0159  0.3327  0.6112
  518TMC3    O1 7756   1.377   0.939  17.603  0.1951  0.8039  0.3664
  518TMC3    O2 7757   1.030   0.469  17.476  0.3364  0.1959 -0.0665
  519MPD2     C 7758   2.204   4.242  14.414  0.7222  0.3466  0.2047
  519MPD2    C1 7759   2.164   4.256  14.281  0.0258 -0.1915 -0.0046
  519MPD2    C2 7760   2.260   4.230  14.186 -0.1067  0.2831 -0.5425
  519MPD2    C3 7761   2.397   4.209  14.220  0.4168  0.2680  0.2157
  519MPD2    C4 7762   2.432   4.237  14.347 -0.5772 -0.5836  0.3947
  519MPD2    C5 7763   2.338   4.262  14.442  0.6344  0.3722 -0.5016
  519MPD2     H 7764   2.228   4.237  14.082  1.9045  1.0020 -1.1102
  519MPD2    H1 7765   2.537   4.243  14.374 -1.3195  2.4276  2.5112
  519MPD2    H2 7766   2.131   4.256  14.493  0.8322 -0.6455  0.4854
  519MPD2    H3 7767   2.370   4.273  14.545 -2.6840  0.2287  0.5450
  519MPD2     N 7768   2.498   4.180  14.122  0.5342  0.3045 -0.2126
  519MPD2    H5 7769   2.593   4.209  14.144 -0.1430  0.6869  2.1458
  519MPD2    N1 7770   2.038   4.294  14.237  0.1675 -0.1512  0.6431
  519MPD2    H7 7771   2.026   4.297  14.136 -0.6768 -0.6742  0.7279
  520TMC3    C1 7772   2.580   4.150  13.904 -0.0619 -0.7067  0.6417
  520TMC3    C2 7773   2.537   4.164  13.780 -0.2143  0.3184  0.4048
  520TMC3    C3 7774   2.628   4.164  13.667  0.2917 -0.9265 -0.5339
  520TMC3    C4 7775   2.709   4.157  13.931 -0.0492  0.5609 -0.3313
  520TMC3    C5 7776   2.793   4.162  13.826  0.7265 -0.1863  0.4565
  520TMC3    C6 7777   2.758   4.169  13.702 -0.8001 -0.1206 -0.1294
  520TMC3     C 7778   2.475   4.128  13.997  0.3645 -0.2348 -0.3820
  520TMC3     O 7779   2.372   4.083  13.953 -0.0651 -0.3979 -0.4731
  520TMC3     H 7780   2.431   4.177  13.762 -0.3903 -1.4845  0.0602
  520TMC3    H1 7781   2.738   4.137  14.034 -0.5719 -1.3721 -0.5559
  520TMC3    H2 7782   2.828   4.157  13.620 -0.6104 -0.9406  0.1542
  520TMC3    C7 7783   2.927   4.144  13.866  0.1351 -0.1378  0.1741
  520TMC3    C8 7784   2.593   4.165  13.525  0.2353 -0.3646  0.9195
  520TMC3    O1 7785   2.947   4.104  13.980  0.1938 -0.6867  0.6323
  520TMC3    O2 7786   2.674   4.197  13.445  0.3133  0.1508  0.3460
  521MPD2     C 7787   3.802   2.389  17.561 -0.3030  0.0986  0.6905
  521MPD2    C1 7788   3.725   2.291  17.496  0.4736 -0.0158  0.1453
  521MPD2    C2 7789   3.753   2.269  17.362 -0.5658 -0.0597  0.6576
  521MPD2    C3 7790   3.859   2.330  17.298  0.0275 -0.4242 -0.2089
  521MPD2    C4 7791   3.930   2.428  17.365  0.2551 -0.3444  0.1195
  521MPD2    C5 7792   3.907   2.454  17.493 -0.9371  0.0406  0.6003
  521MPD2     H 7793   3.703   2.184  17.318  0.6215 -0.5348  0.2242
  521MPD2    H1 7794   4.008   2.475  17.306 -1.5778  0.8642 -1.3337
  521MPD2    H2 7795   3.775   2.420  17.661  0.4984  3.8015 -0.2495
  521MPD2    H3 7796   3.971   2.529  17.539 -0.6768  0.2669 -0.1340
  521MPD2     N 7797   3.882   2.297  17.163 -0.6367  0.2953 -0.1981
  521MPD2    H5 7798   3.822   2.224  17.125 -1.2733 -1.3996  4.0273
  521MPD2    N1 7799   3.622   2.228  17.569  0.0591 -0.3621  0.0609
  521MPD2    H7 7800   3.626   2.233  17.670  0.1703  0.5749  0.0077
  522TMC3    C1 7801   3.979   2.264  16.960  0.2875  0.0340 -0.8063
  522TMC3    C2 7802   4.100   2.248  16.905  0.9256 -1.0939  0.1582
  522TMC3    C3 7803   4.117   2.226  16.777 -0.7156  0.5152 -0.4011
  522TMC3    C4 7804   3.864   2.282  16.889  0.3682  0.0945  0.2167
  522TMC3    C5 7805   3.887   2.275  16.749 -0.3233  0.5174 -0.0185
  522TMC3    C6 7806   4.010   2.245  16.693 -0.0471  0.8755  0.6048
  522TMC3     C 7807   3.987   2.336  17.085  0.9003 -0.1023  0.0055
  522TMC3     O 7808   4.092   2.391  17.115  0.3385  0.3024 -0.2925
  522TMC3     H 7809   4.191   2.242  16.965  2.0617 -0.7067 -1.5468
  522TMC3    H1 7810   3.773   2.311  16.939 -0.7152  0.1530 -1.8016
  522TMC3    H2 7811   4.022   2.231  16.586  4.4434  1.1707  1.0685
  522TMC3    C7 7812   3.782   2.286  16.650  0.1871 -0.2377  0.6874
  522TMC3    C8 7813   4.253   2.210  16.728 -0.1135  0.2721  0.8876
  522TMC3    O1 7814   3.790   2.206  16.553 -0.3287 -0.1724  0.2615
  522TMC3    O2 7815   4.348   2.253  16.793 -0.2107  0.2060 -0.2232
  523MPD2     C 7816   1.011   2.611  10.538  0.6178 -0.5984  0.9895
  523MPD2    C1 7817   0.913   2.511  10.507  0.5172  0.5448  0.2886
  523MPD2    C2 7818   0.833   2.542  10.400 -0.7521 -0.1237 -0.4389
  523MPD2    C3 7819   0.840   2.671  10.349  0.4827 -0.1480 -0.3147
  523MPD2    C4 7820   0.930   2.764  10.389 -0.2760  0.2418  0.4170
  523MPD2    C5 7821   1.026   2.726  10.479  0.3952 -0.1440  0.1233
  523MPD2     H 7822   0.766   2.467  10.360  0.1035  0.0607 -2.2143
  523MPD2    H1 7823   0.929   2.866  10.352 -0.4555 -0.0644 -0.4304
  523MPD2    H2 7824   1.078   2.596  10.622 -0.2660  1.5625  2.0777
  523MPD2    H3 7825   1.102   2.796  10.514  0.7523 -0.6674  0.3941
  523MPD2     N 7826   0.749   2.714  10.242 -0.3089 -0.2557  0.1581
  523MPD2    H5 7827   0.758   2.810  10.212  3.5659 -0.2612  1.3925
  523MPD2    N1 7828   0.916   2.386  10.571 -0.0444 -0.5675 -0.1796
  523MPD2    H7 7829   0.996   2.369  10.631 -0.1669  0.1654  0.1912
  524TMC3    C1 7830   0.560   2.719  10.103 -0.3669 -0.6099 -0.4189
  524TMC3    C2 7831   0.621   2.802  10.011  0.1560  0.1557  0.8116
  524TMC3    C3 7832   0.540   2.886   9.939  0.3373 -0.3427 -0.2119
  524TMC3    C4 7833   0.427   2.720  10.126 -0.1207  0.8454 -0.6036
  524TMC3    C5 7834   0.348   2.818  10.062  0.2288  0.8159  0.6619
  524TMC3    C6 7835   0.404   2.901   9.969  0.2208  0.0655  0.2336
  524TMC3     C 7836   0.632   2.651  10.208 -1.0613  0.5161  0.2982
  524TMC3     O 7837   0.589   2.548  10.257 -0.6520  0.5999 -0.0433
  524TMC3     H 7838   0.722   2.773   9.985  0.6825  0.5237  2.4918
  524TMC3    H1 7839   0.381   2.646  10.190  5.3995 -1.3990  0.8406
  524TMC3    H2 7840   0.351   2.974   9.909  1.0749  0.2612 -0.2911
  524TMC3    C7 7841   0.211   2.847  10.104  0.3758  0.5355 -0.3474
  524TMC3    C8 7842   0.596   2.969   9.833  0.0388 -0.2797  0.5966
  524TMC3    O1 7843   0.150   2.750  10.148  0.0940 -0.5406 -0.3917
  524TMC3    O2 7844   0.517   3.051   9.785 -0.1543 -0.7626  0.4862
  525MPD2     C 7845   3.811   3.993  14.331  0.2690  0.3382 -0.5229
  525MPD2    C1 7846   3.904   4.022  14.421  0.3500  0.4286  0.6184
  525MPD2    C2 7847   3.949   4.155  14.437 -0.2946 -0.1322 -0.2219
  525MPD2    C3 7848   3.887   4.256  14.359 -0.2482  0.3086 -0.3343
  525MPD2    C4 7849   3.788   4.223  14.267 -0.1222 -0.1191  0.3987
  525MPD2    C5 7850   3.746   4.096  14.261  0.7051  0.2321  0.0999
  525MPD2     H 7851   4.022   4.177  14.514 -0.1274 -3.9519  0.7241
  525MPD2    H1 7852   3.737   4.290  14.198  0.6724  1.0921  0.9964
  525MPD2    H2 7853   3.777   3.891  14.314  2.7333 -0.5615 -0.0878
  525MPD2    H3 7854   3.662   4.072  14.196  0.3448 -3.1240  1.7936
  525MPD2     N 7855   3.921   4.391  14.363 -0.6395 -0.7357  0.3336
  525MPD2    H5 7856   3.882   4.451  14.291  1.5381 -0.1815 -0.4034
  525MPD2    N1 7857   3.947   3.916  14.511  0.1034  0.3330  0.5989
  525MPD2    H7 7858   4.008   3.939  14.589 -0.3859 -2.2252  1.7482
  526TMC3    C1 7859   3.941   3.701  14.614 -0.1726 -0.0010 -0.1911
  526TMC3    C2 7860   3.871   3.616  14.685 -0.3260 -0.6972  0.9408
  526TMC3    C3 7861   3.931   3.525  14.766  0.3448 -0.3014  0.4486
  526TMC3    C4 7862   4.081   3.703  14.612 -0.5730  0.6754  0.0175
  526TMC3    C5 7863   4.142   3.610  14.695 -0.7139 -0.3805  0.3503
  526TMC3    C6 7864   4.069   3.520  14.769  0.2814  0.4376 -1.0348
  526TMC3     C 7865   3.872   3.801  14.532 -0.1911  0.4242 -0.1156
  526TMC3     O 7866   3.762   3.761  14.493  0.0572 -0.2924 -0.7175
  526TMC3     H 7867   3.766   3.641  14.691 -0.3501 -0.4590 -0.3620
  526TMC3    H1 7868   4.141   3.779  14.562  1.8672 -1.9739 -1.0956
  526TMC3    H2 7869   4.118   3.444  14.829  1.5022  2.1771  0.1766
  526TMC3    C7 7870   4.283   3.579  14.691  0.5156 -0.2279 -0.4373
  526TMC3    C8 7871   3.867   3.503  14.894 -0.6523  0.8863 -0.3213
  526TMC3    O1 7872   4.326   3.474  14.737 -0.2466 -0.3686  0.0538
  526TMC3    O2 7873   3.940   3.496  14.993  0.4707  0.0100 -0.6702
  527MPD2     C 7874   1.747   1.458   1.458  0.4245  0.0498 -0.6683
  527MPD2    C1 7875   1.765   1.492   1.322  0.1691 -0.4381 -0.6546
  527MPD2    C2 7876   1.875   1.429   1.256 -0.3364  0.1418 -0.3559
  527MPD2    C3 7877   1.954   1.335   1.322 -0.8123  0.4843 -0.7103
  527MPD2    C4 7878   1.936   1.312   1.454 -0.1670  0.1866  0.0579
  527MPD2    C5 7879   1.826   1.364   1.515  0.3352  0.0650  0.5302
  527MPD2     H 7880   1.896   1.449   1.152 -0.4519  0.7852 -0.2554
  527MPD2    H1 7881   1.980   1.237   1.518  2.6517  0.7686 -1.2212
  527MPD2    H2 7882   1.666   1.494   1.520  0.5166 -1.1671  0.1489
  527MPD2    H3 7883   1.801   1.322   1.612  1.6211  2.0917  1.7424
  527MPD2     N 7884   2.053   1.272   1.241  0.5458  0.6810  0.7461
  527MPD2    H5 7885   2.044   1.293   1.142  3.3165  0.3774  0.4066
  527MPD2    N1 7886   1.677   1.574   1.254 -0.5243  0.3591 -0.0619
  527MPD2    H7 7887   1.703   1.593   1.158  1.0747 -0.2717  0.2518
  528TMC3    C1 7888   1.497   1.708   1.222 -0.6501 -0.8839  0.2879
  528TMC3    C2 7889   1.561   1.811   1.160 -0.2234 -0.3828  0.1325
  528TMC3    C3 7890   1.492   1.925   1.132  0.2188  0.1600  0.1101
  528TMC3    C4 7891   1.363   1.723   1.256  0.1288  0.0391  0.7223
  528TMC3    C5 7892   1.294   1.827   1.212 -0.0976  0.3283  0.6187
  528TMC3    C6 7893   1.356   1.936   1.149  0.3572 -0.8704 -0.7045
  528TMC3     C 7894   1.566   1.626   1.313 -0.3005  0.1836 -0.2669
  528TMC3     O 7895   1.508   1.600   1.420  0.3399  0.6376 -0.1640
  528TMC3     H 7896   1.668   1.805   1.143  0.1907 -0.3201  2.6632
  528TMC3    H1 7897   1.307   1.648   1.311 -1.4831  0.6994 -0.0008
  528TMC3    H2 7898   1.291   2.014   1.111  1.8180 -0.6449 -2.7382
  528TMC3    C7 7899   1.160   1.798   1.174  0.1703 -0.1218 -0.0229
  528TMC3    C8 7900   1.560   2.035   1.068 -0.2224  0.0312 -0.3961
  528TMC3    O1 7901   1.073   1.886   1.174 -0.5516  0.3448  0.3672
  528TMC3    O2 7902   1.650   2.010   0.992 -0.0728 -0.2290  0.0085
  529MPD2     C 7903   0.552   0.309   0.457 -0.5403  0.0824  0.6461
  529MPD2    C1 7904   0.459   0.218   0.414 -0.0664 -0.2838  0.0556
  529MPD2    C2 7905   0.375   0.253   0.307  0.0788  0.1444  0.3985
  529MPD2    C3 7906   0.392   0.364   0.238  0.0689 -0.3585 -0.0913
  529MPD2    C4 7907   0.485   0.454   0.284  0.0712  0.1886  0.8840
  529MPD2    C5 7908   0.556   0.440   0.397 -0.7220  0.2642 -0.6759
  529MPD2     H 7909   0.310   0.169   0.283  0.2660 -0.0477  0.5613
  529MPD2    H1 7910   0.491   0.542   0.222 -2.2929  0.3498  0.8816
  529MPD2    H2 7911   0.621   0.289   0.538 -0.0607 -0.5009  0.0975
  529MPD2    H3 7912   0.629   0.513   0.431  0.3645 -1.2807  0.3088
  529MPD2     N 7913   0.324   0.397   0.116  0.1608  0.1103  0.4061
  529MPD2    H5 7914   0.359   0.476   0.062 -1.3117  1.2902  1.1710
  529MPD2    N1 7915   0.444   0.095   0.483  0.1489  0.5338 -0.2736
  529MPD2    H7 7916   0.388   0.020   0.443  1.9853 -1.0155  0.0740
  530TMC3    C1 7917   0.476   4.666   0.653 -0.5286 -0.1719 -0.1387
  530TMC3    C2 7918   0.577   4.615   0.732 -0.1356 -0.4851  0.0081
  530TMC3    C3 7919   0.531   4.536   0.837 -0.4864 -0.1911  0.3913
  530TMC3    C4 7920   0.346   4.626   0.668 -0.7850  0.1423 -0.7778
  530TMC3    C5 7921   0.310   4.546   0.769  0.1234 -0.0022 -0.2011
  530TMC3    C6 7922   0.405   4.488   0.853  0.1873 -0.0880  0.8252
  530TMC3     C 7923   0.502   0.065   0.601  0.9157  0.5260  0.6412
  530TMC3     O 7924   0.574   0.127   0.676 -0.0749  0.6420  0.2387
  530TMC3     H 7925   0.679   4.651   0.729  0.2442 -1.5335  0.2701
  530TMC3    H1 7926   0.269   4.683   0.619  0.5115 -2.2514 -5.5561
  530TMC3    H2 7927   0.376   4.434   0.942 -0.4967 -1.5993 -0.3166
  530TMC3    C7 7928   0.169   4.526   0.792  0.2077  0.3029 -1.3233
  530TMC3    C8 7929   0.637   4.462   0.900 -0.0201  1.3041  0.1005
  530TMC3    O1 7930   0.098   4.586   0.712  0.5665  0.1976  0.4988
  530TMC3    O2 7931   0.747   4.510   0.888  0.3434  0.1682  0.6283
  531MPD2     C 7932   3.608   3.178  13.843 -0.4536  0.2687  0.2884
  531MPD2    C1 7933   3.518   3.085  13.815  0.0697 -0.2645  0.4983
  531MPD2    C2 7934   3.472   3.086  13.689 -0.0869 -0.0694  0.0803
  531MPD2    C3 7935   3.503   3.177  13.590  0.4535 -0.9125 -0.5311
  531MPD2    C4 7936   3.576   3.282  13.627 -0.3340 -0.0182  0.2695
  531MPD2    C5 7937   3.636   3.274  13.751 -0.0922 -0.2989  0.2197
  531MPD2     H 7938   3.409   3.004  13.657 -1.3309  0.0636  2.2095
  531MPD2    H1 7939   3.617   3.350  13.553 -0.2334  0.3026  0.6207
  531MPD2    H2 7940   3.646   3.178  13.945  1.7391 -2.0274 -0.5307
  531MPD2    H3 7941   3.688   3.364  13.783 -0.2831  0.1740 -0.8057
  531MPD2     N 7942   3.453   3.179  13.456  0.2831 -0.0101 -0.0030
  531MPD2    H5 7943   3.471   3.260  13.398  0.1854  0.2196  0.2888
  531MPD2    N1 7944   3.474   2.995  13.917 -0.2724 -0.2701 -0.9378
  531MPD2    H7 7945   3.519   3.001  14.007  0.1926  1.6064 -1.2970
  532TMC3    C1 7946   3.350   2.810  14.013 -0.5539 -0.6412 -0.3048
  532TMC3    C2 7947   3.241   2.735  13.971 -0.0688 -0.0065 -0.1814
  532TMC3    C3 7948   3.246   2.600  13.980  0.0240 -0.3501 -0.6401
  532TMC3    C4 7949   3.460   2.755  14.072  0.4822 -0.7506 -0.0861
  532TMC3    C5 7950   3.457   2.617  14.085  0.0512 -1.0914 -0.4401
  532TMC3    C6 7951   3.353   2.537  14.046  0.2055  0.4397 -0.4774
  532TMC3     C 7952   3.380   2.894  13.901  0.4386 -0.5389  0.0772
  532TMC3     O 7953   3.353   2.836  13.794  0.0909 -0.6441 -0.8387
  532TMC3     H 7954   3.156   2.788  13.930  2.2871  3.4652 -0.5739
  532TMC3    H1 7955   3.548   2.812  14.099 -1.8863  2.4891  0.8300
  532TMC3    H2 7956   3.340   2.437  14.084 -0.6979  0.1840 -1.4593
  532TMC3    C7 7957   3.584   2.553  14.120  0.4538  0.1277 -0.3542
  532TMC3    C8 7958   3.174   2.543  13.871  0.2117  0.6187 -0.0756
  532TMC3    O1 7959   3.666   2.623  14.181  0.2699  0.5055  0.3138
  532TMC3    O2 7960   3.121   2.434  13.886  0.5804  0.3602  0.3813
  533TMC3    C1 7961   3.996   4.590  14.434  0.5630  0.2269  1.0862
  533TMC3    C2 7962   4.102   4.659  14.474  0.2580  0.1006  0.4339
  533TMC3    C3 7963   4.093   0.050  14.496  0.3289 -0.0051  0.2547
  533TMC3    C4 7964   3.866   4.651  14.429 -0.2883 -0.1905  0.0890
  533TMC3    C5 7965   3.858   0.043  14.466  0.0604 -0.5849 -0.3438
  533TMC3    C6 7966   3.970   0.118  14.490 -0.5507  0.1605 -0.1715
  533TMC3     C 7967   4.007   4.449  14.450 -0.3343  0.2914  0.3535
  533TMC3     O 7968   4.085   4.395  14.525  0.4579  0.5221  0.3794
  533TMC3     H 7969   4.201   4.615  14.480  0.4671  0.4939 -0.1077
  533TMC3    H1 7970   3.777   4.597  14.401 -0.2893 -0.0606 -0.1548
  533TMC3    H2 7971   3.959   0.223  14.514  0.2154 -0.4063  2.6640
  533TMC3    C7 7972   3.784   0.056  14.589  0.2511 -0.1993 -0.7112
  533TMC3    C8 7973   4.201   0.132  14.526 -0.1833 -0.4439  0.7391
  533TMC3    O1 7974   3.735   0.167  14.614 -0.4022  0.2058  0.0447
  533TMC3    O2 7975   4.276   0.092  14.613  0.9597 -0.3935  0.2675
  534MPD2     C 7976   2.483   0.072   1.259  0.0613 -0.5929 -0.4937
  534MPD2    C1 7977   2.372   0.071   1.337  0.7180 -0.2876  0.4314
  534MPD2    C2 7978   2.242   0.057   1.278  0.3606 -0.3635  0.1843
  534MPD2    C3 7979   2.230   0.023   1.147  0.0618 -0.7276  0.7902
  534MPD2    C4 7980   2.343   0.033   1.067 -0.5915 -0.0482 -0.4396
  534MPD2    C5 7981   2.466   0.058   1.123  0.8650  0.3274  0.3533
  534MPD2     H 7982   2.162   0.042   1.348 -1.4463  0.9139 -1.6176
  534MPD2    H1 7983   2.335   0.002   0.963 -1.2723  0.3894 -0.5215
  534MPD2    H2 7984   2.583   0.098   1.290 -1.2770  3.3777  0.5403
  534MPD2    H3 7985   2.555   0.044   1.063  1.0950  0.2606  0.7160
  534MPD2     N 7986   2.103   4.729   1.086  0.0096 -0.7599  0.1802
  534MPD2    H5 7987   2.108   0.005   0.985 -0.1457 -1.4286  0.0879
  534MPD2    N1 7988   2.381   0.102   1.477 -0.0013  0.1606 -0.2430
  534MPD2    H7 7989   2.290   0.101   1.520 -0.4264 -1.1220 -1.1787
  535TMC3    C1 7990   1.877   4.712   1.051  0.5064 -0.4114 -0.4612
  535TMC3    C2 7991   1.765   4.631   1.064 -0.0551 -0.1331 -0.6899
  535TMC3    C3 7992   1.663   4.650   0.979 -0.0799  0.1451  0.7086
  535TMC3    C4 7993   1.878   0.078   0.964  0.7854  0.5649 -0.0395
  535TMC3    C5 7994   1.769   0.090   0.881  0.6743 -0.3266  0.5434
  535TMC3    C6 7995   1.662   0.000   0.875  0.0209 -0.2178  0.3983
  535TMC3     C 7996   1.985   4.698   1.149 -0.4551  0.5107  0.0826
  535TMC3     O 7997   1.962   4.672   1.267 -0.4792  0.2425  0.1304
  535TMC3     H 7998   1.776   4.557   1.143 -1.6553  0.9052  0.5080
  535TMC3    H1 7999   1.951   0.157   0.973  1.9089 -0.7529  2.4047
  535TMC3    H2 8000   1.580   0.019   0.808 -0.6739 -0.4435  1.1861
  535TMC3    C7 8001   1.750   0.215   0.806 -0.0761  0.1406 -0.3048
  535TMC3    C8 8002   1.548   4.566   0.977  0.1019  1.0443  0.6851
  535TMC3    O1 8003   1.640   0.234   0.755 -0.1043  0.1562 -0.2511
  535TMC3    O2 8004   1.493   4.553   0.867  0.3713  0.2807  0.6921
  536MPD2     C 8005   0.610   3.855  16.486  0.6493  0.3579  0.4820
  536MPD2    C1 8006   0.500   3.784  16.500  0.1222  0.6977  0.4629
  536MPD2    C2 8007   0.404   3.769  16.400  0.1708  0.6305 -0.1988
  536MPD2    C3 8008   0.423   3.840  16.284 -0.1205  0.1395 -0.1138
  536MPD2    C4 8009   0.528   3.930  16.274  0.0941  0.6328 -0.4465
  536MPD2    C5 8010   0.624   3.934  16.374 -0.0126 -0.4849  0.3100
  536MPD2     H 8011   0.317   3.705  16.399 -0.4154  1.4364 -0.9825
  536MPD2    H1 8012   0.547   3.992  16.186 -1.4913  2.4762  0.5005
  536MPD2    H2 8013   0.680   3.863  16.569 -1.0554 -1.2040  2.0696
  536MPD2    H3 8014   0.705   4.005  16.373  0.4233 -0.9787  0.6649
  536MPD2     N 8015   0.339   3.837  16.166  0.5399 -0.2497 -0.1491
  536MPD2    H5 8016   0.367   3.879  16.079 -0.0332 -0.3344 -0.3756
  536MPD2    N1 8017   0.496   3.703  16.616  0.0920  0.1760 -0.1815
  536MPD2    H7 8018   0.583   3.700  16.667 -0.4149  0.0749  0.6812
  537TMC3    C1 8019   0.428   3.532  16.767  0.2135 -0.0915 -0.2198
  537TMC3    C2 8020   0.547   3.541  16.832 -0.3509  0.2557 -0.2916
  537TMC3    C3 8021   0.576   3.440  16.925  0.6435 -0.5808  0.3092
  537TMC3    C4 8022   0.345   3.427  16.789 -0.3326  0.4924 -0.0617
  537TMC3    C5 8023   0.377   3.330  16.880  0.0427  0.2346  0.3392
  537TMC3    C6 8024   0.492   3.340  16.951  0.1919 -0.5194 -0.4413
  537TMC3     C 8025   0.394   3.622  16.662  0.0110  0.6109 -0.4827
  537TMC3     O 8026   0.282   3.601  16.611 -0.3396  0.3301  0.4983
  537TMC3     H 8027   0.619   3.621  16.822  0.3599 -0.4306 -0.7420
  537TMC3    H1 8028   0.245   3.435  16.749  0.2798  0.2395 -1.6176
  537TMC3    H2 8029   0.520   3.272  17.031  3.9094  0.0322 -1.2709
  537TMC3    C7 8030   0.280   3.218  16.895  0.0974  0.2203  0.0188
  537TMC3    C8 8031   0.690   3.448  17.020 -0.0942 -0.0615 -0.3298
  537TMC3    O1 8032   0.209   3.198  16.795  0.2492 -0.2545 -0.1435
  537TMC3    O2 8033   0.732   3.348  17.078 -0.2036 -0.0683  0.6041
  538TMC3    C1 8034   1.403   1.879  11.368  0.3368 -0.0328 -0.0785
  538TMC3    C2 8035   1.513   1.836  11.296 -0.1712 -0.0227  0.3869
  538TMC3    C3 8036   1.522   1.870  11.162 -0.1606  0.0244  0.2999
  538TMC3    C4 8037   1.306   1.956  11.310  0.2451 -0.3129 -0.2806
  538TMC3    C5 8038   1.316   1.984  11.174 -0.5961 -0.6079  0.3741
  538TMC3    C6 8039   1.424   1.945  11.095 -0.5255 -0.4691  0.5618
  538TMC3     C 8040   1.403   1.886  11.511  0.1916  0.5760  0.4577
  538TMC3     O 8041   1.294   1.890  11.564  0.0507  0.1490 -0.6413
  538TMC3     H 8042   1.588   1.769  11.336  0.1712  1.8873  2.9967
  538TMC3    H1 8043   1.227   1.996  11.372 -0.1141 -0.9796 -0.3149
  538TMC3    H2 8044   1.431   1.983  10.994  1.2426  0.9183  1.1984
  538TMC3    C7 8045   1.201   2.053  11.118 -0.7030  0.1563  0.5467
  538TMC3    C8 8046   1.625   1.809  11.086 -0.3080  0.6121  0.0255
  538TMC3    O1 8047   1.100   2.052  11.187 -0.3861 -0.4005  0.3480
  538TMC3    O2 8048   1.667   1.699  11.118 -0.4524  0.0994  0.3928
  539MPD2     C 8049   1.351   1.314  12.155  0.3907  0.4506  0.1443
  539MPD2    C1 8050   1.277   1.316  12.040  0.2185 -0.1210 -0.0773
  539MPD2    C2 8051   1.201   1.435  12.011 -0.1582 -0.2644 -0.1825
  539MPD2    C3 8052   1.212   1.549  12.098  0.3730  0.1671  0.6264
  539MPD2    C4 8053   1.286   1.540  12.213  0.4949 -0.0051  0.3690
  539MPD2    C5 8054   1.361   1.427  12.237 -0.5207 -0.4521  0.6760
  539MPD2     H 8055   1.129   1.428  11.930 -0.9505 -0.4703  0.5477
  539MPD2    H1 8056   1.298   1.620  12.285  0.7903 -0.4586  0.8241
  539MPD2    H2 8057   1.414   1.228  12.175 -1.9645 -1.3289 -0.1554
  539MPD2    H3 8058   1.426   1.422  12.323  1.0418 -0.4183 -0.4903
  539MPD2     N 8059   1.167   1.676  12.063  0.2426  0.6415  0.5950
  539MPD2    H5 8060   1.168   1.749  12.134  0.5661 -0.7349  1.9942
  539MPD2    N1 8061   1.269   1.204  11.956 -0.3133  0.3067 -0.0063
  539MPD2    H7 8062   1.210   1.210  11.874  0.9256 -0.7935 -0.9923
  540TMC3    C1 8063   1.102   1.863  11.926  0.7507 -0.3711 -0.0627
  540TMC3    C2 8064   1.058   1.895  11.805 -0.1554 -0.0120 -0.4330
  540TMC3    C3 8065   1.006   2.017  11.783  0.8574 -0.0685 -0.2417
  540TMC3    C4 8066   1.073   1.943  12.033  0.2045 -0.3416  0.3814
  540TMC3    C5 8067   1.023   2.067  12.007  0.8180 -0.9653  0.1788
  540TMC3    C6 8068   0.977   2.103  11.887 -0.5201 -0.5145 -0.1808
  540TMC3     C 8069   1.132   1.724  11.941 -0.3351 -0.1946  0.2611
  540TMC3     O 8070   1.140   1.656  11.840  0.3221 -0.4515 -0.4104
  540TMC3     H 8071   1.074   1.830  11.719 -0.5101 -0.7590  0.0616
  540TMC3    H1 8072   1.113   1.929  12.133  0.1716  2.4160  0.7797
  540TMC3    H2 8073   0.929   2.200  11.887  0.7164  0.1004  0.8152
  540TMC3    C7 8074   0.927   2.092  12.113 -0.2837 -0.4797 -0.3516
  540TMC3    C8 8075   0.956   2.050  11.653  0.2313 -0.5345 -0.0744
  540TMC3    O1 8076   0.827   2.018  12.114 -0.3834 -0.3913  0.6918
  540TMC3    O2 8077   0.914   2.165  11.630 -0.3144  0.3186 -0.0852
  541MPD2     C 8078   3.976   2.747  13.751 -0.1880  0.8048 -0.4365
  541MPD2    C1 8079   3.983   2.704  13.625 -0.3723  0.0964 -0.2700
  541MPD2    C2 8080   4.029   2.788  13.529  0.7326 -0.4716  0.0792
  541MPD2    C3 8081   4.054   2.921  13.551 -0.4014 -0.1042  0.0575
  541MPD2    C4 8082   4.035   2.970  13.678 -0.2647  0.3624 -0.7119
  541MPD2    C5 8083   4.016   2.878  13.778  0.6429 -0.2820 -0.2251
  541MPD2     H 8084   4.056   2.745  13.433  1.2032 -1.3495  0.5985
  541MPD2    H1 8085   4.042   3.077  13.696  0.2587  0.6865 -2.8665
  541MPD2    H2 8086   3.960   2.686  13.840  0.0181 -0.1707 -1.0721
  541MPD2    H3 8087   4.018   2.909  13.882  1.3646 -0.4355 -0.1975
  541MPD2     N 8088   4.098   3.012  13.452  0.7158 -0.3972 -0.3568
  541MPD2    H5 8089   4.113   3.107  13.484  0.9454 -0.2427 -0.9393
  541MPD2    N1 8090   3.942   2.571  13.597 -0.3885  0.4008 -0.3100
  541MPD2    H7 8091   3.899   2.517  13.671 -1.0820  1.2975 -0.0591
  542TMC3    C1 8092   4.187   3.087  13.253  0.2655  0.1249  0.7344
  542TMC3    C2 8093   4.256   3.039  13.142  0.3297 -0.9070 -0.1198
  542TMC3    C3 8094   4.363   3.116  13.109 -0.5921  0.3057 -0.3435
  542TMC3    C4 8095   4.203   3.209  13.319  0.1005 -0.0812  0.9421
  542TMC3    C5 8096   4.317   3.274  13.278  0.0899 -0.3072 -0.0166
  542TMC3    C6 8097   4.388   3.232  13.170  0.3964  0.1978  0.2780
  542TMC3     C 8098   4.100   2.987  13.316 -0.2169 -0.6343  0.2437
  542TMC3     O 8099   4.071   2.883  13.264  1.2377  0.2553 -0.1862
  542TMC3     H 8100   4.234   2.943  13.097 -0.0878 -0.1722 -1.4704
  542TMC3    H1 8101   4.160   3.244  13.413 -0.4861 -0.4253  0.7964
  542TMC3    H2 8102   4.469   3.294  13.133  2.1019 -2.3990 -0.3412
  542TMC3    C7 8103   4.348   3.397  13.351  0.3028 -0.3322  0.3018
  542TMC3    C8 8104   4.430   3.082  12.989  0.0491  0.2991  0.0881
  542TMC3    O1 8105   4.249   3.460  13.390 -0.1481 -0.0758 -0.2318
  542TMC3    O2 8106   4.490   3.166  12.919  0.2887 -0.5249  0.3475
  543TMC3    C1 8107   4.032   4.304  17.304  0.6458  0.6614  0.8848
  543TMC3    C2 8108   3.994   4.171  17.317 -0.4289  0.1635  0.6571
  543TMC3    C3 8109   4.066   4.101  17.417 -0.5580  0.0486 -0.2847
  543TMC3    C4 8110   4.134   4.364  17.366  0.8383 -0.4018 -0.2145
  543TMC3    C5 8111   4.194   4.292  17.465  0.2648 -0.8212 -0.5675
  543TMC3    C6 8112   4.158   4.163  17.496 -0.1886 -0.2614 -0.2162
  543TMC3     C 8113   3.973   4.373  17.198  0.3258  0.1035 -0.5721
  543TMC3     O 8114   4.053   4.429  17.128  0.1958  0.6708 -0.4266
  543TMC3     H 8115   3.922   4.125  17.250  1.8738 -2.5068  0.0192
  543TMC3    H1 8116   4.146   4.472  17.357 -0.5761 -0.1863  0.4759
  543TMC3    H2 8117   4.208   4.105  17.573  1.3175 -1.3761 -2.0100
  543TMC3    C7 8118   4.281   4.361  17.559 -0.0343 -0.2850 -0.2814
  543TMC3    C8 8119   4.060   3.961  17.416  0.1880  0.5550  0.3363
  543TMC3    O1 8120   4.269   4.316  17.671 -0.0442  0.3008 -0.1594
  543TMC3    O2 8121   3.949   3.917  17.397  0.5992  0.5802 -0.0389
  544MPD2     C 8122   4.283   3.516  17.493 -0.5065 -0.1527  0.0425
  544MPD2    C1 8123   4.152   3.541  17.466  0.4349  0.6398  0.0926
  544MPD2    C2 8124   4.121   3.671  17.432 -0.7203 -0.4457  0.2525
  544MPD2    C3 8125   4.212   3.766  17.464 -0.6868 -0.1772  0.1365
  544MPD2    C4 8126   4.340   3.735  17.494 -0.8519  0.6222 -0.2419
  544MPD2    C5 8127   4.375   3.608  17.512  0.3771  0.4130 -0.1260
  544MPD2     H 8128   4.021   3.697  17.398 -0.4703  0.2652  0.0620
  544MPD2    H1 8129   4.410   3.817  17.505 -0.6142  0.3475  0.2966
  544MPD2    H2 8130   4.307   3.413  17.516 -0.0250 -0.2036 -0.6595
  544MPD2    H3 8131   4.473   3.587  17.554  0.1290  0.6259  0.5513
  544MPD2     N 8132   4.186   3.905  17.444 -0.4617 -0.3975 -0.0516
  544MPD2    H5 8133   4.269   3.961  17.455 -1.8690  1.5394  0.6113
  544MPD2    N1 8134   4.064   3.430  17.442  0.4878 -0.2427 -0.2390
  544MPD2    H7 8135   4.104   3.337  17.444 -0.5528 -0.6479  1.7670
  545TMC3    C1 8136   3.865   3.312  17.375  0.7046 -0.5607 -0.0351
  545TMC3    C2 8137   3.771   3.311  17.279  0.1736  0.3159 -0.4398
  545TMC3    C3 8138   3.732   3.195  17.223 -0.2049 -0.6579  0.3333
  545TMC3    C4 8139   3.927   3.196  17.417 -0.3733  0.6258 -0.3635
  545TMC3    C5 8140   3.880   3.082  17.363  0.9558  0.4865 -0.2123
  545TMC3    C6 8141   3.783   3.078  17.266  0.1716 -0.1615  0.1311
  545TMC3     C 8142   3.926   3.439  17.408 -0.0923  0.3300  0.2131
  545TMC3     O 8143   3.862   3.543  17.393  0.0431  0.1793 -0.8224
  545TMC3     H 8144   3.737   3.405  17.236 -0.5226 -1.0802 -2.9782
  545TMC3    H1 8145   3.991   3.186  17.504 -1.0520 -1.3558 -0.0897
  545TMC3    H2 8146   3.767   2.982  17.219  0.6363  0.3969 -1.1457
  545TMC3    C7 8147   3.957   2.957  17.374 -0.5515 -0.2823 -0.0612
  545TMC3    C8 8148   3.590   3.193  17.206  0.6653 -0.6213 -0.8850
  545TMC3    O1 8149   3.895   2.858  17.339  0.1129 -0.2879 -0.6988
  545TMC3    O2 8150   3.529   3.298  17.235 -0.7577 -0.5326  0.4013
  546MPD2     C 8151   0.531   3.842  17.417 -0.5106 -0.0987  0.1517
  546MPD2    C1 8152   0.504   3.880  17.286 -0.0874  0.1218 -0.0897
  546MPD2    C2 8153   0.522   4.012  17.249  0.1165 -0.4218  0.6916
  546MPD2    C3 8154   0.596   4.090  17.331 -0.4184  0.1954  0.5065
  546MPD2    C4 8155   0.642   4.049  17.454 -0.0176  0.1200  0.1534
  546MPD2    C5 8156   0.613   3.920  17.492  1.0160  0.5179 -0.3197
  546MPD2     H 8157   0.488   4.057  17.156  1.4192  1.4006  1.0942
  546MPD2    H1 8158   0.707   4.109  17.517 -1.9249  1.7611  0.5500
  546MPD2    H2 8159   0.509   3.741  17.446  1.7626 -0.1195  1.8482
  546MPD2    H3 8160   0.657   3.890  17.587 -0.1690  1.1089  0.4078
  546MPD2     N 8161   0.626   4.229  17.298  0.2112  0.1672  0.0229
  546MPD2    H5 8162   0.694   4.277  17.356  0.6183  0.3234 -0.5899
  546MPD2    N1 8163   0.429   3.792  17.202 -0.5441 -0.3385 -0.5125
  546MPD2    H7 8164   0.408   3.699  17.237 -0.9878  1.2303  3.3183
  547TMC3    C1 8165   0.287   3.726  17.034 -0.5273 -0.2118  0.4444
  547TMC3    C2 8166   0.186   3.772  16.959  0.0047  0.3397  0.4270
  547TMC3    C3 8167   0.081   3.693  16.938 -0.3878  0.1698  0.0917
  547TMC3    C4 8168   0.290   3.596  17.087  0.7336  0.1058  0.0654
  547TMC3    C5 8169   0.177   3.525  17.069  0.0454 -0.4048  0.3167
  547TMC3    C6 8170   0.064   3.566  16.999  0.7271 -0.2614  1.0800
  547TMC3     C 8171   0.390   3.817  17.071  0.1305  0.4409 -0.5561
  547TMC3     O 8172   0.429   3.905  16.996 -0.7436 -0.1434  0.1265
  547TMC3     H 8173   0.172   3.877  16.932  2.6936  0.6549  0.2256
  547TMC3    H1 8174   0.370   3.549  17.142  0.9214  2.1062  1.5215
  547TMC3    H2 8175   4.726   3.502  16.957  0.7215  0.8185 -0.5533
  547TMC3    C7 8176   0.154   3.431  17.181 -0.1463 -0.9304 -1.1530
  547TMC3    C8 8177   4.700   3.733  16.864  0.6003 -0.4516  0.0587
  547TMC3    O1 8178   0.239   3.445  17.268 -0.3652 -0.4944  0.1790
  547TMC3    O2 8179   4.589   3.688  16.896 -0.5981 -1.0562  0.1117
  548MPD2     C 8180   0.598   4.455  12.834 -0.1619 -0.0638 -0.6014
  548MPD2    C1 8181   0.523   4.367  12.757 -0.6632 -0.0708  0.6504
  548MPD2    C2 8182   0.570   4.348  12.627  0.5456 -0.1793 -0.3190
  548MPD2    C3 8183   0.682   4.408  12.579 -0.2670  0.0004 -0.9588
  548MPD2    C4 8184   0.741   4.509  12.662 -0.0172  0.0569  0.7827
  548MPD2    C5 8185   0.701   4.529  12.784 -0.0316 -0.0395  0.9430
  548MPD2     H 8186   0.529   4.268  12.566 -1.9549  0.5043  0.4449
  548MPD2    H1 8187   0.831   4.565  12.640 -0.0262 -0.2781 -0.1089
  548MPD2    H2 8188   0.566   4.470  12.937  0.1157 -0.0760 -0.5130
  548MPD2    H3 8189   0.759   4.587  12.855  2.1264  1.6129 -2.1983
  548MPD2     N 8190   0.728   4.374  12.451 -0.3984 -0.1674  0.2953
  548MPD2    H5 8191   0.659   4.315  12.405  0.2182 -1.8702  1.5296
  548MPD2    N1 8192   0.398   4.325  12.804  0.5589  0.6460 -0.6023
  548MPD2    H7 8193   0.357   4.356  12.891  1.0487  1.4864 -0.6721
  549TMC3    C1 8194   0.202   4.218  12.792  0.0419  0.0569  0.0055
  549TMC3    C2 8195   0.134   4.330  12.746  0.1517 -0.2287  0.9077
  549TMC3    C3 8196   4.733   4.340  12.764 -0.0869  0.9534  0.2145
  549TMC3    C4 8197   0.131   4.105  12.830 -0.2780  0.2038  0.0789
  549TMC3    C5 8198   4.729   4.122  12.848 -0.1629 -0.0922  0.1768
  549TMC3    C6 8199   4.660   4.236  12.812  0.4370 -0.0440 -0.6934
  549TMC3     C 8200   0.341   4.210  12.757 -0.0999  0.3349  0.6048
  549TMC3     O 8201   0.371   4.117  12.680 -0.1103 -0.1981  0.0745
  549TMC3     H 8202   0.191   4.413  12.706  2.2727 -1.2611  1.7434
  549TMC3    H1 8203   0.176   4.011  12.859 -0.1233  0.0762 -0.5679
  549TMC3    H2 8204   4.554   4.250  12.826  0.6081  0.0248  0.5841
  549TMC3    C7 8205   4.636   4.012  12.892 -0.1761 -0.8418  0.2375
  549TMC3    C8 8206   4.660   4.450  12.706 -0.0553 -0.3058  0.1559
  549TMC3    O1 8207   4.537   4.038  12.958  0.2049 -0.4716 -0.3646
  549TMC3    O2 8208   4.552   4.425  12.670  0.8024  0.0257  0.0123
  550TMC3    C1 8209   4.175   2.735  12.753 -0.7626  0.2505  0.3233
  550TMC3    C2 8210   4.092   2.770  12.850 -0.5907  0.9142  0.4683
  550TMC3    C3 8211   4.067   2.910  12.863  0.0737  0.0294 -0.6554
  550TMC3    C4 8212   4.219   2.816  12.649 -0.5066 -0.3314 -0.1655
  550TMC3    C5 8213   4.183   2.950  12.656 -0.4771 -0.1031  0.5127
  550TMC3    C6 8214   4.119   2.995  12.769  0.0307  0.2768  0.1147
  550TMC3     C 8215   4.196   2.594  12.729  0.2532  0.0817 -0.1005
  550TMC3     O 8216   4.205   2.523  12.829  0.7480 -0.6482  0.6955
  550TMC3     H 8217   4.073   2.689  12.919 -1.8458 -0.9926 -2.1350
  550TMC3    H1 8218   4.278   2.779  12.567  0.8445  2.3553 -0.4155
  550TMC3    H2 8219   4.073   3.094  12.773 -2.1441 -0.8155  2.0895
  550TMC3    C7 8220   4.124   3.004  12.530  0.4810 -0.2688 -0.5707
  550TMC3    C8 8221   3.934   2.959  12.915  0.2509 -0.3745  0.5681
  550TMC3    O1 8222   4.056   3.105  12.544  0.3578 -0.0979  0.0545
  550TMC3    O2 8223   3.923   3.072  12.947 -0.3879 -0.1176  0.2517
  551TMC3    C1 8224   1.280   0.444  13.229  0.4245 -0.5411 -0.2212
  551TMC3    C2 8225   1.410   0.445  13.180 -0.5081  0.3873 -0.5644
  551TMC3    C3 8226   1.511   0.465  13.271 -0.1104  0.0471  0.2068
  551TMC3    C4 8227   1.247   0.470  13.362 -0.0659  0.1260  0.3484
  551TMC3    C5 8228   1.355   0.493  13.444  0.3675  0.1180 -0.0539
  551TMC3    C6 8229   1.486   0.496  13.402  0.6905  0.0178  0.2332
  551TMC3     C 8230   1.179   0.404  13.132  0.4016  1.0620 -0.8071
  551TMC3     O 8231   1.217   0.369  13.022 -0.1897  0.5561 -0.3358
  551TMC3     H 8232   1.421   0.423  13.075 -0.3535  0.4846 -0.5680
  551TMC3    H1 8233   1.150   0.447  13.405 -0.0321 -1.4766 -0.4385
  551TMC3    H2 8234   1.562   0.510  13.478 -0.7674  0.7857  1.5420
  551TMC3    C7 8235   1.333   0.502  13.588 -0.6769  0.0875 -0.0472
  551TMC3    C8 8236   1.644   0.479  13.220  0.3226  0.1146 -0.3815
  551TMC3    O1 8237   1.411   0.444  13.661  0.3525  0.3767 -0.7485
  551TMC3    O2 8238   1.677   0.441  13.106  0.3076  0.1506  0.4048
  552MPD2     C 8239   3.357   2.452  14.359 -0.3202  1.4398  0.0559
  552MPD2    C1 8240   3.437   2.339  14.373  0.5815 -0.1644  0.3234
  552MPD2    C2 8241   3.549   2.343  14.447 -0.7747  0.7220  0.5268
  552MPD2    C3 8242   3.598   2.461  14.504  0.1360 -0.2495  0.0434
  552MPD2    C4 8243   3.526   2.575  14.484  0.6630  0.5921  0.8556
  552MPD2    C5 8244   3.408   2.572  14.421  0.1648  0.5668 -0.2696
  552MPD2     H 8245   3.597   2.246  14.455  1.3723  1.7607  0.1956
  552MPD2    H1 8246   3.558   2.668  14.530  3.0360 -0.6363  1.6911
  552MPD2    H2 8247   3.276   2.452  14.287  0.2054 -2.1187 -0.5175
  552MPD2    H3 8248   3.355   2.664  14.399 -0.8724 -0.0194 -0.2115
  552MPD2     N 8249   3.717   2.473  14.581 -0.6237  0.3493 -0.1268
  552MPD2    H5 8250   3.744   2.570  14.596  0.7154  0.3010 -2.2202
  552MPD2    N1 8251   3.410   2.205  14.334  0.0700  0.2500 -0.3048
  552MPD2    H7 8252   3.476   2.133  14.364 -1.8169 -1.3372  0.0459
  553TMC3    C1 8253   3.287   2.024  14.225 -0.1524  0.4310  0.4957
  553TMC3    C2 8254   3.211   1.987  14.120 -0.1482  0.4838  0.2444
  553TMC3    C3 8255   3.173   1.858  14.097 -0.7838  0.4719  0.2583
  553TMC3    C4 8256   3.322   1.927  14.319 -0.4211 -0.2961  0.5440
  553TMC3    C5 8257   3.286   1.799  14.294 -0.2884  0.0817 -0.1075
  553TMC3    C6 8258   3.207   1.761  14.189  0.8537 -0.2883  0.0462
  553TMC3     C 8259   3.308   2.170  14.246 -0.3491 -0.2213  0.1180
  553TMC3     O 8260   3.234   2.242  14.186  0.3051 -0.4431  0.3104
  553TMC3     H 8261   3.184   2.066  14.050 -0.2653  0.0899 -0.1525
  553TMC3    H1 8262   3.374   1.953  14.410  1.1056 -1.2127 -0.0707
  553TMC3    H2 8263   3.175   1.658  14.178  0.4735 -0.1589 -0.0887
  553TMC3    C7 8264   3.368   1.695  14.348 -0.5845  0.6776  0.3620
  553TMC3    C8 8265   3.206   1.814  13.959  0.0052 -0.5785  0.2214
  553TMC3    O1 8266   3.315   1.585  14.375 -0.0517  0.0699  0.4714
  553TMC3    O2 8267   3.292   1.878  13.904 -0.7018 -0.5495  0.1224
  554TMC3    C1 8268   0.310   1.728  12.008 -0.1851 -0.5844 -0.5111
  554TMC3    C2 8269   0.173   1.720  11.992  0.8679  0.6571 -0.4508
  554TMC3    C3 8270   0.103   1.833  11.963  0.7770 -0.2859 -0.3921
  554TMC3    C4 8271   0.372   1.849  11.990 -0.5699 -0.0676 -0.0756
  554TMC3    C5 8272   0.303   1.964  11.956 -0.0858 -0.0259 -0.2658
  554TMC3    C6 8273   0.170   1.952  11.947 -0.7937  0.2627 -0.0750
  554TMC3     C 8274   0.383   1.604  11.982  0.1012 -0.1987  0.1737
  554TMC3     O 8275   0.343   1.541  11.887 -0.3321 -0.2410 -0.0370
  554TMC3     H 8276   0.120   1.627  12.009  1.4378  0.3134 -0.5696
  554TMC3    H1 8277   0.480   1.858  11.992 -0.4514 -1.6251  0.6820
  554TMC3    H2 8278   0.119   2.040  11.909  0.5448  1.3862  0.7332
  554TMC3    C7 8279   0.357   2.053  11.850  0.5201 -0.9358  0.2516
  554TMC3    C8 8280   4.733   1.823  11.865  0.0407 -0.1511  0.1108
  554TMC3    O1 8281   0.295   2.044  11.749 -0.1634 -0.2687  0.8523
  554TMC3    O2 8282   4.726   1.897  11.771 -0.7423  0.3658 -0.2054
  555TMC3    C1 8283   4.289   1.000  15.198 -0.4758  0.1692 -0.2895
  555TMC3    C2 8284   4.400   1.006  15.282 -0.4256  1.4356  0.5210
  555TMC3    C3 8285   4.468   0.892  15.328 -0.3025 -0.1765 -0.3848
  555TMC3    C4 8286   4.253   0.881  15.138  0.0415 -0.7969 -0.8766
  555TMC3    C5 8287   4.313   0.763  15.183 -0.7801  0.9360 -0.0560
  555TMC3    C6 8288   4.423   0.773  15.270 -0.2518 -0.4439  0.1092
  555TMC3     C 8289   4.281   1.126  15.118 -0.4742  0.6106  0.3119
  555TMC3     O 8290   4.379   1.200  15.099 -0.7298 -0.1710 -0.0201
  555TMC3     H 8291   4.419   1.103  15.326  1.3469  0.5010  1.8476
  555TMC3    H1 8292   4.180   0.878  15.058 -0.3201 -1.3742 -0.5235
  555TMC3    H2 8293   4.451   0.679  15.318 -1.7750  0.7490  3.3150
  555TMC3    C7 8294   4.268   0.633  15.133 -0.0582  0.0099 -0.1271
  555TMC3    C8 8295   4.514   0.884  15.467  0.2715  0.0469  0.3539
  555TMC3    O1 8296   4.259   0.536  15.207  0.1797 -0.3838  0.2762
  555TMC3    O2 8297   4.464   0.970  15.542 -0.8085  0.3099 -0.1333
  556MPD2     C 8298   2.112   3.008  10.782  1.0201  0.4162 -0.6264
  556MPD2    C1 8299   2.121   2.903  10.867 -1.1230  0.9088 -0.0109
  556MPD2    C2 8300   2.082   2.780  10.810 -0.0716  0.3072 -0.0609
  556MPD2    C3 8301   2.035   2.763  10.685  0.6479 -0.3422 -0.0343
  556MPD2    C4 8302   2.021   2.875  10.605 -0.0544  0.1648 -0.2192
  556MPD2    C5 8303   2.060   2.997  10.656 -0.1223  0.2766  0.8854
  556MPD2     H 8304   2.103   2.692  10.871  1.4641  1.4669  1.0932
  556MPD2    H1 8305   1.994   2.890  10.501 -0.9170 -2.2662 -0.3509
  556MPD2    H2 8306   2.146   3.106  10.813 -1.9005  0.7062  1.5994
  556MPD2    H3 8307   2.056   3.088  10.597  0.2217 -0.0916  0.2882
  556MPD2     N 8308   2.003   2.633  10.643 -0.0704 -0.8328  0.0430
  556MPD2    H5 8309   2.006   2.558  10.712  1.1213  0.1908  1.0901
  556MPD2    N1 8310   2.163   2.913  11.001 -0.5324 -0.8214 -0.2925
  556MPD2    H7 8311   2.199   2.825  11.038 -0.6530 -1.3201 -1.3574
  557TMC3    C1 8312   1.917   2.472  10.491 -0.2201  0.1453 -0.2973
  557TMC3    C2 8313   1.845   2.448  10.375 -0.8306 -0.4973  1.6026
  557TMC3    C3 8314   1.807   2.322  10.349 -0.1666 -0.0199  0.3273
  557TMC3    C4 8315   1.968   2.376  10.570 -0.6065  0.0842  0.6536
  557TMC3    C5 8316   1.940   2.249  10.525 -0.2493  0.0858  0.1270
  557TMC3    C6 8317   1.851   2.214  10.423  0.1308 -0.5424 -0.2867
  557TMC3     C 8318   1.951   2.608  10.515 -0.0914 -0.9371  0.0078
  557TMC3     O 8319   1.935   2.678  10.414 -0.0581  0.2023 -0.0256
  557TMC3     H 8320   1.806   2.530  10.316 -0.5812  1.0970  3.6254
  557TMC3    H1 8321   2.043   2.396  10.646  0.9741  0.9967 -1.1490
  557TMC3    H2 8322   1.820   2.110  10.414  0.7485 -0.7765  0.2319
  557TMC3    C7 8323   1.960   2.150  10.631 -0.2122  0.5396  0.3841
  557TMC3    C8 8324   1.688   2.299  10.268  0.2956 -0.0922 -0.1016
  557TMC3    O1 8325   1.975   2.198  10.744  0.0878 -0.6046  0.0082
  557TMC3    O2 8326   1.629   2.401  10.232 -0.1048  0.3541  0.5243
  558TMC3    C1 8327   4.636   1.298  10.581  0.1538  0.5876 -0.4611
  558TMC3    C2 8328   4.595   1.202  10.497  0.1345  0.0206  0.2130
  558TMC3    C3 8329   4.586   1.241  10.369  0.7857  0.1784  0.0581
  558TMC3    C4 8330   4.626   1.436  10.555  0.0371  0.2407 -0.3560
  558TMC3    C5 8331   4.586   1.469  10.423  0.9084 -0.3089  0.7303
  558TMC3    C6 8332   4.573   1.367  10.325 -0.0179  0.5241 -1.3453
  558TMC3     C 8333   4.713   1.241  10.690  0.0648  1.1305  0.7352
  558TMC3     O 8334   4.712   1.118  10.701  0.1275 -0.1827  0.2747
  558TMC3     H 8335   4.580   1.099  10.528 -1.7579 -0.2374 -1.5202
  558TMC3    H1 8336   4.657   1.509  10.629  1.2114 -0.8000  0.1971
  558TMC3    H2 8337   4.564   1.394  10.221 -1.5682 -1.1236 -1.6346
  558TMC3    C7 8338   4.505   1.590  10.400  0.3475 -0.3037  0.6926
  558TMC3    C8 8339   4.581   1.139  10.268 -0.6701 -0.2349 -0.4114
  558TMC3    O1 8340   4.530   1.694  10.460 -0.1983  0.3299 -0.1470
  558TMC3    O2 8341   4.554   1.173  10.153 -0.0807 -0.6925 -0.2614
  559MPD2     C 8342   4.328   1.372  11.134 -0.3609  0.1197 -0.4154
  559MPD2    C1 8343   4.335   1.236  11.123 -0.3687 -0.2838 -0.3156
  559MPD2    C2 8344   4.444   1.172  11.174  0.4499 -0.1398  0.5329
  559MPD2    C3 8345   4.552   1.234  11.227 -0.1203 -0.0935  0.3783
  559MPD2    C4 8346   4.541   1.372  11.235 -0.3792  0.1402  0.0609
  559MPD2    C5 8347   4.429   1.445  11.196  0.1144  0.7173  0.5095
  559MPD2     H 8348   4.441   1.065  11.192  1.3860  0.1047  2.1929
  559MPD2    H1 8349   4.622   1.421  11.289 -0.1526  0.1781 -0.3156
  559MPD2    H2 8350   4.243   1.428  11.098 -1.5597  0.8848  3.5710
  559MPD2    H3 8351   4.422   1.552  11.213 -2.0906  0.5972  0.3847
  559MPD2     N 8352   4.665   1.158  11.271 -0.1924 -0.4348  0.1765
  559MPD2    H5 8353   4.658   1.057  11.265 -1.5665 -0.4192  1.6261
  559MPD2    N1 8354   4.222   1.178  11.062 -0.4280 -0.1352  0.1454
  559MPD2    H7 8355   4.161   1.248  11.022  0.3563 -0.5052 -1.6744
  560TMC3    C1 8356   0.154   1.100  11.313 -0.7983 -0.8775  0.8746
  560TMC3    C2 8357   0.128   0.987  11.246  0.1555 -0.3085 -0.7838
  560TMC3    C3 8358   0.183   0.873  11.291  0.2640 -0.0066 -0.0808
  560TMC3    C4 8359   0.255   1.118  11.399 -0.2079  0.3518  0.1161
  560TMC3    C5 8360   0.309   0.997  11.438  0.2390 -0.5834  0.6121
  560TMC3    C6 8361   0.277   0.875  11.385 -0.3144  0.1362 -0.0525
  560TMC3     C 8362   0.048   1.206  11.309 -1.3303  0.1605 -0.4090
  560TMC3     O 8363   0.083   1.320  11.324 -0.4371 -0.1420 -0.1116
  560TMC3     H 8364   0.052   0.987  11.169 -0.0033 -0.7382 -0.6282
  560TMC3    H1 8365   0.263   1.205  11.464 -1.4460 -0.1490  0.9383
  560TMC3    H2 8366   0.362   0.809  11.390 -1.0128 -0.6563  1.1700
  560TMC3    C7 8367   0.427   0.994  11.519  0.2439 -0.3458 -0.4405
  560TMC3    C8 8368   0.173   0.760  11.199  0.1509 -0.2760 -0.6674
  560TMC3    O1 8369   0.443   0.887  11.573  0.1309  0.2026  0.3310
  560TMC3    O2 8370   0.129   0.778  11.088  0.0814  0.0301 -0.6196
  561TMC3    C1 8371   2.917   4.641  11.691 -0.0238 -0.0970  0.3864
  561TMC3    C2 8372   2.844   4.590  11.794 -0.3825 -0.1376  0.1075
  561TMC3    C3 8373   2.737   4.668  11.840 -0.0623 -0.8652  0.1245
  561TMC3    C4 8374   2.892   0.020  11.625 -0.9990  0.3598 -0.2264
  561TMC3    C5 8375   2.790   0.093  11.681 -0.2261  0.1469 -0.4496
  561TMC3    C6 8376   2.714   0.056  11.785 -0.2158 -0.3363 -0.0584
  561TMC3     C 8377   3.006   4.545  11.631 -0.3561  0.4396 -0.1746
  561TMC3     O 8378   2.976   4.425  11.636 -0.2447  0.6008 -0.0290
  561TMC3     H 8379   2.863   4.490  11.834  3.9910  0.9896  0.8619
  561TMC3    H1 8380   2.958   0.058  11.549 -1.2038 -0.2395 -0.7076
  561TMC3    H2 8381   2.623   0.106  11.819  0.5979  1.1846 -0.0970
  561TMC3    C7 8382   2.751   0.215  11.605 -0.3728 -0.3539  0.6661
  561TMC3    C8 8383   2.713   4.647  11.987 -0.0553  0.1490 -0.1414
  561TMC3    O1 8384   2.668   0.294  11.647 -0.6339 -0.3437 -0.4092
  561TMC3    O2 8385   2.720   4.535  12.028 -0.2006  0.6009  1.0202
  562TMC3    C1 8386   4.469   0.664  15.982 -0.2209 -0.2064 -0.1888
  562TMC3    C2 8387   4.418   0.792  15.995 -0.7467  0.3490 -0.3384
  562TMC3    C3 8388   4.350   0.850  15.888  0.0425  0.5687 -0.1088
  562TMC3    C4 8389   4.437   0.586  15.872  0.1592  0.4134  0.1778
  562TMC3    C5 8390   4.362   0.645  15.773  0.0151 -0.2185 -0.0236
  562TMC3    C6 8391   4.326   0.778  15.771  0.4035  0.4509  0.4480
  562TMC3     C 8392   4.556   0.605  16.086  0.3352  0.3928 -0.8065
  562TMC3     O 8393   4.595   0.491  16.078 -0.5536  0.0800 -0.5051
  562TMC3     H 8394   4.436   0.851  16.085 -1.7923 -1.8557  1.3352
  562TMC3    H1 8395   4.474   0.484  15.868 -1.4132 -0.1518  0.0231
  562TMC3    H2 8396   4.276   0.817  15.683  0.4696  0.5473  0.4538
  562TMC3    C7 8397   4.320   0.558  15.662 -0.0960  0.0813 -0.0366
  562TMC3    C8 8398   4.293   0.980  15.906 -0.4529  0.0661  0.6990
  562TMC3    O1 8399   4.313   0.603  15.548  0.0800  0.5865 -0.4832
  562TMC3    O2 8400   4.264   1.017  16.017  0.4539  0.0773 -0.2628
  563MPD2     C 8401   1.809   2.537  15.966  0.3348 -0.5103 -0.5370
  563MPD2    C1 8402   1.855   2.494  16.087  0.8566 -0.4969 -0.1952
  563MPD2    C2 8403   1.994   2.496  16.103  0.0066  0.0802 -0.4602
  563MPD2    C3 8404   2.081   2.551  16.005 -0.8378  0.5702  0.2353
  563MPD2    C4 8405   2.029   2.600  15.886  0.0105  0.4177  0.5344
  563MPD2    C5 8406   1.895   2.586  15.873 -0.3712 -0.1430 -0.1998
  563MPD2     H 8407   2.030   2.458  16.199 -0.0786 -0.8656 -0.7996
  563MPD2    H1 8408   2.077   2.627  15.792 -3.0765 -1.2481 -1.5407
  563MPD2    H2 8409   1.705   2.551  15.939  0.0150  0.3243  1.1517
  563MPD2    H3 8410   1.844   2.616  15.781 -2.0121 -0.1183  0.7138
  563MPD2     N 8411   2.219   2.533  16.020 -0.3182 -0.0765  0.6259
  563MPD2    H5 8412   2.253   2.486  16.103 -3.7821  0.2343  2.2221
  563MPD2    N1 8413   1.762   2.469  16.195 -0.3164 -0.3070 -0.1440
  563MPD2    H7 8414   1.668   2.452  16.161 -0.6988  0.1823  0.6598
  564TMC3    C1 8415   1.690   2.365  16.397 -0.4437  0.0170 -0.0063
  564TMC3    C2 8416   1.598   2.285  16.334 -0.3431 -0.3679 -0.4637
  564TMC3    C3 8417   1.562   2.168  16.399  0.3048  0.0587 -0.3508
  564TMC3    C4 8418   1.731   2.330  16.527 -0.3252 -0.1169 -0.0652
  564TMC3    C5 8419   1.690   2.217  16.588 -0.4860 -0.5395 -0.0382
  564TMC3    C6 8420   1.604   2.135  16.523 -0.1879  0.7728  0.4011
  564TMC3     C 8421   1.789   2.441  16.327  0.0733 -1.2314  0.6788
  564TMC3     O 8422   1.901   2.457  16.383  0.1241 -0.4334  0.0907
  564TMC3     H 8423   1.561   2.302  16.233  4.0814 -0.2611 -2.0534
  564TMC3    H1 8424   1.817   2.373  16.576  0.0421 -1.3779  0.4029
  564TMC3    H2 8425   1.569   2.047  16.575  0.6033 -1.0547 -2.1130
  564TMC3    C7 8426   1.775   2.162  16.691 -0.4581  0.4080 -1.5114
  564TMC3    C8 8427   1.471   2.071  16.340 -0.7420  0.0394  0.3669
  564TMC3    O1 8428   1.836   2.242  16.760 -0.1005  0.2099 -0.1308
  564TMC3    O2 8429   1.409   2.003  16.418 -0.4482 -0.0683 -0.4211
  565TMC3    C1 8430   1.743   4.161  10.731  0.8196 -0.1250 -0.1544
  565TMC3    C2 8431   1.761   4.046  10.805 -0.3950  0.0203 -1.2904
  565TMC3    C3 8432   1.737   3.922  10.745  0.0370  0.0868  0.5559
  565TMC3    C4 8433   1.701   4.159  10.602 -0.5261  0.3459  0.2687
  565TMC3    C5 8434   1.675   4.043  10.542  0.1080  0.2821  0.3459
  565TMC3    C6 8435   1.691   3.925  10.613 -0.3855 -0.0148 -0.4220
  565TMC3     C 8436   1.788   4.285  10.787 -0.4561  0.1118  1.0468
  565TMC3     O 8437   1.825   4.371  10.707 -0.3756  0.5919 -0.9155
  565TMC3     H 8438   1.808   4.054  10.902 -0.8657 -2.1923 -0.8628
  565TMC3    H1 8439   1.690   4.252  10.547 -0.5842  1.2739  1.8477
  565TMC3    H2 8440   1.692   3.831  10.559 -0.5867 -0.1114 -0.2553
  565TMC3    C7 8441   1.633   4.032  10.402  0.4878 -0.5393 -0.3011
  565TMC3    C8 8442   1.828   3.822  10.784 -0.1263 -0.1579  0.6546
  565TMC3    O1 8443   1.611   3.917  10.368  0.0158  0.1775  0.4443
  565TMC3    O2 8444   1.928   3.850  10.852 -0.2004 -0.4018 -0.0302
  566MPD2     C 8445   3.375   0.916  14.084 -0.4478 -0.5831  0.2780
  566MPD2    C1 8446   3.392   0.995  13.976 -0.5739 -0.2385 -0.0120
  566MPD2    C2 8447   3.283   1.051  13.907  0.2614  0.6069  0.1357
  566MPD2    C3 8448   3.156   1.000  13.930 -0.6526 -0.0065 -0.1719
  566MPD2    C4 8449   3.139   0.921  14.048  0.2373  0.6324 -0.0480
  566MPD2    C5 8450   3.243   0.887  14.125 -0.1052 -0.3605  0.4379
  566MPD2     H 8451   3.294   1.129  13.832 -1.9090 -0.5980 -1.4185
  566MPD2    H1 8452   3.038   0.889  14.071  0.9111 -0.0067  1.9955
  566MPD2    H2 8453   3.460   0.890  14.146  0.4602 -1.3565 -1.2808
  566MPD2    H3 8454   3.215   0.838  14.217  0.6859 -1.7008 -0.0310
  566MPD2     N 8455   3.048   1.025  13.843  0.4186 -0.4491  0.4151
  566MPD2    H5 8456   2.961   0.991  13.880 -0.1276  1.9769  1.3633
  566MPD2    N1 8457   3.526   1.033  13.942 -0.0933  0.6142  0.3095
  566MPD2    H7 8458   3.605   0.993  13.990 -0.0866  1.2411  0.8082
  567TMC3    C1 8459   3.696   1.153  13.842  0.4431  0.1636  0.6015
  567TMC3    C2 8460   3.758   1.164  13.725 -0.8546  0.0638  0.5199
  567TMC3    C3 8461   3.894   1.183  13.731  0.2926 -0.5231  0.6138
  567TMC3    C4 8462   3.759   1.142  13.963 -0.3532 -0.5023 -0.3498
  567TMC3    C5 8463   3.892   1.142  13.961 -0.5959 -0.4149  0.2163
  567TMC3    C6 8464   3.962   1.170  13.848 -0.0567 -0.7665  0.2993
  567TMC3     C 8465   3.561   1.118  13.837  0.4257  0.1441 -0.1220
  567TMC3     O 8466   3.492   1.156  13.746  0.4865 -0.1094 -0.1243
  567TMC3     H 8467   3.698   1.173  13.635 -0.5179 -1.1859  0.1755
  567TMC3    H1 8468   3.705   1.134  14.057  0.9244  0.8085  0.4871
  567TMC3    H2 8469   4.069   1.154  13.844  0.3658  1.9852  0.0346
  567TMC3    C7 8470   3.969   1.161  14.083 -0.2915 -0.3715 -0.1027
  567TMC3    C8 8471   3.962   1.211  13.606 -0.5551  0.4239  0.0862
  567TMC3    O1 8472   4.071   1.222  14.067  0.1725  0.0755 -0.1033
  567TMC3    O2 8473   3.896   1.188  13.501 -0.7285  0.5008 -0.2177
  568MPD2     C 8474   1.475   0.744  16.489  0.2916 -0.3289  0.6730
  568MPD2    C1 8475   1.453   0.828  16.604 -0.7900  0.3910 -0.5744
  568MPD2    C2 8476   1.392   0.949  16.593  0.2410 -0.2675  0.1159
  568MPD2    C3 8477   1.348   0.988  16.469  1.0428 -0.0263  0.3694
  568MPD2    C4 8478   1.382   0.917  16.355 -0.3683 -0.1682  0.2849
  568MPD2    C5 8479   1.444   0.798  16.367  0.1772 -0.5894  0.2605
  568MPD2     H 8480   1.372   1.002  16.685  1.9012 -0.3332  0.5189
  568MPD2    H1 8481   1.365   0.951  16.254  0.2726  0.0433  0.2446
  568MPD2    H2 8482   1.526   0.649  16.494 -0.2191 -0.5847  1.0287
  568MPD2    H3 8483   1.462   0.741  16.276  1.9625  2.2389 -1.1528
  568MPD2     N 8484   1.290   1.116  16.473 -0.4421 -0.0221  0.7390
  568MPD2    H5 8485   1.276   1.163  16.562 -0.0597  0.4369  0.5560
  568MPD2    N1 8486   1.500   0.795  16.733 -0.0495  0.0663 -0.5548
  568MPD2    H7 8487   1.497   0.869  16.803  2.7519 -0.7124  0.3610
  569TMC3    C1 8488   1.183   1.310  16.398  0.5463 -0.2672 -0.1396
  569TMC3    C2 8489   1.119   1.315  16.517  0.5536  0.3253 -0.0725
  569TMC3    C3 8490   1.042   1.423  16.554 -0.6839  0.0711  0.1138
  569TMC3    C4 8491   1.176   1.417  16.316  0.1926 -0.0848 -0.0586
  569TMC3    C5 8492   1.113   1.524  16.354 -0.0174  0.1473 -0.0361
  569TMC3    C6 8493   1.040   1.532  16.473 -0.9246 -0.3176 -0.4409
  569TMC3     C 8494   1.250   1.190  16.362 -0.4762 -0.0034  0.0116
  569TMC3     O 8495   1.247   1.157  16.242 -0.3741 -0.0239 -0.8844
  569TMC3     H 8496   1.130   1.241  16.595  0.9944  1.7555  1.2155
  569TMC3    H1 8497   1.236   1.404  16.226 -0.0651  0.5534 -0.3234
  569TMC3    H2 8498   0.995   1.628  16.494 -1.9175 -0.7868 -0.4433
  569TMC3    C7 8499   1.172   1.648  16.311 -0.6181  0.2552 -0.3225
  569TMC3    C8 8500   1.037   1.463  16.689 -1.1737 -0.0498  0.4709
  569TMC3    O1 8501   1.197   1.729  16.400  0.8934 -0.1039  0.4468
  569TMC3    O2 8502   1.017   1.371  16.766 -0.4071  0.0843  0.1623
  570TMC3    C1 8503   0.694   0.314  15.955  0.3866 -1.0483  0.1394
  570TMC3    C2 8504   0.756   0.352  15.839 -0.0005  0.2404  0.3416
  570TMC3    C3 8505   0.838   0.457  15.839  0.5881 -0.3611  0.4876
  570TMC3    C4 8506   0.708   0.391  16.067 -0.6809  0.2552 -0.4568
  570TMC3    C5 8507   0.793   0.495  16.065  0.0191 -0.1807 -0.0524
  570TMC3    C6 8508   0.860   0.526  15.951  0.2188 -0.7049 -0.1938
  570TMC3     C 8509   0.588   0.207  15.957 -0.0277 -0.0390 -0.4734
  570TMC3     O 8510   0.555   0.160  15.849 -0.0331 -0.1027 -0.2100
  570TMC3     H 8511   0.748   0.293  15.748 -0.9048 -1.1664  1.3243
  570TMC3    H1 8512   0.662   0.356  16.159  0.7195  0.1503  0.2083
  570TMC3    H2 8513   0.912   0.621  15.944 -0.5606 -0.5441 -3.3553
  570TMC3    C7 8514   0.802   0.588  16.175 -0.4640 -0.4257 -0.0045
  570TMC3    C8 8515   0.887   0.509  15.710 -0.2759  0.1349  0.2563
  570TMC3    O1 8516   0.912   0.639  16.193  0.6663 -0.1863 -0.0326
  570TMC3    O2 8517   0.984   0.582  15.722 -0.1453 -1.0186 -0.4976
  571MPD2     C 8518   3.220   1.378   0.454  0.1580 -0.4371  0.6163
  571MPD2    C1 8519   3.143   1.412   0.565  0.2558 -0.0159  0.3828
  571MPD2    C2 8520   3.116   1.548   0.582 -0.5910  0.4021  0.4361
  571MPD2    C3 8521   3.191   1.638   0.510  0.1935 -0.8600  0.4386
  571MPD2    C4 8522   3.273   1.604   0.406  0.1954 -0.1371 -0.0734
  571MPD2    C5 8523   3.276   1.472   0.376 -0.4471 -0.0511  0.0636
  571MPD2     H 8524   3.037   1.583   0.647  0.0927  1.7909  0.5252
  571MPD2    H1 8525   3.338   1.676   0.357  0.3008  0.3727  0.8066
  571MPD2    H2 8526   3.228   1.271   0.438 -0.0725 -0.5231  1.0586
  571MPD2    H3 8527   3.334   1.449   0.287 -0.2978  2.4107 -0.4873
  571MPD2     N 8528   3.182   1.774   0.532 -0.5186 -0.1228  0.3225
  571MPD2    H5 8529   3.211   1.835   0.456 -1.8921  0.9027  0.6131
  571MPD2    N1 8530   3.091   1.308   0.648 -0.1106  0.4963 -0.3561
  571MPD2    H7 8531   3.096   1.214   0.611  0.4645  0.0513  0.8512
  572TMC3    C1 8532   3.141   1.988   0.638  0.1387 -0.3267 -0.2356
  572TMC3    C2 8533   3.102   2.057   0.748 -0.7475  0.1053 -0.2086
  572TMC3    C3 8534   3.048   2.181   0.728 -0.2529 -0.2271 -0.4396
  572TMC3    C4 8535   3.153   2.053   0.516  0.5705 -0.0252 -0.2917
  572TMC3    C5 8536   3.112   2.183   0.518 -0.0248 -0.0152  0.7423
  572TMC3    C6 8537   3.053   2.246   0.617  0.1033 -0.0290  0.4444
  572TMC3     C 8538   3.130   1.845   0.643  0.1658 -0.0073  0.9186
  572TMC3     O 8539   3.097   1.786   0.744  0.0775 -0.4136 -0.2238
  572TMC3     H 8540   3.079   2.002   0.838 -0.3763  0.7433  0.2777
  572TMC3    H1 8541   3.183   2.005   0.423 -1.6756  2.3159 -2.2268
  572TMC3    H2 8542   3.021   2.348   0.595  2.8697  0.6957 -0.2006
  572TMC3    C7 8543   3.192   2.265   0.432 -0.4220  0.3306 -0.0768
  572TMC3    C8 8544   2.976   2.234   0.849 -0.0112 -0.0515 -0.2048
  572TMC3    O1 8545   3.142   2.362   0.379  0.5720  0.1240 -0.6371
  572TMC3    O2 8546   2.962   2.168   0.954  0.0575  0.2828 -0.5687
  573MPD2     C 8547   4.257   2.111   0.457 -0.2957 -0.6673 -1.0003
  573MPD2    C1 8548   4.375   2.152   0.500  0.8275  0.1937  0.5298
  573MPD2    C2 8549   4.451   2.255   0.436  0.1847 -0.0068 -0.4251
  573MPD2    C3 8550   4.397   2.311   0.323  0.5000  0.2170  0.4039
  573MPD2    C4 8551   4.274   2.265   0.270  0.2016  0.3607  0.1182
  573MPD2    C5 8552   4.210   2.164   0.339  0.2399 -0.7167 -0.0578
  573MPD2     H 8553   4.537   2.299   0.485  0.0581 -0.3122  0.0681
  573MPD2    H1 8554   4.221   2.309   0.185  0.1080 -0.2532 -0.1373
  573MPD2    H2 8555   4.204   2.038   0.517  0.5247 -0.8380 -0.4883
  573MPD2    H3 8556   4.114   2.134   0.298 -0.7615 -0.1927  1.8861
  573MPD2     N 8557   4.450   2.419   0.255 -0.1134 -0.3106 -0.1793
  573MPD2    H5 8558   4.400   2.448   0.172 -0.3486  0.3705  0.1974
  573MPD2    N1 8559   4.417   2.091   0.621 -0.0571  0.0873 -0.1900
  573MPD2    H7 8560   4.357   2.017   0.655  1.3093 -1.3096 -0.8324
  574TMC3    C1 8561   4.622   2.590   0.206 -0.3937 -0.1522 -0.4293
  574TMC3    C2 8562   4.532   2.668   0.143  0.3359  0.3278 -0.4230
  574TMC3    C3 8563   4.570   2.792   0.101  0.2444  0.2734  0.0371
  574TMC3    C4 8564   0.021   2.626   0.213 -0.4413  0.2847 -0.2167
  574TMC3    C5 8565   0.060   2.748   0.164 -0.5247  0.0444 -0.5519
  574TMC3    C6 8566   4.703   2.833   0.115 -0.2728  0.1911 -0.0074
  574TMC3     C 8567   4.578   2.474   0.277  0.3378 -0.3122  0.3042
  574TMC3     O 8568   4.664   2.432   0.352  0.0536 -0.2065 -0.1342
  574TMC3     H 8569   4.427   2.643   0.135  0.0624  1.4263 -0.2570
  574TMC3    H1 8570   0.087   2.562   0.270 -0.3467  1.8543  1.4426
  574TMC3    H2 8571   4.731   2.925   0.065  0.4456  1.0224  1.9310
  574TMC3    C7 8572   0.192   2.808   0.173 -0.3050 -0.7352 -0.3765
  574TMC3    C8 8573   4.500   2.854  17.738 -0.9557  0.5837  0.1024
  574TMC3    O1 8574   0.200   2.931   0.158  0.4893 -0.3944  0.8688
  574TMC3    O2 8575   4.498   2.974  17.722 -0.2057  0.2190 -0.2544
  575TMC3    C1 8576   2.379   3.594  11.338 -0.6513  0.7730  0.6807
  575TMC3    C2 8577   2.345   3.509  11.440 -0.6309 -0.0035  0.8552
  575TMC3    C3 8578   2.258   3.408  11.404  0.2701 -0.3301  0.3167
  575TMC3    C4 8579   2.338   3.577  11.214  0.3326  0.8383 -0.0453
  575TMC3    C5 8580   2.252   3.478  11.176 -0.1058  0.8706  0.1935
  575TMC3    C6 8581   2.203   3.397  11.277 -0.0273  0.3541 -0.3523
  575TMC3     C 8582   2.351   3.733  11.385  0.5661  0.1304  0.0495
  575TMC3     O 8583   2.398   3.775  11.487 -0.2432 -0.0556  0.0307
  575TMC3     H 8584   2.383   3.518  11.542  1.1929  0.4036  0.1332
  575TMC3    H1 8585   2.366   3.652  11.141 -1.2915  1.0146 -0.5017
  575TMC3    H2 8586   2.144   3.311  11.246  0.9017 -1.2695  2.4063
  575TMC3    C7 8587   2.147   3.516  11.085 -0.3146 -0.0037 -0.6033
  575TMC3    C8 8588   2.229   3.303  11.501  0.4865 -0.0531 -0.0121
  575TMC3    O1 8589   2.121   3.633  11.094 -0.1495 -0.1675  0.1008
  575TMC3    O2 8590   2.193   3.194  11.453 -0.5237 -0.3271  0.3769
  576MPD2     C 8591   1.611   0.115  12.705  0.8998  0.0938 -0.0207
  576MPD2    C1 8592   1.633   0.247  12.664  0.1684  0.4284  0.0538
  576MPD2    C2 8593   1.526   0.334  12.656  0.6447 -0.0059 -0.2303
  576MPD2    C3 8594   1.400   0.295  12.695  0.6496  0.1872 -0.6724
  576MPD2    C4 8595   1.379   0.159  12.731 -0.6085  0.5504 -0.0332
  576MPD2    C5 8596   1.485   0.071  12.735  0.5106 -0.5841 -0.0197
  576MPD2     H 8597   1.546   0.438  12.634  0.5254 -0.1339 -0.9469
  576MPD2    H1 8598   1.280   0.128  12.764  0.1496 -1.0146  0.7948
  576MPD2    H2 8599   1.697   0.049  12.693  2.9219  2.6894  0.3248
  576MPD2    H3 8600   1.460   4.704  12.751  0.0959 -0.6382 -0.9897
  576MPD2     N 8601   1.300   0.397  12.701  0.3412  0.2306  0.1705
  576MPD2    H5 8602   1.332   0.492  12.689  2.8003 -0.5547  0.5466
  576MPD2    N1 8603   1.761   0.289  12.626 -0.8564  0.1021  0.0632
  576MPD2    H7 8604   1.761   0.383  12.587 -0.0467  0.1095  0.0843
  577TMC3    C1 8605   1.985   0.269  12.543 -0.4116 -0.7403 -0.1732
  577TMC3    C2 8606   2.114   0.222  12.573  0.2110 -0.7909  0.0633
  577TMC3    C3 8607   2.220   0.277  12.509  0.5742 -0.5299 -0.5674
  577TMC3    C4 8608   1.960   0.346  12.434  0.0602 -0.4439 -0.2353
  577TMC3    C5 8609   2.074   0.398  12.376 -0.5344  0.1235 -0.2179
  577TMC3    C6 8610   2.205   0.367  12.414  0.3728 -0.3965  0.4581
  577TMC3     C 8611   1.878   0.214  12.619  0.1780  0.3075 -0.4124
  577TMC3     O 8612   1.902   0.111  12.673 -0.5746  0.0841  0.0482
  577TMC3     H 8613   2.136   0.147  12.648 -0.1153  0.0279  0.9809
  577TMC3    H1 8614   1.861   0.360  12.390  0.0334 -0.7692 -0.2777
  577TMC3    H2 8615   2.287   0.427  12.376 -0.2459 -1.0061 -1.8660
  577TMC3    C7 8616   2.064   0.489  12.262 -0.5261  0.7984 -0.1791
  577TMC3    C8 8617   2.340   0.206  12.517  0.7552  0.0389 -0.8874
  577TMC3    O1 8618   2.165   0.525  12.203  0.3970  0.3143 -0.0265
  577TMC3    O2 8619   2.337   0.114  12.598 -0.2061  0.2215  0.1465
  578MPD2     C 8620   0.807   0.023   0.354 -0.4934 -0.0874 -0.3531
  578MPD2    C1 8621   0.862   0.045   0.479  0.3371 -0.1891  0.2801
  578MPD2    C2 8622   0.887   4.672   0.558 -0.1608 -0.4510  0.3309
  578MPD2    C3 8623   0.848   4.549   0.515  0.6215 -0.0123 -0.0831
  578MPD2    C4 8624   0.783   4.529   0.401  0.2693 -0.2504 -0.2247
  578MPD2    C5 8625   0.767   4.636   0.327  0.6929  0.0037 -0.6399
  578MPD2     H 8626   0.924   4.687   0.658  0.5410 -3.0966  0.4777
  578MPD2    H1 8627   0.752   4.434   0.357 -0.4017 -0.5381  0.8861
  578MPD2    H2 8628   0.782   0.102   0.284 -0.2341 -0.8223 -1.2719
  578MPD2    H3 8629   0.717   4.629   0.231 -0.1946  0.2809 -0.1875
  578MPD2     N 8630   0.864   4.440   0.609 -0.0061  0.6003 -0.5763
  578MPD2    H5 8631   0.905   4.450   0.701  0.2022 -2.9627 -0.2549
  578MPD2    N1 8632   0.897   0.178   0.514  0.1464  0.5965  0.3163
  578MPD2    H7 8633   0.876   0.241   0.437  1.4814  1.3753  0.5879
  579TMC3    C1 8634   0.836   4.216   0.693  0.0945  0.6371  0.0761
  579TMC3    C2 8635   0.947   4.223   0.777  0.3936 -0.1981  0.0143
  579TMC3    C3 8636   0.972   4.114   0.859  0.3306  0.2028  0.3909
  579TMC3    C4 8637   0.753   4.104   0.701  1.1394 -0.8720 -0.1664
  579TMC3    C5 8638   0.766   4.012   0.800  0.1862  0.6775 -0.6340
  579TMC3    C6 8639   0.885   4.012   0.867  0.0945  0.2063 -0.1234
  579TMC3     C 8640   0.790   4.328   0.602  0.5724 -0.0682 -0.0120
  579TMC3     O 8641   0.678   4.321   0.549 -0.4295 -0.4344  0.1992
  579TMC3     H 8642   1.008   4.312   0.777  0.6699 -0.3786  2.1040
  579TMC3    H1 8643   0.670   4.108   0.631  3.1032  1.3148 -2.3830
  579TMC3    H2 8644   0.891   3.940   0.948 -0.5851  0.5014  0.1953
  579TMC3    C7 8645   0.688   3.891   0.808 -0.4339 -0.1179  0.6528
  579TMC3    C8 8646   1.082   4.110   0.959  0.0869  0.8341 -0.0413
  579TMC3    O1 8647   0.731   3.794   0.869 -0.7600  0.2281 -0.2158
  579TMC3    O2 8648   1.101   4.005   1.020 -0.2279 -0.0806 -0.6573
  580TMC3    C1 8649   4.729   4.470  12.270  0.1646 -0.2832  0.3328
  580TMC3    C2 8650   0.109   4.531  12.297  0.1844  0.4071 -0.2841
  580TMC3    C3 8651   0.211   4.453  12.339  0.9762 -0.2737 -0.0998
  580TMC3    C4 8652   4.715   4.333  12.276  0.1449  0.6672  0.5198
  580TMC3    C5 8653   0.076   4.260  12.323 -0.3522  0.6650  0.6337
  580TMC3    C6 8654   0.196   4.319  12.356  0.5844  0.0384  0.6415
  580TMC3     C 8655   4.649   4.542  12.170 -0.2581 -0.2561  0.1103
  580TMC3     O 8656   4.710   4.629  12.107  0.0821  0.0403 -0.0025
  580TMC3     H 8657   0.119   4.638  12.290 -2.2442  0.7663  1.7058
  580TMC3    H1 8658   4.629   4.292  12.224  0.6230  0.1601  0.1314
  580TMC3    H2 8659   0.286   4.261  12.374  0.1069 -1.7398 -2.7033
  580TMC3    C7 8660   0.063   4.113  12.332 -0.4534 -0.1163 -0.4464
  580TMC3    C8 8661   0.339   4.498  12.294  0.5214 -0.9922  0.6473
  580TMC3    O1 8662   0.137   4.060  12.412  0.0600 -0.6983  0.2608
  580TMC3    O2 8663   0.443   4.480  12.356  0.7522  0.2834  0.3585
  581MPD2     C 8664   2.549   3.987  15.278  0.3313  0.3637 -0.0300
  581MPD2    C1 8665   2.501   3.889  15.194 -0.1532  0.0383 -0.2357
  581MPD2    C2 8666   2.430   3.940  15.090  0.1495 -0.0072  0.3126
  581MPD2    C3 8667   2.386   4.068  15.075  0.8779  0.3086 -0.0549
  581MPD2    C4 8668   2.450   4.163  15.155 -0.6505  0.9403  0.1258
  581MPD2    C5 8669   2.536   4.119  15.253  0.9745 -0.3431 -0.3235
  581MPD2     H 8670   2.395   3.869  15.017  0.7659  0.8375 -0.8061
  581MPD2    H1 8671   2.410   4.264  15.153 -1.2133  0.7689  3.1132
  581MPD2    H2 8672   2.609   3.955  15.362  1.2056  0.1313 -0.7569
  581MPD2    H3 8673   2.573   4.192  15.324  2.4353 -1.1035 -0.3071
  581MPD2     N 8674   2.297   4.105  14.974  0.2931 -0.4236  0.0852
  581MPD2    H5 8675   2.249   4.030  14.925  1.7316 -1.4658  0.2691
  581MPD2    N1 8676   2.527   3.754  15.223  0.4703 -1.1876  0.2444
  581MPD2    H7 8677   2.607   3.725  15.278  0.9455 -3.5249 -1.6356
  582TMC3    C1 8678   2.452   3.521  15.245  0.1073 -1.1338  0.3138
  582TMC3    C2 8679   2.480   3.534  15.376  0.0659 -0.3958 -0.4268
  582TMC3    C3 8680   2.405   3.453  15.466 -0.0748  0.0215 -0.4115
  582TMC3    C4 8681   2.343   3.460  15.203 -0.4273 -0.0623 -0.2679
  582TMC3    C5 8682   2.257   3.396  15.291 -0.0719  0.5802 -0.1718
  582TMC3    C6 8683   2.294   3.388  15.425  0.0862  0.9214  0.3320
  582TMC3     C 8684   2.448   3.651  15.176 -0.2300  0.2231 -0.0324
  582TMC3     O 8685   2.347   3.662  15.109 -0.0126  0.2890  0.2528
  582TMC3     H 8686   2.566   3.588  15.414 -0.4869  1.5412 -1.9086
  582TMC3    H1 8687   2.334   3.430  15.099  1.0198 -0.1142 -0.3809
  582TMC3    H2 8688   2.224   3.347  15.497  0.0922  0.1889 -0.0882
  582TMC3    C7 8689   2.124   3.433  15.276  0.6156 -0.1065 -0.1187
  582TMC3    C8 8690   2.433   3.467  15.607 -0.1858 -0.1495  0.4481
  582TMC3    O1 8691   2.048   3.378  15.357 -0.5142 -0.0182 -0.0788
  582TMC3    O2 8692   2.510   3.555  15.644  0.4483  0.7650 -1.1335
  583MPD2     C 8693   2.676   0.788  16.794  0.0095 -0.5337 -0.4267
  583MPD2    C1 8694   2.703   0.917  16.758  1.0340  0.4110  0.1254
  583MPD2    C2 8695   2.672   1.010  16.851  0.5465 -0.1040 -0.4224
  583MPD2    C3 8696   2.618   0.981  16.969 -0.2592 -0.3644 -0.2611
  583MPD2    C4 8697   2.592   0.854  17.001  0.1429  0.6113  0.4694
  583MPD2    C5 8698   2.622   0.758  16.915 -1.4416 -0.3711  0.5646
  583MPD2     H 8699   2.698   1.113  16.825  0.0746  0.1280  0.0364
  583MPD2    H1 8700   2.563   0.828  17.103 -3.0290 -0.1678 -0.6280
  583MPD2    H2 8701   2.706   0.701  16.736  1.2735  0.9458 -2.0107
  583MPD2    H3 8702   2.611   0.657  16.952 -1.4655 -0.8478 -0.7370
  583MPD2     N 8703   2.607   1.091  17.062  0.5178 -0.3654  0.5356
  583MPD2    H5 8704   2.661   1.174  17.043 -1.3350  1.1887  2.1546
  583MPD2    N1 8705   2.762   0.948  16.635  0.1784 -0.4931  0.1462
  583MPD2    H7 8706   2.780   1.047  16.620  0.5659 -0.6866 -0.6788
  584TMC3    C1 8707   2.584   1.187  17.288  0.1202 -0.7399  0.4933
  584TMC3    C2 8708   2.637   1.299  17.250 -0.7560 -0.2351  0.1419
  584TMC3    C3 8709   2.665   1.388  17.354 -0.1200  0.1245  0.0214
  584TMC3    C4 8710   2.551   1.166  17.421 -0.5233  0.0288 -0.1844
  584TMC3    C5 8711   2.569   1.262  17.514 -0.2478  0.5389  0.3571
  584TMC3    C6 8712   2.636   1.376  17.486  0.2275  0.8589 -0.3106
  584TMC3     C 8713   2.545   1.084  17.190  0.0038 -0.5254  0.3390
  584TMC3     O 8714   2.484   0.989  17.240 -0.2225  0.1993  0.0130
  584TMC3     H 8715   2.679   1.318  17.152  0.1798 -1.5249  0.2968
  584TMC3    H1 8716   2.511   1.073  17.460 -1.3819  0.8654  0.9439
  584TMC3    H2 8717   2.656   1.455  17.557 -1.7313  0.6500  0.4799
  584TMC3    C7 8718   2.545   1.228  17.657  0.0466  0.3626 -0.0611
  584TMC3    C8 8719   2.691   1.519  17.300 -0.1590  0.2399  0.3892
  584TMC3    O1 8720   2.535   1.107  17.676 -0.5564  0.1299  0.9683
  584TMC3    O2 8721   2.651   1.543  17.189 -0.0107  0.1439  0.1477
  585MPD2     C 8722   1.621   0.117   0.432 -0.9632 -0.0119  0.2118
  585MPD2    C1 8723   1.639   0.121   0.293 -1.1730  0.1702 -0.1135
  585MPD2    C2 8724   1.672   0.013   0.218 -0.0991  0.1614  0.5983
  585MPD2    C3 8725   1.689   4.628   0.282 -0.5012  0.9273 -0.6516
  585MPD2    C4 8726   1.664   4.618   0.417  0.3619  0.3702 -0.5205
  585MPD2    C5 8727   1.620   4.728   0.492  0.0110 -0.5678 -0.0327
  585MPD2     H 8728   1.700   0.028   0.115 -1.2821  0.1452  0.2861
  585MPD2    H1 8729   1.672   4.523   0.468  2.6530  0.0477 -1.4561
  585MPD2    H2 8730   1.591   0.203   0.492 -1.0729  1.6358 -2.2082
  585MPD2    H3 8731   1.597   4.712   0.597 -0.0228  1.3401  0.2596
  585MPD2     N 8732   1.721   4.505   0.216 -0.3423  0.0050  0.2746
  585MPD2    H5 8733   1.725   4.422   0.275  0.8831 -1.4101 -1.8165
  585MPD2    N1 8734   1.611   0.240   0.225 -0.2958  0.5168  0.0241
  585MPD2    H7 8735   1.647   0.239   0.130 -2.3859  1.1779 -0.7661
  586TMC3    C1 8736   1.758   4.346   0.056 -0.3258  0.1135  0.0376
  586TMC3    C2 8737   1.828   4.314  17.694  0.5196  0.1115  0.0911
  586TMC3    C3 8738   1.887   4.193  17.682 -0.0825 -0.1870  0.6183
  586TMC3    C4 8739   1.725   4.249   0.150  0.3031 -0.1980  0.2431
  586TMC3    C5 8740   1.783   4.125   0.131  0.0786 -0.0438  0.1648
  586TMC3    C6 8741   1.860   4.098   0.027  0.0918 -0.7634 -0.6353
  586TMC3     C 8742   1.741   4.487   0.080  0.2540  0.3240  1.0526
  586TMC3     O 8743   1.765   4.569  17.741  0.0785 -0.3838 -0.1298
  586TMC3     H 8744   1.845   4.393  17.621 -0.4790 -0.7448 -1.0758
  586TMC3    H1 8745   1.656   4.270   0.231 -0.4525 -1.9409  0.0385
  586TMC3    H2 8746   1.885   3.996   0.002  1.9975  0.0369 -2.0241
  586TMC3    C7 8747   1.717   4.010   0.187  0.6047 -0.5314  0.6136
  586TMC3    C8 8748   1.946   4.160  17.554  0.1296  0.2546  0.2094
  586TMC3    O1 8749   1.764   3.899   0.158  0.9163  0.5885 -0.1540
  586TMC3    O2 8750   1.958   4.040  17.533 -0.5482  0.2412 -0.0379
  587TMC3    C1 8751   3.595   3.216  15.911  0.1208  0.1636  0.3481
  587TMC3    C2 8752   3.638   3.205  16.040  0.5870  0.3398  0.9334
  587TMC3    C3 8753   3.766   3.151  16.057  0.3170 -0.9388 -0.0553
  587TMC3    C4 8754   3.682   3.212  15.809  0.0750 -0.4326  0.1107
  587TMC3    C5 8755   3.806   3.155  15.830  0.6369 -0.1022  0.3212
  587TMC3    C6 8756   3.850   3.128  15.958 -0.2340  0.3392  0.6877
  587TMC3     C 8757   3.459   3.261  15.893  0.1868 -0.4221  0.0225
  587TMC3     O 8758   3.407   3.222  15.787 -0.0294  0.1382 -0.1959
  587TMC3     H 8759   3.567   3.208  16.122  0.8291  0.9929  1.1290
  587TMC3    H1 8760   3.644   3.226  15.708  0.1073  1.3200  0.3382
  587TMC3    H2 8761   3.951   3.090  15.971 -0.3068 -0.8089 -2.0913
  587TMC3    C7 8762   3.889   3.122  15.722 -0.7960 -0.2024  0.3705
  587TMC3    C8 8763   3.821   3.143  16.192 -0.5490  0.4909 -0.1004
  587TMC3    O1 8764   3.981   3.042  15.746  0.1818 -0.1902  0.1062
  587TMC3    O2 8765   3.918   3.071  16.204 -0.0958  0.0279 -0.1564
  588TMC3    C1 8766   0.931   1.583  10.086  0.5577  0.5325  0.0557
  588TMC3    C2 8767   0.846   1.473  10.059  0.4213  0.1794  0.0855
  588TMC3    C3 8768   0.893   1.351  10.079  0.6436  0.2913  0.1393
  588TMC3    C4 8769   1.058   1.558  10.121 -0.6719  0.7599  0.7541
  588TMC3    C5 8770   1.098   1.430  10.138  0.1570 -0.2232  0.0314
  588TMC3    C6 8771   1.023   1.325  10.109  0.3109  0.3457 -0.1085
  588TMC3     C 8772   0.877   1.714  10.072  0.4027  0.0454  0.3483
  588TMC3     O 8773   0.791   1.742   9.989  0.0549 -0.2594 -0.0958
  588TMC3     H 8774   0.741   1.489  10.041 -0.0908 -1.1559  1.9490
  588TMC3    H1 8775   1.132   1.637  10.119 -0.8187  0.8346 -2.0488
  588TMC3    H2 8776   1.073   1.230  10.089  0.0301 -0.3055  2.2816
  588TMC3    C7 8777   1.223   1.410  10.200  0.9565 -0.3920  1.1133
  588TMC3    C8 8778   0.796   1.243  10.055  0.7019 -0.8012 -0.1804
  588TMC3    O1 8779   1.286   1.304  10.184  0.0716  0.0647  0.0428
  588TMC3    O2 8780   0.694   1.272   9.996 -0.2337  1.0964  0.0265
  589TMC3    C1 8781   0.692   2.862   1.121  0.0520 -0.6904 -0.5435
  589TMC3    C2 8782   0.797   2.955   1.146 -0.0701 -0.2477 -0.4818
  589TMC3    C3 8783   0.927   2.924   1.147 -0.3537  0.2458  0.0227
  589TMC3    C4 8784   0.727   2.739   1.076 -0.2216 -0.1457  0.6450
  589TMC3    C5 8785   0.860   2.714   1.071  0.2322  0.1628 -0.3233
  589TMC3    C6 8786   0.961   2.798   1.108 -0.5058  0.1017  0.7757
  589TMC3     C 8787   0.566   2.917   1.071 -0.1682 -0.0505 -0.3336
  589TMC3     O 8788   0.513   2.847   0.984 -0.2082  0.7514  0.1946
  589TMC3     H 8789   0.783   3.059   1.174  0.3474 -0.5119  0.7455
  589TMC3    H1 8790   0.651   2.666   1.048 -2.2037  1.5900  1.5328
  589TMC3    H2 8791   1.061   2.760   1.125 -0.2824  0.1734 -0.3569
  589TMC3    C7 8792   0.902   2.597   0.992 -0.2178 -0.4532 -0.1336
  589TMC3    C8 8793   1.025   3.006   1.213 -0.4835  0.0609  0.0692
  589TMC3    O1 8794   0.810   2.526   0.950  0.2182  0.3840 -0.3960
  589TMC3    O2 8795   0.984   3.094   1.288  0.1045 -0.0111  0.0338
  590MPD2     C 8796   0.140   1.337  15.770 -0.3846  0.7463 -0.3295
  590MPD2    C1 8797   0.139   1.445  15.854 -0.0336 -0.3855 -0.2605
  590MPD2    C2 8798   0.253   1.529  15.868 -0.0669 -0.6611  0.0283
  590MPD2    C3 8799   0.365   1.497  15.798  0.1739 -0.2206 -0.2897
  590MPD2    C4 8800   0.358   1.391  15.715 -0.1398 -0.2616 -0.6593
  590MPD2    C5 8801   0.255   1.308  15.700  0.4910 -0.3610  0.6558
  590MPD2     H 8802   0.239   1.617  15.930 -0.2930 -0.8727  0.2830
  590MPD2    H1 8803   0.441   1.364  15.650  1.4821 -0.7902  1.6506
  590MPD2    H2 8804   0.055   1.272  15.756  0.7889 -1.2632  1.7637
  590MPD2    H3 8805   0.261   1.228  15.627 -1.0243 -1.3568  1.6150
  590MPD2     N 8806   0.480   1.571  15.818 -0.1174 -0.3858  0.5753
  590MPD2    H5 8807   0.474   1.636  15.895  2.0382  1.9107 -1.1721
  590MPD2    N1 8808   0.021   1.474  15.920 -0.0470  0.1373  0.8670
  590MPD2    H7 8809   4.676   1.427  15.882 -0.4676  0.1714  1.7325
  591TMC3    C1 8810   0.697   1.650  15.817  0.1263  0.4436  0.3299
  591TMC3    C2 8811   0.837   1.629  15.793  0.4733 -0.6277 -0.2844
  591TMC3    C3 8812   0.913   1.736  15.784 -0.7917  0.0889  0.3245
  591TMC3    C4 8813   0.646   1.771  15.828 -0.8592 -0.3841 -0.3850
  591TMC3    C5 8814   0.733   1.872  15.800  0.7439  0.3654 -0.4852
  591TMC3    C6 8815   0.865   1.860  15.780 -0.1681 -0.4744  0.2208
  591TMC3     C 8816   0.605   1.544  15.773  0.2852 -0.2836 -0.1168
  591TMC3     O 8817   0.646   1.459  15.694  0.0692  0.1096 -0.0501
  591TMC3     H 8818   0.878   1.530  15.807 -1.0257 -1.3142 -0.7159
  591TMC3    H1 8819   0.540   1.788  15.814 -1.0036  0.2327  1.4922
  591TMC3    H2 8820   0.932   1.945  15.774 -0.2099 -0.4166  0.5663
  591TMC3    C7 8821   0.705   2.012  15.821  0.0480  0.2200  0.2106
  591TMC3    C8 8822   1.044   1.711  15.742  0.0873 -0.1109 -0.4286
  591TMC3    O1 8823   0.760   2.102  15.759  0.0463  0.0309  0.2940
  591TMC3    O2 8824   1.098   1.607  15.771  0.4739  0.5212  0.3756
  592MPD2     C 8825   0.718   4.422  11.096  0.2885 -0.4405  0.0563
  592MPD2    C1 8826   0.714   4.395  11.232 -0.9867  0.0163  0.4052
  592MPD2    C2 8827   0.617   4.313  11.282 -0.6922  0.4767 -0.2785
  592MPD2    C3 8828   0.521   4.254  11.205 -0.4974 -0.3587 -0.1000
  592MPD2    C4 8829   0.541   4.268  11.069  0.2020 -0.1775  0.1337
  592MPD2    C5 8830   0.640   4.349  11.011  0.0594  0.5646 -0.0990
  592MPD2     H 8831   0.615   4.284  11.386 -0.5345  1.0300 -0.1210
  592MPD2    H1 8832   0.478   4.209  11.004 -0.6783  1.3233 -0.3977
  592MPD2    H2 8833   0.782   4.495  11.048 -3.0036  2.7244  0.4568
  592MPD2    H3 8834   0.649   4.357  10.903  1.1743  3.7359  0.2141
  592MPD2     N 8835   0.416   4.179  11.272  0.0007  0.4302  0.8357
  592MPD2    H5 8836   0.408   4.181  11.373 -1.5719 -2.1041  0.7696
  592MPD2    N1 8837   0.813   4.462  11.311  0.0134 -0.2223 -0.1192
  592MPD2    H7 8838   0.879   4.523  11.264 -0.7417  0.7983  0.1344
  593TMC3    C1 8839   0.958   4.521  11.469  0.4800 -0.5096  0.3901
  593TMC3    C2 8840   0.966   4.568  11.597  0.3474  0.2443  0.3847
  593TMC3    C3 8841   1.092   4.615  11.638  0.7090 -0.0683 -0.2681
  593TMC3    C4 8842   1.074   4.500  11.392  0.4375 -0.0029 -0.4650
  593TMC3    C5 8843   1.198   4.544  11.444 -0.4886  0.2770  0.0974
  593TMC3    C6 8844   1.205   4.590  11.570 -0.5387  0.4663 -0.4914
  593TMC3     C 8845   0.841   4.443  11.442 -0.1780 -0.0944 -1.1386
  593TMC3     O 8846   0.801   4.379  11.538  0.4503  0.1522  0.0818
  593TMC3     H 8847   0.875   4.579  11.655  0.0122 -0.0093 -0.0849
  593TMC3    H1 8848   1.070   4.453  11.295  2.0230 -1.3281  0.1165
  593TMC3    H2 8849   1.303   4.598  11.616 -0.2271 -0.0870 -1.0525
  593TMC3    C7 8850   1.308   4.559  11.351 -0.2806 -0.0262  0.0178
  593TMC3    C8 8851   1.080   4.694  11.759 -0.0715 -0.0112 -0.3965
  593TMC3    O1 8852   1.282   4.538  11.236  0.2494 -0.5073  0.2518
  593TMC3    O2 8853   0.981   0.021  11.790 -0.0320  0.3983 -0.4053
  594MPD2     C 8854   4.506   2.642  14.934 -0.7317 -0.2546  0.1876
  594MPD2    C1 8855   4.421   2.671  14.823  0.0942 -0.1475  0.1127
  594MPD2    C2 8856   4.461   2.748  14.714 -0.6943 -0.0362 -0.2328
  594MPD2    C3 8857   4.585   2.816  14.728  0.2872  0.7860  0.6789
  594MPD2    C4 8858   4.665   2.791  14.844  0.6736 -0.1211 -0.0383
  594MPD2    C5 8859   4.626   2.713  14.944 -1.1051  0.2363 -0.1830
  594MPD2     H 8860   4.402   2.763  14.624  0.3148  0.0991 -0.8799
  594MPD2    H1 8861   0.022   2.845  14.853 -0.7019  1.8393  2.5639
  594MPD2    H2 8862   4.484   2.571  15.012 -1.2490  0.8675  1.0724
  594MPD2    H3 8863   4.685   2.700  15.034 -0.9295 -0.6189 -0.4185
  594MPD2     N 8864   4.641   2.884  14.618 -0.2471  0.3858  0.3520
  594MPD2    H5 8865   4.576   2.899  14.541  0.6627  0.0717 -0.4733
  594MPD2    N1 8866   4.298   2.601  14.821 -0.2280  0.1488 -0.1432
  594MPD2    H7 8867   4.273   2.541  14.899 -1.6471 -1.1931 -1.6076
  595TMC3    C1 8868   0.248   3.157  14.424  0.3684 -0.1234  0.3695
  595TMC3    C2 8869   0.208   3.042  14.484 -0.0551  0.1187  0.5060
  595TMC3    C3 8870   0.075   3.014  14.489  0.2016 -0.0326 -0.0123
  595TMC3    C4 8871   0.165   3.259  14.400 -0.4239  0.1508 -0.3889
  595TMC3    C5 8872   0.027   3.230  14.408 -0.2715  0.3504  0.0796
  595TMC3    C6 8873   4.719   3.098  14.451 -0.3354 -0.1765 -0.2786
  595TMC3     C 8874   0.376   3.199  14.477  0.2776  0.3318  0.7381
  595TMC3     O 8875   0.423   3.132  14.570  0.3492 -0.4154  0.9407
  595TMC3     H 8876   0.273   2.958  14.505 -0.5107 -0.1499  0.8394
  595TMC3    H1 8877   0.197   3.350  14.350  2.2890 -0.3182  0.4801
  595TMC3    H2 8878   4.616   3.067  14.466 -0.2919  0.2726  0.9524
  595TMC3    C7 8879   4.667   3.340  14.430  0.3176  0.4670  0.0790
  595TMC3    C8 8880   0.035   2.933  14.605 -0.3047 -0.4285  0.5455
  595TMC3    O1 8881   4.552   3.293  14.449  0.3681 -0.5282 -0.4563
  595TMC3    O2 8882   0.124   2.911  14.680  0.4186  0.3224  0.2618
  596MPD2     C 8883   3.455   0.566  16.753  1.1564  0.2521  0.1349
  596MPD2    C1 8884   3.434   0.684  16.691  0.2007  0.0277 -0.4756
  596MPD2    C2 8885   3.435   0.691  16.558 -0.1858  0.3993 -0.1153
  596MPD2    C3 8886   3.451   0.576  16.482  0.0681 -0.5222 -0.2372
  596MPD2    C4 8887   3.478   0.457  16.548  1.1035  0.3117 -0.0668
  596MPD2    C5 8888   3.476   0.452  16.682  0.3359 -0.3312  0.2884
  596MPD2     H 8889   3.435   0.790  16.514  1.7249 -0.3084 -1.7069
  596MPD2    H1 8890   3.483   0.367  16.487  1.6857 -1.1215  2.1093
  596MPD2    H2 8891   3.464   0.555  16.861 -0.2731 -0.2065  0.1972
  596MPD2    H3 8892   3.494   0.362  16.740  0.7831 -0.8861 -0.7046
  596MPD2     N 8893   3.446   0.574  16.338  0.1976  0.2276  0.0002
  596MPD2    H5 8894   3.465   0.488  16.288  1.5190  1.1386 -1.0418
  596MPD2    N1 8895   3.423   0.808  16.753  0.2330 -0.1688  0.3669
  596MPD2    H7 8896   3.436   0.886  16.689  1.4734 -0.5540  0.1378
  597TMC3    C1 8897   3.423   0.967  16.926 -0.5832 -0.3570  0.3020
  597TMC3    C2 8898   3.490   1.056  16.847 -0.2895 -0.1452  0.5326
  597TMC3    C3 8899   3.443   1.182  16.861 -0.3178  1.2676  0.3611
  597TMC3    C4 8900   3.340   0.995  17.030 -0.5856 -0.0429 -0.5283
  597TMC3    C5 8901   3.312   1.124  17.038  0.1028  0.7254  0.0326
  597TMC3    C6 8902   3.355   1.218  16.953 -0.0662 -0.0582 -0.1410
  597TMC3     C 8903   3.418   0.824  16.891 -0.5144 -0.0384  0.0517
  597TMC3     O 8904   3.383   0.741  16.975  0.7127 -0.2475 -0.5692
  597TMC3     H 8905   3.567   1.026  16.777 -0.4231  1.7774 -0.4282
  597TMC3    H1 8906   3.297   0.920  17.095 -0.8394  2.3965  2.1545
  597TMC3    H2 8907   3.320   1.321  16.958  2.7835  0.8869  0.3164
  597TMC3    C7 8908   3.224   1.167  17.145 -0.0590  0.0604 -0.3421
  597TMC3    C8 8909   3.523   1.280  16.808 -0.5659 -0.1495  0.4840
  597TMC3    O1 8910   3.169   1.081  17.217 -0.6521 -0.3128  0.0238
  597TMC3    O2 8911   3.513   1.391  16.856  0.1494 -0.6689 -0.0628
  598TMC3    C1 8912   1.039   2.333  15.639  0.2822  0.3510 -0.1978
  598TMC3    C2 8913   0.911   2.294  15.614 -0.4014 -0.8960 -0.0449
  598TMC3    C3 8914   0.878   2.239  15.495  0.4282 -0.2707  0.4287
  598TMC3    C4 8915   1.139   2.318  15.546  0.4945  0.1185  0.0922
  598TMC3    C5 8916   1.103   2.250  15.435 -0.2864 -0.5535  0.0317
  598TMC3    C6 8917   0.974   2.219  15.403 -0.2817 -0.6267  0.5612
  598TMC3     C 8918   1.077   2.327  15.787  0.2545 -0.1014 -0.2449
  598TMC3     O 8919   1.193   2.363  15.817 -0.0387 -0.0529  0.3486
  598TMC3     H 8920   0.833   2.332  15.680  0.3710  0.8312 -0.1241
  598TMC3    H1 8921   1.241   2.329  15.581  0.4333  0.1595  0.2620
  598TMC3    H2 8922   0.948   2.163  15.314  0.1656 -0.7498  0.5094
  598TMC3    C7 8923   1.182   2.285  15.317 -0.0633  0.4886  0.3748
  598TMC3    C8 8924   0.742   2.276  15.446  1.3381  0.3308  0.8370
  598TMC3    O1 8925   1.184   2.199  15.228  0.2894  0.3263  0.1487
  598TMC3    O2 8926   0.726   2.301  15.324  0.1492  0.8356 -0.1938
  599MPD2     C 8927   1.271   4.027  15.795  0.0769 -0.4584  0.7867
  599MPD2    C1 8928   1.364   4.042  15.894 -0.5684  0.4055 -0.0441
  599MPD2    C2 8929   1.341   4.127  15.999 -0.3350 -0.1972  0.8459
  599MPD2    C3 8930   1.238   4.208  16.007 -0.8836  0.3970  0.1146
  599MPD2    C4 8931   1.159   4.204  15.892  0.0321  0.2503 -0.1245
  599MPD2    C5 8932   1.178   4.123  15.783  0.2006  0.3793  0.0455
  599MPD2     H 8933   1.422   4.134  16.071 -0.8164 -0.9417  1.4548
  599MPD2    H1 8934   1.072   4.268  15.889  0.4288  0.7019 -1.8995
  599MPD2    H2 8935   1.284   3.953  15.717 -0.7793  0.5736 -0.3275
  599MPD2    H3 8936   1.122   4.128  15.691  0.3714  3.0039  0.0853
  599MPD2     N 8937   1.209   4.289  16.117 -0.2953  0.1235  0.1755
  599MPD2    H5 8938   1.136   4.357  16.097 -0.8276 -0.4557  0.1767
  599MPD2    N1 8939   1.486   3.973  15.870 -0.5257  0.4718  0.3114
  599MPD2    H7 8940   1.479   3.894  15.806  3.8639  1.0224 -0.8067
  600TMC3    C1 8941   1.185   4.336  16.347  0.0116 -0.2664  0.5024
  600TMC3    C2 8942   1.138   4.261  16.459 -0.5180 -0.3105  0.1109
  600TMC3    C3 8943   1.059   4.334  16.541  0.3375 -0.3790 -0.7600
  600TMC3    C4 8944   1.151   4.468  16.326 -0.2845  0.1222  0.0629
  600TMC3    C5 8945   1.072   4.530  16.417 -0.5697  0.0412 -0.0717
  600TMC3    C6 8946   1.020   4.465  16.521 -0.1862 -0.2859  0.7689
  600TMC3     C 8947   1.235   4.245  16.248  0.4533  0.0724  0.2519
  600TMC3     O 8948   1.269   4.134  16.287 -0.0433 -0.5047 -0.0209
  600TMC3     H 8949   1.143   4.153  16.467 -0.9965 -0.4455 -1.3227
  600TMC3    H1 8950   1.199   4.513  16.240 -0.0282 -0.0487  0.1162
  600TMC3    H2 8951   0.967   4.518  16.599 -0.5893  1.2778 -0.5750
  600TMC3    C7 8952   1.100   4.670  16.430  0.2262 -0.2642 -0.3237
  600TMC3    C8 8953   0.967   4.246  16.622  0.2782 -0.3875 -0.1560
  600TMC3    O1 8954   1.024   0.006  16.492  0.2986 -0.0409  0.2325
  600TMC3    O2 8955   1.019   4.161  16.691 -0.5614  0.2940  0.4015
  601MPD2     C 8956   3.670   2.397   0.271 -1.2909 -0.0449  0.1595
  601MPD2    C1 8957   3.541   2.432   0.220  0.8216  0.0092 -0.6986
  601MPD2    C2 8958   3.429   2.367   0.269 -0.4115 -0.4075  0.1839
  601MPD2    C3 8959   3.435   2.291   0.387  0.0025 -0.0010 -0.6181
  601MPD2    C4 8960   3.553   2.271   0.445 -0.1686 -0.1715 -0.2482
  601MPD2    C5 8961   3.666   2.313   0.380 -0.3994  0.1071  0.2789
  601MPD2     H 8962   3.334   2.378   0.218  0.2830  3.1235 -0.2884
  601MPD2    H1 8963   3.562   2.207   0.532 -0.7686  2.0417  1.4363
  601MPD2    H2 8964   3.766   2.428   0.230 -0.8601 -0.0211  1.1977
  601MPD2    H3 8965   3.761   2.284   0.424 -0.8433 -2.9134 -0.7767
  601MPD2     N 8966   3.324   2.231   0.447 -0.7911  0.1766 -0.2735
  601MPD2    H5 8967   3.346   2.177   0.530 -0.4072 -0.9750 -1.1303
  601MPD2    N1 8968   3.531   2.518   0.106  0.5697 -0.0342 -0.1639
  601MPD2    H7 8969   3.440   2.544   0.069  0.7478  0.2419 -0.4043
  602TMC3    C1 8970   3.577   2.665  17.683  0.5241 -0.2511 -0.2845
  602TMC3    C2 8971   3.631   2.789  17.654 -0.6419  0.4038  0.4270
  602TMC3    C3 8972   3.560   2.868  17.567 -0.2141 -0.4198 -0.4573
  602TMC3    C4 8973   3.471   2.616  17.615  0.3188 -0.6874 -0.5933
  602TMC3    C5 8974   3.403   2.700  17.533  0.2681 -0.1914 -0.7801
  602TMC3    C6 8975   3.445   2.828  17.501  0.1309  0.4334  0.2446
  602TMC3     C 8976   3.626   2.596   0.048 -0.6251 -0.1283  0.8064
  602TMC3     O 8977   3.741   2.622   0.085  0.1417  0.3026  0.2037
  602TMC3     H 8978   3.713   2.828  17.713 -1.2850 -1.8135  2.7601
  602TMC3    H1 8979   3.422   2.522  17.639 -1.0393  0.0645 -0.4498
  602TMC3    H2 8980   3.395   2.876  17.418 -0.1314  1.4518  0.9999
  602TMC3    C7 8981   3.280   2.666  17.486 -0.1142  0.5253 -0.0852
  602TMC3    C8 8982   3.573   3.014  17.573  0.3537  0.2178  0.7105
  602TMC3    O1 8983   3.254   2.554  17.447  0.2884  0.6035  0.1829
  602TMC3    O2 8984   3.683   3.060  17.609 -0.4780  0.1484  0.4789
  603TMC3    C1 8985   1.526   3.070  11.001  0.1598  1.1471  0.4176
  603TMC3    C2 8986   1.642   3.076  11.069 -0.5946 -0.3405 -0.5749
  603TMC3    C3 8987   1.701   3.201  11.085  0.3416 -0.7375 -0.2299
  603TMC3    C4 8988   1.480   3.172  10.930  0.2232 -0.5293  0.1702
  603TMC3    C5 8989   1.539   3.292  10.936 -0.0246  0.2727 -0.0972
  603TMC3    C6 8990   1.656   3.312  11.015  0.0925 -0.4225  0.4525
  603TMC3     C 8991   1.437   2.956  11.029 -0.6068 -0.7866  0.2566
  603TMC3     O 8992   1.325   2.957  10.973 -0.1164  0.4004  0.2453
  603TMC3     H 8993   1.682   3.001  11.136 -2.9744 -0.5457  0.6392
  603TMC3    H1 8994   1.383   3.159  10.883  0.6043  0.0999 -0.7812
  603TMC3    H2 8995   1.723   3.394  10.993 -0.1257  0.1545  1.9349
  603TMC3    C7 8996   1.499   3.407  10.853  0.2243 -0.0648  0.1286
  603TMC3    C8 8997   1.771   3.228  11.210 -0.6720 -1.3261 -0.9461
  603TMC3    O1 8998   1.538   3.519  10.886  0.0424 -0.7706 -0.5015
  603TMC3    O2 8999   1.759   3.139  11.291 -0.2395  0.4471  0.1437
  604MPD2     C 9000   2.677   1.667  16.347 -0.6337 -0.6603  0.2219
  604MPD2    C1 9001   2.667   1.801  16.326  0.0411 -0.4081  0.4796
  604MPD2    C2 9002   2.705   1.845  16.202  0.5223 -0.3488  0.1142
  604MPD2    C3 9003   2.757   1.763  16.099  0.0150 -0.4963  0.1595
  604MPD2    C4 9004   2.767   1.630  16.129 -0.3794  0.1045  0.0109
  604MPD2    C5 9005   2.732   1.583  16.253  0.2030  0.4005 -0.0090
  604MPD2     H 9006   2.711   1.952  16.183  0.7625 -0.6678 -1.5906
  604MPD2    H1 9007   2.802   1.559  16.056 -2.8571 -0.6160 -0.4770
  604MPD2    H2 9008   2.652   1.641  16.449 -2.4139  0.5424  0.1042
  604MPD2    H3 9009   2.746   1.478  16.272  0.0260  0.0544 -1.8030
  604MPD2     N 9010   2.786   1.817  15.977  0.2018  0.5265  0.0485
  604MPD2    H5 9011   2.756   1.914  15.970 -2.8324 -0.3513  1.1214
  604MPD2    N1 9012   2.599   1.880  16.425 -0.4854 -0.0348 -0.5159
  604MPD2    H7 9013   2.577   1.846  16.518 -2.3487  1.1998 -0.5115
  605TMC3    C1 9014   2.546   2.073  16.546  0.5460 -0.2020 -0.0432
  605TMC3    C2 9015   2.610   2.192  16.585  0.5114  0.6465 -0.1628
  605TMC3    C3 9016   2.565   2.257  16.696 -0.3668  0.0544 -0.1216
  605TMC3    C4 9017   2.450   2.011  16.615  0.4901 -0.0305 -0.4262
  605TMC3    C5 9018   2.413   2.075  16.729  0.4806  0.4604  0.3507
  605TMC3    C6 9019   2.468   2.201  16.778  0.5232 -0.3407 -0.3724
  605TMC3     C 9020   2.593   2.013  16.421 -0.0057  0.1337  0.3708
  605TMC3     O 9021   2.599   2.086  16.322 -0.0235  0.1565  0.9004
  605TMC3     H 9022   2.689   2.230  16.521 -1.1593  0.9092 -2.0385
  605TMC3    H1 9023   2.409   1.923  16.568  0.3126 -0.0140 -0.3017
  605TMC3    H2 9024   2.430   2.243  16.870 -1.2652  1.1837 -1.8068
  605TMC3    C7 9025   2.279   2.055  16.781  0.7243  0.1291 -0.1909
  605TMC3    C8 9026   2.617   2.387  16.723  0.0614  0.1214  0.2735
  605TMC3    O1 9027   2.222   2.148  16.838  0.2045 -0.2479  0.0159
  605TMC3    O2 9028   2.715   2.425  16.662 -0.2668 -0.0694  0.1508
  606TMC3    C1 9029   3.827   0.677  17.246 -0.2307  0.0750  0.4028
  606TMC3    C2 9030   3.966   0.677  17.261 -0.2317 -0.1780 -0.3376
  606TMC3    C3 9031   4.013   0.658  17.392  0.0564 -0.0670 -0.4783
  606TMC3    C4 9032   3.746   0.622  17.337 -0.0139  0.3043  0.7181
  606TMC3    C5 9033   3.793   0.600  17.467 -0.7383  0.1573  0.6507
  606TMC3    C6 9034   3.921   0.634  17.495 -0.2865  0.4756 -0.1427
  606TMC3     C 9035   3.766   0.698  17.121  0.4403 -0.5719  0.0976
  606TMC3     O 9036   3.682   0.620  17.081 -0.0111 -0.2128  0.2368
  606TMC3     H 9037   4.030   0.710  17.180  0.2847 -0.5507 -0.0857
  606TMC3    H1 9038   3.642   0.622  17.309 -0.3632  0.2339  2.0494
  606TMC3    H2 9039   3.948   0.640  17.599  1.0258 -0.1927 -0.4309
  606TMC3    C7 9040   3.759   0.471  17.526 -0.6024 -0.5762  0.0865
  606TMC3    C8 9041   4.135   0.587  17.416  0.5596 -0.5301 -0.5837
  606TMC3    O1 9042   3.833   0.438  17.618  0.3058  0.3587  0.2963
  606TMC3    O2 9043   4.238   0.614  17.358 -0.3814 -0.4644  0.2752
  607MPD2     C 9044   0.615   3.920  11.478 -0.0965 -0.3589  0.3678
  607MPD2    C1 9045   0.724   3.978  11.538 -0.2063 -0.5912  0.5732
  607MPD2    C2 9046   0.741   3.958  11.672 -1.0361 -0.8686 -0.0903
  607MPD2    C3 9047   0.662   3.881  11.749 -0.8460 -0.1983 -1.3639
  607MPD2    C4 9048   0.550   3.821  11.689 -0.3180  0.1658  0.0521
  607MPD2    C5 9049   0.529   3.846  11.558  0.0074  0.0120 -0.4936
  607MPD2     H 9050   0.828   3.998  11.724 -0.7597  0.1830 -1.3628
  607MPD2    H1 9051   0.487   3.757  11.749 -0.8670 -0.9903 -1.7327
  607MPD2    H2 9052   0.586   3.922  11.373 -0.2277  0.2332  0.4175
  607MPD2    H3 9053   0.436   3.810  11.515 -0.7159  0.3117  0.8236
  607MPD2     N 9054   0.695   3.866  11.885 -0.0768 -0.1473 -0.2751
  607MPD2    H5 9055   0.762   3.932  11.922  0.8656 -1.5777  0.5716
  607MPD2    N1 9056   0.829   4.047  11.475  0.2652  0.1808  0.3564
  607MPD2    H7 9057   0.905   4.085  11.531  0.0480 -0.6606  1.2127
  608TMC3    C1 9058   0.990   4.089  11.309  0.5461  0.2939  1.1102
  608TMC3    C2 9059   1.077   4.069  11.406  0.9588  0.7084 -0.3255
  608TMC3    C3 9060   1.199   4.133  11.401  0.0282  0.4136 -0.0241
  608TMC3    C4 9061   1.018   4.178  11.212  0.1070  0.0740 -0.6211
  608TMC3    C5 9062   1.146   4.227  11.201  0.1171  0.4536 -0.7352
  608TMC3    C6 9063   1.239   4.214  11.298  0.3639  0.1200  0.8100
  608TMC3     C 9064   0.854   4.054  11.338 -0.2271  0.5941 -0.0993
  608TMC3     O 9065   0.787   4.012  11.248  0.2308  0.5082  0.1682
  608TMC3     H 9066   1.057   3.992  11.479  0.4319  0.0299 -1.1883
  608TMC3    H1 9067   0.950   4.200  11.131 -0.8578  1.4305  0.5741
  608TMC3    H2 9068   1.342   4.246  11.296  0.7627 -1.0491  1.8695
  608TMC3    C7 9069   1.194   4.239  11.065  0.3857 -0.1256  0.1824
  608TMC3    C8 9070   1.289   4.121  11.515  0.5564  0.2278  0.9202
  608TMC3    O1 9071   1.155   4.158  10.980 -0.3305 -0.6139 -0.3660
  608TMC3    O2 9072   1.409   4.144  11.494 -0.4522 -0.9567  0.4833
  609TMC3    C1 9073   2.628   3.224  10.481 -0.1917  1.0092 -0.1791
  609TMC3    C2 9074   2.494   3.230  10.494 -0.2043  0.4165  0.0333
  609TMC3    C3 9075   2.416   3.213  10.383 -0.0162  0.1081  0.0280
  609TMC3    C4 9076   2.684   3.191  10.361  0.5008 -0.3287 -0.2664
  609TMC3    C5 9077   2.601   3.178  10.250 -0.2158 -0.1073  0.9101
  609TMC3    C6 9078   2.462   3.180  10.259 -0.6990  0.5043  0.3610
  609TMC3     C 9079   2.702   3.225  10.598  0.2873  0.6976 -1.0994
  609TMC3     O 9080   2.642   3.236  10.703  0.4417  0.2006  0.4843
  609TMC3     H 9081   2.457   3.281  10.582 -0.0077  1.7776 -0.6654
  609TMC3    H1 9082   2.790   3.179  10.342  0.4626 -0.5365 -0.3474
  609TMC3    H2 9083   2.396   3.158  10.176 -1.0789  0.2389  0.7302
  609TMC3    C7 9084   2.655   3.133  10.130 -0.4554  0.1939  0.5381
  609TMC3    C8 9085   2.271   3.227  10.401  0.9168  0.2751 -0.0844
  609TMC3    O1 9086   2.774   3.090  10.125 -0.3048 -0.8466  0.0986
  609TMC3    O2 9087   2.238   3.293  10.499 -0.0504  0.1073  0.1012
  610TMC3    C1 9088   1.350   3.533  12.575 -0.3246  0.5938  0.2507
  610TMC3    C2 9089   1.431   3.626  12.517 -0.2110  0.3542 -0.3353
  610TMC3    C3 9090   1.568   3.604  12.542 -0.7179 -0.1370 -0.0455
  610TMC3    C4 9091   1.390   3.433  12.666 -0.8210  0.2244 -0.2623
  610TMC3    C5 9092   1.519   3.433  12.703 -0.9722 -0.2157  0.1192
  610TMC3    C6 9093   1.610   3.509  12.629 -0.6200 -0.3263 -0.0158
  610TMC3     C 9094   1.213   3.544  12.553 -0.2717 -0.5503  0.3285
  610TMC3     O 9095   1.169   3.652  12.513 -0.3669  0.1977 -0.1855
  610TMC3     H 9096   1.394   3.682  12.433 -1.3046  0.5762  0.2968
  610TMC3    H1 9097   1.321   3.362  12.709  0.8279 -1.3935 -0.2941
  610TMC3    H2 9098   1.714   3.495  12.654 -0.8152 -0.9974  0.4210
  610TMC3    C7 9099   1.559   3.340  12.804 -0.8070  0.2169  0.1368
  610TMC3    C8 9100   1.675   3.689  12.503 -0.6958  0.4532  0.5493
  610TMC3    O1 9101   1.675   3.299  12.807 -0.1793  0.0569  0.8319
  610TMC3    O2 9102   1.791   3.673  12.536 -0.0194 -0.0137  1.3424
  611MPD2     C 9103   0.365   3.720  10.396  0.5291 -0.0566 -0.0524
  611MPD2    C1 9104   0.337   3.589  10.359  0.8374  0.4025 -0.4959
  611MPD2    C2 9105   0.442   3.509  10.305  0.2125 -0.4102 -0.3440
  611MPD2    C3 9106   0.568   3.566  10.283 -0.3270  0.7710  0.3906
  611MPD2    C4 9107   0.590   3.698  10.315 -0.4232 -0.5993 -0.5026
  611MPD2    C5 9108   0.490   3.771  10.383 -0.0977  0.1448  0.2976
  611MPD2     H 9109   0.423   3.405  10.282  0.2907 -0.2856 -0.9569
  611MPD2    H1 9110   0.687   3.745  10.304 -0.6909 -0.1134 -0.7551
  611MPD2    H2 9111   0.291   3.788  10.436  0.7797  0.7122 -0.8851
  611MPD2    H3 9112   0.508   3.874  10.414 -2.0356  1.0874 -1.6709
  611MPD2     N 9113   0.671   3.493  10.226  0.1729  0.4691  0.5423
  611MPD2    H5 9114   0.761   3.540  10.233 -0.5599  1.8849  0.3056
  611MPD2    N1 9115   0.215   3.537  10.392 -0.1684  0.3702  0.8499
  611MPD2    H7 9116   0.158   3.594  10.454  0.2817 -1.2184  2.7158
  612TMC3    C1 9117   0.805   3.325  10.141  0.0206  0.5979  0.7101
  612TMC3    C2 9118   0.914   3.417  10.153  0.3940  0.4269  0.1837
  612TMC3    C3 9119   1.039   3.362  10.163  1.2233  0.0684 -0.0542
  612TMC3    C4 9120   0.828   3.189  10.139 -0.0232 -0.5550  0.4125
  612TMC3    C5 9121   0.959   3.147  10.137  0.4200 -0.0415  0.1973
  612TMC3    C6 9122   1.065   3.229  10.151 -0.5192  1.0008 -0.5456
  612TMC3     C 9123   0.673   3.363  10.177  0.0926  0.4264 -0.2078
  612TMC3     O 9124   0.586   3.274  10.173 -0.3783  0.5551 -0.3095
  612TMC3     H 9125   0.901   3.524  10.148 -2.0377  0.1765  0.9647
  612TMC3    H1 9126   0.752   3.114  10.122 -0.7138  0.0744  0.7120
  612TMC3    H2 9127   1.171   3.204  10.155 -0.3863  1.4942 -1.0607
  612TMC3    C7 9128   0.986   3.000  10.120 -0.1768  0.5219  0.0951
  612TMC3    C8 9129   1.135   3.463  10.211  0.1022  0.4292  0.9288
  612TMC3    O1 9130   0.890   2.928  10.093 -0.0519  0.3600  0.1693
  612TMC3    O2 9131   1.134   3.577  10.166 -0.1162  0.0676 -0.0635
  613MPD2     C 9132   4.532   0.141  16.285 -0.1856 -0.1377  0.4255
  613MPD2    C1 9133   4.568   0.061  16.181  1.0213 -0.1979  0.0704
  613MPD2    C2 9134   4.481   4.709  16.121 -0.2627 -0.2965  0.3693
  613MPD2    C3 9135   4.347   4.708  16.155  0.8926 -0.1432  0.4458
  613MPD2    C4 9136   4.303   0.061  16.246  0.1850 -0.2888  0.0973
  613MPD2    C5 9137   4.391   0.147  16.308  0.3109  0.8143 -0.5402
  613MPD2     H 9138   4.509   4.653  16.032 -4.4954 -1.2171 -0.3682
  613MPD2    H1 9139   4.197   0.065  16.267  0.1896  1.3001 -0.1767
  613MPD2    H2 9140   4.604   0.204  16.336  0.4148  0.4972 -1.2010
  613MPD2    H3 9141   4.342   0.220  16.371  1.7359  0.9777  0.3795
  613MPD2     N 9142   4.257   4.618  16.094  0.0865 -0.4010  0.5613
  613MPD2    H5 9143   4.305   4.552  16.033 -0.5472  1.1329 -1.5721
  613MPD2    N1 9144   4.702   0.079  16.139  0.1622  0.1493 -0.7712
  613MPD2    H7 9145   0.026   0.141  16.190 -0.2905 -0.0197 -0.0103
  614TMC3    C1 9146   0.133   0.063  15.959 -0.2296  0.3598  0.2453
  614TMC3    C2 9147   0.132   0.003  15.834  0.1391  0.2278 -0.2662
  614TMC3    C3 9148   0.143   0.086  15.730 -0.3872  0.5343 -0.4838
  614TMC3    C4 9149   0.161   0.199  15.979 -0.3168 -0.1475 -0.6044
  614TMC3    C5 9150   0.199   0.270  15.874 -0.2896 -0.2725 -0.5134
  614TMC3    C6 9151   0.185   0.219  15.744 -0.5544  0.2649  0.1931
  614TMC3     C 9152   0.030   4.734  16.045  0.6756 -0.2069 -0.3373
  614TMC3     O 9153   4.720   4.632  15.996  0.3846  0.6719 -0.0734
  614TMC3     H 9154   0.122   4.633  15.822 -1.5934  0.1821  1.7050
  614TMC3    H1 9155   0.148   0.251  16.074 -1.0807  1.6767 -1.7068
  614TMC3    H2 9156   0.202   0.279  15.656  2.1259 -2.1737 -0.9361
  614TMC3    C7 9157   0.170   0.410  15.889 -0.3515  0.3553  0.3436
  614TMC3    C8 9158   0.068   0.053  15.617  0.2620  0.6377  0.0826
  614TMC3    O1 9159   0.194   0.463  15.995  0.0842  0.0834 -0.4176
  614TMC3    O2 9160   0.078   0.116  15.512  0.1964  0.2550  0.2881
  615MPD2     C 9161   4.175   2.297  16.322 -0.4528  0.0104  0.4716
  615MPD2    C1 9162   4.044   2.335  16.328 -0.2746 -0.4977 -0.4547
  615MPD2    C2 9163   3.959   2.267  16.243 -0.0623 -0.2267  0.0401
  615MPD2    C3 9164   4.000   2.173  16.145 -0.1306  0.3787 -0.6188
  615MPD2    C4 9165   4.133   2.146  16.142  0.2832  0.5733 -0.0958
  615MPD2    C5 9166   4.216   2.207  16.225 -0.4887  0.6655 -0.0833
  615MPD2     H 9167   3.858   2.307  16.249  0.8112  2.3195 -2.1748
  615MPD2    H1 9168   4.184   2.077  16.076 -1.7627 -0.6106 -0.4602
  615MPD2    H2 9169   4.244   2.354  16.383  0.8943 -0.8483 -0.2151
  615MPD2    H3 9170   4.319   2.183  16.198 -0.5404 -0.5653  0.8391
  615MPD2     N 9171   3.907   2.104  16.064 -0.0994  0.2755  0.2725
  615MPD2    H5 9172   3.953   2.064  15.983 -0.5650 -1.1804  0.7350
  615MPD2    N1 9173   3.993   2.447  16.403  0.4254  0.2503 -0.1906
  615MPD2    H7 9174   3.896   2.465  16.380  0.6372  1.4675 -0.0922
  616TMC3    C1 9175   3.980   2.637  16.539  0.1619 -0.3883 -0.3013
  616TMC3    C2 9176   4.033   2.707  16.645  0.6864  0.0728 -0.1163
  616TMC3    C3 9177   3.970   2.824  16.690 -0.2060  0.4331  0.0113
  616TMC3    C4 9178   3.857   2.667  16.488  0.0641  0.4149 -0.4092
  616TMC3    C5 9179   3.797   2.787  16.537 -0.4028  0.5713  0.0428
  616TMC3    C6 9180   3.851   2.859  16.637  0.4693 -0.2094 -0.4746
  616TMC3     C 9181   4.061   2.528  16.490  0.0509 -0.0898  0.1108
  616TMC3     O 9182   4.166   2.495  16.551 -0.6852  0.8016  0.4634
  616TMC3     H 9183   4.122   2.673  16.697  0.5089 -0.9819 -0.4930
  616TMC3    H1 9184   3.813   2.615  16.404  0.0604 -1.2287  0.6164
  616TMC3    H2 9185   3.789   2.939  16.677 -2.1733 -1.4165 -2.1827
  616TMC3    C7 9186   3.687   2.853  16.473 -0.2205 -0.0371 -0.0612
  616TMC3    C8 9187   4.058   2.926  16.741 -0.6542  0.4560 -0.1373
  616TMC3    O1 9188   3.624   2.941  16.531  0.7824 -0.7988 -0.0621
  616TMC3    O2 9189   4.001   3.022  16.793 -0.0709 -0.3012  0.4024
  617MPD2     C 9190   1.885   0.293  13.427 -0.7454  0.2996 -0.8140
  617MPD2    C1 9191   1.919   0.329  13.554 -0.2043 -0.0958  0.2877
  617MPD2    C2 9192   1.842   0.290  13.659 -0.4700  0.0801  0.4302
  617MPD2    C3 9193   1.719   0.222  13.651 -0.8103 -0.8245 -0.3358
  617MPD2    C4 9194   1.684   0.192  13.518  0.2142  0.4927  0.0465
  617MPD2    C5 9195   1.768   0.223  13.409  0.0231  0.0944  0.0869
  617MPD2     H 9196   1.876   0.321  13.757  0.5229 -4.0479  1.4108
  617MPD2    H1 9197   1.603   0.121  13.507 -0.7434  1.6816 -0.5724
  617MPD2    H2 9198   1.943   0.313  13.338  0.6163  2.4968  0.5514
  617MPD2    H3 9199   1.746   0.185  13.310  3.3048 -2.4601  0.3499
  617MPD2     N 9200   1.634   0.183  13.758  0.6644  0.3478 -0.4234
  617MPD2    H5 9201   1.541   0.155  13.730  0.8707  0.1302 -0.8850
  617MPD2    N1 9202   2.034   0.410  13.570 -0.4305  0.3635 -0.2266
  617MPD2    H7 9203   2.053   0.460  13.484 -1.7678  0.3587 -0.5220
  618TMC3    C1 9204   2.226   0.514  13.661  0.1347  0.0798  0.4577
  618TMC3    C2 9205   2.345   0.486  13.722 -0.4506 -0.2694  0.0712
  618TMC3    C3 9206   2.454   0.569  13.701  0.0130  0.4614 -0.1273
  618TMC3    C4 9207   2.211   0.627  13.594 -0.0217 -0.3449 -0.4884
  618TMC3    C5 9208   2.314   0.713  13.578  0.5727 -0.4252 -0.4825
  618TMC3    C6 9209   2.437   0.688  13.630 -0.1551 -0.1567 -0.5136
  618TMC3     C 9210   2.111   0.432  13.685  0.1469  0.1879 -0.2499
  618TMC3     O 9211   2.105   0.373  13.794 -0.2015  0.5062 -0.0524
  618TMC3     H 9212   2.350   0.385  13.762 -1.3580 -0.5351 -0.4615
  618TMC3    H1 9213   2.119   0.644  13.538 -0.3243 -2.0612 -0.5394
  618TMC3    H2 9214   2.520   0.747  13.593 -0.6203  1.5824  1.2067
  618TMC3    C7 9215   2.302   0.807  13.471 -0.3785 -0.3374 -0.5281
  618TMC3    C8 9216   2.581   0.521  13.702  0.0738 -1.0156  0.5755
  618TMC3    O1 9217   2.230   0.903  13.495 -0.1928  0.0755 -0.2758
  618TMC3    O2 9218   2.599   0.399  13.707  0.0598 -0.1486  0.4552
  619MPD2     C 9219   3.394   1.300  14.187  0.1857 -0.2789 -0.1449
  619MPD2    C1 9220   3.343   1.373  14.085 -0.3333  0.7305 -0.0659
  619MPD2    C2 9221   3.207   1.398  14.082  0.7708 -0.2757  0.1282
  619MPD2    C3 9222   3.124   1.334  14.166  0.3046  0.7066  0.2098
  619MPD2    C4 9223   3.177   1.232  14.252 -0.6499 -0.2810  0.6454
  619MPD2    C5 9224   3.313   1.229  14.271 -0.1127 -0.9703  0.2449
  619MPD2     H 9225   3.177   1.444  13.989  2.6683 -0.2815 -0.4971
  619MPD2    H1 9226   3.119   1.174  14.323 -1.8274 -0.9195 -0.8259
  619MPD2    H2 9227   3.502   1.291  14.193  0.0631 -2.7020 -1.9556
  619MPD2    H3 9228   3.357   1.162  14.343 -1.0474 -2.4842 -0.5803
  619MPD2     N 9229   2.984   1.360  14.170 -0.7143 -0.3482 -0.4227
  619MPD2    H5 9230   2.922   1.289  14.209  1.3704 -0.9135  1.8234
  619MPD2    N1 9231   3.419   1.442  13.986  0.8305  0.3369 -0.2992
  619MPD2    H7 9232   3.361   1.496  13.923  0.1612 -0.3078 -0.2279
  620TMC3    C1 9233   3.587   1.566  13.897  0.1746  0.2038  0.0064
  620TMC3    C2 9234   3.546   1.542  13.767  0.2460  0.2357  0.2093
  620TMC3    C3 9235   3.557   1.649  13.676  0.2798  0.0610  0.5027
  620TMC3    C4 9236   3.652   1.683  13.938 -0.0886 -0.3034  0.7185
  620TMC3    C5 9237   3.654   1.785  13.849 -0.3216 -0.2598  0.3865
  620TMC3    C6 9238   3.613   1.768  13.717 -0.1386 -0.1215 -0.1735
  620TMC3     C 9239   3.558   1.464  13.985 -0.1707  0.2998 -0.3587
  620TMC3     O 9240   3.644   1.425  14.063  0.0843  0.3834 -0.6359
  620TMC3     H 9241   3.511   1.448  13.728 -0.2697  0.8648 -0.8532
  620TMC3    H1 9242   3.682   1.692  14.041 -2.3409  0.7972  1.2994
  620TMC3    H2 9243   3.625   1.841  13.638  2.9616 -0.0367  0.3513
  620TMC3    C7 9244   3.641   1.922  13.895  0.0104  0.0602  0.1422
  620TMC3    C8 9245   3.508   1.634  13.537 -0.0972 -0.5600 -0.2202
  620TMC3    O1 9246   3.578   1.995  13.828 -0.5137  0.4554 -0.1678
  620TMC3    O2 9247   3.597   1.658  13.455 -0.2429 -0.3591  0.5475
  621MPD2     C 9248   2.811   2.174  10.054 -0.1859 -0.5817 -0.2372
  621MPD2    C1 9249   2.926   2.101  10.063  0.6477  0.2422 -0.9119
  621MPD2    C2 9250   3.033   2.163  10.126 -0.7952 -0.2036 -0.0117
  621MPD2    C3 9251   3.016   2.284  10.190 -0.3431  0.1704 -0.3877
  621MPD2    C4 9252   2.892   2.339  10.205  0.6670 -0.3515  0.5182
  621MPD2    C5 9253   2.787   2.290  10.129 -0.2123  0.0071 -0.2738
  621MPD2     H 9254   3.119   2.099  10.141 -1.0803 -0.6156 -0.1224
  621MPD2    H1 9255   2.874   2.428  10.264  0.2249  0.4991 -0.9107
  621MPD2    H2 9256   2.720   2.138  10.008  0.2028  0.1404 -1.5618
  621MPD2    H3 9257   2.691   2.339  10.127  0.1422  0.8421  3.5196
  621MPD2     N 9258   3.122   2.341  10.267 -0.0606  0.3614 -0.3440
  621MPD2    H5 9259   3.209   2.290  10.276  0.3685  1.5112  2.0606
  621MPD2    N1 9260   2.947   1.977   9.993  0.0791  0.4019 -0.8524
  621MPD2    H7 9261   3.036   1.932  10.011  0.9154  1.8413 -1.3181
  622TMC3    C1 9262   2.867   1.766   9.945 -0.2814 -0.8205  0.3280
  622TMC3    C2 9263   2.934   1.713  10.049 -0.2543 -0.6094 -0.6799
  622TMC3    C3 9264   2.911   1.577  10.086 -0.4450  0.3620 -0.2213
  622TMC3    C4 9265   2.773   1.691   9.877  0.1622 -0.4513  0.5846
  622TMC3    C5 9266   2.748   1.562   9.919 -0.4886 -0.0718  0.3446
  622TMC3    C6 9267   2.810   1.503  10.026 -0.1080  0.2137 -0.0032
  622TMC3     C 9268   2.838   1.910   9.947 -0.8519  0.4673 -0.0436
  622TMC3     O 9269   2.736   1.948   9.892 -0.3485  0.7303 -0.1354
  622TMC3     H 9270   3.014   1.762  10.103  0.4619 -1.5861 -0.8588
  622TMC3    H1 9271   2.727   1.741   9.793  1.4673  0.3026  0.3238
  622TMC3    H2 9272   2.797   1.402  10.063  0.4852 -0.5057 -1.7417
  622TMC3    C7 9273   2.614   1.508   9.890  0.3886 -0.4354  0.0561
  622TMC3    C8 9274   2.990   1.526  10.196 -0.1084 -0.1669 -0.2749
  622TMC3    O1 9275   2.600   1.389   9.912  0.2434  0.4848  0.7738
  622TMC3    O2 9276   2.981   1.404  10.215 -0.2843 -0.3321  0.0511
  623MPD2     C 9277   2.807   3.036  16.096  0.5890  0.2067  0.1069
  623MPD2    C1 9278   2.781   2.934  16.184 -0.7125 -0.3428 -0.1997
  623MPD2    C2 9279   2.831   2.939  16.313 -0.0217 -0.0506 -0.7435
  623MPD2    C3 9280   2.922   3.034  16.348  0.2676  0.1495  0.0243
  623MPD2    C4 9281   2.956   3.131  16.253 -0.0225  0.1317 -0.3071
  623MPD2    C5 9282   2.888   3.137  16.134 -0.8333 -0.4240 -0.3972
  623MPD2     H 9283   2.823   2.858  16.385  1.0287 -2.0910 -2.9231
  623MPD2    H1 9284   3.023   3.210  16.285 -3.4141  2.4130  1.2018
  623MPD2    H2 9285   2.766   3.048  15.996 -2.7821 -0.3370  1.4101
  623MPD2    H3 9286   2.901   3.214  16.060  2.9944 -0.8085 -0.0875
  623MPD2     N 9287   2.978   3.038  16.474  0.4386 -0.7054  0.3693
  623MPD2    H5 9288   2.937   2.960  16.525 -1.8635 -0.8638 -1.7328
  623MPD2    N1 9289   2.716   2.820  16.126  0.1642  0.5299 -0.6075
  623MPD2    H7 9290   2.693   2.823  16.027  1.0525  3.6280 -0.7476
  624TMC3    C1 9291   3.281   2.900  16.752 -0.0125 -0.0128 -0.1593
  624TMC3    C2 9292   3.188   2.841  16.833  0.1121  0.8083  0.6751
  624TMC3    C3 9293   3.055   2.891  16.814 -0.0678 -0.4535 -0.3325
  624TMC3    C4 9294   3.242   2.990  16.658 -0.3761 -0.3958  0.1710
  624TMC3    C5 9295   3.120   3.043  16.652 -0.0667 -0.7950 -0.0762
  624TMC3    C6 9296   3.016   2.997  16.734 -0.6012  0.1222 -0.1833
  624TMC3     C 9297   3.399   2.827  16.721 -0.4031 -1.3539  0.0913
  624TMC3     O 9298   3.472   2.809  16.819  0.4598  0.0011 -0.6333
  624TMC3     H 9299   3.217   2.762  16.902  0.2092 -1.1491 -1.6053
  624TMC3    H1 9300   3.316   3.026  16.588 -1.1062 -1.2096 -1.0053
  624TMC3    H2 9301   2.916   3.036  16.725 -0.9107 -0.7129 -0.3647
  624TMC3    C7 9302   3.074   3.113  16.535  0.5567  0.0361 -0.0786
  624TMC3    C8 9303   2.948   2.802  16.863 -0.2862  0.7549 -0.4404
  624TMC3    O1 9304   3.164   3.179  16.485 -0.3914 -0.5366  0.4570
  624TMC3    O2 9305   2.987   2.689  16.872  0.1444  0.1234  0.3440
  625MPD2     C 9306   3.479   3.399   0.561 -0.0767 -0.1602 -0.2224
  625MPD2    C1 9307   3.460   3.534   0.598 -0.5944  0.2673  0.5819
  625MPD2    C2 9308   3.562   3.593   0.667 -0.2242  0.0041  0.0904
  625MPD2    C3 9309   3.678   3.523   0.691 -0.1785  0.5174  0.5270
  625MPD2    C4 9310   3.702   3.395   0.641  0.8456 -0.1963  0.1236
  625MPD2    C5 9311   3.603   3.337   0.573  0.0211 -0.4734 -0.2661
  625MPD2     H 9312   3.547   3.692   0.708  1.1348  0.4990 -0.6197
  625MPD2    H1 9313   3.793   3.339   0.659  0.9430  0.6638  2.3248
  625MPD2    H2 9314   3.405   3.342   0.508 -0.5677 -1.2682  1.6326
  625MPD2    H3 9315   3.621   3.242   0.523 -3.6546 -1.5209  0.4317
  625MPD2     N 9316   3.775   3.594   0.764 -0.3078  0.4036 -0.5539
  625MPD2    H5 9317   3.760   3.693   0.782 -0.5958  0.6278 -2.0348
  625MPD2    N1 9318   3.341   3.610   0.573 -0.2476 -0.2016 -0.0388
  625MPD2    H7 9319   3.351   3.709   0.591  0.3602  0.0652 -1.7878
  626TMC3    C1 9320   3.126   3.663   0.529 -0.2418 -0.0667  0.2920
  626TMC3    C2 9321   3.049   3.706   0.429 -0.2025 -0.3028  0.5830
  626TMC3    C3 9322   2.947   3.802   0.453  0.4055 -0.8628 -0.3147
  626TMC3    C4 9323   3.123   3.720   0.650 -0.1079 -0.4468  0.0074
  626TMC3    C5 9324   3.022   3.815   0.672 -0.0788  0.1516  0.2171
  626TMC3    C6 9325   2.930   3.858   0.576  0.1900  0.0602  0.8213
  626TMC3     C 9326   3.227   3.561   0.513 -0.1027 -0.6754 -0.3984
  626TMC3     O 9327   3.203   3.470   0.439  0.6377 -0.1967  0.1061
  626TMC3     H 9328   3.062   3.668   0.329 -2.7081 -0.3402  0.2703
  626TMC3    H1 9329   3.183   3.687   0.734  0.1732  0.9786  0.3699
  626TMC3    H2 9330   2.846   3.921   0.603 -0.2237 -0.0328 -0.2483
  626TMC3    C7 9331   2.989   3.842   0.808 -0.1659  0.2197 -0.3335
  626TMC3    C8 9332   2.870   3.847   0.339  1.1538 -0.1918 -0.1029
  626TMC3    O1 9333   3.024   3.767   0.895 -0.3214 -0.2854 -0.2583
  626TMC3    O2 9334   2.836   3.755   0.261  0.0833  0.1912  0.3340
  627MPD2     C 9335   1.979   3.780  14.369  0.1196  0.6910  0.3975
  627MPD2    C1 9336   1.885   3.825  14.469  0.0773  0.2237  0.4286
  627MPD2    C2 9337   1.755   3.768  14.460  0.3228  0.8835  0.5983
  627MPD2    C3 9338   1.721   3.674  14.367  0.4071 -0.6738 -0.1724
  627MPD2    C4 9339   1.813   3.636  14.276 -0.0015  0.0322 -0.0863
  627MPD2    C5 9340   1.944   3.689  14.280 -0.2082  0.3903  0.5928
  627MPD2     H 9341   1.676   3.790  14.531  0.2908  1.1431  0.4835
  627MPD2    H1 9342   1.784   3.570  14.195  0.9245 -0.6276  0.1304
  627MPD2    H2 9343   2.079   3.819  14.356  0.5735 -0.5034  0.2744
  627MPD2    H3 9344   2.015   3.650  14.208  0.4280 -1.2046  2.0843
  627MPD2     N 9345   1.587   3.636  14.354 -0.3188 -1.0225  0.2405
  627MPD2    H5 9346   1.521   3.693  14.407  0.7655  1.6380 -1.2264
  627MPD2    N1 9347   1.916   3.922  14.567  0.2082 -0.0601  0.5898
  627MPD2    H7 9348   1.849   3.957  14.634 -0.2855  0.9545 -0.4539
  628TMC3    C1 9349   2.034   4.096  14.679 -0.2833  0.1354  0.0497
  628TMC3    C2 9350   2.149   4.126  14.747 -0.0836 -0.5882  0.2530
  628TMC3    C3 9351   2.152   4.234  14.832  0.3731  0.1296 -0.0444
  628TMC3    C4 9352   1.927   4.180  14.698  0.1568  1.0713  0.0005
  628TMC3    C5 9353   1.937   4.294  14.777 -0.8366  0.1620  0.8522
  628TMC3    C6 9354   2.048   4.324  14.853 -0.0055 -0.7395 -0.4305
  628TMC3     C 9355   2.039   3.982  14.589 -0.1561 -0.0727  0.4542
  628TMC3     O 9356   2.150   3.949  14.554  0.0394 -0.4090  0.0207
  628TMC3     H 9357   2.240   4.066  14.744  1.4218  1.5626  2.9315
  628TMC3    H1 9358   1.839   4.150  14.641  0.7247 -0.1048 -0.2493
  628TMC3    H2 9359   2.055   4.394  14.935 -1.9731  1.1632 -1.8942
  628TMC3    C7 9360   1.827   4.398  14.775 -0.2178 -0.3712  0.1484
  628TMC3    C8 9361   2.261   4.235  14.929 -0.4773 -0.0978 -0.9089
  628TMC3    O1 9362   1.809   4.473  14.863 -0.5226  0.2387  0.4262
  628TMC3    O2 9363   2.258   4.333  14.998 -0.3467  0.4662 -0.8310
  629MPD2     C 9364   4.522   3.136  16.778 -0.4196  0.9464 -0.1872
  629MPD2    C1 9365   4.538   3.017  16.716  0.9609 -0.7093 -0.9273
  629MPD2    C2 9366   4.421   2.946  16.696 -0.5306 -0.1954  0.0813
  629MPD2    C3 9367   4.297   2.994  16.727  0.7183 -0.0952  0.0003
  629MPD2    C4 9368   4.288   3.118  16.785 -0.1793  0.2873  0.3884
  629MPD2    C5 9369   4.400   3.183  16.817  0.0793 -0.0627  0.1436
  629MPD2     H 9370   4.418   2.846  16.654 -0.5082  0.1164 -0.6685
  629MPD2    H1 9371   4.198   3.169  16.816 -1.6020 -1.4727 -0.7681
  629MPD2    H2 9372   4.615   3.188  16.800  1.2280 -1.6784 -0.9369
  629MPD2    H3 9373   4.390   3.281  16.862  3.1212 -0.5967  1.9834
  629MPD2     N 9374   4.184   2.907  16.695  0.4375  0.5879  0.4645
  629MPD2    H5 9375   4.203   2.823  16.641 -2.2752 -0.0879  0.5514
  629MPD2    N1 9376   4.665   2.968  16.672  0.2000 -0.2586 -0.2934
  629MPD2    H7 9377   0.007   3.027  16.694  1.3129 -2.8012  2.5523
  630TMC3    C1 9378   0.087   2.804  16.620 -0.0944  0.2543  0.4078
  630TMC3    C2 9379   0.169   2.901  16.577 -0.1552 -0.3669 -0.1256
  630TMC3    C3 9380   0.307   2.892  16.608  0.0883  0.0255  0.3196
  630TMC3    C4 9381   0.130   2.696  16.697  0.1015  1.2762  0.1129
  630TMC3    C5 9382   0.263   2.697  16.731 -0.3823  0.1875  0.1934
  630TMC3    C6 9383   0.357   2.782  16.679  0.0532  1.1936  0.5185
  630TMC3     C 9384   4.683   2.837  16.633  0.3208 -0.2962  0.4799
  630TMC3     O 9385   4.609   2.739  16.631  0.1861 -0.2912 -0.0261
  630TMC3     H 9386   0.128   2.979  16.513 -1.7167 -0.0381  1.3056
  630TMC3    H1 9387   0.052   2.663  16.765  1.0021  2.1786  1.6019
  630TMC3    H2 9388   0.460   2.772  16.712  0.7240  2.2200 -1.2239
  630TMC3    C7 9389   0.298   2.631  16.856  0.7477  0.6703 -0.7144
  630TMC3    C8 9390   0.397   2.993  16.565  0.7849 -0.3210  0.7268
  630TMC3    O1 9391   0.396   2.672  16.920  0.1404 -0.1922  0.3762
  630TMC3    O2 9392   0.514   2.971  16.608  0.2774  0.0551 -0.4069
  631MPD2     C 9393   2.948   2.313  15.785  0.2279  0.1489  0.3915
  631MPD2    C1 9394   3.047   2.340  15.696 -0.6207 -1.2217 -0.4238
  631MPD2    C2 9395   3.166   2.263  15.699  0.2252  0.2172 -0.3532
  631MPD2    C3 9396   3.187   2.159  15.785 -0.1500 -0.8270 -0.0600
  631MPD2    C4 9397   3.092   2.139  15.884  0.6021  0.1614 -0.8932
  631MPD2    C5 9398   2.979   2.223  15.880  0.1422 -0.5583 -0.5385
  631MPD2     H 9399   3.242   2.281  15.624  2.0293  1.1083  1.6869
  631MPD2    H1 9400   3.087   2.060  15.958 -1.6795 -0.0135 -1.2335
  631MPD2    H2 9401   2.854   2.367  15.792  0.5739  1.0070 -1.4566
  631MPD2    H3 9402   2.900   2.196  15.949 -0.2327  0.9550 -0.3831
  631MPD2     N 9403   3.310   2.090  15.781  0.5188  0.0357 -0.0226
  631MPD2    H5 9404   3.377   2.111  15.708  2.0619  2.2019  2.0082
  631MPD2    N1 9405   3.003   2.432  15.596 -0.3029 -0.4558 -0.1806
  631MPD2    H7 9406   2.906   2.463  15.593 -0.3456 -0.6721 -0.8463
  632TMC3    C1 9407   3.011   2.601  15.438 -0.0605 -0.1194 -0.8809
  632TMC3    C2 9408   2.882   2.632  15.463  0.4867 -0.1734 -0.1887
  632TMC3    C3 9409   2.822   2.737  15.391  0.3034 -0.2792  0.0182
  632TMC3    C4 9410   3.093   2.675  15.352  0.6786 -0.0927 -0.3537
  632TMC3    C5 9411   3.029   2.783  15.290 -0.4285  0.5229  0.0390
  632TMC3    C6 9412   2.896   2.818  15.308 -0.0998  0.3289 -0.0032
  632TMC3     C 9413   3.083   2.490  15.502  0.3480 -0.0418 -0.5758
  632TMC3     O 9414   3.202   2.474  15.478  0.2677  0.5512  0.0430
  632TMC3     H 9415   2.810   2.579  15.525 -0.6463 -0.3098 -1.6135
  632TMC3    H1 9416   3.198   2.653  15.332  0.8105  0.2312 -0.0074
  632TMC3    H2 9417   2.852   2.907  15.264 -1.6060 -1.7861 -2.7427
  632TMC3    C7 9418   3.103   2.878  15.214 -0.0155  0.0095 -0.4554
  632TMC3    C8 9419   2.701   2.787  15.452 -0.4951 -0.0623 -0.1102
  632TMC3    O1 9420   3.038   2.939  15.134  0.2447  1.0592  0.0217
  632TMC3    O2 9421   2.679   2.745  15.568 -0.0580  0.0922 -0.1297
  633MPD2     C 9422   2.900   0.593  17.379 -0.6882 -0.0277  0.5677
  633MPD2    C1 9423   2.897   0.526  17.257  0.3331  0.1015  0.2978
  633MPD2    C2 9424   2.900   0.385  17.266  0.2843 -0.3241 -0.3299
  633MPD2    C3 9425   2.909   0.321  17.390  0.1218 -0.5225 -0.4668
  633MPD2    C4 9426   2.918   0.391  17.507  0.7929  0.5206 -0.5227
  633MPD2    C5 9427   2.909   0.526  17.504  0.4191  0.2358 -0.5548
  633MPD2     H 9428   2.901   0.333  17.171  2.8054  2.3533 -1.7413
  633MPD2    H1 9429   2.922   0.343  17.605  2.2577  3.5441  0.8849
  633MPD2    H2 9430   2.896   0.701  17.388 -2.6528 -0.2130  1.7855
  633MPD2    H3 9431   2.906   0.587  17.593  1.1257 -1.7092  0.8079
  633MPD2     N 9432   2.914   0.182  17.415 -0.0991  0.0504 -0.5135
  633MPD2    H5 9433   2.934   0.143  17.507 -2.6320  0.6585  0.3029
  633MPD2    N1 9434   2.905   0.589  17.135  0.7980  0.2369  0.1946
  633MPD2    H7 9435   2.918   0.528  17.055 -1.0872  1.0575 -0.7339
  634TMC3    C1 9436   2.949   0.754  16.984  0.6495  0.0285 -0.0306
  634TMC3    C2 9437   2.995   0.655  16.903 -0.6764 -0.0368 -0.0748
  634TMC3    C3 9438   3.059   0.681  16.790 -0.6209  0.6038  0.3724
  634TMC3    C4 9439   2.978   0.883  16.952  0.3724  0.1117  0.7862
  634TMC3    C5 9440   3.048   0.908  16.835  0.1849  0.3956  0.2897
  634TMC3    C6 9441   3.090   0.810  16.751 -0.1984 -0.4927  0.6738
  634TMC3     C 9442   2.903   0.727  17.115  0.0465  0.3905  0.4585
  634TMC3     O 9443   2.898   0.820  17.194  0.2022 -0.0330  0.0022
  634TMC3     H 9444   2.987   0.550  16.927  0.4217 -0.2653 -0.7375
  634TMC3    H1 9445   2.940   0.963  17.014 -1.2310 -0.9421  1.1626
  634TMC3    H2 9446   3.136   0.838  16.657  0.0119  0.2977  1.0073
  634TMC3    C7 9447   3.056   1.039  16.787  0.5703  0.0232 -0.1456
  634TMC3    C8 9448   3.100   0.564  16.705 -0.4065  0.5351 -0.3442
  634TMC3    O1 9449   3.124   1.065  16.687  0.2534  0.2774  0.1756
  634TMC3    O2 9450   3.114   0.456  16.755 -0.0114 -0.0035  0.3149
  635TMC3    C1 9451   2.973   1.213   0.836  0.2041  0.4494 -0.0195
  635TMC3    C2 9452   2.934   1.097   0.773  0.1077  0.7666  0.1145
  635TMC3    C3 9453   2.861   1.008   0.851 -0.6203 -0.1802 -0.1797
  635TMC3    C4 9454   2.928   1.237   0.960 -0.0269 -0.0563  0.0169
  635TMC3    C5 9455   2.855   1.148   1.035  0.2749  0.1351  0.0416
  635TMC3    C6 9456   2.810   1.033   0.973  0.6172  0.2488  0.1585
  635TMC3     C 9457   3.035   1.328   0.773 -0.2158 -0.5153 -0.3924
  635TMC3     O 9458   3.037   1.438   0.833  0.1352 -0.3163  0.0779
  635TMC3     H 9459   2.976   1.064   0.678 -1.6685 -0.4872 -0.2284
  635TMC3    H1 9460   2.951   1.334   1.003  1.3869 -0.2857 -0.2234
  635TMC3    H2 9461   2.755   0.951   1.019  0.6815  0.3808  0.4678
  635TMC3    C7 9462   2.761   1.205   1.131  0.3128 -0.0123  0.1315
  635TMC3    C8 9463   2.843   0.875   0.808  0.0830 -0.5697  0.0704
  635TMC3    O1 9464   2.724   1.322   1.122 -0.1363 -0.5439 -0.0132
  635TMC3    O2 9465   2.859   0.787   0.896  0.2640 -0.3476  0.2986
  636MPD2     C 9466   4.204   0.324  15.484  0.8297  0.3978  0.6495
  636MPD2    C1 9467   4.213   0.326  15.624 -0.1243  0.3171  0.4499
  636MPD2    C2 9468   4.145   0.222  15.686  0.0072 -1.0316 -0.3956
  636MPD2    C3 9469   4.069   0.120  15.616  0.5042 -0.1228 -0.2588
  636MPD2    C4 9470   4.085   0.116  15.481  0.5815  0.2808 -0.6006
  636MPD2    C5 9471   4.146   0.223  15.416 -0.4637 -0.1851 -0.2424
  636MPD2     H 9472   4.156   0.205  15.793 -0.2988  0.3138 -0.1428
  636MPD2    H1 9473   4.066   0.021  15.431  0.5071 -1.1047  2.0625
  636MPD2    H2 9474   4.244   0.406  15.426 -1.9390  0.3506 -1.3258
  636MPD2    H3 9475   4.149   0.209  15.309 -1.9732  0.7614 -0.4070
  636MPD2     N 9476   4.027   0.016  15.700 -0.3368 -0.1510 -0.2545
  636MPD2    H5 9477   4.013   0.032  15.800 -0.7469  1.4083 -0.5602
  636MPD2    N1 9478   4.271   0.436  15.709  0.1042  0.1039 -0.1622
  636MPD2    H7 9479   4.268   0.422  15.810  4.2679  0.1719 -0.0245
  637TMC3    C1 9480   3.993   4.534  15.776 -0.1022  0.1123 -0.0088
  637TMC3    C2 9481   3.989   4.598  15.900 -0.4951  0.9263 -0.1638
  637TMC3    C3 9482   4.061   4.535  15.998  0.0530  0.1031  0.5254
  637TMC3    C4 9483   4.060   4.419  15.748 -0.3239  0.0522  0.5340
  637TMC3    C5 9484   4.151   4.384  15.845  1.0514  0.0876  0.5225
  637TMC3    C6 9485   4.142   4.424  15.973  0.3312 -0.6054  0.0345
  637TMC3     C 9486   4.003   4.622  15.660 -0.6200 -0.5026 -0.9375
  637TMC3     O 9487   4.011   4.574  15.550 -0.8018 -0.1263  0.3617
  637TMC3     H 9488   3.929   4.685  15.925 -1.1463  0.3970  0.1348
  637TMC3    H1 9489   4.053   4.368  15.653  2.0500  0.2802  0.2202
  637TMC3    H2 9490   4.200   4.375  16.051  0.7267  0.1217  0.1968
  637TMC3    C7 9491   4.278   4.438  15.801  0.0872 -0.1336  0.3302
  637TMC3    C8 9492   4.118   4.628  16.092 -0.5945 -0.0303 -0.4317
  637TMC3    O1 9493   4.362   4.470  15.888 -0.3377  0.2632 -0.2022
  637TMC3    O2 9494   4.045   4.722  16.121  0.5771  0.3964  0.0961
  638MPD2     C 9495   3.624   0.006  14.832  0.6178  0.3794  0.5515
  638MPD2    C1 9496   3.717   4.654  14.776 -0.9410  0.1584  0.4408
  638MPD2    C2 9497   3.742   4.539  14.844 -0.0211  0.1070  0.3554
  638MPD2    C3 9498   3.676   4.512  14.963 -0.1411 -0.4862  0.7381
  638MPD2    C4 9499   3.573   4.588  15.006 -0.0986  0.5231  0.4456
  638MPD2    C5 9500   3.553   4.709  14.942  0.4508  0.0724 -0.4955
  638MPD2     H 9501   3.817   4.475  14.801 -1.5426 -0.9746 -0.6813
  638MPD2    H1 9502   3.515   4.558  15.092 -2.0496 -0.4983 -1.2256
  638MPD2    H2 9503   3.592   0.099  14.788 -0.5013 -0.3891 -0.2523
  638MPD2    H3 9504   3.484   0.050  14.972 -1.2477 -2.2168  1.5380
  638MPD2     N 9505   3.695   4.387  15.032  0.3007 -0.1519 -0.1742
  638MPD2    H5 9506   3.622   4.351  15.093  1.7818 -1.9487  0.5502
  638MPD2    N1 9507   3.784   4.676  14.657  0.6731  0.0743 -0.7730
  638MPD2    H7 9508   3.841   4.603  14.616  0.0228 -0.2957 -1.0189
  639TMC3    C1 9509   3.769   4.178  15.061 -0.4683  0.9863 -0.3402
  639TMC3    C2 9510   3.644   4.129  15.033  1.0417  0.2237  0.0580
  639TMC3    C3 9511   3.628   3.995  15.038 -0.5788  0.4653  0.0748
  639TMC3    C4 9512   3.874   4.100  15.101  0.5561 -0.1525  0.0930
  639TMC3    C5 9513   3.851   3.971  15.127 -0.0869 -0.8128 -0.0158
  639TMC3    C6 9514   3.721   3.922  15.111 -0.4217  0.1807 -0.9021
  639TMC3     C 9515   3.804   4.312  15.018 -0.1301 -0.0616  0.2676
  639TMC3     O 9516   3.918   4.331  14.977 -0.3125  0.1596  0.0535
  639TMC3     H 9517   3.582   4.188  14.966  1.1192  0.5080  0.2367
  639TMC3    H1 9518   3.965   4.156  15.117 -0.0066  0.9716 -0.6416
  639TMC3    H2 9519   3.702   3.815  15.107  0.7060 -0.0997  1.1074
  639TMC3    C7 9520   3.963   3.887  15.139 -0.0396 -0.0499  0.3498
  639TMC3    C8 9521   3.596   3.941  14.909 -0.3292  0.1701  0.0630
  639TMC3    O1 9522   3.933   3.772  15.156 -0.2511  0.5084  0.1612
  639TMC3    O2 9523   3.644   3.993  14.807 -0.0192 -0.2249 -0.3551
  640MPD2     C 9524   3.207   3.794  10.214  0.3435  0.5043  0.8019
  640MPD2    C1 9525   3.322   3.850  10.156 -0.4849  0.2127 -0.2219
  640MPD2    C2 9526   3.313   3.979  10.102 -0.2957 -1.0468  0.2793
  640MPD2    C3 9527   3.190   4.049  10.098  1.0744  0.8291  0.4385
  640MPD2    C4 9528   3.082   3.986  10.159  0.1947 -0.3128 -0.1916
  640MPD2    C5 9529   3.089   3.864  10.217  0.4344 -0.0492 -0.2718
  640MPD2     H 9530   3.389   4.023  10.038 -0.0539 -0.6237  0.8636
  640MPD2    H1 9531   2.988   4.038  10.171  1.0834  0.9302  1.3257
  640MPD2    H2 9532   3.221   3.704  10.274  1.2698 -0.7200 -1.2661
  640MPD2    H3 9533   3.004   3.830  10.275 -0.8255  1.6603 -1.1154
  640MPD2     N 9534   3.173   4.175  10.039 -0.7391 -0.5118 -0.6276
  640MPD2    H5 9535   3.076   4.200  10.024 -0.9296 -1.9581 -1.8279
  640MPD2    N1 9536   3.426   3.765  10.148  0.5798  0.3062 -0.0408
  640MPD2    H7 9537   3.414   3.674  10.192  2.1529  0.6915  1.1716
  641TMC3    C1 9538   3.629   3.681  10.058 -0.8213  0.1205  0.3045
  641TMC3    C2 9539   3.569   3.557  10.047 -0.1803 -0.2413 -0.4794
  641TMC3    C3 9540   3.652   3.449  10.005  0.7559 -0.6248  0.0573
  641TMC3    C4 9541   3.754   3.707  10.018  0.2901 -0.5504  0.1552
  641TMC3    C5 9542   3.821   3.601   9.961  0.0447  0.0085 -0.2842
  641TMC3    C6 9543   3.785   3.470   9.966  0.1339  0.1495  0.6563
  641TMC3     C 9544   3.545   3.794  10.084  0.5027  0.1994 -0.3648
  641TMC3     O 9545   3.583   3.896  10.031  0.3079  0.3849 -0.5261
  641TMC3     H 9546   3.462   3.538  10.056 -0.2875  0.4317 -0.2869
  641TMC3    H1 9547   3.790   3.809  10.018  1.3306 -0.9049 -1.7097
  641TMC3    H2 9548   3.835   3.394   9.909 -0.5631 -0.5499  0.9762
  641TMC3    C7 9549   3.932   3.636   9.870  0.0566 -0.1264 -0.2601
  641TMC3    C8 9550   3.594   3.317   9.968  0.1788  0.7759  0.2560
  641TMC3    O1 9551   3.939   3.751   9.833 -0.1072 -0.6572 -0.3817
  641TMC3    O2 9552   3.493   3.320   9.900 -0.0344  0.0244 -0.4726
  642TMC3    C1 9553   0.852   4.400  12.250  0.2173  0.1303  0.2141
  642TMC3    C2 9554   0.968   4.422  12.185 -0.0425  0.2218  0.2658
  642TMC3    C3 9555   0.976   4.382  12.054 -0.0835  0.8555 -0.4055
  642TMC3    C4 9556   0.744   4.343  12.183 -0.0483 -0.5661  0.3204
  642TMC3    C5 9557   0.758   4.296  12.049  0.1658 -0.0258 -0.1657
  642TMC3    C6 9558   0.870   4.322  11.987  0.4885  0.4489  0.4214
  642TMC3     C 9559   0.838   4.426  12.393 -0.1752  0.0299  0.3507
  642TMC3     O 9560   0.929   4.494  12.436 -0.0209 -0.0278 -0.3989
  642TMC3     H 9561   1.040   4.488  12.232  1.8702 -0.2001 -2.0639
  642TMC3    H1 9562   0.648   4.327  12.232  0.5446 -1.2495  1.2439
  642TMC3    H2 9563   0.873   4.312  11.879  1.1371 -2.2430  0.7041
  642TMC3    C7 9564   0.640   4.242  11.977 -0.4728  0.6108 -0.0786
  642TMC3    C8 9565   1.096   4.404  11.966 -0.0907  0.7651  0.4957
  642TMC3    O1 9566   0.643   4.244  11.854  0.0286 -0.0940 -0.3138
  642TMC3    O2 9567   1.069   4.408  11.845  0.1157  0.2209 -0.2492
  643TMC3    C1 9568   4.582   3.244   0.219 -0.2872 -0.1443  0.2930
  643TMC3    C2 9569   4.519   3.366   0.218  0.1725 -0.4473  0.1607
  643TMC3    C3 9570   4.562   3.451   0.124 -0.0041 -0.3053 -0.3487
  643TMC3    C4 9571   4.696   3.218   0.144 -0.3499 -0.1867  0.3767
  643TMC3    C5 9572   0.004   3.314   0.064 -0.1167  0.3539  0.0436
  643TMC3    C6 9573   4.670   3.431   0.048 -0.0373  0.4046  0.0497
  643TMC3     C 9574   4.571   3.174   0.345 -0.5091  0.1478 -0.5909
  643TMC3     O 9575   4.466   3.178   0.412  0.1915 -0.3209  0.0235
  643TMC3     H 9576   4.432   3.399   0.273  0.2725  0.0636  0.0177
  643TMC3    H1 9577   0.019   3.128   0.148  0.5258  0.3734 -0.2472
  643TMC3    H2 9578   4.707   3.499  17.719  1.2306  1.2940  1.4518
  643TMC3    C7 9579   0.068   3.279  17.685 -0.0908 -0.2268 -0.1341
  643TMC3    C8 9580   4.501   3.581   0.115  0.4787  0.2548 -0.0921
  643TMC3    O1 9581   0.158   3.346  17.635 -0.5539 -0.2660  0.1305
  643TMC3    O2 9582   4.389   3.590   0.159  0.3236 -0.3332 -0.0963
  644MPD2     C 9583   4.261   4.206   9.771 -0.1167 -0.4480 -0.4747
  644MPD2    C1 9584   4.235   4.072   9.813 -0.3884 -0.1340  0.2025
  644MPD2    C2 9585   4.103   4.027   9.813 -0.1559 -0.4271  0.2106
  644MPD2    C3 9586   3.997   4.114   9.783 -0.3419 -0.4246 -0.6881
  644MPD2    C4 9587   4.027   4.249   9.750 -0.4509  0.4492 -0.1745
  644MPD2    C5 9588   4.154   4.292   9.740  0.0696 -0.5843 -0.7985
  644MPD2     H 9589   4.090   3.922   9.836  0.2135 -0.4773  0.1941
  644MPD2    H1 9590   3.947   4.319   9.730 -1.4064 -0.2322  1.2958
  644MPD2    H2 9591   4.367   4.229   9.776 -0.2578  0.2384 -0.7882
  644MPD2    H3 9592   4.178   4.394   9.714  0.0661 -0.2186  0.5936
  644MPD2     N 9593   3.866   4.059   9.790 -0.3673  0.1735  0.0809
  644MPD2    H5 9594   3.859   3.958   9.792 -0.1575  0.1790  1.5410
  644MPD2    N1 9595   4.348   3.997   9.848 -0.6140  0.0059 -0.4169
  644MPD2    H7 9596   4.442   4.031   9.837  0.4252 -2.3375  1.3015
  645TMC3    C1 9597   3.634   4.053   9.755 -0.0253  0.3743 -0.2543
  645TMC3    C2 9598   3.524   4.122   9.722  0.6089 -0.4777  0.4816
  645TMC3    C3 9599   3.411   4.052   9.694 -0.6775 -0.0171 -0.1141
  645TMC3    C4 9600   3.646   3.916   9.747  0.4046 -0.1510  0.0069
  645TMC3    C5 9601   3.533   3.844   9.714 -0.1502  0.4664  0.1389
  645TMC3    C6 9602   3.411   3.915   9.689 -0.4895 -0.7297 -0.1366
  645TMC3     C 9603   3.753   4.132   9.773  0.7302  0.4703 -0.0448
  645TMC3     O 9604   3.737   4.255   9.763  0.5050  0.3057 -0.3237
  645TMC3     H 9605   3.513   4.228   9.743 -3.7064 -0.7459 -0.3707
  645TMC3    H1 9606   3.735   3.867   9.784  1.1392  0.9135 -0.3392
  645TMC3    H2 9607   3.317   3.867   9.667 -1.4471  0.8833  0.4024
  645TMC3    C7 9608   3.536   3.696   9.690 -0.1093 -0.2781 -0.1201
  645TMC3    C8 9609   3.299   4.140   9.652 -1.0312 -0.3342  1.3759
  645TMC3    O1 9610   3.424   3.639   9.682 -0.0383 -0.1084 -1.0876
  645TMC3    O2 9611   3.327   4.248   9.605 -0.0129 -0.1969  0.7814
  646MPD2     C 9612   4.233   3.381  14.390  0.7402  0.8538 -0.5966
  646MPD2    C1 9613   4.119   3.364  14.456 -0.0799  1.0465 -0.5947
  646MPD2    C2 9614   4.001   3.412  14.397 -1.2371 -0.5210 -0.1944
  646MPD2    C3 9615   4.007   3.497  14.283  0.1531  0.1760 -0.2012
  646MPD2    C4 9616   4.129   3.505  14.221  0.4415  0.5300 -0.1542
  646MPD2    C5 9617   4.243   3.449  14.276 -0.3318 -0.2852  0.2627
  646MPD2     H 9618   3.909   3.405  14.453 -0.7243 -0.3467  0.6781
  646MPD2    H1 9619   4.139   3.578  14.141 -2.4033  0.9781 -0.1006
  646MPD2    H2 9620   4.321   3.330  14.428  1.2882 -0.5747 -3.8372
  646MPD2    H3 9621   4.343   3.468  14.239 -1.3049  1.8358 -1.2849
  646MPD2     N 9622   3.892   3.572  14.248 -0.2276 -0.2182  0.5778
  646MPD2    H5 9623   3.814   3.549  14.309 -2.0370  0.4678 -1.4637
  646MPD2    N1 9624   4.126   3.273  14.561 -0.5121 -0.2784 -0.1440
  646MPD2    H7 9625   4.222   3.240  14.571 -0.8052 -1.3030 -0.6435
  647TMC3    C1 9626   4.090   3.132  14.744  0.2274  0.2955  0.4131
  647TMC3    C2 9627   4.008   3.039  14.800 -0.2817  0.4304 -1.0102
  647TMC3    C3 9628   4.053   2.958  14.901  0.6725  0.6564 -0.0394
  647TMC3    C4 9629   4.218   3.147  14.782 -0.3808  0.0422 -1.0256
  647TMC3    C5 9630   4.261   3.056  14.875 -0.2644 -0.3063 -0.3258
  647TMC3    C6 9631   4.183   2.964  14.937  0.2522  0.0815  0.0648
  647TMC3     C 9632   4.031   3.216  14.637 -0.2987 -0.1129  0.2271
  647TMC3     O 9633   3.908   3.218  14.610 -0.0996 -0.4177 -0.2523
  647TMC3     H 9634   3.906   3.033  14.762  0.2513 -2.2373 -1.9981
  647TMC3    H1 9635   4.281   3.225  14.742  2.7006 -1.0215  1.8059
  647TMC3    H2 9636   4.235   2.884  14.989  1.3597  0.1771 -0.8981
  647TMC3    C7 9637   4.400   3.061  14.913  0.7044  0.2377  0.1247
  647TMC3    C8 9638   3.980   2.849  14.956  0.5186  0.4256  0.1104
  647TMC3    O1 9639   4.427   3.003  15.019 -0.0423  0.0475  0.6108
  647TMC3    O2 9640   4.032   2.806  15.060 -0.0348 -0.6735  0.6317
  648TMC3    C1 9641   3.368   0.669  16.131 -0.6415 -0.5401  0.1871
  648TMC3    C2 9642   3.357   0.544  16.072 -0.4658  0.3391 -0.1795
  648TMC3    C3 9643   3.341   0.534  15.934 -0.2270 -0.7225  0.0738
  648TMC3    C4 9644   3.349   0.781  16.051  0.0258 -0.0034 -0.4520
  648TMC3    C5 9645   3.328   0.759  15.913 -0.1083 -0.1987 -1.0663
  648TMC3    C6 9646   3.320   0.641  15.849  0.2755  0.8444 -0.1750
  648TMC3     C 9647   3.403   0.684  16.266 -0.2236  0.3573 -0.2748
  648TMC3     O 9648   3.378   0.797  16.308  0.6217 -0.2377  0.3697
  648TMC3     H 9649   3.363   0.453  16.131 -0.5729  1.4557  1.5552
  648TMC3    H1 9650   3.368   0.879  16.095 -0.1244  0.1087 -0.6378
  648TMC3    H2 9651   3.302   0.645  15.742  3.8971 -4.6381 -1.0365
  648TMC3    C7 9652   3.315   0.881  15.835  0.3425 -0.3510  0.6295
  648TMC3    C8 9653   3.329   0.395  15.880  0.3052  0.0262  0.3009
  648TMC3    O1 9654   3.325   0.881  15.711  0.0489  0.5068  0.0555
  648TMC3    O2 9655   3.310   0.309  15.963  0.0934  0.8908  0.8387
  649TMC3    C1 9656   1.689   1.920  12.889  0.1859 -0.9569 -0.3583
  649TMC3    C2 9657   1.694   1.854  12.765 -0.3595 -0.4072  0.1546
  649TMC3    C3 9658   1.708   1.718  12.770  0.3785  0.1785 -0.2744
  649TMC3    C4 9659   1.696   1.844  13.007  0.0838  0.0029 -0.1374
  649TMC3    C5 9660   1.686   1.711  13.000  0.1276 -0.6325 -0.2412
  649TMC3    C6 9661   1.698   1.641  12.883  0.1546 -0.8129  0.6692
  649TMC3     C 9662   1.655   2.059  12.893 -0.3192 -0.8286 -0.1268
  649TMC3     O 9663   1.582   2.086  12.988  1.0129  0.0828  0.8862
  649TMC3     H 9664   1.669   1.901  12.670  1.6753 -2.0374 -1.2047
  649TMC3    H1 9665   1.710   1.897  13.101  2.6952  1.5605 -1.3985
  649TMC3    H2 9666   1.692   1.533  12.881 -1.9826 -0.6730  0.3644
  649TMC3    C7 9667   1.683   1.642  13.122 -0.3488  0.1312  0.5128
  649TMC3    C8 9668   1.704   1.652  12.646 -0.4659 -0.0268  0.3954
  649TMC3    O1 9669   1.696   1.715  13.221 -0.0334 -0.2717  0.2049
  649TMC3    O2 9670   1.640   1.702  12.554 -0.0545  0.9887  0.5120
  650TMC3    C1 9671   0.126   3.182  12.451  1.5421 -0.4165 -0.4288
  650TMC3    C2 9672   0.089   3.213  12.581  0.0670  0.0691 -0.5275
  650TMC3    C3 9673   0.007   3.321  12.591 -0.8047  0.0722 -0.3069
  650TMC3    C4 9674   0.083   3.243  12.342 -0.1662  0.7576 -0.2905
  650TMC3    C5 9675   0.011   3.350  12.354 -0.2739  0.4528  0.3429
  650TMC3    C6 9676   4.707   3.391  12.479  0.1357 -0.2596 -0.4046
  650TMC3     C 9677   0.188   3.058  12.413  0.5994  0.4922 -0.4134
  650TMC3     O 9678   0.242   3.048  12.301 -0.1516  0.9706  0.1888
  650TMC3     H 9679   0.138   3.177  12.670 -0.2071  1.6928  0.2806
  650TMC3    H1 9680   0.114   3.213  12.243  1.8993  0.3293  0.4849
  650TMC3    H2 9681   4.666   3.491  12.493  0.0021 -0.6019  1.5967
  650TMC3    C7 9682   0.003   3.447  12.249  0.0053  0.6739  0.0012
  650TMC3    C8 9683   0.025   3.410  12.704  0.0665  0.4618 -0.5102
  650TMC3    O1 9684   4.717   3.402  12.140 -0.1568 -0.1681  0.4617
  650TMC3    O2 9685   0.138   3.455  12.723  0.2369 -0.4828  0.2347
  651MPD2     C 9686   3.629   0.438  10.573 -0.0634 -0.1351  0.7792
  651MPD2    C1 9687   3.571   0.551  10.630  1.6838  0.2302  0.0638
  651MPD2    C2 9688   3.658   0.649  10.661  0.4399  0.7756  0.6971
  651MPD2    C3 9689   3.790   0.646  10.628 -0.0175 -0.1976 -0.0363
  651MPD2    C4 9690   3.849   0.540  10.565 -0.5179 -0.2412 -0.7486
  651MPD2    C5 9691   3.764   0.438  10.535  0.9323 -0.1811 -0.5550
  651MPD2     H 9692   3.618   0.725  10.727  0.4865  1.0180  0.4467
  651MPD2    H1 9693   3.955   0.526  10.545 -0.2879  0.3940  0.0341
  651MPD2    H2 9694   3.577   0.345  10.549 -2.5075  0.5360  3.4896
  651MPD2    H3 9695   3.805   0.355  10.478 -2.6446 -1.0624 -1.7904
  651MPD2     N 9696   3.857   0.762  10.676 -0.0225 -0.3136 -0.0606
  651MPD2    H5 9697   3.798   0.833  10.716 -1.4250 -1.5445  0.0404
  651MPD2    N1 9698   3.442   0.563  10.678  0.0544 -0.1388  0.4951
  651MPD2    H7 9699   3.410   0.653  10.713  0.6916  0.5137 -0.6363
  652TMC3    C1 9700   4.111   1.026  10.924  0.3704  0.0584 -0.6069
  652TMC3    C2 9701   4.115   0.917  10.848 -0.8674 -0.0200  0.0067
  652TMC3    C3 9702   4.027   0.905  10.741  0.1561  0.5089  0.0492
  652TMC3    C4 9703   4.023   1.128  10.903  0.2531 -0.1036  0.2008
  652TMC3    C5 9704   3.945   1.123  10.788  0.1796  0.1440 -0.7560
  652TMC3    C6 9705   3.945   1.009  10.714  0.0660 -0.3336  0.5763
  652TMC3     C 9706   4.208   1.047  11.035  0.5970 -0.1732  0.1206
  652TMC3     O 9707   4.277   0.950  11.063 -0.3403 -0.4253 -0.8009
  652TMC3     H 9708   4.171   0.830  10.880  1.1970  0.0267 -3.4653
  652TMC3    H1 9709   4.002   1.193  10.987  0.9999  1.0689 -0.5300
  652TMC3    H2 9710   3.881   1.003  10.627 -1.4076  2.8933  1.4475
  652TMC3    C7 9711   3.820   1.195  10.796 -0.2791 -0.7278 -0.0552
  652TMC3    C8 9712   3.994   0.775  10.682 -0.0556 -0.2078  0.7118
  652TMC3    O1 9713   3.726   1.133  10.753  0.5351  0.1789 -0.4588
  652TMC3    O2 9714   4.085   0.703  10.664  0.1236 -0.3724  0.1819
  653MPD2     C 9715   2.774   0.533   0.141 -0.1402 -0.7001 -0.1820
  653MPD2    C1 9716   2.756   0.642   0.056 -0.2223 -0.4627 -0.5308
  653MPD2    C2 9717   2.681   0.612  17.685  0.7389 -0.7049  0.2179
  653MPD2    C3 9718   2.646   0.485  17.653 -0.0048  1.1078 -0.9524
  653MPD2    C4 9719   2.665   0.380  17.740 -0.1146  0.4614 -0.2404
  653MPD2    C5 9720   2.732   0.409   0.111  0.0260 -0.3770 -0.0262
  653MPD2     H 9721   2.654   0.683  17.608  0.7940 -0.5056  0.3826
  653MPD2    H1 9722   2.647   0.276  17.718 -1.7626  0.9814 -1.3160
  653MPD2    H2 9723   2.837   0.531   0.229  1.0454 -0.8754 -1.0368
  653MPD2    H3 9724   2.761   0.334   0.184  0.3537 -1.2678 -1.0593
  653MPD2     N 9725   2.576   0.467  17.539 -0.2445  0.5690  0.3368
  653MPD2    H5 9726   2.570   0.554  17.486  0.8808 -1.5216 -3.2175
  653MPD2    N1 9727   2.792   0.769   0.099  0.2766 -0.7886 -0.1689
  653MPD2    H7 9728   2.837   0.783   0.189 -1.6973  0.1400  0.6670
  654TMC3    C1 9729   2.530   0.366  17.336 -0.4792 -0.0893  0.2783
  654TMC3    C2 9730   2.461   0.485  17.311 -0.0070 -0.3053  0.1712
  654TMC3    C3 9731   2.440   0.514  17.180  0.0967  0.4468  0.0219
  654TMC3    C4 9732   2.583   0.282  17.235  0.4784 -0.3217  0.7252
  654TMC3    C5 9733   2.547   0.313  17.109  0.0700  0.4994 -0.3049
  654TMC3    C6 9734   2.489   0.438  17.076 -0.4806 -0.4854 -0.4589
  654TMC3     C 9735   2.575   0.347  17.470 -0.4962 -0.0043 -0.0122
  654TMC3     O 9736   2.587   0.229  17.502  0.1950  0.6181 -0.2670
  654TMC3     H 9737   2.409   0.537  17.390  1.5082  0.4791  0.6539
  654TMC3    H1 9738   2.649   0.200  17.260 -0.1899 -0.3187  2.5227
  654TMC3    H2 9739   2.454   0.459  16.975  1.9988  0.5065 -1.1108
  654TMC3    C7 9740   2.550   0.219  17.003 -0.4318 -1.2551 -0.3690
  654TMC3    C8 9741   2.335   0.612  17.146  0.1020  0.1061  0.6129
  654TMC3    O1 9742   2.537   0.256  16.886 -0.7232  0.2095  0.5118
  654TMC3    O2 9743   2.269   0.580  17.051 -0.1328 -0.2441  0.9570
  655MPD2     C 9744   3.950   0.696  15.596  0.3584  0.2104 -0.0618
  655MPD2    C1 9745   3.918   0.814  15.528 -0.3362 -0.2962 -0.1185
  655MPD2    C2 9746   3.916   0.805  15.392  0.0638  0.1799 -0.2343
  655MPD2    C3 9747   3.946   0.688  15.326 -0.5202 -0.2369 -0.3487
  655MPD2    C4 9748   3.989   0.573  15.393  0.0584 -0.0247  0.0773
  655MPD2    C5 9749   3.985   0.583  15.529 -0.0343  0.3817 -0.4626
  655MPD2     H 9750   3.881   0.887  15.332  1.5843 -0.9710 -2.6938
  655MPD2    H1 9751   4.016   0.486  15.336 -0.2232  0.1967 -0.3958
  655MPD2    H2 9752   3.950   0.684  15.704  0.1603 -0.3829 -0.1309
  655MPD2    H3 9753   4.019   0.497  15.586  0.7789  2.0869  1.6662
  655MPD2     N 9754   3.935   0.671  15.185 -0.0046 -0.0037 -0.5256
  655MPD2    H5 9755   3.945   0.574  15.157 -2.1950 -0.4789  0.3612
  655MPD2    N1 9756   3.885   0.937  15.591  0.4132 -0.1777 -0.2208
  655MPD2    H7 9757   3.863   1.013  15.527 -2.7819 -0.0088  1.0955
  656TMC3    C1 9758   3.819   1.080  15.756  0.0599 -0.6567  0.6098
  656TMC3    C2 9759   3.748   1.077  15.876  0.8077  0.2518  0.5729
  656TMC3    C3 9760   3.668   1.185  15.901  1.1268 -0.2414 -0.3095
  656TMC3    C4 9761   3.815   1.186  15.660  0.3613 -0.3825  0.6556
  656TMC3    C5 9762   3.734   1.296  15.697 -0.5933  0.4744  0.1225
  656TMC3    C6 9763   3.664   1.297  15.814 -1.3453 -0.0762 -0.0141
  656TMC3     C 9764   3.874   0.952  15.720 -0.0212  0.0096 -0.1799
  656TMC3     O 9765   3.900   0.875  15.814 -0.0930 -0.1864 -0.2160
  656TMC3     H 9766   3.755   0.994  15.946 -2.0744 -0.5323 -0.0484
  656TMC3    H1 9767   3.856   1.186  15.559 -3.5166 -2.9106 -0.9054
  656TMC3    H2 9768   3.589   1.374  15.827  0.1627  1.6111 -1.2020
  656TMC3    C7 9769   3.699   1.386  15.594 -0.3393 -0.3130 -0.5715
  656TMC3    C8 9770   3.581   1.183  16.020 -0.0150 -0.2241 -0.4914
  656TMC3    O1 9771   3.715   1.347  15.477  0.1599  0.1395 -0.2509
  656TMC3    O2 9772   3.560   1.071  16.064 -0.1907  0.9001  0.0964
  657TMC3    C1 9773   2.660   3.951  14.831  0.1248 -0.8201  1.0115
  657TMC3    C2 9774   2.711   4.062  14.894  0.0784  0.6940 -0.4232
  657TMC3    C3 9775   2.722   4.175  14.817  0.5747  0.2113  0.2937
  657TMC3    C4 9776   2.629   3.943  14.698 -0.6721 -0.0108 -0.3745
  657TMC3    C5 9777   2.640   4.054  14.622  0.0538 -0.0602 -0.1745
  657TMC3    C6 9778   2.696   4.167  14.684 -0.2076  0.8595  0.6324
  657TMC3     C 9779   2.692   3.823  14.893 -0.0764  0.0948 -0.6966
  657TMC3     O 9780   2.610   3.734  14.875 -0.5002 -0.1676 -0.3103
  657TMC3     H 9781   2.710   4.055  15.002 -1.2737  0.8761 -0.4279
  657TMC3    H1 9782   2.597   3.847  14.659  0.0872 -0.9732  1.4027
  657TMC3    H2 9783   2.688   4.263  14.634  1.7589  0.3007 -0.7225
  657TMC3    C7 9784   2.677   4.030  14.481 -0.7713  1.0023 -0.1183
  657TMC3    C8 9785   2.708   4.298  14.880  0.8621  0.3946 -0.2033
  657TMC3    O1 9786   2.766   4.103  14.440  0.0427  0.4247 -0.5410
  657TMC3    O2 9787   2.632   4.375  14.822  0.5492 -0.0702 -0.3285
  658MPD2     C 9788   4.042   1.088  14.575 -0.0500  1.3051  0.0129
  658MPD2    C1 9789   3.950   0.997  14.532 -0.6277  0.0440  0.4374
  658MPD2    C2 9790   3.909   1.006  14.400 -0.4046  0.4860 -0.0240
  658MPD2    C3 9791   3.959   1.106  14.321  0.0029  0.6776 -0.1848
  658MPD2    C4 9792   4.050   1.198  14.367  0.7444  0.1176 -0.2351
  658MPD2    C5 9793   4.096   1.184  14.492 -0.4135  0.0282 -0.2730
  658MPD2     H 9794   3.847   0.928  14.357 -0.1467 -0.1750  0.7880
  658MPD2    H1 9795   4.098   1.270  14.302  1.1330  0.6191  0.6229
  658MPD2    H2 9796   4.064   1.085  14.681  0.1965  2.9530  0.0118
  658MPD2    H3 9797   4.163   1.257  14.535 -2.0198  2.5551 -2.0467
  658MPD2     N 9798   3.913   1.096  14.190 -0.1007  0.0238 -0.1512
  658MPD2    H5 9799   3.839   1.034  14.157  0.4774  0.7904 -2.9247
  658MPD2    N1 9800   3.906   0.900  14.628 -0.3644  0.7734 -0.0585
  658MPD2    H7 9801   3.971   0.888  14.705 -0.9808  1.0120  0.4988
  659TMC3    C1 9802   3.816   0.720  14.746  0.5267  0.0808 -0.2916
  659TMC3    C2 9803   3.873   0.770  14.858  0.3770 -0.3085 -0.0731
  659TMC3    C3 9804   3.868   0.702  14.975 -0.1388 -0.1027  0.0435
  659TMC3    C4 9805   3.751   0.599  14.748 -0.3230 -0.4876  0.2512
  659TMC3    C5 9806   3.750   0.531  14.871  0.2139 -0.1636 -0.0022
  659TMC3    C6 9807   3.811   0.577  14.983 -0.5116 -0.0691 -0.0256
  659TMC3     C 9808   3.818   0.795  14.624  0.1275  0.3206 -0.7950
  659TMC3     O 9809   3.744   0.762  14.535  0.3988 -0.1581 -0.2513
  659TMC3     H 9810   3.922   0.868  14.857  0.9083 -0.5764 -0.4790
  659TMC3    H1 9811   3.723   0.547  14.657  1.0066 -1.4387  0.3902
  659TMC3    H2 9812   3.782   0.534  15.078 -1.9346 -0.7264 -0.7542
  659TMC3    C7 9813   3.638   0.443  14.897  0.0690 -0.4296  0.5925
  659TMC3    C8 9814   3.906   0.772  15.096  0.2585 -0.2072  0.3300
  659TMC3    O1 9815   3.632   0.369  14.996 -0.0417  0.2328 -0.1345
  659TMC3    O2 9816   3.933   0.887  15.113 -0.4846  0.3022  0.3566
  660MPD2     C 9817   2.143   4.409  12.548 -0.1843 -0.3099 -0.8381
  660MPD2    C1 9818   2.014   4.452  12.528  0.9783  0.2405 -0.4688
  660MPD2    C2 9819   1.913   4.428  12.626  0.2725 -0.2073 -0.2543
  660MPD2    C3 9820   1.946   4.360  12.739 -0.6005 -0.0166  0.0480
  660MPD2    C4 9821   2.083   4.332  12.767  0.3459  0.7876  0.2329
  660MPD2    C5 9822   2.176   4.346  12.668  0.1212  1.2183  0.3595
  660MPD2     H 9823   1.812   4.455  12.598  0.6650  1.9882  0.4673
  660MPD2    H1 9824   2.100   4.271  12.855  0.4754  1.9245  0.9867
  660MPD2    H2 9825   2.219   4.413  12.472 -0.7246  2.3824 -1.2166
  660MPD2    H3 9826   2.278   4.317  12.691 -0.4632  0.1420  1.5534
  660MPD2     N 9827   1.849   4.331  12.836 -0.2903  0.0857  0.4326
  660MPD2    H5 9828   1.875   4.310  12.932 -0.1620 -1.7768 -0.0198
  660MPD2    N1 9829   1.994   4.528  12.414  0.0689 -0.4414 -0.4817
  660MPD2    H7 9830   2.074   4.543  12.354  0.5248  0.0611  0.2523
  661TMC3    C1 9831   1.886   4.676  12.259  1.0022 -0.2099  0.4602
  661TMC3    C2 9832   2.007   4.720  12.221 -0.6434 -0.4943  0.2021
  661TMC3    C3 9833   2.011   0.100  12.145 -0.3076 -1.1778 -0.3373
  661TMC3    C4 9834   1.767   0.004  12.233 -0.3238 -0.3214 -0.5860
  661TMC3    C5 9835   1.777   0.123  12.161  0.5019  0.3246  0.2489
  661TMC3    C6 9836   1.898   0.170  12.107  0.1212  0.4907  0.2391
  661TMC3     C 9837   1.873   4.569  12.359  0.0604 -0.7288 -0.3404
  661TMC3     O 9838   1.759   4.544  12.399  0.1219 -0.3891  0.2078
  661TMC3     H 9839   2.101   4.668  12.234 -1.3615 -1.2793  2.2068
  661TMC3    H1 9840   1.674   4.699  12.271  0.0830 -1.5932 -1.0118
  661TMC3    H2 9841   1.901   0.262  12.050 -0.7955  0.3311 -0.0564
  661TMC3    C7 9842   1.651   0.184  12.125  0.5798  0.1020 -0.1822
  661TMC3    C8 9843   2.137   0.157  12.109 -0.5647 -0.3901  0.0124
  661TMC3    O1 9844   1.634   0.303  12.155 -0.0027 -0.4021  0.2941
  661TMC3    O2 9845   2.234   0.141  12.180  0.2700  0.6317  0.1037
  662MPD2     C 9846   2.239   4.286  17.148  0.4077 -0.2086 -0.7346
  662MPD2    C1 9847   2.191   4.168  17.198  0.6631 -0.4901 -0.2772
  662MPD2    C2 9848   2.100   4.153  17.303 -0.0927  0.3932 -0.6490
  662MPD2    C3 9849   2.069   4.270  17.367 -0.4140  0.2101 -0.5036
  662MPD2    C4 9850   2.115   4.395  17.320 -0.4401  0.5356 -0.1864
  662MPD2    C5 9851   2.198   4.398  17.218  0.6256 -0.7426 -0.0582
  662MPD2     H 9852   2.059   4.058  17.334  2.1257 -0.2637  0.2756
  662MPD2    H1 9853   2.093   4.491  17.364 -2.0109  0.1007  0.0160
  662MPD2    H2 9854   2.299   4.303  17.059  1.6295  1.5685  0.4373
  662MPD2    H3 9855   2.221   4.491  17.169 -1.1497 -1.8532 -2.9613
  662MPD2     N 9856   1.992   4.270  17.486 -0.3431  0.6593 -0.4721
  662MPD2    H5 9857   1.974   4.355  17.537 -1.1261  0.9447 -1.2118
  662MPD2    N1 9858   2.232   4.056  17.127  0.0214 -0.4051 -0.5239
  662MPD2    H7 9859   2.310   4.058  17.062 -1.2072 -0.3759 -1.9987
  663TMC3    C1 9860   2.217   3.827  17.093 -0.3706  0.0428  0.3759
  663TMC3    C2 9861   2.288   3.787  17.208  0.5619  0.1038 -0.0268
  663TMC3    C3 9862   2.248   3.676  17.275  0.3713 -0.3752 -0.2521
  663TMC3    C4 9863   2.136   3.733  17.037  0.6194 -0.3883 -0.1742
  663TMC3    C5 9864   2.138   3.602  17.082  0.0568 -0.1547 -0.3607
  663TMC3    C6 9865   2.211   3.569  17.196 -0.3361  0.2061  0.4867
  663TMC3     C 9866   2.149   3.949  17.108 -0.1584  0.6874 -0.3629
  663TMC3     O 9867   2.029   3.942  17.119 -0.5643 -0.5683  0.1388
  663TMC3     H 9868   2.335   3.866  17.265  3.4144 -0.3984 -1.6948
  663TMC3    H1 9869   2.061   3.769  16.967  0.1321 -0.1599  0.4647
  663TMC3    H2 9870   2.185   3.480  17.251 -1.9099  0.6773  0.5012
  663TMC3    C7 9871   2.061   3.499  17.018 -0.2871  0.3177 -0.5877
  663TMC3    C8 9872   2.332   3.638  17.390  0.8615  0.1290  0.6037
  663TMC3    O1 9873   1.974   3.536  16.942  0.1737  0.7667 -0.0381
  663TMC3    O2 9874   2.357   3.518  17.399 -0.6680 -0.3827 -0.2048
  664MPD2     C 9875   4.602   2.332  17.641  0.0358 -0.1900 -0.2496
  664MPD2    C1 9876   4.716   2.334  17.720  0.3254  0.5738  0.0004
  664MPD2    C2 9877   0.010   2.241   0.069 -0.6176 -0.3744 -0.5757
  664MPD2    C3 9878   4.656   2.143   0.096  0.1926  0.3738 -0.1354
  664MPD2    C4 9879   4.543   2.129   0.011 -0.2864 -0.8988 -0.0254
  664MPD2    C5 9880   4.523   2.226  17.665 -0.2020  0.2981  0.3800
  664MPD2     H 9881   0.110   2.248   0.110 -1.6588  0.0487  1.8736
  664MPD2    H1 9882   4.480   2.040   0.008  1.4707 -2.1937  1.3516
  664MPD2    H2 9883   4.578   2.408  17.567 -0.2126  1.7701  1.8364
  664MPD2    H3 9884   4.442   2.203  17.597  0.0452 -0.1623  0.2403
  664MPD2     N 9885   4.686   2.043   0.192 -0.2662 -0.2168 -0.3731
  664MPD2    H5 9886   0.025   2.062   0.255  0.3415  0.2114 -1.2376
  664MPD2    N1 9887   0.074   2.434  17.708 -0.6816  0.1576  0.7826
  664MPD2    H7 9888   0.160   2.417   0.012  1.1403  0.3038 -2.1809
  665TMC3    C1 9889   4.696   1.845   0.306 -0.0330 -0.3360  0.1971
  665TMC3    C2 9890   4.627   1.790   0.409  0.7231 -0.0134 -0.4979
  665TMC3    C3 9891   4.699   1.771   0.523  0.7951 -0.8720  0.2568
  665TMC3    C4 9892   0.093   1.872   0.307  0.1849 -0.3789 -0.2996
  665TMC3    C5 9893   0.162   1.848   0.426  0.8213  0.3970 -0.1967
  665TMC3    C6 9894   0.092   1.798   0.535  0.6366  0.1211 -0.0426
  665TMC3     C 9895   4.616   1.928   0.219  0.0777  0.4816 -0.5255
  665TMC3     O 9896   4.511   1.882   0.179  0.1579  0.0600 -0.2299
  665TMC3     H 9897   4.522   1.764   0.411  0.5718  0.6503  0.8039
  665TMC3    H1 9898   0.140   1.911   0.217  0.6019 -0.9599 -0.3333
  665TMC3    H2 9899   0.133   1.799   0.636  1.7851  1.5437 -0.5257
  665TMC3    C7 9900   0.293   1.910   0.437  0.6756  0.3893 -0.1419
  665TMC3    C8 9901   4.622   1.739   0.647  0.3321  0.1661  0.0885
  665TMC3    O1 9902   0.361   1.921   0.338 -0.3667 -0.2011  0.2731
  665TMC3    O2 9903   4.497   1.762   0.639 -0.2037  0.5239  0.0322
  666TMC3    C1 9904   3.235   2.509  10.392 -0.5257 -0.6341  0.0875
  666TMC3    C2 9905   3.318   2.422  10.454 -0.4819 -0.3959 -0.1804
  666TMC3    C3 9906   3.429   2.471  10.521  0.3444 -0.5398 -0.2309
  666TMC3    C4 9907   3.271   2.643  10.377  0.1923 -0.2816 -0.0285
  666TMC3    C5 9908   3.392   2.685  10.427 -0.5119 -0.7832  0.3153
  666TMC3    C6 9909   3.472   2.602  10.498 -0.0402 -0.4819  0.0243
  666TMC3     C 9910   3.123   2.474  10.309 -0.0035 -0.7331  0.5646
  666TMC3     O 9911   3.046   2.565  10.277  0.0133  0.1983 -0.2959
  666TMC3     H 9912   3.297   2.317  10.471  0.3435 -0.3123  1.4503
  666TMC3    H1 9913   3.203   2.717  10.335  0.6679  1.2664  1.9304
  666TMC3    H2 9914   3.572   2.636  10.522 -0.0740 -1.4375  1.5040
  666TMC3    C7 9915   3.438   2.821  10.402  0.1298  0.7054 -0.2389
  666TMC3    C8 9916   3.464   2.415  10.642 -0.5681 -0.0775 -0.6797
  666TMC3    O1 9917   3.504   2.877  10.490  0.0951  0.5857  0.0432
  666TMC3    O2 9918   3.449   2.295  10.655 -0.6771  0.3541 -0.2042
  667MPD2     C 9919   1.237   2.482  14.655 -0.2155  0.2779  0.1968
  667MPD2    C1 9920   1.179   2.531  14.772 -0.0460 -0.0785  0.6957
  667MPD2    C2 9921   1.065   2.463  14.816  0.2020  0.0041 -0.1198
  667MPD2    C3 9922   1.006   2.357  14.745 -0.4143  0.1606 -0.4040
  667MPD2    C4 9923   1.057   2.315  14.625 -0.5918 -0.1551  0.1662
  667MPD2    C5 9924   1.180   2.372  14.590 -0.0902 -0.0628  0.8044
  667MPD2     H 9925   1.021   2.495  14.910  2.1994  1.4195  0.3292
  667MPD2    H1 9926   1.014   2.232  14.569  0.1739  1.4992 -2.8962
  667MPD2    H2 9927   1.324   2.527  14.607 -1.7132  4.1170  1.1013
  667MPD2    H3 9928   1.240   2.333  14.509  0.8359  0.9587  0.9839
  667MPD2     N 9929   0.898   2.284  14.790 -0.1795 -0.0618 -0.2792
  667MPD2    H5 9930   0.856   2.224  14.720 -2.1555  0.9111  0.0555
  667MPD2    N1 9931   1.223   2.646  14.838 -0.7294 -0.7261  0.2683
  667MPD2    H7 9932   1.167   2.670  14.919  2.4740 -0.1377  2.2793
  668TMC3    C1 9933   1.333   2.836  14.899  0.0951  0.3627 -0.3550
  668TMC3    C2 9934   1.421   2.937  14.866 -0.1648 -0.0078  0.0782
  668TMC3    C3 9935   1.426   3.045  14.949 -0.0594  0.2768 -0.6875
  668TMC3    C4 9936   1.252   2.839  15.008 -0.3167  0.1371  0.1140
  668TMC3    C5 9937   1.277   2.946  15.095  0.4627  0.3597 -0.1732
  668TMC3    C6 9938   1.358   3.048  15.063 -0.9015  0.4824 -0.3020
  668TMC3     C 9939   1.332   2.723  14.804  0.5385 -0.5106 -0.7990
  668TMC3     O 9940   1.410   2.718  14.714 -0.0774  0.1813  0.1166
  668TMC3     H 9941   1.473   2.934  14.770  1.3877 -0.0370  0.9218
  668TMC3    H1 9942   1.208   2.748  15.048 -0.5928  0.0944 -0.2823
  668TMC3    H2 9943   1.370   3.134  15.128  0.2293  0.1923 -0.1178
  668TMC3    C7 9944   1.240   2.942  15.238  0.3249  0.3769  0.1313
  668TMC3    C8 9945   1.499   3.169  14.913  0.1252 -0.2097 -0.2745
  668TMC3    O1 9946   1.319   3.001  15.311  0.2052 -0.2936 -0.0351
  668TMC3    O2 9947   1.467   3.271  14.970  0.2603  0.4368  0.3394
  669TMC3    C1 9948   4.079   2.276  14.798  0.2145  0.2772  0.5865
  669TMC3    C2 9949   3.955   2.274  14.745  0.6913 -0.4019 -0.1605
  669TMC3    C3 9950   3.911   2.389  14.691 -0.1602 -0.3407 -0.5285
  669TMC3    C4 9951   4.145   2.391  14.808  0.0722  0.1611  0.6407
  669TMC3    C5 9952   4.094   2.506  14.762  0.5502 -0.7323 -0.7169
  669TMC3    C6 9953   3.978   2.507  14.688 -0.2512 -0.1065 -0.8482
  669TMC3     C 9954   4.116   2.175  14.893  0.0209 -1.0073 -0.1148
  669TMC3     O 9955   4.018   2.118  14.944  0.3607 -0.0588  0.6287
  669TMC3     H 9956   3.915   2.174  14.745  1.5034 -0.7256 -0.7633
  669TMC3    H1 9957   4.245   2.371  14.846  0.6651  0.8492 -0.5468
  669TMC3    H2 9958   3.953   2.596  14.632  1.3026  0.2180 -1.0475
  669TMC3    C7 9959   4.190   2.608  14.734 -0.3635  0.4088  0.4133
  669TMC3    C8 9960   3.788   2.365  14.625  0.0164 -0.1066 -0.2665
  669TMC3    O1 9961   4.167   2.678  14.638 -0.4286 -0.6317  0.3446
  669TMC3    O2 9962   3.760   2.247  14.623  0.0445 -0.5763  0.2709
  670MPD2     C 9963   1.849   4.618  13.468  0.8992  0.4085 -0.0051
  670MPD2    C1 9964   1.958   4.608  13.555 -0.5833 -0.0076 -0.5725
  670MPD2    C2 9965   1.927   4.556  13.681  0.3731  0.1069  0.0017
  670MPD2    C3 9966   1.797   4.533  13.733  0.8933 -0.2113 -0.4084
  670MPD2    C4 9967   1.696   4.555  13.645  0.3802 -0.6558 -0.0616
  670MPD2    C5 9968   1.723   4.595  13.516 -0.2253  0.3535  0.5484
  670MPD2     H 9969   2.005   4.542  13.756  2.0653  0.0097 -1.7722
  670MPD2    H1 9970   1.592   4.535  13.668  0.0176  0.1233 -1.0383
  670MPD2    H2 9971   1.867   4.638  13.363  2.0991  3.1516  0.7086
  670MPD2    H3 9972   1.636   4.601  13.451 -0.4675  0.5053  0.8873
  670MPD2     N 9973   1.780   4.470  13.859  0.9646 -0.2027  0.1439
  670MPD2    H5 9974   1.863   4.461  13.916  0.3628 -1.2094  0.8527
  670MPD2    N1 9975   2.083   4.651  13.510 -0.1567 -0.1854 -0.6162
  670MPD2    H7 9976   2.082   4.690  13.416 -1.4095  1.1602 -0.0570
  671TMC3    C1 9977   1.677   4.399  14.055 -0.4009  0.5311 -0.4033
  671TMC3    C2 9978   1.799   4.405  14.119  0.3245 -0.0214  0.1974
  671TMC3    C3 9979   1.806   4.334  14.233  0.2966  1.1636  1.0282
  671TMC3    C4 9980   1.570   4.336  14.121  0.0871  0.1369  0.3151
  671TMC3    C5 9981   1.593   4.244  14.213 -0.0425 -0.4892 -0.3994
  671TMC3    C6 9982   1.710   4.248  14.284  0.2093  0.1153 -0.1758
  671TMC3     C 9983   1.657   4.437  13.914 -0.2790 -0.3855 -0.8617
  671TMC3     O 9984   1.544   4.439  13.864 -0.7326 -0.4527 -0.0062
  671TMC3     H 9985   1.866   4.487  14.094  0.4806 -0.3589 -0.4989
  671TMC3    H1 9986   1.475   4.335  14.069  0.0576  0.6596  0.3599
  671TMC3    H2 9987   1.723   4.184  14.371  0.3716 -0.4233 -0.6001
  671TMC3    C7 9988   1.569   4.109  14.161  0.4090 -0.0085 -0.4313
  671TMC3    C8 9989   1.927   4.334  14.310 -0.1099 -0.0998  0.4451
  671TMC3    O1 9990   1.673   4.055  14.128 -0.4264  0.1140 -0.3532
  671TMC3    O2 9991   1.905   4.306  14.427  0.3862  0.4413  0.1421
  672MPD2     C 9992   3.357   0.167   0.468 -1.0563 -0.1500  0.2247
  672MPD2    C1 9993   3.224   0.169   0.501  0.8187  0.0021 -0.0584
  672MPD2    C2 9994   3.189   0.207   0.630 -0.0567 -0.2291  0.6175
  672MPD2    C3 9995   3.285   0.268   0.712 -0.3021  0.1273  0.6435
  672MPD2    C4 9996   3.419   0.261   0.679 -0.1850  0.6613 -0.0654
  672MPD2    C5 9997   3.458   0.211   0.551 -0.7146 -0.1271  0.2486
  672MPD2     H 9998   3.090   0.196   0.671 -0.2842  1.1465  0.4282
  672MPD2    H1 9999   3.499   0.317   0.726 -0.0157  1.5401 -1.4042
  672MPD2    H210000   3.381   0.140   0.366  4.0354 -0.1907  1.4042
  672MPD2    H310001   3.559   0.220   0.512  0.1182  1.7321  2.8559
  672MPD2     N10002   3.260   0.322   0.841  0.0222  0.0173 -0.1038
  672MPD2    H510003   3.339   0.361   0.892 -0.2617  1.9221 -1.1275
  672MPD2    N110004   3.133   0.094   0.418 -0.3233  0.2827  0.4630
  672MPD2    H710005   3.172   0.037   0.344  0.0051  1.7195 -0.4650
  673TMC3    C110006   2.938   4.720   0.375  0.0778 -0.8631 -0.3176
  673TMC3    C210007   3.004   4.598   0.370 -0.2637  0.2862 -0.7397
  673TMC3    C310008   2.951   4.502   0.299  0.5597 -0.1890  0.5781
  673TMC3    C410009   2.810   4.731   0.327 -0.4845 -0.7928 -0.1169
  673TMC3    C510010   2.755   4.633   0.253  0.5098 -0.2192  0.0342
  673TMC3    C610011   2.820   4.508   0.242 -0.0481  0.2212 -0.6692
  673TMC3     C10012   3.002   0.100   0.431 -0.6070 -0.1059 -0.3660
  673TMC3     O10013   2.928   0.175   0.490 -0.0386 -0.5270 -0.1624
  673TMC3     H10014   3.100   4.594   0.420 -0.3073  0.9492 -0.5973
  673TMC3    H110015   2.768   0.094   0.330  0.1153 -0.5779  1.1328
  673TMC3    H210016   2.783   4.426   0.180  0.0286  0.2918 -0.8083
  673TMC3    C710017   2.622   4.663   0.195  0.0802  0.2661 -0.4647
  673TMC3    C810018   3.010   4.367   0.302  0.3352  0.3272 -0.2645
  673TMC3    O110019   2.596   4.593   0.098 -0.2646  0.3251  0.1445
  673TMC3    O210020   2.974   4.281   0.227  0.2230  0.3534  0.1716
  674MPD2     C10021   2.145   0.328  17.383 -0.1289 -0.2472 -1.2590
  674MPD2    C110022   2.116   0.233  17.479 -0.1760  0.1623  0.0316
  674MPD2    C210023   2.037   0.287  17.581  0.5710  0.4480 -0.1419
  674MPD2    C310024   2.009   0.422  17.594 -0.4275  0.1623 -0.7507
  674MPD2    C410025   2.060   0.511  17.500  0.4084 -0.1125  0.2304
  674MPD2    C510026   2.118   0.458  17.390 -0.0980 -0.0942  0.6228
  674MPD2     H10027   1.995   0.224  17.658  2.4984  1.7633  1.9875
  674MPD2    H110028   2.035   0.616  17.503 -0.1833 -0.1801 -2.6740
  674MPD2    H210029   2.189   0.301  17.287 -2.2886 -2.1495 -1.7018
  674MPD2    H310030   2.142   0.522  17.306  0.0594  1.5430  1.8980
  674MPD2     N10031   1.919   0.452  17.696  0.2127  0.4748 -0.0415
  674MPD2    H510032   1.868   0.370  17.728  2.1672 -0.8738 -0.3754
  674MPD2    N110033   2.158   0.098  17.481  0.9335  0.0125 -0.5221
  674MPD2    H710034   2.128   0.043  17.561  0.4992 -0.4127 -0.9722
  675TMC3    C110035   2.321   4.652  17.457 -0.0817 -0.1090  0.3649
  675TMC3    C210036   2.267   4.605  17.573  0.6309  0.5397 -0.8176
  675TMC3    C310037   2.330   4.502  17.638 -0.1619 -0.0283  0.2561
  675TMC3    C410038   2.452   4.624  17.433 -0.1602  0.1879  0.5896
  675TMC3    C510039   2.520   4.522  17.505  0.0476 -0.1970  0.0210
  675TMC3    C610040   2.455   4.456  17.602 -0.3590  0.5035  0.1368
  675TMC3     C10041   2.267   0.046  17.401  0.2748  0.4720  0.5289
  675TMC3     O10042   2.329   0.097  17.308  0.1772 -0.1367 -0.0435
  675TMC3     H10043   2.160   4.622  17.580  0.6510  0.2711  0.1291
  675TMC3    H110044   2.497   4.655  17.339 -2.0209  1.9068  0.2813
  675TMC3    H210045   2.491   4.360  17.639 -0.3900  0.5901  0.3907
  675TMC3    C710046   2.641   4.461  17.454  0.1972  0.1039 -0.2344
  675TMC3    C810047   2.254   4.448  17.747 -0.3882  0.2474  0.7001
  675TMC3    O110048   2.670   4.471  17.334  0.3983 -0.7215 -0.0917
  675TMC3    O210049   2.145   4.408  17.719  0.3041 -0.6043  0.0907
  676MPD2     C10050   0.275   3.856  10.752 -0.2589 -1.0304 -0.9996
  676MPD2    C110051   0.182   3.831  10.857 -0.3278 -0.1055  0.6868
  676MPD2    C210052   0.223   3.773  10.973  0.6378 -0.3744  0.6788
  676MPD2    C310053   0.356   3.743  10.995  0.1786 -0.3064 -0.0823
  676MPD2    C410054   0.448   3.778  10.900  0.2303 -0.3438  0.8046
  676MPD2    C510055   0.407   3.819  10.776 -0.4338  0.3481  0.3980
  676MPD2     H10056   0.148   3.750  11.047 -0.0616  1.2974  0.4812
  676MPD2    H110057   0.554   3.762  10.919  0.4991 -0.4475 -0.7656
  676MPD2    H210058   0.257   3.912  10.661 -4.8715  1.2345  1.2883
  676MPD2    H310059   0.468   3.844  10.690 -1.4314 -2.5109 -1.1360
  676MPD2     N10060   0.400   3.674  11.114 -0.1840 -0.2344 -0.3076
  676MPD2    H510061   0.496   3.640  11.112 -0.7780 -1.9165 -0.0085
  676MPD2    N110062   0.047   3.849  10.835 -0.3089  0.0910 -0.3539
  676MPD2    H710063   4.721   3.804  10.900 -1.2773  1.5601 -0.2757
  677TMC3    C110064   4.590   3.951  10.751 -0.4374 -0.3645 -0.2792
  677TMC3    C210065   4.529   3.832  10.778  0.0367  0.1029  0.0660
  677TMC3    C310066   4.398   3.837  10.822 -0.2529 -0.9526  0.3648
  677TMC3    C410067   4.540   4.068  10.791 -0.0576 -0.0394 -0.2250
  677TMC3    C510068   4.416   4.068  10.851 -0.1532  1.0373 -0.6223
  677TMC3    C610069   4.335   3.955  10.851 -0.3015 -0.8032 -0.7123
  677TMC3     C10070   4.735   3.942  10.749 -0.2215  0.3042  0.3485
  677TMC3     O10071   0.058   4.040  10.709 -0.0484  0.2523  0.5036
  677TMC3     H10072   4.579   3.738  10.760  1.7415  1.2949 -1.3302
  677TMC3    H110073   4.600   4.157  10.779  1.4253 -0.9947  0.0994
  677TMC3    H210074   4.232   3.951  10.886  0.3913  0.9490  1.5578
  677TMC3    C710075   4.411   4.157  10.967 -0.3544  1.1570  0.3235
  677TMC3    C810076   4.319   3.716  10.835  0.2192  0.6706  0.4548
  677TMC3    O110077   4.304   4.177  11.025  0.6928  0.1698  0.1609
  677TMC3    O210078   4.313   3.649  10.734 -0.0795 -0.3448  0.5467
  678MPD2     C10079   1.489   3.163   1.329 -0.1225 -0.2819 -0.4242
  678MPD2    C110080   1.500   3.068   1.230 -0.3742 -0.4339 -0.3525
  678MPD2    C210081   1.389   3.009   1.176  0.1748  0.3130 -0.2157
  678MPD2    C310082   1.265   3.036   1.234 -0.3813  0.6157 -0.0570
  678MPD2    C410083   1.254   3.134   1.328  0.4412 -0.5010 -0.1931
  678MPD2    C510084   1.360   3.198   1.372 -0.8794 -0.2777  0.0643
  678MPD2     H10085   1.395   2.923   1.111  2.8767 -0.8343  1.5740
  678MPD2    H110086   1.166   3.171   1.379  1.0667  1.3720 -0.4598
  678MPD2    H210087   1.566   3.223   1.376 -0.0002  0.1089 -1.1128
  678MPD2    H310088   1.352   3.278   1.446 -0.3154  1.3021 -1.5725
  678MPD2     N10089   1.155   2.965   1.189 -0.0492 -0.1949 -0.0735
  678MPD2    H510090   1.170   2.902   1.110  1.3789 -1.2321  1.0247
  678MPD2    N110091   1.629   3.028   1.174  0.8445 -0.3657  0.4683
  678MPD2    H710092   1.629   2.951   1.109 -0.0061  0.5451 -0.6146
  679TMC3    C110093   1.975   2.854   1.040 -0.3266  0.4491  0.7579
  679TMC3    C210094   1.856   2.895   1.087  0.4478  0.1233  0.4160
  679TMC3    C310095   1.850   3.025   1.115  0.5054 -0.0568 -0.0704
  679TMC3    C410096   2.082   2.936   1.010 -0.2073  0.0694  0.6139
  679TMC3    C510097   2.069   3.066   1.039 -0.1185  0.1253 -0.0847
  679TMC3    C610098   1.960   3.109   1.099  0.1446  0.4540 -0.9931
  679TMC3     C10099   2.018   2.715   1.058  0.2320  1.0706  0.5605
  679TMC3     O10100   2.116   2.680   0.997 -0.2705 -0.4583 -0.0295
  679TMC3     H10101   1.779   2.820   1.106  0.1333  0.4118  0.2651
  679TMC3    H110102   2.171   2.894   0.966 -0.1402 -0.5307  1.3399
  679TMC3    H210103   1.949   3.215   1.117 -0.1455  0.6057 -2.0229
  679TMC3    C710104   2.168   3.165   1.000 -0.3032 -0.6554  0.7789
  679TMC3    C810105   1.751   3.089   1.192 -0.1131  0.4683  0.1412
  679TMC3    O110106   2.144   3.279   1.035 -0.0530 -0.3233  0.0375
  679TMC3    O210107   1.775   3.192   1.259 -0.3564  0.2420  0.0164
  680MPD2     C10108   1.396   2.087  13.919 -0.1220  0.4180 -0.8759
  680MPD2    C110109   1.503   2.009  13.970 -0.3970  0.1547  0.6286
  680MPD2    C210110   1.607   2.081  14.026 -0.5953  0.4428 -0.3762
  680MPD2    C310111   1.599   2.220  14.030  0.6210 -0.1082  0.1100
  680MPD2    C410112   1.498   2.289  13.958 -0.4080  0.7394  0.4282
  680MPD2    C510113   1.390   2.220  13.911 -0.7381 -0.5470  0.6263
  680MPD2     H10114   1.690   2.030  14.073  0.5367  1.6819 -1.0569
  680MPD2    H110115   1.505   2.395  13.938  1.6618  0.8900  1.9702
  680MPD2    H210116   1.308   2.044  13.874  0.9604 -1.4725 -1.1764
  680MPD2    H310117   1.308   2.259  13.851  0.6518 -1.1223 -1.6352
  680MPD2     N10118   1.700   2.296  14.093 -0.4507 -0.3506  0.3078
  680MPD2    H510119   1.686   2.396  14.086 -1.0912 -0.3714  1.4055
  680MPD2    N110120   1.503   1.869  13.968 -0.3805  0.4973 -0.0087
  680MPD2    H710121   1.583   1.818  14.003 -0.8974 -0.2247  0.1021
  681TMC3    C110122   1.452   1.643  13.888  0.5396 -0.0323 -0.6337
  681TMC3    C210123   1.497   1.590  14.007 -0.4799  0.0801  0.1843
  681TMC3    C310124   1.512   1.455  14.016  0.4140 -0.4100 -0.1790
  681TMC3    C410125   1.413   1.560  13.782 -0.7985 -0.2985  0.5173
  681TMC3    C510126   1.439   1.424  13.794  0.2758 -0.0671  0.4125
  681TMC3    C610127   1.480   1.369  13.910 -0.3129  0.3079  0.1021
  681TMC3     C10128   1.428   1.788  13.888  0.2057  0.4450 -0.5246
  681TMC3     O10129   1.339   1.817  13.813  0.2270 -0.3414  0.0607
  681TMC3     H10130   1.537   1.662  14.077  0.8903 -2.3278  1.9026
  681TMC3    H110131   1.378   1.598  13.686 -1.5889  1.5133  1.5155
  681TMC3    H210132   1.506   1.264  13.903 -0.7889  0.0403  2.3920
  681TMC3    C710133   1.462   1.340  13.669  0.0179  0.1367  0.2227
  681TMC3    C810134   1.531   1.389  14.145  0.2166 -0.4930  0.4183
  681TMC3    O110135   1.457   1.216  13.672  0.1613  0.0624 -0.3739
  681TMC3    O210136   1.569   1.274  14.147 -0.4556 -0.8084 -0.5309
  682MPD2     C10137   3.201   3.640  11.019 -0.1786 -0.0593 -0.0784
  682MPD2    C110138   3.336   3.639  11.041  0.1884 -0.1703 -0.0684
  682MPD2    C210139   3.387   3.604  11.171  0.4659  0.2411 -0.3683
  682MPD2    C310140   3.294   3.568  11.264  0.5585  0.6145 -0.5399
  682MPD2    C410141   3.163   3.577  11.240  0.3429  0.2597  0.0890
  682MPD2    C510142   3.118   3.619  11.118  0.5187  0.6386  0.3997
  682MPD2     H10143   3.495   3.598  11.184  0.5999  1.2167 -1.0044
  682MPD2    H110144   3.100   3.545  11.322  1.0880 -0.8466  0.2308
  682MPD2    H210145   3.151   3.659  10.925 -0.3729  0.6710  0.1717
  682MPD2    H310146   3.013   3.638  11.101  0.3559 -0.4292  0.2292
  682MPD2     N10147   3.324   3.520  11.396  0.1960  0.2197  0.8857
  682MPD2    H510148   3.252   3.476  11.452  0.1482 -0.9653 -0.1154
  682MPD2    N110149   3.423   3.666  10.932  0.5483 -0.7492  0.3348
  682MPD2    H710150   3.522   3.674  10.954  0.6677  0.6600 -0.7457
  683TMC3    C110151   3.630   3.404  11.735  0.2765  0.2913 -0.6772
  683TMC3    C210152   3.580   3.275  11.747  0.3821  0.3901  0.2488
  683TMC3    C310153   3.486   3.232  11.651 -0.2338 -0.7112  0.2173
  683TMC3    C410154   3.588   3.489  11.639 -0.4238  0.0775 -0.4168
  683TMC3    C510155   3.480   3.452  11.563  0.0617 -0.0469  0.2804
  683TMC3    C610156   3.424   3.323  11.564 -0.8376  0.3183 -0.6753
  683TMC3     C10157   3.728   3.450  11.832  0.3576  0.2408  0.0062
  683TMC3     O10158   3.756   3.567  11.840 -0.2526 -0.1036 -0.1165
  683TMC3     H10159   3.630   3.203  11.811  1.5474  0.9476 -0.0433
  683TMC3    H110160   3.629   3.589  11.639 -1.6818  0.6254  4.5437
  683TMC3    H210161   3.349   3.296  11.490 -2.1543  3.3116 -0.4325
  683TMC3    C710162   3.451   3.535  11.454  1.2242 -0.0272  0.1939
  683TMC3    C810163   3.482   3.094  11.599  1.1399  0.1979 -0.7973
  683TMC3    O110164   3.546   3.602  11.421 -0.2096  0.0080 -0.4548
  683TMC3    O210165   3.395   3.082  11.511  0.8719  0.1288 -0.3670
  684MPD2     C10166   2.289   2.367  16.476  0.1753 -0.0061  0.1672
  684MPD2    C110167   2.391   2.457  16.455 -0.3440  0.2810  0.5150
  684MPD2    C210168   2.383   2.580  16.515 -0.0889 -0.0600  0.1013
  684MPD2    C310169   2.269   2.620  16.585  0.0922 -0.3778  0.5438
  684MPD2    C410170   2.168   2.530  16.602  0.0137  0.3016  0.7321
  684MPD2    C510171   2.182   2.403  16.554 -0.1377 -0.1225 -0.0445
  684MPD2     H10172   2.467   2.647  16.502  0.5199 -0.7590  0.3760
  684MPD2    H110173   2.076   2.553  16.654  0.5685  1.0078  1.3884
  684MPD2    H210174   2.294   2.265  16.442  1.8035 -0.1336  0.8075
  684MPD2    H310175   2.098   2.338  16.578  1.8565 -1.7595  2.4727
  684MPD2     N10176   2.258   2.760  16.624 -0.3605  0.9557  0.2891
  684MPD2    H510177   2.337   2.820  16.605 -0.0408 -0.1616 -1.8808
  684MPD2    N110178   2.491   2.439  16.362  0.5291 -1.1547 -0.2448
  684MPD2    H710179   2.554   2.517  16.349 -0.3079 -0.3219  0.7335
  685TMC3    C110180   2.553   2.392  16.131  0.1250 -0.2191  0.1307
  685TMC3    C210181   2.463   2.414  16.037 -0.4019 -0.7884  0.3740
  685TMC3    C310182   2.456   2.541  15.990 -0.3095 -0.1073  0.0670
  685TMC3    C410183   2.643   2.491  16.165  0.4569 -0.8711 -0.3985
  685TMC3    C510184   2.647   2.608  16.103  0.0349 -0.1833 -0.0175
  685TMC3    C610185   2.553   2.638  16.008 -0.4823  0.2621  0.2507
  685TMC3     C10186   2.480   2.347  16.255 -0.2377 -1.0057  0.1030
  685TMC3     O10187   2.385   2.273  16.225  0.2616 -0.1995 -0.8436
  685TMC3     H10188   2.386   2.338  16.022 -1.2258  0.1615 -0.2120
  685TMC3    H110189   2.730   2.463  16.224  0.1240 -0.1998  0.4238
  685TMC3    H210190   2.526   2.741  15.990  1.2676  0.3079 -2.1206
  685TMC3    C710191   2.683   2.706  16.191  0.2307  0.2115 -0.5627
  685TMC3    C810192   2.321   2.588  15.944  0.8414  0.7412 -0.4575
  685TMC3    O110193   2.691   2.678  16.312  0.5798  0.1303 -0.0209
  685TMC3    O210194   2.321   2.672  15.854  0.6827 -0.3993  0.0356
  686MPD2     C10195   3.456   2.277  15.359  0.3363  0.2244  0.2066
  686MPD2    C110196   3.523   2.298  15.479  1.1616 -1.1049  0.9118
  686MPD2    C210197   3.609   2.200  15.526 -0.7637 -0.3063  0.0300
  686MPD2    C310198   3.619   2.077  15.451  0.3878  0.5992  0.1074
  686MPD2    C410199   3.557   2.065  15.336 -0.0552 -0.4005  1.2191
  686MPD2    C510200   3.480   2.169  15.286  0.4227  0.2354 -0.1514
  686MPD2     H10201   3.664   2.223  15.617  1.5865 -1.0286 -1.2292
  686MPD2    H110202   3.579   1.978  15.275  0.0178  1.9074 -2.0597
  686MPD2    H210203   3.383   2.349  15.324  0.4721 -1.0840 -2.7021
  686MPD2    H310204   3.422   2.163  15.194  0.2688 -3.2736  0.1750
  686MPD2     N10205   3.698   1.965  15.492 -0.1488 -0.5235  0.7301
  686MPD2    H510206   3.716   1.895  15.421  0.6822  1.5299 -1.0891
  686MPD2    N110207   3.477   2.414  15.554  1.0373 -0.1003  0.3021
  686MPD2    H710208   3.396   2.465  15.521  0.1132 -1.2506  0.8141
  687TMC3    C110209   3.691   1.992  15.738 -0.4640 -1.1630 -0.2048
  687TMC3    C210210   3.552   1.980  15.751 -0.5889  0.4183 -0.0295
  687TMC3    C310211   3.502   1.994  15.877 -0.1864  0.4010 -0.5173
  687TMC3    C410212   3.769   2.018  15.849  0.2373  0.3818 -0.0057
  687TMC3    C510213   3.705   2.031  15.969 -0.1487  0.3998  0.3817
  687TMC3    C610214   3.575   2.023  15.985 -0.0922 -0.3076 -0.6576
  687TMC3     C10215   3.762   1.943  15.619  0.3344 -0.2523 -0.5173
  687TMC3     O10216   3.859   1.878  15.645  0.1521  0.4375  0.3646
  687TMC3     H10217   3.494   1.949  15.665 -2.3385  0.2032  1.2214
  687TMC3    H110218   3.875   2.040  15.838  0.0755  0.6873 -0.9829
  687TMC3    H210219   3.516   2.035  16.075  1.5813  1.8021  0.1676
  687TMC3    C710220   3.775   2.098  16.078  0.1991 -0.3709 -0.0458
  687TMC3    C810221   3.359   2.018  15.890 -0.4988 -0.4126 -0.2106
  687TMC3    O110222   3.704   2.143  16.169  0.0751 -0.3178 -0.1043
  687TMC3    O210223   3.307   1.988  15.995  0.4915  0.4123  0.0263
  688MPD2     C10224   3.081   1.505  17.505 -0.0396  1.0784  0.5842
  688MPD2    C110225   3.059   1.370  17.497 -0.2918  0.4351  0.5946
  688MPD2    C210226   3.100   1.299  17.385 -0.1217 -0.2613  0.1363
  688MPD2    C310227   3.172   1.366  17.286 -0.4885  0.0506 -0.7759
  688MPD2    C410228   3.194   1.502  17.295  0.7507 -0.0631 -0.5570
  688MPD2    C510229   3.140   1.564  17.399 -0.3353  0.0924  0.2768
  688MPD2     H10230   3.086   1.192  17.375  2.3924 -0.7390  1.9712
  688MPD2    H110231   3.244   1.559  17.217  1.3485 -0.9318 -0.8113
  688MPD2    H210232   3.043   1.563  17.589  1.3388 -0.0980  2.0304
  688MPD2    H310233   3.147   1.673  17.400 -0.1367  0.0685  1.2124
  688MPD2     N10234   3.224   1.300  17.172  0.0026 -0.6244  0.5094
  688MPD2    H510235   3.280   1.363  17.115 -0.6230 -0.6245 -0.1024
  688MPD2    N110236   3.004   1.296  17.602 -0.2541 -0.1900 -0.3877
  688MPD2    H710237   3.022   1.197  17.589 -0.9955 -0.2554 -0.8870
  689TMC3    C110238   2.916   1.218   0.063  0.6638  0.2751 -0.2282
  689TMC3    C210239   2.901   1.239   0.199  0.2327  0.1963  0.7511
  689TMC3    C310240   2.863   1.128   0.276  0.3201  0.0311 -0.7024
  689TMC3    C410241   2.866   1.110   0.001 -0.1964 -0.0013 -0.3606
  689TMC3    C510242   2.821   1.001   0.083  0.7149  0.3877  0.5708
  689TMC3    C610243   2.830   1.005   0.219  0.5492 -0.4665 -0.2576
  689TMC3     C10244   2.961   1.331  17.727 -0.6170 -1.0729 -0.7435
  689TMC3     O10245   2.946   1.449   0.021  0.1481 -0.3225 -0.2374
  689TMC3     H10246   2.942   1.328   0.244  0.0066 -0.4519  2.2495
  689TMC3    H110247   2.854   1.104  17.641 -0.5115  0.0593 -0.3302
  689TMC3    H210248   2.804   0.930   0.293 -1.3980 -0.9182 -1.3841
  689TMC3    C710249   2.793   0.882   0.016  0.1969 -0.1752  0.7130
  689TMC3    C810250   2.814   1.155   0.414  0.4385  0.3060  0.0268
  689TMC3    O110251   2.768   0.891  17.647 -0.2630 -0.6974 -0.4830
  689TMC3    O210252   2.779   1.058   0.479  0.8240 -0.2125 -0.1730
  690MPD2     C10253   0.296   3.434  15.945  0.0905 -0.1549  0.2012
  690MPD2    C110254   0.261   3.393  15.814 -0.0126  0.3441  0.0484
  690MPD2    C210255   0.318   3.457  15.705 -0.2311  0.0390 -0.2055
  690MPD2    C310256   0.402   3.561  15.721  0.3540  0.6416 -0.8174
  690MPD2    C410257   0.444   3.597  15.848  0.3759  0.4749  0.1153
  690MPD2    C510258   0.392   3.533  15.954  0.1265 -0.7560 -0.8031
  690MPD2     H10259   0.280   3.430  15.608  2.0796 -0.7093 -0.8918
  690MPD2    H110260   0.514   3.679  15.860 -2.9797  3.2283  0.7626
  690MPD2    H210261   0.271   3.384  16.038 -0.0645  0.0116  0.2482
  690MPD2    H310262   0.440   3.560  16.048 -0.8115  3.6342 -1.6072
  690MPD2     N10263   0.457   3.629  15.606  0.1576  0.8631 -0.4462
  690MPD2    H510264   0.409   3.602  15.520 -0.0302 -1.6601  0.4391
  690MPD2    N110265   0.185   3.280  15.778  0.1259 -0.0698 -0.2206
  690MPD2    H710266   0.182   3.261  15.678  1.5174 -0.2498 -0.2401
  691TMC3    C110267   0.042   3.098  15.806  0.4115 -0.0331 -0.0571
  691TMC3    C210268   0.022   3.094  15.671  0.4329 -0.3693  0.7046
  691TMC3    C310269   4.687   2.994  15.615 -0.4926 -0.8030 -0.0933
  691TMC3    C410270   4.716   3.002  15.887  0.8727 -0.2141  0.2400
  691TMC3    C510271   4.635   2.911  15.822 -0.5173 -0.1176  0.5782
  691TMC3    C610272   4.619   2.901  15.683  0.3368 -0.1800 -0.2707
  691TMC3     C10273   0.127   3.195  15.865  0.6933 -0.4946 -0.2659
  691TMC3     O10274   0.123   3.200  15.988  0.6238  0.0638 -0.2852
  691TMC3     H10275   0.042   3.175  15.601  1.0336 -0.7655  0.4226
  691TMC3    H110276   4.716   2.999  15.996  2.0665  1.1891  0.2759
  691TMC3    H210277   4.568   2.821  15.630 -0.1554 -0.7133  1.0035
  691TMC3    C710278   4.558   2.831  15.912  0.0724 -0.4999  0.1309
  691TMC3    C810279   4.622   3.040  15.497  0.0318 -0.2087  0.3362
  691TMC3    O110280   4.565   2.850  16.031  0.0223  0.2069 -0.5016
  691TMC3    O210281   4.640   2.989  15.387  0.3295 -0.6211 -0.1755
  692TMC3    C110282   1.714   3.888  15.904  0.3884  0.0622  0.1173
  692TMC3    C210283   1.842   3.928  15.943  0.7436 -0.1642  0.1046
  692TMC3    C310284   1.935   3.825  15.983 -0.0250  0.3843  0.0363
  692TMC3    C410285   1.674   3.753  15.920  0.0439  0.6145  0.5126
  692TMC3    C510286   1.763   3.659  15.970 -0.4739 -0.9506  0.8479
  692TMC3    C610287   1.885   3.698  16.009 -0.9194 -0.4246 -0.1281
  692TMC3     C10288   1.607   3.990  15.933 -0.1273  0.1662  0.9142
  692TMC3     O10289   1.640   4.088  16.002  0.3845 -0.6805  0.0730
  692TMC3     H10290   1.875   4.029  15.924  0.8022 -0.5257 -1.8184
  692TMC3    H110291   1.573   3.723  15.893  0.1773 -0.5150  1.2677
  692TMC3    H210292   1.962   3.624  16.021  0.0103  0.3267 -1.4307
  692TMC3    C710293   1.704   3.526  15.994 -0.0270 -1.1311 -0.5265
  692TMC3    C810294   2.037   3.872  16.085 -0.1200 -0.5705  0.7133
  692TMC3    O110295   1.599   3.493  15.951  0.1230  0.1546 -0.3623
  692TMC3    O210296   2.107   3.791  16.149  0.7933  0.2044  0.1745
  693MPD2     C10297   1.021   2.440  10.855 -0.0882 -0.9809 -0.3175
  693MPD2    C110298   0.954   2.336  10.912  0.3298  0.8060 -0.0166
  693MPD2    C210299   1.027   2.234  10.973 -0.4897 -0.3113  0.1200
  693MPD2    C310300   1.157   2.223  10.947 -0.7893  0.1543 -0.1339
  693MPD2    C410301   1.223   2.316  10.864 -0.6060 -0.9678  0.1947
  693MPD2    C510302   1.158   2.426  10.823 -0.2999 -0.0858  0.0427
  693MPD2     H10303   0.970   2.158  11.025 -0.4631 -0.5870 -0.2535
  693MPD2    H110304   1.330   2.298  10.858 -0.7914 -1.1183 -2.9205
  693MPD2    H210305   0.976   2.537  10.837  0.2959 -0.4916  1.3925
  693MPD2    H310306   1.206   2.504  10.766  0.6254 -0.5706  0.1611
  693MPD2     N10307   1.237   2.125  11.010  0.5316 -0.1247 -0.0831
  693MPD2    H510308   1.332   2.117  10.975  1.1929  1.5051  1.3478
  693MPD2    N110309   0.816   2.352  10.922 -0.3059 -0.8045  0.5407
  693MPD2    H710310   0.783   2.448  10.918  1.1860 -0.2695  1.2163
  694TMC3    C110311   0.602   2.315  10.997  0.2307  0.4188 -0.1849
  694TMC3    C210312   0.489   2.242  10.978  0.4493  0.7793  0.2770
  694TMC3    C310313   0.393   2.248  11.072  0.4147  0.1187  0.5751
  694TMC3    C410314   0.621   2.375  11.118 -0.0829 -0.2699 -0.1431
  694TMC3    C510315   0.531   2.356  11.220 -0.5497  1.0403 -0.6013
  694TMC3    C610316   0.416   2.290  11.203  0.5850  0.1890  0.1265
  694TMC3     C10317   0.721   2.258  10.955 -0.2430 -0.2446  0.3713
  694TMC3     O10318   0.733   2.135  10.972 -0.0138 -0.8683 -0.3508
  694TMC3     H10319   0.466   2.206  10.879 -1.5052 -0.1387  1.0783
  694TMC3    H110320   0.722   2.402  11.150 -1.2534  0.2192  3.1221
  694TMC3    H210321   0.336   2.284  11.275  0.3373  0.0974 -0.1541
  694TMC3    C710322   0.576   2.385  11.353  0.0929  0.2216  0.1204
  694TMC3    C810323   0.259   2.189  11.048 -0.0944 -0.0815 -0.2163
  694TMC3    O110324   0.669   2.465  11.372 -0.0816 -0.0680  0.4027
  694TMC3    O210325   0.180   2.179  11.139 -0.6089 -0.6580  0.2978
  695MPD2     C10326   2.439   4.220  13.271 -0.6342  0.0795  0.1350
  695MPD2    C110327   2.384   4.191  13.394  0.1211  0.0820  0.8892
  695MPD2    C210328   2.252   4.177  13.404 -0.4464  0.2727 -0.0216
  695MPD2    C310329   2.163   4.213  13.307  0.3993 -0.2551  0.3807
  695MPD2    C410330   2.214   4.257  13.183 -0.0632 -0.1736 -0.5002
  695MPD2    C510331   2.353   4.253  13.174  0.2303  0.0491  0.5663
  695MPD2     H10332   2.215   4.144  13.501 -1.3965  0.2082 -0.3983
  695MPD2    H110333   2.145   4.272  13.101  1.3753 -0.5706 -1.7821
  695MPD2    H210334   2.545   4.220  13.247 -0.8704  2.0843 -0.9185
  695MPD2    H310335   2.398   4.273  13.077 -0.3120  0.2103  0.3444
  695MPD2     N10336   2.029   4.210  13.347  0.2920 -0.0608 -0.6105
  695MPD2    H510337   2.010   4.170  13.438 -1.0240 -0.4138 -1.0412
  695MPD2    N110338   2.463   4.159  13.512  0.7195 -0.5307  0.8386
  695MPD2    H710339   2.400   4.123  13.582 -1.5795 -0.1402 -1.0351
  696TMC3    C110340   1.799   4.247  13.336  0.9637  0.0918 -1.2705
  696TMC3    C210341   1.779   4.166  13.448  0.6420 -0.3835  0.3389
  696TMC3    C310342   1.655   4.154  13.497 -0.2958  0.0251  0.1224
  696TMC3    C410343   1.698   4.317  13.278  0.0854  0.1166 -0.1979
  696TMC3    C510344   1.575   4.313  13.339 -0.0988  0.6140 -0.9561
  696TMC3    C610345   1.551   4.226  13.441 -0.2689  0.6815  0.4196
  696TMC3     C10346   1.925   4.258  13.265 -0.0956  0.8000 -0.3965
  696TMC3     O10347   1.925   4.307  13.152  0.1321 -0.1641  0.4677
  696TMC3     H10348   1.854   4.103  13.495 -0.8382 -0.7528  2.1835
  696TMC3    H110349   1.713   4.386  13.196 -1.9214  0.3679 -0.3718
  696TMC3    H210350   1.449   4.213  13.474 -0.5044  0.1571 -0.4986
  696TMC3    C710351   1.480   4.426  13.331  0.4120 -0.2767 -0.4921
  696TMC3    C810352   1.637   4.083  13.621 -0.5363  0.0873 -0.1825
  696TMC3    O110353   1.473   4.483  13.224 -0.5764  0.5537  0.4603
  696TMC3    O210354   1.731   4.090  13.701 -0.2107 -0.1153  0.1691
  697MPD2     C10355   1.923   0.986  15.373  0.3255  0.5474 -0.5125
  697MPD2    C110356   1.783   0.983  15.349  0.1446  0.4397  0.6558
  697MPD2    C210357   1.711   1.098  15.321 -0.2640 -0.4989  0.1399
  697MPD2    C310358   1.778   1.215  15.311 -0.0903  0.0849  0.7874
  697MPD2    C410359   1.913   1.216  15.338 -0.0316  0.4264 -0.3582
  697MPD2    C510360   1.979   1.108  15.378  0.4406  0.2612 -0.5002
  697MPD2     H10361   1.604   1.088  15.306  0.0135 -0.1526 -2.1536
  697MPD2    H110362   1.978   1.303  15.330 -0.2944  0.6268 -0.3294
  697MPD2    H210363   1.978   0.903  15.413  2.4946  1.6053 -1.3035
  697MPD2    H310364   2.086   1.114  15.392  0.4074 -2.3432  0.8370
  697MPD2     N10365   1.702   1.324  15.266  0.4520  0.5909 -0.0357
  697MPD2    H510366   1.602   1.305  15.256  0.6827 -0.8028  0.2851
  697MPD2    N110367   1.707   0.867  15.353  0.0033  0.2683  0.4065
  697MPD2    H710368   1.607   0.879  15.338 -0.5507 -3.3382  1.1440
  698TMC3    C110369   1.626   1.517  15.183 -0.8661  0.1410  0.0203
  698TMC3    C210370   1.627   1.654  15.199 -0.1806  0.1054  0.0366
  698TMC3    C310371   1.541   1.732  15.124 -0.5789  0.4247  0.2514
  698TMC3    C410372   1.545   1.459  15.084 -0.8307  0.1511 -0.4885
  698TMC3    C510373   1.457   1.550  15.016  1.0934 -0.4039 -0.4911
  698TMC3    C610374   1.465   1.687  15.027  0.5036 -0.4273  0.3166
  698TMC3     C10375   1.737   1.447  15.237 -0.2383  0.6949 -0.7191
  698TMC3     O10376   1.843   1.501  15.240 -0.1578 -0.2780  0.2653
  698TMC3     H10377   1.667   1.690  15.293  0.4148  1.3193 -0.6702
  698TMC3    H110378   1.556   1.352  15.075 -1.4430 -0.1219  1.9249
  698TMC3    H210379   1.411   1.759  14.968  1.6210  0.3806  0.2712
  698TMC3    C710380   1.384   1.501  14.899  0.3383  0.0900 -0.0530
  698TMC3    C810381   1.562   1.874  15.118 -0.1052 -0.4197 -1.3634
  698TMC3    O110382   1.316   1.584  14.842 -0.4577 -0.4292 -0.0550
  698TMC3    O210383   1.479   1.947  15.066  0.5694  0.0866 -0.2753
  699TMC3    C110384   1.630   4.284  12.927  0.1738  0.4933  0.6918
  699TMC3    C210385   1.680   4.173  12.985 -0.0911  0.0115  0.4785
  699TMC3    C310386   1.576   4.087  13.034 -0.4658  0.2253 -0.9323
  699TMC3    C410387   1.497   4.315  12.919  0.2317 -0.0912 -0.0334
  699TMC3    C510388   1.402   4.234  12.972 -0.8949 -0.1512 -0.3751
  699TMC3    C610389   1.445   4.118  13.024 -1.0075 -0.1288 -0.2363
  699TMC3     C10390   1.714   4.344  12.817 -0.8762 -1.2098 -0.2762
  699TMC3     O10391   1.652   4.409  12.733 -0.1434 -0.5496  0.1806
  699TMC3     H10392   1.782   4.141  12.968 -0.3524  1.0456 -2.9155
  699TMC3    H110393   1.465   4.403  12.864  1.7294  1.2207  1.1589
  699TMC3    H210394   1.371   4.050  13.066 -0.6987 -1.0521 -1.1910
  699TMC3    C710395   1.283   4.298  13.031  0.3169 -0.7374 -0.5356
  699TMC3    C810396   1.611   3.981  13.124  0.3145 -0.9273  0.6247
  699TMC3    O110397   1.230   4.227  13.118  0.3400 -0.1857  0.0622
  699TMC3    O210398   1.516   3.914  13.167  0.5844  0.2294  0.3860
  700TMC3    C110399   0.747   1.529  17.386 -0.0521  0.5442  0.2560
  700TMC3    C210400   0.790   1.404  17.374 -0.6743 -0.1773  0.0702
  700TMC3    C310401   0.891   1.360  17.455  0.0454  0.0953  0.1141
  700TMC3    C410402   0.794   1.617  17.479  0.1002  0.4577 -0.9369
  700TMC3    C510403   0.899   1.570  17.555  0.1992  0.2300  0.3457
  700TMC3    C610404   0.956   1.445  17.535 -0.0338 -0.3719 -0.1129
  700TMC3     C10405   0.680   1.582  17.276  0.1161  0.1467 -0.7053
  700TMC3     O10406   0.611   1.512  17.202 -0.0880  0.2389 -0.1330
  700TMC3     H10407   0.760   1.349  17.286 -0.0120 -0.3327 -0.0585
  700TMC3    H110408   0.755   1.715  17.501  2.0292  0.7363  1.2569
  700TMC3    H210409   1.047   1.413  17.584 -0.5339 -1.1116  0.3425
  700TMC3    C710410   0.965   1.666  17.640  0.0342  0.1948  0.2245
  700TMC3    C810411   0.966   1.243  17.413 -0.3675  0.5395  0.4272
  700TMC3    O110412   1.088   1.658  17.650  0.0657  0.1354 -0.0184
  700TMC3    O210413   1.088   1.254  17.414  0.3861 -0.2597 -0.1953
  701TMC3    C110414   0.894   0.910  15.478 -0.5939 -0.1467  0.4781
  701TMC3    C210415   0.831   0.929  15.356  0.4351 -0.1491  0.3167
  701TMC3    C310416   0.921   0.966  15.259  0.4175 -0.4160  0.4684
  701TMC3    C410417   1.028   0.916  15.498  0.6657  0.2751  0.0743
  701TMC3    C510418   1.110   0.948  15.397  0.4924  0.0403 -0.3346
  701TMC3    C610419   1.058   0.968  15.275  0.3536  0.5569 -0.3325
  701TMC3     C10420   0.817   0.868  15.598  0.3188  0.8671 -0.2421
  701TMC3     O10421   0.877   0.879  15.706 -0.7896  0.1573 -0.4632
  701TMC3     H10422   0.725   0.951  15.357  0.6707  1.1455 -2.3962
  701TMC3    H110423   1.061   0.927  15.600 -1.3384 -2.4853  1.0165
  701TMC3    H210424   1.133   1.007  15.207  0.1795  1.2809 -0.1138
  701TMC3    C710425   1.247   0.988  15.426 -0.2848 -0.0323 -0.0098
  701TMC3    C810426   0.858   0.993  15.129 -0.0893  0.1221  0.6109
  701TMC3    O110427   1.307   1.065  15.350  0.1442 -0.4645 -0.1255
  701TMC3    O210428   0.920   1.069  15.055 -0.0744  0.0844  0.0692
  702MPD2     C10429   0.383   2.995  10.968  0.6083 -0.2280 -0.3582
  702MPD2    C110430   0.343   3.129  10.976  0.1344  0.4068 -0.2314
  702MPD2    C210431   0.247   3.172  10.889 -1.6359  0.3669  0.1235
  702MPD2    C310432   0.189   3.092  10.790  0.0622 -0.3773  0.0646
  702MPD2    C410433   0.232   2.963  10.769 -0.2170  0.4262  0.3290
  702MPD2    C510434   0.337   2.928  10.856 -0.3177  0.1275  0.3261
  702MPD2     H10435   0.205   3.270  10.911 -2.4277 -0.1293  0.8211
  702MPD2    H110436   0.209   2.892  10.691  1.0984 -0.6756  0.9304
  702MPD2    H210437   0.470   2.954  11.018  1.1027  1.4677  0.1655
  702MPD2    H310438   0.365   2.826  10.829 -2.3652 -0.5171  0.6534
  702MPD2     N10439   0.086   3.150  10.713 -0.6359  0.1660  0.3165
  702MPD2    H510440   0.052   3.237  10.754  0.7377  0.0367  1.7543
  702MPD2    N110441   0.395   3.221  11.075 -0.0201  0.1974 -0.1117
  702MPD2    H710442   0.386   3.321  11.065  0.1170  0.0967 -1.2462
  703TMC3    C110443   4.673   3.202  10.541  0.1492  0.0277  0.5179
  703TMC3    C210444   4.619   3.285  10.634  0.2750 -0.2489  0.2031
  703TMC3    C310445   4.656   3.416  10.644  0.8821  0.4877  0.5040
  703TMC3    C410446   0.014   3.258  10.448  0.0216  0.2600  0.3461
  703TMC3    C510447   0.050   3.385  10.448  0.5121 -0.2980 -0.2261
  703TMC3    C610448   0.011   3.467  10.555  0.0252 -0.9639  0.0099
  703TMC3     C10449   0.033   3.102  10.597 -0.0310  0.5957  0.0002
  703TMC3     O10450   0.054   2.997  10.532  0.0389  0.0377 -0.4790
  703TMC3     H10451   4.554   3.234  10.704  1.1317 -2.9328 -0.9727
  703TMC3    H110452   0.074   3.197  10.382 -0.1830  1.3130 -0.8230
  703TMC3    H210453   0.046   3.569  10.558  2.3117 -1.7253 -1.3875
  703TMC3    C710454   0.167   3.414  10.363  0.5410 -0.1723 -0.3820
  703TMC3    C810455   4.654   3.476  10.777 -0.4543 -0.3733 -0.4835
  703TMC3    O110456   0.209   3.336  10.282  0.2944 -0.0055  0.1914
  703TMC3    O210457   0.011   3.546  10.803  0.2506  0.1496  0.0278
  704TMC3    C110458   2.447   1.315  12.561 -0.4060  0.8487 -0.2224
  704TMC3    C210459   2.564   1.306  12.487 -0.3864  0.6159 -0.0776
  704TMC3    C310460   2.666   1.242  12.549 -0.9237 -0.4346  0.3295
  704TMC3    C410461   2.428   1.258  12.682 -0.1134 -0.2442  0.2522
  704TMC3    C510462   2.527   1.181  12.727 -0.2698  0.6223  0.2145
  704TMC3    C610463   2.651   1.177  12.669  0.2218  0.1989  0.2927
  704TMC3     C10464   2.330   1.374  12.501 -0.0708 -0.0232  0.6651
  704TMC3     O10465   2.229   1.390  12.570 -0.6450 -0.7085  0.2232
  704TMC3     H10466   2.576   1.346  12.388  1.9572 -1.3249 -0.5711
  704TMC3    H110467   2.330   1.245  12.726 -0.8620  3.4750 -0.3006
  704TMC3    H210468   2.736   1.135  12.720 -0.1347  0.3530  1.0179
  704TMC3    C710469   2.485   1.061  12.801 -0.3673  0.3111 -0.4346
  704TMC3    C810470   2.796   1.243  12.480 -0.0581  0.1077  0.6664
  704TMC3    O110471   2.399   1.071  12.889  1.0878  0.0975 -0.3695
  704TMC3    O210472   2.802   1.236  12.360  0.6004  0.1489  0.1066
  705MPD2     C10473   2.293   4.031  16.756  0.2495  0.3298 -0.6283
  705MPD2    C110474   2.250   3.928  16.672  0.1418 -0.5479  0.1451
  705MPD2    C210475   2.111   3.930  16.658  0.4543 -0.3705 -0.3289
  705MPD2    C310476   2.025   4.010  16.734 -0.1241 -0.1624  0.2691
  705MPD2    C410477   2.080   4.100  16.816  0.4627  0.9311  0.5119
  705MPD2    C510478   2.211   4.119  16.825  0.1939 -0.0881 -0.1113
  705MPD2     H10479   2.066   3.860  16.588 -0.0767  0.3629 -0.7240
  705MPD2    H110480   2.029   4.175  16.875 -4.3871 -0.5463 -1.7871
  705MPD2    H210481   2.398   4.060  16.759  0.7041 -1.5145  0.7518
  705MPD2    H310482   2.254   4.203  16.878 -0.0105 -1.0835  1.6092
  705MPD2     N10483   1.888   4.003  16.746  0.0684  0.4016  0.1759
  705MPD2    H510484   1.834   4.066  16.805 -1.1001 -0.1373 -0.3003
  705MPD2    N110485   2.340   3.840  16.601 -0.5769 -0.3986  0.6006
  705MPD2    H710486   2.298   3.778  16.533  0.3462  2.1701 -2.3213
  706TMC3    C110487   2.524   3.677  16.309 -0.2799  0.0683 -0.3608
  706TMC3    C210488   2.601   3.772  16.253  0.0771 -0.5207 -0.5559
  706TMC3    C310489   2.634   3.886  16.323 -0.1834 -0.2341 -0.3052
  706TMC3    C410490   2.502   3.690  16.443 -0.4429 -0.3213  0.9916
  706TMC3    C510491   2.541   3.800  16.515 -0.0041  0.2300  0.2788
  706TMC3    C610492   2.606   3.900  16.456 -0.0630  0.0396 -0.8096
  706TMC3     C10493   2.514   3.540  16.254  0.2970 -0.7104 -0.7911
  706TMC3     O10494   2.512   3.452  16.340  0.3845  0.5192 -0.0667
  706TMC3     H10495   2.643   3.759  16.153 -1.1245 -1.6567 -0.9122
  706TMC3    H110496   2.447   3.616  16.499 -1.5045 -1.1460 -1.1333
  706TMC3    H210497   2.639   3.988  16.510  0.7805  0.5759 -2.2012
  706TMC3    C710498   2.472   3.830  16.631 -0.3246  0.6433 -0.4485
  706TMC3    C810499   2.600   4.007  16.247 -0.7483  0.1844  0.2786
  706TMC3    O110500   2.541   3.894  16.711  0.2399 -0.5023  0.0885
  706TMC3    O210501   2.550   3.998  16.138  0.3204  0.6164  0.6015
  707TMC3    C110502   4.353   2.582   0.583  0.3179  0.4774  0.1828
  707TMC3    C210503   4.242   2.501   0.591  0.1952 -0.2397  0.2139
  707TMC3    C310504   4.138   2.521   0.504 -0.1061 -0.2366 -0.6297
  707TMC3    C410505   4.370   2.682   0.486  0.4144  0.1687  0.1844
  707TMC3    C510506   4.264   2.701   0.401  0.3268  0.8143  0.0248
  707TMC3    C610507   4.149   2.625   0.410 -0.6391 -0.6717  0.0870
  707TMC3     C10508   4.450   2.555   0.683  0.4719 -0.0104 -0.2705
  707TMC3     O10509   4.419   2.491   0.781 -0.0443  0.3351 -0.4188
  707TMC3     H10510   4.234   2.433   0.675  1.5453  0.1497  0.6428
  707TMC3    H110511   4.451   2.754   0.484  1.3007 -0.7928  1.0796
  707TMC3    H210512   4.064   2.651   0.349  0.7234  1.8292 -0.7567
  707TMC3    C710513   4.260   2.819   0.319 -0.2044  0.7344 -0.1057
  707TMC3    C810514   4.008   2.465   0.525 -0.1556 -0.1686  0.2570
  707TMC3    O110515   4.325   2.911   0.363  0.3190 -0.5619  0.3192
  707TMC3    O210516   3.907   2.518   0.483  0.0861 -0.4522 -0.7452
  708MPD2     C10517   0.692   2.525  13.880  0.3975 -0.6149 -0.4393
  708MPD2    C110518   0.609   2.588  13.974  0.5232 -0.5964 -0.8846
  708MPD2    C210519   0.645   2.587  14.107 -0.0441 -0.1285 -0.1246
  708MPD2    C310520   0.748   2.525  14.154  0.2884 -0.2830 -0.7628
  708MPD2    C410521   0.827   2.462  14.066 -0.8399 -0.1324 -0.4384
  708MPD2    C510522   0.802   2.462  13.925  0.0089  0.1965  0.3639
  708MPD2     H10523   0.586   2.633  14.185  0.2138 -0.2866  0.1640
  708MPD2    H110524   0.901   2.396  14.109 -0.0663  0.4248 -0.9040
  708MPD2    H210525   0.659   2.508  13.778  0.2706 -0.5863 -0.4035
  708MPD2    H310526   0.861   2.403  13.855 -0.3030 -1.0310  1.1386
  708MPD2     N10527   0.764   2.517  14.292  0.3903  0.3538 -0.6741
  708MPD2    H510528   0.690   2.565  14.342  0.3386  1.7164 -2.0636
  708MPD2    N110529   0.488   2.660  13.939  0.6535  0.1295 -0.4792
  708MPD2    H710530   0.439   2.709  14.012 -2.2347 -1.3966 -1.4041
  709TMC3    C110531   0.338   2.792  13.817  0.3589  0.1463 -0.1329
  709TMC3    C210532   0.224   2.744  13.749  0.2997  0.3014  0.0826
  709TMC3    C310533   0.106   2.756  13.821 -0.2311 -0.1293 -0.7251
  709TMC3    C410534   0.330   2.849  13.944  0.2721 -0.2483 -0.6061
  709TMC3    C510535   0.217   2.845  14.011  0.0199  0.0619  0.3509
  709TMC3    C610536   0.100   2.801  13.950 -0.7382 -0.5339  0.9711
  709TMC3     C10537   0.443   2.691  13.815 -0.6197  0.5304 -0.0808
  709TMC3     O10538   0.461   2.634  13.712  0.2236 -0.0841  0.2576
  709TMC3     H10539   0.240   2.691  13.656  0.1091 -1.1745  0.8967
  709TMC3    H110540   0.419   2.896  13.987  0.5294 -0.9586 -0.3598
  709TMC3    H210541   0.005   2.809  14.001 -0.5943  4.6975  0.4659
  709TMC3    C710542   0.241   2.819  14.146  0.0175 -0.0349 -0.2863
  709TMC3    C810543   4.712   2.734  13.755  0.0342 -0.1701 -0.2077
  709TMC3    O110544   0.360   2.829  14.177  0.6883 -0.0040 -0.1775
  709TMC3    O210545   4.615   2.783  13.812 -0.3893  0.3294  0.2842
  710TMC3    C110546   1.975   3.844   0.531 -0.4497 -0.3211  0.1288
  710TMC3    C210547   2.023   3.853   0.400 -0.5901  0.7757 -0.3476
  710TMC3    C310548   2.146   3.794   0.376  0.4254 -0.1500  0.0757
  710TMC3    C410549   2.047   3.794   0.637 -0.4970 -0.6993  1.2258
  710TMC3    C510550   2.163   3.733   0.603  0.5779 -0.6660  0.1730
  710TMC3    C610551   2.215   3.730   0.477 -0.1917 -0.2772 -0.7176
  710TMC3     C10552   1.863   3.928   0.556 -0.2137  0.0808 -0.1774
  710TMC3     O10553   1.868   4.025   0.486 -0.4087 -0.1928 -0.1554
  710TMC3     H10554   1.967   3.896   0.318 -0.6254  0.7522 -0.3359
  710TMC3    H110555   2.011   3.797   0.739 -2.3432 -2.3214  0.6195
  710TMC3    H210556   2.307   3.679   0.450 -0.2645 -1.4217  1.1957
  710TMC3    C710557   2.208   3.623   0.696  0.3818  0.4426  0.0978
  710TMC3    C810558   2.207   3.804   0.242 -0.3391 -0.7935 -0.2404
  710TMC3    O110559   2.126   3.594   0.786  0.2423  0.1619  0.3462
  710TMC3    O210560   2.125   3.838   0.155 -0.2180  0.1895  0.8304
  711TMC3    C110561   1.218   4.130  15.159 -0.4172  0.1358  0.4677
  711TMC3    C210562   1.235   4.033  15.248 -1.1214  0.6267 -0.4858
  711TMC3    C310563   1.272   4.071  15.373 -0.2341  0.2156  0.0105
  711TMC3    C410564   1.234   4.262  15.185  0.5200 -0.4226 -0.2230
  711TMC3    C510565   1.256   4.300  15.315 -0.6576  0.4365  0.2459
  711TMC3    C610566   1.264   4.207  15.410 -0.2569 -0.7039  1.0294
  711TMC3     C10567   1.226   4.084  15.026  0.1731 -0.2033 -0.2841
  711TMC3     O10568   1.147   4.001  14.995  0.4956 -0.0374  0.8274
  711TMC3     H10569   1.250   3.931  15.217  1.3673  0.7324  0.3617
  711TMC3    H110570   1.217   4.329  15.101 -0.3462 -1.9542 -1.2561
  711TMC3    H210571   1.266   4.239  15.514  0.1188  0.9187  0.5200
  711TMC3    C710572   1.368   4.390  15.319  0.5008 -0.7095 -0.0219
  711TMC3    C810573   1.386   4.009  15.428 -0.0067  0.3380 -0.0908
  711TMC3    O110574   1.455   4.367  15.409  0.4849 -0.1131 -0.4409
  711TMC3    O210575   1.395   3.888  15.417 -0.2351 -0.0303 -0.1276
  712MPD2     C10576   2.417   0.746  14.076 -0.4775  0.8310  0.1161
  712MPD2    C110577   2.348   0.849  14.018  0.3636  0.3489  0.3066
  712MPD2    C210578   2.394   0.979  14.032  0.1663  0.3167 -0.3617
  712MPD2    C310579   2.509   1.007  14.109  0.2635  0.2899 -0.1408
  712MPD2    C410580   2.567   0.905  14.179 -0.5093  0.3864  0.0286
  712MPD2    C510581   2.523   0.779  14.154 -0.5065  0.2900 -0.4301
  712MPD2     H10582   2.328   1.049  13.981 -0.0424  1.0444  0.9046
  712MPD2    H110583   2.649   0.904  14.250  0.9170  1.4484 -1.5681
  712MPD2    H210584   2.384   0.644  14.059  0.4723  0.6815 -0.7886
  712MPD2    H310585   2.560   0.690  14.204  1.1890  2.1450  1.6070
  712MPD2     N10586   2.553   1.139  14.135  0.6869 -0.3174 -0.6952
  712MPD2    H510587   2.628   1.137  14.203  0.1339 -0.7504 -0.1010
  712MPD2    N110588   2.233   0.821  13.942 -0.4886 -0.3536 -0.4324
  712MPD2    H710589   2.172   0.901  13.923  0.4780  0.3798 -0.4611
  713TMC3    C110590   2.577   1.369  14.119 -0.0172 -0.2847 -0.5427
  713TMC3    C210591   2.710   1.361  14.133  0.3991  0.4201  0.0537
  713TMC3    C310592   2.779   1.474  14.130  0.6898  0.5258  0.2803
  713TMC3    C410593   2.510   1.488  14.116  0.8177  0.3648 -0.4410
  713TMC3    C510594   2.585   1.599  14.099  0.0277 -0.3135  0.1793
  713TMC3    C610595   2.717   1.592  14.107  0.0473  0.2189  0.5560
  713TMC3     C10596   2.509   1.249  14.069 -0.0653 -0.0734  1.0560
  713TMC3     O10597   2.416   1.258  13.992 -0.0638 -0.1640  0.8834
  713TMC3     H10598   2.759   1.265  14.119 -0.0303  0.1945  0.1057
  713TMC3    H110599   2.402   1.490  14.104  0.6537 -0.5212  0.9742
  713TMC3    H210600   2.775   1.681  14.082  0.1092 -0.2988 -1.1132
  713TMC3    C710601   2.536   1.734  14.129  0.3200 -1.1927 -0.2077
  713TMC3    C810602   2.923   1.472  14.117  0.2250 -0.0563 -0.1727
  713TMC3    O110603   2.619   1.820  14.152 -0.0083 -0.3714  0.1427
  713TMC3    O210604   2.968   1.579  14.094  0.2741 -0.5130 -0.1008
  714MPD2     C10605   0.856   4.139   1.234  0.0279 -0.5391 -0.0177
  714MPD2    C110606   0.738   4.078   1.189  0.6649  0.2385 -0.4583
  714MPD2    C210607   0.653   4.144   1.103  0.1650 -0.4246 -0.4795
  714MPD2    C310608   0.690   4.274   1.056 -0.7241 -0.4110 -0.3047
  714MPD2    C410609   0.810   4.332   1.100  0.0445 -0.2774  0.4937
  714MPD2    C510610   0.888   4.262   1.189 -0.3534 -0.5855 -0.2752
  714MPD2     H10611   0.558   4.108   1.066 -0.5190  0.1921  0.6883
  714MPD2    H110612   0.856   4.422   1.062 -1.4383  0.0487 -0.5751
  714MPD2    H210613   0.930   4.083   1.289  0.8302 -0.1669 -0.7190
  714MPD2    H310614   0.990   4.291   1.213 -0.3875 -1.1017  0.5147
  714MPD2     N10615   0.606   4.344   0.968  0.2948  0.2391 -0.0085
  714MPD2    H510616   0.516   4.305   0.942 -0.0675  1.9025 -1.2717
  714MPD2    N110617   0.718   3.946   1.238  0.1813  0.7453  0.1526
  714MPD2    H710618   0.781   3.902   1.304  0.5518  1.4230  0.2565
  715TMC3    C110619   0.634   3.729   1.230  0.5824 -0.2475 -0.1801
  715TMC3    C210620   0.616   3.635   1.135 -0.4112  0.2921  0.5160
  715TMC3    C310621   0.655   3.509   1.167  0.6015 -0.9134 -0.6074
  715TMC3    C410622   0.689   3.703   1.352 -0.0397  0.1388  0.4956
  715TMC3    C510623   0.742   3.581   1.370  0.2918  0.2876  0.5869
  715TMC3    C610624   0.714   3.476   1.286 -0.8674 -0.7484 -0.0054
  715TMC3     C10625   0.621   3.865   1.182 -0.3082  0.2222  0.5625
  715TMC3     O10626   0.535   3.891   1.099 -0.3126 -0.5916 -0.0382
  715TMC3     H10627   0.579   3.668   1.038 -0.5991 -2.1513 -0.2266
  715TMC3    H110628   0.718   3.783   1.420 -0.1094  0.0046  0.6823
  715TMC3    H210629   0.751   3.378   1.311  1.4698  0.0023 -0.5543
  715TMC3    C710630   0.730   3.550   1.511 -0.3485 -0.0958  0.2256
  715TMC3    C810631   0.710   3.440   1.055 -0.8673 -0.3127  0.1937
  715TMC3    O110632   0.786   3.629   1.587  0.1511  0.2508  0.0007
  715TMC3    O210633   0.644   3.441   0.949  0.0320 -0.3587 -0.0594
  716MPD2     C10634   3.742   2.986  10.007 -0.0225 -0.1434 -0.2055
  716MPD2    C110635   3.651   3.077   9.962  0.2816  0.0167  0.7309
  716MPD2    C210636   3.544   3.038   9.883  0.1925 -0.5730 -0.2717
  716MPD2    C310637   3.527   2.904   9.860 -0.0215 -0.4327 -0.7084
  716MPD2    C410638   3.619   2.808   9.913  0.2019 -0.0290 -0.2746
  716MPD2    C510639   3.728   2.857   9.979 -0.2786  1.3869 -0.3028
  716MPD2     H10640   3.479   3.111   9.837 -0.4233 -1.4247 -0.7577
  716MPD2    H110641   3.596   2.703   9.898  1.1360 -0.1554 -0.7819
  716MPD2    H210642   3.822   3.017  10.073 -0.4448  0.1596  0.1622
  716MPD2    H310643   3.798   2.787  10.022 -0.7507  0.1785 -1.5070
  716MPD2     N10644   3.418   2.870   9.778 -0.2916 -0.3844  0.4451
  716MPD2    H510645   3.371   2.951   9.738  1.1081  1.1128  1.8395
  716MPD2    N110646   3.672   3.211  10.011 -0.4084  0.4375 -0.2276
  716MPD2    H710647   3.737   3.222  10.089 -0.7838  1.2852 -0.0264
  717TMC3    C110648   3.250   2.742   9.669  0.2465  0.1060  0.3693
  717TMC3    C210649   3.156   2.824   9.729  0.1493 -0.5572  0.3385
  717TMC3    C310650   3.027   2.814   9.683  0.7114 -0.2943  0.4043
  717TMC3    C410651   3.218   2.641   9.583 -0.4644  0.0922 -0.0208
  717TMC3    C510652   3.089   2.633   9.546 -0.3155 -0.4752 -0.2115
  717TMC3    C610653   2.994   2.711   9.603  0.0119 -0.0022 -0.3018
  717TMC3     C10654   3.381   2.747   9.729 -0.7330 -0.4518 -0.3582
  717TMC3     O10655   3.439   2.638   9.741  0.0018 -0.0805 -0.4012
  717TMC3     H10656   3.173   2.897   9.807 -0.4419 -1.8278  1.6628
  717TMC3    H110657   3.294   2.568   9.557 -0.4329  0.1692 -0.1441
  717TMC3    H210658   2.889   2.701   9.577 -0.4252 -0.5189  1.6919
  717TMC3    C710659   3.062   2.563   9.416 -0.2317 -0.7223 -0.1472
  717TMC3    C810660   2.934   2.911   9.743 -0.5126 -0.3885 -0.1543
  717TMC3    O110661   3.162   2.540   9.347  0.2909 -0.5585  0.7043
  717TMC3    O210662   2.972   2.960   9.845  0.3529  0.5311  0.2949
  718MPD2     C10663   4.278   1.017  13.240  0.3165 -0.2257  0.3315
  718MPD2    C110664   4.268   0.992  13.103  0.9604  0.3166 -0.1625
  718MPD2    C210665   4.152   0.948  13.050  0.2065  0.1432 -0.5314
  718MPD2    C310666   4.037   0.944  13.116  0.6830  1.1264 -0.5821
  718MPD2    C410667   4.037   0.977  13.251  0.0372  0.2803  0.6011
  718MPD2    C510668   4.160   0.995  13.313  0.0086  0.2649  0.1492
  718MPD2     H10669   4.147   0.945  12.942  0.9512 -1.7743 -0.5100
  718MPD2    H110670   3.949   0.979  13.313 -0.8378  0.4179 -0.6390
  718MPD2    H210671   4.370   1.057  13.281  1.1546 -1.9041  0.0674
  718MPD2    H310672   4.155   1.001  13.422 -1.1173 -0.3156  0.1268
  718MPD2     N10673   3.919   0.920  13.042 -0.4724  0.2832 -0.6241
  718MPD2    H510674   3.929   0.902  12.942 -0.4154 -3.1540  0.0196
  718MPD2    N110675   4.373   1.009  13.012 -0.0966  0.0287  0.2443
  718MPD2    H710676   4.339   1.007  12.916 -2.0799  3.2941  0.8718
  719TMC3    C110677   4.561   1.104  12.913  0.0366 -0.0001 -0.2092
  719TMC3    C210678   4.516   1.033  12.812  0.0107 -0.0592  0.0014
  719TMC3    C310679   4.502   1.088  12.687 -0.4278 -0.2627 -0.0311
  719TMC3    C410680   4.592   1.231  12.898  0.4915 -0.5791 -0.0590
  719TMC3    C510681   4.577   1.285  12.774  0.0727 -0.2642 -0.2575
  719TMC3    C610682   4.532   1.218  12.668 -0.6908 -0.1720  0.0568
  719TMC3     C10683   4.495   1.066  13.041  0.4752  0.7015  0.6664
  719TMC3     O10684   4.563   1.048  13.143  0.1721  0.6944 -0.5666
  719TMC3     H10685   4.510   0.926  12.829 -0.8932  0.2706  1.6821
  719TMC3    H110686   4.623   1.293  12.982  0.1717 -1.7596  0.9208
  719TMC3    H210687   4.517   1.267  12.573 -1.1799 -1.4676 -0.5311
  719TMC3    C710688   4.596   1.431  12.756  0.4088  0.1816 -0.4028
  719TMC3    C810689   4.368   1.049  12.661  0.0276 -0.0764 -0.5079
  719TMC3    O110690   4.638   1.471  12.648  0.4657 -0.2022  0.2416
  719TMC3    O210691   4.318   0.976  12.746 -0.4413  0.1106  0.3945
  720MPD2     C10692   2.765   2.940  14.101  0.5629  0.1553 -0.1012
  720MPD2    C110693   2.869   2.989  14.019  0.0430  0.9124  0.3909
  720MPD2    C210694   2.991   3.010  14.075  0.3031  0.2538  0.7835
  720MPD2    C310695   3.017   2.973  14.206 -0.0692 -0.0877 -0.1830
  720MPD2    C410696   2.913   2.919  14.282 -0.1381  0.1720 -0.2996
  720MPD2    C510697   2.792   2.901  14.231  0.0668 -0.2055 -0.2794
  720MPD2     H10698   3.075   3.046  14.018  0.1604 -1.0085 -0.2260
  720MPD2    H110699   2.926   2.905  14.389 -2.1295 -0.8387 -0.1871
  720MPD2    H210700   2.663   2.920  14.070  0.3634 -0.6903  1.0845
  720MPD2    H310701   2.713   2.851  14.286 -0.0792  2.1643  1.6540
  720MPD2     N10702   3.145   3.003  14.259 -0.1670 -0.1555  0.5894
  720MPD2    H510703   3.213   3.042  14.195 -2.3716  1.0245 -1.0123
  720MPD2    N110704   2.853   3.051  13.890  0.0009  0.7525 -0.1073
  720MPD2    H710705   2.938   3.074  13.840 -2.2869  2.0935 -3.3426
  721TMC3    C110706   3.325   2.995  14.428  0.7157 -0.4286 -0.3297
  721TMC3    C210707   3.346   2.983  14.565  1.0913  0.2572 -0.0208
  721TMC3    C310708   3.476   3.013  14.604 -1.0802  0.1364 -0.0176
  721TMC3    C410709   3.417   3.023  14.328  0.4948  0.6788 -0.5434
  721TMC3    C510710   3.542   3.050  14.381 -0.3300 -0.2903 -0.0691
  721TMC3    C610711   3.570   3.047  14.513 -0.0012 -0.4206 -0.0403
  721TMC3     C10712   3.186   2.964  14.388  0.0974 -0.0868  0.5573
  721TMC3     O10713   3.126   2.901  14.469  0.3428 -0.0294 -0.1772
  721TMC3     H10714   3.267   2.949  14.632 -0.2966  0.2370 -1.6692
  721TMC3    H110715   3.392   3.028  14.223  1.5430  2.6400 -0.6956
  721TMC3    H210716   3.663   3.090  14.550  0.1243  0.4927 -1.3851
  721TMC3    C710717   3.650   3.032  14.286 -0.2748  0.4574 -0.4059
  721TMC3    C810718   3.529   3.002  14.743  0.7850 -0.9921  0.0927
  721TMC3    O110719   3.625   3.028  14.171 -0.3410 -0.3457  0.4483
  721TMC3    O210720   3.650   3.006  14.760 -0.3602 -0.0446 -0.4888
  722MPD2     C10721   1.372   1.779  13.423 -0.4871 -0.2193  0.1607
  722MPD2    C110722   1.451   1.880  13.379  0.4510 -0.1980  0.7412
  722MPD2    C210723   1.445   1.933  13.249 -0.3409  0.3760  0.1362
  722MPD2    C310724   1.359   1.882  13.160 -0.4824 -0.4144 -0.0086
  722MPD2    C410725   1.282   1.767  13.202  0.4294  0.3311 -0.2749
  722MPD2    C510726   1.279   1.727  13.337  0.1063 -0.2701  0.0585
  722MPD2     H10727   1.507   2.018  13.222  0.4546  0.4244  2.0559
  722MPD2    H110728   1.203   1.724  13.143  0.5295 -0.1112 -0.0812
  722MPD2    H210729   1.375   1.735  13.522 -0.1010 -0.5643 -0.0009
  722MPD2    H310730   1.213   1.645  13.360  2.1532 -2.3091 -1.3782
  722MPD2     N10731   1.351   1.938  13.033  0.5541 -0.0888 -0.0662
  722MPD2    H510732   1.413   2.018  13.019  1.7092 -1.0229 -0.2300
  722MPD2    N110733   1.527   1.952  13.473  0.0048 -0.5534  0.5166
  722MPD2    H710734   1.569   2.040  13.444 -1.4001 -0.7530 -2.1703
  723TMC3    C110735   1.297   1.973  12.817  0.0888  0.6678 -0.5131
  723TMC3    C210736   1.250   1.917  12.705 -0.6129 -0.6934  0.1240
  723TMC3    C310737   1.223   1.997  12.594 -0.1553 -0.2861  0.2850
  723TMC3    C410738   1.321   2.105  12.824  0.0102  0.6453 -0.0708
  723TMC3    C510739   1.287   2.176  12.712 -0.1640  0.6134  0.5720
  723TMC3    C610740   1.243   2.127  12.594 -0.0338 -0.6352  0.5132
  723TMC3     C10741   1.269   1.900  12.936 -0.1713  0.8067 -0.7176
  723TMC3     O10742   1.179   1.814  12.935  0.0571 -0.1353 -0.5182
  723TMC3     H10743   1.225   1.812  12.702 -1.4216 -0.4645 -1.1647
  723TMC3    H110744   1.362   2.155  12.911  0.1235  1.5197 -0.6284
  723TMC3    H210745   1.209   2.184  12.509  2.9567  0.1590 -0.1343
  723TMC3    C710746   1.261   2.318  12.726 -0.2854  0.6307  0.3598
  723TMC3    C810747   1.131   1.946  12.494  0.2507  0.3181 -0.0171
  723TMC3    O110748   1.294   2.397  12.639 -0.0233  0.2361 -0.1804
  723TMC3    O210749   1.052   2.028  12.445  0.3034  0.2634  0.2492
  724TMC3    C110750   1.255   0.898  11.047 -0.3894 -0.0409  0.0080
  724TMC3    C210751   1.356   0.850  10.966  0.2778  0.0248 -0.1662
  724TMC3    C310752   1.479   0.847  11.025 -0.1964 -0.3240  0.1147
  724TMC3    C410753   1.272   0.929  11.179  0.1178 -0.0149 -0.2960
  724TMC3    C510754   1.400   0.925  11.230  0.1491  0.3869  0.1750
  724TMC3    C610755   1.503   0.881  11.156  0.0805  0.2315 -0.2418
  724TMC3     C10756   1.135   0.951  10.977  0.0307  0.1386  0.1827
  724TMC3     O10757   1.060   1.030  11.032 -0.0208  0.4273  0.2412
  724TMC3     H10758   1.345   0.853  10.858 -1.4970 -1.3153 -0.0240
  724TMC3    H110759   1.182   0.940  11.239  0.7934 -1.4673  0.9754
  724TMC3    H210760   1.602   0.870  11.199 -0.1622 -2.1442 -0.2712
  724TMC3    C710761   1.419   0.907  11.369  0.0882 -0.3902 -0.2323
  724TMC3    C810762   1.596   0.859  10.947 -0.1019  0.3538 -0.0608
  724TMC3    O110763   1.480   0.806  11.392 -0.1463  0.1265 -0.3644
  724TMC3    O210764   1.627   0.767  10.869  0.2587 -0.0609  0.6686
  725TMC3    C110765   3.628   3.607  12.738  0.0553 -0.1227  0.7763
  725TMC3    C210766   3.614   3.593  12.603  0.0245  0.3625 -0.0911
  725TMC3    C310767   3.558   3.478  12.559 -0.5511 -0.4209  0.0764
  725TMC3    C410768   3.581   3.517  12.822  0.2398 -0.7027  0.7652
  725TMC3    C510769   3.539   3.397  12.775 -0.2187 -0.4714 -0.1769
  725TMC3    C610770   3.531   3.369  12.640  0.7286  0.5382 -0.1932
  725TMC3     C10771   3.711   3.704  12.796 -0.3176  0.3188 -0.2437
  725TMC3     O10772   3.682   3.735  12.907 -0.2547  0.4088  0.0106
  725TMC3     H10773   3.657   3.672  12.542  2.3904 -1.8670 -1.2846
  725TMC3    H110774   3.588   3.536  12.929  0.4461 -0.8419  0.7771
  725TMC3    H210775   3.519   3.268  12.603  1.3981 -0.4353  2.2377
  725TMC3    C710776   3.533   3.274  12.862 -0.9034 -0.0554  0.6010
  725TMC3    C810777   3.545   3.447  12.419  0.6744  0.4084  0.2965
  725TMC3    O110778   3.595   3.289  12.969  0.7179 -0.0310  0.5487
  725TMC3    O210779   3.553   3.331  12.389  0.4989 -0.1509 -0.7233
  726MPD2     C10780   0.263   0.896  10.135 -0.1643 -0.0994  0.1829
  726MPD2    C110781   0.378   0.911  10.208  0.1381 -0.2373 -0.0259
  726MPD2    C210782   0.451   0.797  10.249  0.2472 -0.0845  0.6092
  726MPD2    C310783   0.415   0.667  10.212  0.3483  0.4650 -0.0858
  726MPD2    C410784   0.297   0.653  10.144 -0.0547  0.1984 -0.4729
  726MPD2    C510785   0.224   0.768  10.107 -0.2032  0.8396 -0.4767
  726MPD2     H10786   0.532   0.809  10.320  1.0908 -0.8035 -0.2294
  726MPD2    H110787   0.258   0.556  10.115 -0.2519  0.5411 -1.3774
  726MPD2    H210788   0.208   0.976  10.087  0.0389 -0.5849 -0.8640
  726MPD2    H310789   0.125   0.760  10.064  0.1175  1.6609 -1.3678
  726MPD2     N10790   0.488   0.543  10.246  0.0608 -0.5963  0.2740
  726MPD2    H510791   0.445   0.455  10.219 -2.4495  1.3333 -2.0169
  726MPD2    N110792   0.430   1.042  10.235  0.3336  0.7813  0.2992
  726MPD2    H710793   0.520   1.052  10.280 -0.1327 -0.8489  1.5941
  727TMC3    C110794   0.455   1.272  10.255  0.3137  0.2242 -0.2446
  727TMC3    C210795   0.580   1.257  10.310 -0.0679 -0.0407 -0.2464
  727TMC3    C310796   0.629   1.367  10.379  0.0724 -0.0913 -0.0348
  727TMC3    C410797   0.379   1.382  10.273 -0.6744  0.4648  0.6317
  727TMC3    C510798   0.423   1.470  10.364 -0.5429 -0.5558  0.0918
  727TMC3    C610799   0.549   1.467  10.417  0.7095  0.2352 -0.4512
  727TMC3     C10800   0.383   1.162  10.191  0.0164 -0.1283  0.4687
  727TMC3     O10801   0.277   1.188  10.133  0.5197  0.6421 -0.5193
  727TMC3     H10802   0.642   1.170  10.289 -0.4497 -0.5621  0.8151
  727TMC3    H110803   0.274   1.386  10.246  0.5263 -1.3539 -4.3529
  727TMC3    H210804   0.592   1.553  10.467  0.9530  0.6389 -1.3523
  727TMC3    C710805   0.317   1.545  10.435 -0.2313 -0.2327 -1.0865
  727TMC3    C810806   0.757   1.346  10.431  0.0103 -0.1672 -0.6672
  727TMC3    O110807   0.208   1.544  10.384 -0.2412  0.3802  0.1631
  727TMC3    O210808   0.830   1.267  10.373 -0.1125 -0.3053  0.0866
  728TMC3    C110809   0.611   3.719  15.458 -0.3137 -0.0324 -0.1896
  728TMC3    C210810   0.744   3.736  15.424 -0.3475 -0.5707 -0.0358
  728TMC3    C310811   0.781   3.758  15.291 -0.0451 -0.2186  0.4977
  728TMC3    C410812   0.515   3.718  15.355  0.3310 -0.1050 -0.2478
  728TMC3    C510813   0.554   3.749  15.226 -0.5562 -0.4262  1.0939
  728TMC3    C610814   0.685   3.773  15.195 -0.3370 -0.5314 -0.2841
  728TMC3     C10815   0.579   3.687  15.594  0.4876  0.3184 -0.5051
  728TMC3     O10816   0.675   3.702  15.670 -0.1990  0.7490 -0.4631
  728TMC3     H10817   0.821   3.741  15.501 -1.4318 -0.7940  1.0679
  728TMC3    H110818   0.409   3.711  15.379  0.8415  1.5022  2.4159
  728TMC3    H210819   0.726   3.754  15.096  1.2707 -0.2562  0.3384
  728TMC3    C710820   0.457   3.751  15.113  0.6749 -0.4446  0.0890
  728TMC3    C810821   0.905   3.700  15.247  0.2186  0.1390 -0.3545
  728TMC3    O110822   0.351   3.688  15.112 -0.0463 -0.0115 -0.0520
  728TMC3    O210823   0.933   3.709  15.128  0.1241  0.0851 -0.2572
  729MPD2     C10824   2.971   4.398  16.610  0.6695 -0.4473 -0.1102
  729MPD2    C110825   3.099   4.408  16.659  0.0461 -0.1257 -0.4301
  729MPD2    C210826   3.115   4.418  16.798 -0.5054 -0.5731  0.1003
  729MPD2    C310827   3.003   4.422  16.876  0.1988 -0.6775  0.5421
  729MPD2    C410828   2.875   4.409  16.825  0.0734 -0.2044 -0.6091
  729MPD2    C510829   2.861   4.395  16.689  0.2395  0.1001  0.1626
  729MPD2     H10830   3.214   4.442  16.835  0.5720 -1.5057 -2.1455
  729MPD2    H110831   2.790   4.413  16.893  1.1510 -0.8164  0.7617
  729MPD2    H210832   2.960   4.384  16.503  2.5412 -1.8846 -0.1200
  729MPD2    H310833   2.761   4.401  16.646  0.4390 -1.0347 -0.4735
  729MPD2     N10834   3.016   4.442  17.016  0.2297 -1.0247 -1.2081
  729MPD2    H510835   2.933   4.442  17.074  1.3286  1.1803  0.3632
  729MPD2    N110836   3.199   4.423  16.567  0.5349  0.3710 -0.1191
  729MPD2    H710837   3.176   4.429  16.468 -2.1620 -0.7246  0.4528
  730TMC3    C110838   3.095   4.542  17.199 -0.1715  0.5412  0.0735
  730TMC3    C210839   3.195   4.541  17.290  0.9066 -0.3500 -0.4556
  730TMC3    C310840   3.185   4.621  17.397 -0.1356 -0.1494 -0.1957
  730TMC3    C410841   2.984   4.624  17.211  0.5945  0.7449 -0.4066
  730TMC3    C510842   2.978   4.706  17.323  0.4107  0.4833  0.4725
  730TMC3    C610843   3.081   4.710  17.420  0.0671 -0.0272  0.5926
  730TMC3     C10844   3.131   4.469  17.079 -0.1574  0.1938 -0.6528
  730TMC3     O10845   3.252   4.467  17.053 -0.0203  0.0877 -0.1250
  730TMC3     H10846   3.276   4.470  17.276  0.4656 -0.5679 -1.9319
  730TMC3    H110847   2.909   4.624  17.132 -0.4011 -0.3691  0.5404
  730TMC3    H210848   3.096   0.042  17.502  0.5892 -0.2242  0.6638
  730TMC3    C710849   2.898   0.088  17.311 -0.1399  0.3755 -0.2273
  730TMC3    C810850   3.312   4.640  17.454 -0.4709 -0.1678  0.5205
  730TMC3    O110851   2.856   0.106  17.198 -0.5072  0.4763  0.0752
  730TMC3    O210852   3.363   4.544  17.503 -0.3306 -0.2798  0.1811
  731MPD2     C10853   3.200   3.414  12.529  0.8803 -0.4397  0.4064
  731MPD2    C110854   3.203   3.277  12.525  0.4438  0.5805  0.8285
  731MPD2    C210855   3.186   3.200  12.638 -0.0817 -0.0599 -0.5371
  731MPD2    C310856   3.157   3.257  12.763 -0.1101 -0.1212 -0.1732
  731MPD2    C410857   3.152   3.393  12.770  0.6412 -0.1896 -0.7252
  731MPD2    C510858   3.174   3.471  12.653  0.3248  0.6957  0.6776
  731MPD2     H10859   3.198   3.092  12.641 -1.2316 -0.2184 -1.5389
  731MPD2    H110860   3.131   3.444  12.864 -0.9574 -3.5220  0.7303
  731MPD2    H210861   3.223   3.484  12.450 -0.2722 -1.8518 -1.1931
  731MPD2    H310862   3.185   3.577  12.671  1.4209  0.7848 -0.5178
  731MPD2     N10863   3.152   3.170  12.876  0.2068 -0.3121  0.2326
  731MPD2    H510864   3.156   3.072  12.851  0.0218 -0.0910 -0.6680
  731MPD2    N110865   3.244   3.211  12.411 -0.3777  0.2796  0.0947
  731MPD2    H710866   3.255   3.262  12.324 -1.6093 -2.3739 -1.6179
  732TMC3    C110867   3.335   3.066  12.262  0.6982  0.0877  0.2401
  732TMC3    C210868   3.255   2.994  12.185 -0.7258  0.0071 -0.4598
  732TMC3    C310869   3.291   2.950  12.062  0.6292 -0.0964 -0.6045
  732TMC3    C410870   3.470   3.067  12.236 -0.0110  1.0828 -0.1097
  732TMC3    C510871   3.514   3.016  12.111  0.4935 -0.7594  0.3560
  732TMC3    C610872   3.424   2.960  12.023  0.1223 -0.0153 -0.3778
  732TMC3     C10873   3.304   3.089  12.399  0.0352  0.0075  0.5298
  732TMC3     O10874   3.293   2.990  12.468  0.6643  0.9704 -0.2715
  732TMC3     H10875   3.154   2.980  12.221  0.4083  0.1039  2.7366
  732TMC3    H110876   3.542   3.119  12.298  0.6684 -0.7521  0.6213
  732TMC3    H210877   3.443   2.923  11.923  0.8370  1.2563 -0.7150
  732TMC3    C710878   3.651   2.992  12.074 -0.5644 -0.4153  0.6837
  732TMC3    C810879   3.187   2.923  11.965  0.0807 -0.3548 -0.0680
  732TMC3    O110880   3.672   2.957  11.960  0.2205 -0.0144  0.1977
  732TMC3    O210881   3.237   2.924  11.852 -0.0118 -0.0647 -0.1588
  733TMC3    C110882   3.482   0.900  12.884  0.4712  0.3837 -0.2345
  733TMC3    C210883   3.562   0.881  12.994  0.8225  0.6239 -0.0390
  733TMC3    C310884   3.696   0.912  12.973  0.1340 -0.6293  0.0746
  733TMC3    C410885   3.524   0.951  12.767  0.4049 -0.3352 -0.0119
  733TMC3    C510886   3.656   0.977  12.746  0.2951  0.3595  0.4425
  733TMC3    C610887   3.738   0.963  12.854  0.3320  0.4707 -0.1686
  733TMC3     C10888   3.339   0.913  12.914  0.8691 -0.8422  0.7882
  733TMC3     O10889   3.269   0.989  12.844 -0.1155 -0.3583 -0.7691
  733TMC3     H10890   3.533   0.856  13.095  1.1920 -1.7793 -0.5271
  733TMC3    H110891   3.461   0.952  12.679  2.2705  2.7643 -1.3073
  733TMC3    H210892   3.837   1.009  12.847  0.3043  0.3165 -1.5302
  733TMC3    C710893   3.712   1.026  12.616  0.1677  0.6821  0.3866
  733TMC3    C810894   3.787   0.927  13.085  0.6153  0.2782 -0.4966
  733TMC3    O110895   3.631   1.085  12.542  0.0978 -0.3489 -0.0182
  733TMC3    O210896   3.741   0.933  13.198 -0.7238 -0.1837  0.4003
  734MPD2     C10897   1.344   4.000  12.017 -0.1418 -1.2250 -0.7788
  734MPD2    C110898   1.212   4.005  11.985 -0.5358 -0.8885  0.1835
  734MPD2    C210899   1.177   4.044  11.857 -0.2719 -0.2738 -0.0929
  734MPD2    C310900   1.273   4.056  11.756  0.7924 -0.0899 -0.6636
  734MPD2    C410901   1.405   4.038  11.785 -0.6468 -0.3374 -0.0427
  734MPD2    C510902   1.439   4.012  11.916 -0.9167 -0.2809 -0.5529
  734MPD2     H10903   1.073   4.068  11.841  0.4653  1.7415 -1.7743
  734MPD2    H110904   1.492   4.049  11.720  0.8392  1.5954  2.2394
  734MPD2    H210905   1.377   3.966  12.115 -0.9593 -1.1286 -0.4696
  734MPD2    H310906   1.542   3.992  11.941 -0.5224  2.1323 -0.3001
  734MPD2     N10907   1.219   4.089  11.629  0.4071  0.5124 -0.3453
  734MPD2    H510908   1.119   4.103  11.619  0.5068  0.8059 -0.9627
  734MPD2    N110909   1.116   3.972  12.093  0.3451  0.5768 -0.6412
  734MPD2    H710910   1.160   3.947  12.182 -1.8671 -0.3710  0.1734
  735TMC3    C110911   0.908   3.905  12.179  0.0681  0.1769  0.0284
  735TMC3    C210912   0.776   3.893  12.136 -0.7438 -0.4361  1.2121
  735TMC3    C310913   0.730   3.766  12.094 -0.4340  0.3482  0.5709
  735TMC3    C410914   0.973   3.788  12.208 -0.3045 -0.4485 -0.1525
  735TMC3    C510915   0.920   3.671  12.169 -0.5268 -0.1244  0.5184
  735TMC3    C610916   0.798   3.656  12.112  0.1843  0.3368 -0.1049
  735TMC3     C10917   0.979   3.979  12.080  0.2452 -0.0007  0.2250
  735TMC3     O10918   0.911   4.008  11.983 -0.3794  0.4063 -0.1364
  735TMC3     H10919   0.720   3.978  12.098  0.3734 -1.2220 -2.1559
  735TMC3    H110920   1.069   3.796  12.256 -0.4757  1.0946 -0.0838
  735TMC3    H210921   0.757   3.562  12.076  1.7112 -0.9211  1.4515
  735TMC3    C710922   1.016   3.562  12.147 -0.6606 -0.3155  0.5221
  735TMC3    C810923   0.661   3.763  11.963  0.1896  0.5435  0.1320
  735TMC3    O110924   1.132   3.593  12.174  0.0342  0.1748  0.7283
  735TMC3    O210925   0.581   3.672  11.937 -0.2477 -0.5076  0.0178
  736MPD2     C10926   0.967   3.209  12.055 -0.4612 -0.0182  0.3995
  736MPD2    C110927   1.034   3.316  12.099  0.1084  0.8293  0.6605
  736MPD2    C210928   1.173   3.312  12.113  0.3054  0.0820  0.1237
  736MPD2    C310929   1.236   3.195  12.069  0.1987  0.0150 -0.0154
  736MPD2    C410930   1.163   3.084  12.030 -0.1876  0.2407 -0.1729
  736MPD2    C510931   1.025   3.090  12.022 -0.0273 -0.2249 -0.3609
  736MPD2     H10932   1.236   3.398  12.134  0.3079 -0.1097  0.9255
  736MPD2    H110933   1.215   2.989  12.025 -1.9836 -0.7969  1.0757
  736MPD2    H210934   0.858   3.210  12.047 -0.5436 -4.4165  0.7463
  736MPD2    H310935   0.970   3.002  11.991  0.4487 -0.3046 -0.9802
  736MPD2     N10936   1.379   3.181  12.071 -0.1323 -0.7655  0.2523
  736MPD2    H510937   1.406   3.085  12.050 -0.8914 -0.7953 -0.5695
  736MPD2    N110938   0.960   3.438  12.120 -0.6111 -0.1750  0.2197
  736MPD2    H710939   0.860   3.425  12.108 -0.2522 -2.5248 -0.2590
  737TMC3    C110940   1.605   3.250  12.044  0.0758  0.0649  0.1092
  737TMC3    C210941   1.683   3.344  11.989 -0.0155  0.6808 -0.4479
  737TMC3    C310942   1.791   3.308  11.912 -0.5698 -0.2381 -0.7582
  737TMC3    C410943   1.639   3.118  12.030  0.1471  0.8726 -0.3496
  737TMC3    C510944   1.760   3.087  11.971  0.0388  0.7675  0.4350
  737TMC3    C610945   1.833   3.182  11.906 -0.7544  0.6352  0.1963
  737TMC3     C10946   1.467   3.286  12.076  0.6950  0.1176 -0.1627
  737TMC3     O10947   1.440   3.404  12.067  0.1542  0.3556  0.3179
  737TMC3     H10948   1.663   3.450  11.991 -1.8294  0.3026  1.0916
  737TMC3    H110949   1.587   3.044  12.089  3.0300  0.3181  1.4849
  737TMC3    H210950   1.933   3.166  11.867 -0.6933 -1.2535  1.1001
  737TMC3    C710951   1.795   2.948  11.940 -0.1821  0.2769 -0.7638
  737TMC3    C810952   1.845   3.399  11.819 -0.0250  0.1434  0.4399
  737TMC3    O110953   1.762   2.860  12.016 -0.4433  0.2937 -0.3603
  737TMC3    O210954   1.870   3.517  11.849  0.1861  0.2062  0.1894
  738MPD2     C10955   1.615   2.153  15.201  0.4769  0.3369 -0.4693
  738MPD2    C110956   1.704   2.047  15.205  0.7199 -0.8039  0.4088
  738MPD2    C210957   1.829   2.073  15.252 -0.4373 -0.0571  0.7172
  738MPD2    C310958   1.881   2.198  15.266 -0.5100 -0.4573 -0.1950
  738MPD2    C410959   1.800   2.304  15.256 -0.1407  0.5664 -0.1880
  738MPD2    C510960   1.664   2.279  15.240 -0.5438  0.2260 -0.2198
  738MPD2     H10961   1.900   1.991  15.256 -0.3075 -0.0735 -1.4335
  738MPD2    H110962   1.838   2.403  15.280 -0.5504  0.1590  2.1706
  738MPD2    H210963   1.511   2.134  15.179  0.0159 -1.3526  3.2307
  738MPD2    H310964   1.596   2.363  15.241  0.2492  0.8467  1.1139
  738MPD2     N10965   2.013   2.221  15.299  0.5276  0.3066  0.8921
  738MPD2    H510966   2.051   2.315  15.292 -0.0563  0.5646  1.1666
  738MPD2    N110967   1.675   1.915  15.181 -0.7676 -0.5688 -0.4621
  738MPD2    H710968   1.743   1.848  15.214  0.5741 -0.1803 -2.4504
  739TMC3    C110969   2.238   2.159  15.309  0.2205 -0.2375 -0.1492
  739TMC3    C210970   2.252   2.235  15.189  0.4554  0.4007 -0.1357
  739TMC3    C310971   2.347   2.200  15.097 -0.3272  0.3261 -0.3079
  739TMC3    C410972   2.334   2.062  15.333 -0.4427  0.4237 -0.0591
  739TMC3    C510973   2.436   2.036  15.246  0.1447  0.0183 -0.1157
  739TMC3    C610974   2.435   2.091  15.126 -0.8527  0.2111 -0.6541
  739TMC3     C10975   2.106   2.124  15.343 -0.8534 -0.0716  1.4820
  739TMC3     O10976   2.090   2.009  15.383  0.5237 -0.4752 -0.1973
  739TMC3     H10977   2.183   2.312  15.156  0.6612 -0.2102 -2.0030
  739TMC3    H110978   2.329   2.025  15.435 -2.0020  1.8641  0.3857
  739TMC3    H210979   2.519   2.069  15.060  0.1583 -0.6179  0.9122
  739TMC3    C710980   2.535   1.940  15.285  0.1760 -0.0361 -0.1615
  739TMC3    C810981   2.331   2.245  14.959 -0.1408 -0.3166  0.1381
  739TMC3    O110982   2.514   1.871  15.384  0.5101  0.4769 -0.0711
  739TMC3    O210983   2.227   2.309  14.928 -0.6308 -0.4535  0.4075
  740TMC3    C110984   2.587   3.277  14.874 -0.5625  0.2946 -0.2657
  740TMC3    C210985   2.586   3.252  15.007 -0.0008  0.2732 -1.3455
  740TMC3    C310986   2.697   3.204  15.071 -0.3522  0.0727  0.1328
  740TMC3    C410987   2.708   3.278  14.809  0.1853 -0.3310  0.0377
  740TMC3    C510988   2.824   3.237  14.877 -0.1040 -0.7821  0.0263
  740TMC3    C610989   2.816   3.197  15.005  0.0985  0.3862 -0.5145
  740TMC3     C10990   2.470   3.316  14.793 -0.6556  0.6153  0.1536
  740TMC3     O10991   2.484   3.380  14.686 -1.0566  0.2420  0.3093
  740TMC3     H10992   2.492   3.266  15.059  0.5315  0.3566 -0.4111
  740TMC3    H110993   2.724   3.288  14.702 -1.4280 -0.5112 -0.2156
  740TMC3    H210994   2.906   3.161  15.054 -1.2329 -0.6190  1.1843
  740TMC3    C710995   2.961   3.253  14.819  0.2839 -0.3069  0.3080
  740TMC3    C810996   2.684   3.201  15.215  0.6588 -0.1214  0.1983
  740TMC3    O110997   3.052   3.221  14.893  0.0373  0.3976  0.0087
  740TMC3    O210998   2.593   3.254  15.271  0.3826  0.5549  0.1536
  741TMC3    C110999   2.352   2.636  14.734 -0.0980  0.4228  0.0615
  741TMC3    C211000   2.238   2.594  14.675 -0.1095  0.0864  0.3803
  741TMC3    C311001   2.137   2.571  14.766  0.2535 -0.0184 -0.0656
  741TMC3    C411002   2.373   2.649  14.873  0.0586  0.1900 -0.0876
  741TMC3    C511003   2.262   2.635  14.957  0.0437  0.2945 -0.5210
  741TMC3    C611004   2.139   2.594  14.899 -0.6085 -0.2071 -0.3416
  741TMC3     C11005   2.474   2.628  14.653  1.1359 -0.3193 -0.0634
  741TMC3     O11006   2.574   2.594  14.716  0.5595 -0.7107 -0.1675
  741TMC3     H11007   2.236   2.560  14.572  2.8470 -2.1260  1.0490
  741TMC3    H111008   2.470   2.677  14.911  0.4290 -1.3528  0.1331
  741TMC3    H211009   2.051   2.585  14.962 -1.7025 -1.9930 -2.1049
  741TMC3    C711010   2.289   2.662  15.098  0.3011  0.2062 -0.6377
  741TMC3    C811011   2.021   2.507  14.713  0.2850 -0.7797  0.9512
  741TMC3    O111012   2.399   2.701  15.121  0.2203  0.0475 -0.2291
  741TMC3    O211013   1.987   2.558  14.603  0.1741  0.3117 -0.1536
  742TMC3    C111014   2.320   0.871  15.187  0.4651 -0.6589 -0.0399
  742TMC3    C211015   2.194   0.853  15.133 -0.9499  0.4226  0.9126
  742TMC3    C311016   2.168   0.730  15.078  0.1382  0.1267  0.2121
  742TMC3    C411017   2.393   0.758  15.215 -0.2993  0.7474  0.3177
  742TMC3    C511018   2.357   0.636  15.160 -0.5857 -0.3298  0.3237
  742TMC3    C611019   2.254   0.618  15.085 -0.2970 -0.1677  0.0101
  742TMC3     C11020   2.351   0.992  15.254  0.0871  0.3672  0.3410
  742TMC3     O11021   2.433   0.984  15.348 -0.1697  0.0989 -0.0047
  742TMC3     H11022   2.134   0.935  15.095 -0.7311  0.7855  1.3471
  742TMC3    H111023   2.490   0.779  15.259 -1.1127  0.0743  2.4261
  742TMC3    H211024   2.222   0.520  15.052  0.2500 -0.5904  0.7421
  742TMC3    C711025   2.439   0.528  15.197 -0.3105  0.1525  0.0886
  742TMC3    C811026   2.058   0.707  14.989 -0.1892  0.2901 -0.7641
  742TMC3    O111027   2.453   0.429  15.129 -0.2578  0.1743  0.1387
  742TMC3    O211028   2.076   0.640  14.890  0.3207  0.5677 -0.1121
  743MPD2     C11029   4.187   2.331   1.452  0.2746  0.9110 -0.0412
  743MPD2    C111030   4.248   2.208   1.431 -1.0202 -0.2775 -0.1182
  743MPD2    C211031   4.390   2.188   1.447  0.3256 -0.3195  0.3471
  743MPD2    C311032   4.462   2.306   1.479  0.1260 -0.5296  0.3775
  743MPD2    C411033   4.397   2.426   1.496  0.1968  0.3895 -0.1130
  743MPD2    C511034   4.264   2.445   1.471 -0.5119 -0.3960  0.3144
  743MPD2     H11035   4.443   2.096   1.424 -0.0546 -1.1246  2.7379
  743MPD2    H111036   4.443   2.523   1.514  0.5598  0.5155 -1.7295
  743MPD2    H211037   4.079   2.337   1.444 -0.0710 -3.1314  1.3829
  743MPD2    H311038   4.215   2.541   1.483 -1.5349 -0.7948 -0.7484
  743MPD2     N11039   4.602   2.295   1.504 -0.5232  0.3827  0.2508
  743MPD2    H511040   4.649   2.209   1.477 -2.4238 -0.8062  0.7637
  743MPD2    N111041   4.155   2.107   1.401 -0.3774  0.3433 -0.0317
  743MPD2    H711042   4.060   2.133   1.377 -0.3983  1.4839  1.2690
  744TMC3    C111043   4.109   1.894   1.305  0.7817  0.5717  0.6143
  744TMC3    C211044   3.991   1.946   1.255  0.3543 -0.0482  0.1241
  744TMC3    C311045   3.958   1.896   1.130 -0.0897  0.1599  0.1387
  744TMC3    C411046   4.178   1.786   1.246  0.4442 -0.0812  0.4029
  744TMC3    C511047   4.153   1.760   1.120  0.3259 -0.0367  0.1182
  744TMC3    C611048   4.041   1.812   1.065 -0.5190 -0.0403  0.4119
  744TMC3     C11049   4.197   1.974   1.393  0.4818 -0.0157 -0.2987
  744TMC3     O11050   4.299   1.918   1.441 -0.0720 -0.4467 -0.8100
  744TMC3     H11051   3.929   2.022   1.302 -0.3026  0.3662 -1.4128
  744TMC3    H111052   4.272   1.751   1.288  1.7151  1.6669 -0.9799
  744TMC3    H211053   4.027   1.782   0.962  0.3521  2.0492 -0.3079
  744TMC3    C711054   4.264   1.728   1.035  0.0515  0.2955 -0.2687
  744TMC3    C811055   3.871   1.981   1.059  0.1484 -0.0554  0.2087
  744TMC3    O111056   4.257   1.759   0.918 -0.2084  0.3435 -0.3974
  744TMC3    O211057   3.754   2.005   1.094  0.2384 -0.2463  0.3616
  745TMC3    C111058   2.050   0.748  13.840 -0.2558  0.2827  0.4126
  745TMC3    C211059   1.927   0.715  13.897 -0.1363 -0.3843  0.0938
  745TMC3    C311060   1.824   0.797  13.886  0.4238  0.2288  0.1067
  745TMC3    C411061   2.070   0.861  13.764 -0.2207  0.4185 -0.1798
  745TMC3    C511062   1.960   0.941  13.752 -0.0627  0.5583 -0.0381
  745TMC3    C611063   1.841   0.913  13.817 -0.1401 -0.2527 -0.5769
  745TMC3     C11064   2.165   0.706  13.921 -0.0579  0.7077 -0.2020
  745TMC3     O11065   2.169   0.597  13.980  0.2067 -0.2471 -0.0708
  745TMC3     H11066   1.920   0.625  13.958 -1.4891 -0.2503  0.1352
  745TMC3    H111067   2.172   0.882  13.733  0.2879  0.5679  1.6072
  745TMC3    H211068   1.756   0.980  13.819 -0.5045 -0.7724  2.2172
  745TMC3    C711069   1.978   1.078  13.712 -0.8435  0.1151  0.1238
  745TMC3    C811070   1.744   0.811  14.003 -0.3227 -0.6556 -0.2521
  745TMC3    O111071   1.898   1.159  13.735 -0.0218 -0.4931  0.2782
  745TMC3    O211072   1.630   0.863  13.999 -0.1484  0.0573 -0.2207
  746TMC3    C111073   0.380   3.523  11.298 -0.1977  0.4042 -0.5375
  746TMC3    C211074   0.452   3.430  11.236  0.3775 -0.6244  0.2194
  746TMC3    C311075   0.465   3.306  11.282 -0.3714 -0.0311  0.0597
  746TMC3    C411076   0.298   3.493  11.404  0.3235  0.4688  0.0418
  746TMC3    C511077   0.302   3.361  11.444  0.2408  0.9132  0.1472
  746TMC3    C611078   0.397   3.273  11.395 -0.0433  0.0959  0.3108
  746TMC3     C11079   0.319   3.636  11.218 -0.5327 -0.5048 -1.6608
  746TMC3     O11080   0.214   3.683  11.256  0.3543 -0.5843 -0.6121
  746TMC3     H11081   0.494   3.455  11.139  0.3262 -0.6677  0.1861
  746TMC3    H111082   0.242   3.572  11.452 -0.8721 -2.5084  3.5813
  746TMC3    H211083   0.391   3.170  11.430  2.3207 -0.1985 -0.0803
  746TMC3    C711084   0.169   3.300  11.453 -0.1115 -0.5422  0.1233
  746TMC3    C811085   0.465   3.192  11.187 -0.1747 -0.4884 -0.0833
  746TMC3    O111086   0.146   3.199  11.394  0.5048  0.1830  0.3041
  746TMC3    O211087   0.537   3.090  11.209 -0.0557 -0.5654 -0.3955
  747TMC3    C111088   2.291   3.001  11.174 -0.2642 -0.4147 -0.1732
  747TMC3    C211089   2.274   2.895  11.247  0.0873  0.0646 -0.3269
  747TMC3    C311090   2.361   2.874  11.355  0.7528 -0.1884 -0.2249
  747TMC3    C411091   2.387   3.099  11.210  0.2822 -0.5706  0.0346
  747TMC3    C511092   2.461   3.075  11.323  0.5186  0.5255 -0.4970
  747TMC3    C611093   2.452   2.959  11.395 -0.4657 -0.4786 -1.1689
  747TMC3     C11094   2.201   3.033  11.067 -0.6763 -0.2350  0.3797
  747TMC3     O11095   2.186   3.149  11.036 -0.1393 -0.6308  0.0630
  747TMC3     H11096   2.183   2.838  11.232 -0.3639  0.5432  0.6044
  747TMC3    H111097   2.383   3.194  11.158 -0.0748  0.0825  1.2530
  747TMC3    H211098   2.516   2.937  11.480 -1.0354  0.1543 -0.5770
  747TMC3    C711099   2.541   3.176  11.382 -0.2639  0.1018  0.5654
  747TMC3    C811100   2.311   2.800  11.465 -0.8106 -0.1138 -0.1474
  747TMC3    O111101   2.536   3.178  11.506 -0.2365 -0.5388 -0.0118
  747TMC3    O211102   2.389   2.725  11.521  0.5766  0.1899 -0.2597
  748MPD2     C11103   3.871   2.662   0.792 -0.1077 -0.0802 -0.5984
  748MPD2    C111104   3.843   2.795   0.783  0.2709  0.2864 -0.2251
  748MPD2    C211105   3.947   2.882   0.814 -0.4418 -0.1200  0.0611
  748MPD2    C311106   4.085   2.840   0.834 -0.0576  0.0407 -0.4282
  748MPD2    C411107   4.103   2.703   0.848 -1.2264  0.2732  0.5739
  748MPD2    C511108   3.994   2.618   0.832  0.3473  0.0705  0.1244
  748MPD2     H11109   3.924   2.988   0.811  0.5350  0.0534 -0.9942
  748MPD2    H111110   4.193   2.645   0.862 -1.4213 -0.9190 -3.0175
  748MPD2    H211111   3.799   2.583   0.775  0.6865 -0.6055 -1.5485
  748MPD2    H311112   4.008   2.511   0.845  0.8587 -0.0489 -1.4385
  748MPD2     N11113   4.192   2.930   0.843  0.3488  0.0857 -0.0313
  748MPD2    H511114   4.182   3.029   0.824 -1.5413 -0.2692 -0.9061
  748MPD2    N111115   3.719   2.828   0.726  0.1358 -0.4660  0.0052
  748MPD2    H711116   3.659   2.748   0.707 -1.4233  0.7950 -0.4615
  749TMC3    C111117   4.398   3.005   0.910 -0.0374 -0.5264 -1.2923
  749TMC3    C211118   4.501   2.995   0.997 -0.3363 -0.1256  0.5711
  749TMC3    C311119   4.591   3.107   1.006  0.0189  0.6145 -0.7593
  749TMC3    C411120   4.392   3.111   0.829  0.4580  0.5770  0.2813
  749TMC3    C511121   4.485   3.217   0.830  0.1048 -0.2942  0.5264
  749TMC3    C611122   4.582   3.219   0.925  0.6297  0.4174  0.3784
  749TMC3     C11123   4.320   2.892   0.886  0.9856  0.1245  0.3482
  749TMC3     O11124   4.369   2.784   0.916  0.0239 -0.0359 -0.0650
  749TMC3     H11125   4.504   2.910   1.065  0.7847  0.3720  1.1490
  749TMC3    H111126   4.325   3.102   0.744  0.4252  4.9251 -0.1892
  749TMC3    H211127   4.651   3.302   0.932  0.1875  0.9152 -1.1544
  749TMC3    C711128   4.467   3.336   0.753 -0.2232  0.3359 -0.4842
  749TMC3    C811129   4.684   3.112   1.114  0.6139 -0.7516  0.5573
  749TMC3    O111130   4.565   3.408   0.747  0.0296  0.1415 -0.1132
  749TMC3    O211131   4.692   3.227   1.157  0.1808 -0.0603  0.2755
  750MPD2     C11132   4.622   4.592  10.882  0.3556  0.6681  0.1427
  750MPD2    C111133   4.511   4.563  10.955 -0.1983 -0.1480 -0.3020
  750MPD2    C211134   4.403   4.492  10.904 -0.3742 -0.4518  0.0151
  750MPD2    C311135   4.415   4.443  10.774  0.0669 -0.3441 -0.3889
  750MPD2    C411136   4.530   4.453  10.700  0.0839  0.1276 -0.8440
  750MPD2    C511137   4.627   4.528  10.762 -1.1601 -0.3955  0.2383
  750MPD2     H11138   4.313   4.474  10.961 -2.2105 -0.8337 -3.0061
  750MPD2    H111139   4.550   4.414  10.601 -1.3483 -0.9884 -0.6928
  750MPD2    H211140   4.706   4.647  10.923 -0.0010  0.6326  0.9223
  750MPD2    H311141   4.719   4.543  10.707 -0.4619 -0.4817  1.3689
  750MPD2     N11142   4.319   4.356  10.716 -0.3489 -0.3584 -0.1336
  750MPD2    H511143   4.336   4.309  10.628 -1.7973 -1.2577  0.0681
  750MPD2    N111144   4.507   4.608  11.087 -0.4484 -0.7084  0.0305
  750MPD2    H711145   4.599   4.644  11.111  0.1704 -0.1493 -3.3178
  751TMC3    C111146   4.104   4.264  10.673 -0.2848 -0.3490  0.0317
  751TMC3    C211147   4.004   4.197  10.737 -0.4419  0.2817 -0.5434
  751TMC3    C311148   3.993   4.060  10.712 -0.7363 -0.1688 -0.4953
  751TMC3    C411149   4.175   4.206  10.578  0.0250 -0.6483 -0.1293
  751TMC3    C511150   4.158   4.074  10.544  0.1581 -1.1063 -0.9376
  751TMC3    C611151   4.067   3.996  10.618  0.4113  0.4769  0.0930
  751TMC3     C11152   4.189   4.347  10.761  0.0330  0.1614 -0.6074
  751TMC3     O11153   4.135   4.401  10.855 -0.0597 -0.2708  0.0869
  751TMC3     H11154   3.944   4.246  10.813 -0.3809 -3.1306  1.7435
  751TMC3    H111155   4.228   4.258  10.499 -0.2543 -1.2253 -0.6955
  751TMC3    H211156   4.067   3.887  10.615 -4.5519  0.5202 -0.7402
  751TMC3    C711157   4.284   4.017  10.506  0.1445 -0.2300  0.1563
  751TMC3    C811158   3.888   3.977  10.779  0.6252  0.6491  0.5507
  751TMC3    O111159   4.383   4.089  10.504  0.4042 -0.9400  0.1899
  751TMC3    O211160   3.910   3.857  10.771  0.1845  0.5459  0.0899
  752TMC3    C111161   4.041   0.271  17.199 -0.6495  0.8968  0.5645
  752TMC3    C211162   3.967   0.173  17.254  0.3348 -0.2187  0.0294
  752TMC3    C311163   4.047   0.070  17.308  0.1265  0.6493 -0.0313
  752TMC3    C411164   4.174   0.281  17.193  0.0196 -0.4426 -0.1364
  752TMC3    C511165   4.244   0.169  17.241  0.4541  0.3418 -0.7260
  752TMC3    C611166   4.183   0.061  17.301  0.7138  0.3288  0.6041
  752TMC3     C11167   3.981   0.343  17.081  0.0476 -0.2007  0.0899
  752TMC3     O11168   4.040   0.446  17.049  0.0064 -0.3839 -0.4955
  752TMC3     H11169   3.859   0.168  17.249  0.4394 -2.1377 -0.5023
  752TMC3    H111170   4.219   0.348  17.121  0.7555  0.9525  1.6221
  752TMC3    H211171   4.229   4.709  17.341 -1.0480 -0.3946  1.0107
  752TMC3    C711172   4.393   0.167  17.245  0.7462  0.2980  1.1737
  752TMC3    C811173   3.972   4.717  17.392 -0.2009 -0.0862 -0.3381
  752TMC3    O111174   4.439   0.057  17.272 -0.5644  0.1738 -0.1345
  752TMC3    O211175   3.859   4.688  17.361  0.2478  0.3062  0.5624
  753TMC3    C111176   0.664   0.986  13.136 -0.2582 -0.2650 -0.6548
  753TMC3    C211177   0.672   0.974  13.267 -0.2264  0.1355 -0.8446
  753TMC3    C311178   0.636   0.853  13.325 -0.1855 -0.6332 -0.1530
  753TMC3    C411179   0.614   0.881  13.065  0.0422 -0.5290  0.1059
  753TMC3    C511180   0.575   0.767  13.125  0.9040 -0.5410  0.4871
  753TMC3    C611181   0.578   0.754  13.261 -0.7186  0.1145  0.1916
  753TMC3     C11182   0.663   1.119  13.078 -0.4171  0.2978 -0.3128
  753TMC3     O11183   0.709   1.130  12.971  0.5375  0.3355  1.1714
  753TMC3     H11184   0.721   1.049  13.328 -0.5786 -0.9886  0.8221
  753TMC3    H111185   0.597   0.896  12.959  0.9119  3.0029  0.4530
  753TMC3    H211186   0.537   0.670  13.317 -2.7861  1.0061  0.0262
  753TMC3    C711187   0.528   0.655  13.042 -0.5696  0.1174 -0.1813
  753TMC3    C811188   0.664   0.803  13.461 -0.1656  0.0288 -0.2693
  753TMC3    O111189   0.571   0.661  12.926  0.3252  0.1400  0.1117
  753TMC3    O211190   0.681   0.681  13.470  0.1735  0.3004  0.3663
  754MPD2     C11191   4.732   4.219  13.443 -0.0715  0.4832 -0.1702
  754MPD2    C111192   4.638   4.273  13.522 -0.3251  0.4775 -0.6961
  754MPD2    C211193   4.510   4.293  13.477  0.0500 -0.5651  0.8746
  754MPD2    C311194   4.480   4.256  13.349 -0.4301  1.1149  0.2571
  754MPD2    C411195   4.575   4.194  13.268  0.3604 -0.3180  0.4622
  754MPD2    C511196   4.708   4.192  13.308 -0.0528 -0.0549 -0.1814
  754MPD2     H11197   4.435   4.326  13.548  1.1100  0.4289  1.5332
  754MPD2    H111198   4.552   4.167  13.166 -1.6581 -0.5747  1.0016
  754MPD2    H211199   0.089   4.195  13.490  0.9828  1.1850 -1.9435
  754MPD2    H311200   0.043   4.156  13.237 -0.7807 -1.0100 -0.4359
  754MPD2     N11201   4.356   4.263  13.294  0.0694 -0.3057 -0.2049
  754MPD2    H511202   4.337   4.221  13.204  1.7572  0.3526 -0.8782
  754MPD2    N111203   4.675   4.311  13.655 -0.1915  0.2636 -0.2941
  754MPD2    H711204   0.022   4.269  13.694  0.5134 -1.2960 -3.5205
  755MPD2     C11205   3.618   0.219  13.046  0.8236  0.0371  0.5002
  755MPD2    C111206   3.553   0.102  13.078  0.6108 -1.4343  0.2433
  755MPD2    C211207   3.630   4.734  13.107 -0.4481 -0.4375  0.4336
  755MPD2    C311208   3.772   4.736  13.092 -0.0171 -0.4014 -0.0072
  755MPD2    C411209   3.823   0.100  13.027  0.3821  0.7073  0.1636
  755MPD2    C511210   3.750   0.216  13.015 -0.2767 -0.2821 -0.7902
  755MPD2     H11211   3.579   4.648  13.148  2.4559 -1.7230  1.3279
  755MPD2    H111212   3.929   0.096  13.003  0.4449 -0.8517  0.7107
  755MPD2    H211213   3.571   0.316  13.040  1.6665  0.4651  0.7901
  755MPD2    H311214   3.788   0.309  12.974 -1.6901  1.0874  0.9893
  755MPD2     N11215   3.860   4.625  13.136 -0.4300 -0.4127 -0.2618
  755MPD2    H511216   3.959   4.643  13.125 -0.8882  0.7948 -2.3809
  755MPD2    N111217   3.410   0.094  13.116  0.4557 -1.1613 -0.0219
  755MPD2    H711218   3.374   0.005  13.147 -1.7530  0.4448  1.9898
  756MPD2     C11219   4.305   1.777  10.286  0.0919 -0.4181 -0.3211
  756MPD2    C111220   4.313   1.643  10.255  0.0627  0.3949  0.2110
  756MPD2    C211221   4.240   1.594  10.149 -0.0655 -0.2677  0.2421
  756MPD2    C311222   4.172   1.679  10.066 -0.5565  0.3231  0.5208
  756MPD2    C411223   4.182   1.817  10.089  0.4417 -0.0491  1.3520
  756MPD2    C511224   4.239   1.868  10.205 -0.1071 -0.3342  0.6214
  756MPD2     H11225   4.240   1.492  10.113  1.8912  0.4629 -1.8194
  756MPD2    H111226   4.136   1.884  10.017 -2.6130 -0.7115  2.6820
  756MPD2    H211227   4.358   1.817  10.372 -2.4607  3.6961 -0.6505
  756MPD2    H311228   4.236   1.973  10.230 -0.3442 -0.1541 -0.1408
  756MPD2     N11229   4.123   1.627   9.949 -0.2134  0.2943  0.4577
  756MPD2    H511230   4.157   1.534   9.927  0.4880  0.4172  1.0297
  756MPD2    N111231   4.402   1.555  10.322 -0.3655 -0.5586  0.4298
  756MPD2    H711232   4.396   1.457  10.294 -0.4119 -0.1936 -0.8528
  757MPD2     C11233   4.041   0.729   9.597 -0.0715 -0.6523  0.1717
  757MPD2    C111234   3.923   0.769   9.656  0.4585  0.3303 -0.4566
  757MPD2    C211235   3.899   0.903   9.674 -0.2028  0.1571 -0.3484
  757MPD2    C311236   3.987   1.002   9.633  0.3777 -0.3551 -0.1883
  757MPD2    C411237   4.097   0.959   9.564 -0.1615  0.5818 -0.9345
  757MPD2    C511238   4.118   0.826   9.545 -0.3615  0.0084  0.7065
  757MPD2     H11239   3.815   0.930   9.737  1.7377  1.8587  1.5294
  757MPD2    H111240   4.164   1.031   9.519  0.5602  1.8166  2.1544
  757MPD2    H211241   4.077   0.627   9.587  2.2024  0.1094  0.5693
  757MPD2    H311242   4.212   0.801   9.497 -2.0885 -0.1188 -2.6009
  757MPD2     N11243   3.950   1.135   9.657  0.3556 -0.0510 -0.6898
  757MPD2    H511244   3.852   1.150   9.678  0.5725  2.9041 -1.7647
  757MPD2    N111245   3.842   0.665   9.713 -0.0705 -0.1170 -0.0217
  757MPD2    H711246   3.883   0.573   9.704 -1.8109 -0.5029 -3.9508
  758MPD2     C11247   4.258   4.022  15.767 -0.3814 -0.1500 -0.2694
  758MPD2    C111248   4.328   3.974  15.879  0.8004 -0.5343 -0.4817
  758MPD2    C211249   4.262   3.967  16.002  0.9087 -0.1192  0.0257
  758MPD2    C311250   4.124   3.984  16.015 -0.8231  0.9246 -0.4029
  758MPD2    C411251   4.056   4.032  15.900 -0.9193  0.1874  0.2056
  758MPD2    C511252   4.129   4.063  15.788  0.4008 -1.1543 -0.3444
  758MPD2     H11253   4.309   3.944  16.097  0.9612 -2.5944 -0.6133
  758MPD2    H111254   3.951   4.055  15.909 -0.9862  0.0118 -0.1266
  758MPD2    H211255   4.308   4.020  15.671 -0.5147 -0.6405 -0.3309
  758MPD2    H311256   4.074   4.093  15.699  2.3040 -0.9138 -1.4504
  758MPD2     N11257   4.058   3.965  16.140 -0.0869  0.2302  0.5816
  758MPD2    H511258   3.960   3.993  16.143  0.4714  2.0850  1.8515
  758MPD2    N111259   4.463   3.953  15.858  0.2001 -0.2290 -0.5200
  758MPD2    H711260   4.498   3.945  15.763 -0.4921  1.3600 -0.9261
  759MPD2     C11261   3.321   2.343  11.244  0.4822  0.1673 -0.6006
  759MPD2    C111262   3.281   2.417  11.138  0.2838 -0.5726 -0.8161
  759MPD2    C211263   3.242   2.545  11.153 -0.2039  0.6559 -0.0592
  759MPD2    C311264   3.261   2.606  11.278  0.1416  0.1845 -0.1479
  759MPD2    C411265   3.301   2.528  11.383 -0.6123  0.5223 -0.2833
  759MPD2    C511266   3.329   2.395  11.367 -0.6707  0.0512  0.1563
  759MPD2     H11267   3.209   2.605  11.069  2.7626  1.4344 -0.6478
  759MPD2    H111268   3.319   2.571  11.481  1.7025 -0.6574 -0.1870
  759MPD2    H211269   3.353   2.240  11.238  0.5354  0.2067 -1.0148
  759MPD2    H311270   3.359   2.337  11.454 -0.9040  1.1967  1.0061
  759MPD2     N11271   3.224   2.745  11.289  0.1405  0.3441 -0.3479
  759MPD2    H511272   3.215   2.794  11.200 -3.5784 -0.5312 -0.4285
  759MPD2    N111273   3.258   2.363  11.013 -0.3087  0.1239  0.0434
  759MPD2    H711274   3.224   2.430  10.945 -2.8962 -2.0396 -0.7686
  760MPD2     C11275   3.029   4.474  12.125 -0.1461  0.7563 -1.2153
  760MPD2    C111276   3.093   4.533  12.019  0.1675  0.4814 -0.2121
  760MPD2    C211277   3.170   4.451  11.937 -0.9744  0.1130 -0.4680
  760MPD2    C311278   3.188   4.316  11.969 -0.2605 -0.7272 -0.0179
  760MPD2    C411279   3.121   4.264  12.081  0.1978  1.0189  0.5043
  760MPD2    C511280   3.034   4.340  12.156 -0.3873 -0.3286  0.4652
  760MPD2     H11281   3.237   4.484  11.858  1.9628 -1.1414  1.5219
  760MPD2    H111282   3.134   4.160  12.106  1.3316  0.7205 -1.3455
  760MPD2    H211283   2.965   4.536  12.188 -0.3200  2.0198 -2.6342
  760MPD2    H311284   2.989   4.301  12.247  0.0155 -0.5228  0.5803
  760MPD2     N11285   3.289   4.231  11.912  0.4534  0.0172  0.3753
  760MPD2    H511286   3.267   4.134  11.930 -0.6235  0.3621  0.9022
  760MPD2    N111287   3.081   4.670  11.997 -0.4039  0.1640  0.7744
  760MPD2    H711288   3.136   4.699  11.917  1.2739 -1.0611  1.4909
  761MPD2     C11289   3.607   3.906  11.206 -0.3909  0.2006  0.5536
  761MPD2    C111290   3.705   3.833  11.143  1.0668 -0.4164 -0.4681
  761MPD2    C211291   3.766   3.878  11.025 -0.4288 -0.2225  0.0050
  761MPD2    C311292   3.737   3.999  10.976  0.2781  0.6538  0.3324
  761MPD2    C411293   3.644   4.077  11.041  0.0926  0.4277 -0.4708
  761MPD2    C511294   3.574   4.029  11.150 -0.5698  0.4090  0.0792
  761MPD2     H11295   3.842   3.818  10.975  0.5362  2.0121 -1.2170
  761MPD2    H111296   3.616   4.177  11.010 -2.2360 -0.0468  0.1240
  761MPD2    H211297   3.565   3.868  11.298  0.9219  1.4923  1.6945
  761MPD2    H311298   3.502   4.085  11.207  1.5076  2.3375  0.7871
  761MPD2     N11299   3.805   4.048  10.866 -0.4533  0.1310  0.3285
  761MPD2    H511300   3.800   4.146  10.841 -1.4593  0.3107  1.2564
  761MPD2    N111301   3.728   3.709  11.211 -0.7096 -0.4411  0.4728
  761MPD2    H711302   3.689   3.683  11.301  1.4723 -4.1621  0.3691
  762MPD2     C11303   4.525   3.522  11.267  0.3153 -0.0766 -0.9354
  762MPD2    C111304   4.422   3.466  11.204 -0.4345  0.1676  0.1450
  762MPD2    C211305   4.442   3.419  11.075  0.3463 -0.0095 -0.2020
  762MPD2    C311306   4.558   3.450  11.005  0.0927  0.3737  0.8168
  762MPD2    C411307   4.666   3.499  11.077 -0.6874 -0.3207 -0.2040
  762MPD2    C511308   4.652   3.542  11.209 -0.1217  0.8651 -0.1219
  762MPD2     H11309   4.355   3.388  11.018  0.3263  0.8987 -0.6755
  762MPD2    H111310   0.026   3.506  11.028  0.7491 -3.6063  2.2316
  762MPD2    H211311   4.517   3.564  11.367 -0.1969 -1.1028 -0.5441
  762MPD2    H311312   0.000   3.583  11.262  0.7741  1.4293 -2.0170
  762MPD2     N11313   4.557   3.420  10.869  0.0191 -0.4169  0.7455
  762MPD2    H511314   4.474   3.383  10.825  2.0634 -0.9490 -2.6623
  762MPD2    N111315   4.300   3.447  11.280 -0.7098  0.0391  0.1546
  762MPD2    H711316   4.301   3.494  11.369  1.3822  1.8263 -0.8196
  763MPD2     C11317   1.715   3.910  16.325  0.5331  0.6962  0.0886
  763MPD2    C111318   1.596   3.978  16.298  0.5479 -0.4521  0.2279
  763MPD2    C211319   1.600   4.113  16.327 -1.2297 -1.0175  0.2306
  763MPD2    C311320   1.714   4.174  16.386  0.1557 -0.3669 -0.5466
  763MPD2    C411321   1.827   4.099  16.409  0.3300 -0.5815  0.0840
  763MPD2    C511322   1.829   3.967  16.374 -0.5274 -0.9575 -0.5038
  763MPD2     H11323   1.507   4.161  16.301 -0.1439  1.2162  0.4914
  763MPD2    H111324   1.919   4.133  16.456 -0.1575 -1.1015  1.4093
  763MPD2    H211325   1.719   3.804  16.303 -1.9607  0.7686 -0.7314
  763MPD2    H311326   1.914   3.902  16.391 -0.5494 -1.7080 -3.2928
  763MPD2     N11327   1.717   4.305  16.421 -0.6634 -0.4417 -0.0286
  763MPD2    H511328   1.802   4.340  16.465 -0.3427  0.2988 -1.2309
  763MPD2    N111329   1.480   3.918  16.242  0.2761 -0.2115 -0.5060
  763MPD2    H711330   1.403   3.979  16.218  0.9699  0.5272 -0.8408
  764MPD2     C11331   0.419   0.820  16.968  0.7444 -0.3354  0.5000
  764MPD2    C111332   0.278   0.810  16.978  0.0408  0.1693 -0.5909
  764MPD2    C211333   0.233   0.745  17.092  0.0340  0.4306  0.1004
  764MPD2    C311334   0.315   0.687  17.187 -0.1082  0.0127  1.0205
  764MPD2    C411335   0.448   0.701  17.174  0.3193  0.0776 -0.4737
  764MPD2    C511336   0.497   0.763  17.064  0.0828  0.1774 -0.6868
  764MPD2     H11337   0.125   0.738  17.105 -0.0328  1.5275  0.1982
  764MPD2    H111338   0.521   0.662  17.244  1.1304  1.9890 -0.2491
  764MPD2    H211339   0.478   0.867  16.891  1.8168 -3.2626 -0.4930
  764MPD2    H311340   0.604   0.771  17.051 -0.0119 -2.2453 -2.8500
  764MPD2     N11341   0.245   0.616  17.287 -0.5420  0.4407  0.0508
  764MPD2    H511342   0.144   0.618  17.297 -0.8184 -3.8828 -1.6457
  764MPD2    N111343   0.182   0.863  16.887  0.6993 -0.2083 -0.4504
  764MPD2    H711344   0.084   0.844  16.908  0.6584  0.2305 -0.2529
  765MPD2     C11345   4.308   3.393  15.298 -0.0795  0.4864  0.4854
  765MPD2    C111346   4.288   3.390  15.435  0.4907  0.5892 -0.5620
  765MPD2    C211347   4.368   3.314  15.513  0.2785 -0.2391 -0.6970
  765MPD2    C311348   4.464   3.235  15.461  1.0300 -0.0577  0.4101
  765MPD2    C411349   4.486   3.239  15.324 -0.0388 -0.4119 -0.7089
  765MPD2    C511350   4.409   3.321  15.238 -0.1404  0.2368 -0.0472
  765MPD2     H11351   4.357   3.316  15.621 -0.0066  1.1502 -0.7570
  765MPD2    H111352   4.557   3.174  15.273 -0.0877  0.0413 -1.3527
  765MPD2    H211353   4.244   3.451  15.233  0.7472  1.1962  0.3080
  765MPD2    H311354   4.427   3.310  15.131  1.2472  0.4521  0.1603
  765MPD2     N11355   4.545   3.146  15.540  0.0563 -0.7075 -0.2691
  765MPD2    H511356   4.530   3.157  15.640  0.9929  0.0889 -0.2207
  765MPD2    N111357   4.183   3.472  15.481 -0.1987  0.0072 -0.2078
  765MPD2    H711358   4.142   3.530  15.409  0.5318  1.6616  0.7076
  766MPD2     C11359   3.553   3.406  15.266 -0.2001 -0.1411 -0.2443
  766MPD2    C111360   3.661   3.493  15.259  0.0220 -0.4026 -0.1068
  766MPD2    C211361   3.710   3.522  15.134  0.0524  0.3119  0.0882
  766MPD2    C311362   3.667   3.456  15.017 -0.0519  0.2910 -0.1841
  766MPD2    C411363   3.556   3.376  15.025  0.1352  0.2564 -0.1018
  766MPD2    C511364   3.498   3.356  15.149 -0.0170  0.6855  0.5410
  766MPD2     H11365   3.787   3.598  15.122  1.1630 -0.4869  2.1933
  766MPD2    H111366   3.510   3.341  14.934  1.0992  0.0094 -0.4978
  766MPD2    H211367   3.524   3.368  15.363  1.7833 -2.5447 -0.6049
  766MPD2    H311368   3.410   3.295  15.163  1.0046 -0.5482  1.5761
  766MPD2     N11369   3.734   3.486  14.895  0.2487  0.0316  0.3802
  766MPD2    H511370   3.682   3.477  14.808  0.0968  0.0775  0.4678
  766MPD2    N111371   3.727   3.548  15.364  0.2905 -0.2109  0.1169
  766MPD2    H711372   3.811   3.597  15.334  0.4768 -1.2217 -1.0177
  767MPD2     C11373   3.326   3.699  14.840 -0.2622  0.4178  0.5947
  767MPD2    C111374   3.440   3.768  14.816 -0.5795 -0.6558 -0.1282
  767MPD2    C211375   3.494   3.770  14.690  0.4700  0.0122 -0.3372
  767MPD2    C311376   3.431   3.712  14.585 -0.5315 -0.2618  0.4057
  767MPD2    C411377   3.309   3.648  14.609 -0.2126  0.0111  0.7203
  767MPD2    C511378   3.257   3.638  14.737  0.1858  0.7890 -0.0268
  767MPD2     H11379   3.589   3.820  14.675  0.8130 -1.0278 -1.6156
  767MPD2    H111380   3.256   3.594  14.532  2.1806 -1.4085  0.0545
  767MPD2    H211381   3.291   3.685  14.941  0.8860 -0.3255  0.8937
  767MPD2    H311382   3.165   3.583  14.749  0.6990 -0.7136 -3.2117
  767MPD2     N11383   3.498   3.714  14.462 -0.2705  0.8661 -0.0762
  767MPD2    H511384   3.593   3.750  14.464  0.5958 -1.4418  0.3592
  767MPD2    N111385   3.501   3.841  14.924  0.4658  0.5002  0.2421
  767MPD2    H711386   3.457   3.841  15.015 -1.2695 -0.8449 -0.5811
  768MPD2     C11387   4.507   2.550  10.989 -0.4166 -0.8655 -0.6484
  768MPD2    C111388   4.486   2.585  11.122  0.7593  0.1842 -0.4605
  768MPD2    C211389   4.548   2.513  11.223  0.1772  0.2763 -0.3364
  768MPD2    C311390   4.626   2.403  11.188 -0.5414 -0.9337  0.4741
  768MPD2    C411391   4.665   2.394  11.059 -0.5395  0.0916  0.1105
  768MPD2    C511392   4.602   2.462  10.957 -0.1993 -0.3454 -0.3399
  768MPD2     H11393   4.526   2.545  11.324  0.6599  2.5421 -0.9477
  768MPD2    H111394   4.734   2.318  11.026  0.8008  0.3885  2.2136
  768MPD2    H211395   4.467   2.607  10.906  1.6734  0.2660 -0.8554
  768MPD2    H311396   4.614   2.442  10.851 -0.8950 -2.3880 -0.0188
  768MPD2     N11397   4.688   2.313  11.276  0.4794 -0.0035  0.0109
  768MPD2    H511398   0.022   2.252  11.239  0.6108  0.0872  0.1155
  768MPD2    N111399   4.402   2.686  11.169 -0.0815 -0.0212 -0.3417
  768MPD2    H711400   4.395   2.693  11.270 -0.4039 -0.7049 -0.3149
  769MPD2     C11401   0.472   0.952  14.784 -0.6384  0.0127 -0.1348
  769MPD2    C111402   0.452   0.861  14.880  0.3846  0.3564 -0.1591
  769MPD2    C211403   0.529   0.860  14.990  0.6429  0.2993  0.2719
  769MPD2    C311404   0.648   0.931  15.001 -0.2055 -0.2804  0.0941
  769MPD2    C411405   0.678   1.014  14.895  0.0916  0.5303 -0.5752
  769MPD2    C511406   0.581   1.029  14.801 -0.0428  0.2961 -0.2890
  769MPD2     H11407   0.498   0.804  15.077  1.4301 -0.0667  0.3193
  769MPD2    H111408   0.776   1.060  14.885  0.5745 -0.5646 -0.9637
  769MPD2    H211409   0.407   0.988  14.706  1.0686  3.1069 -0.1462
  769MPD2    H311410   0.600   1.106  14.726  1.6213  0.1095 -0.0380
  769MPD2     N11411   0.738   0.919  15.112 -0.5980 -0.1926  0.0956
  769MPD2    H511412   0.707   0.863  15.191  0.0678  0.3217  0.7131
  769MPD2    N111413   0.335   0.776  14.871  0.7533  0.1242  0.1907
  769MPD2    H711414   0.269   0.801  14.798  0.4728  1.4762  0.9062
  770MPD2     C11415   0.126   4.525  15.190 -0.8492  0.4216  0.5204
  770MPD2    C111416   0.095   4.514  15.055 -0.8933 -0.8629 -0.2260
  770MPD2    C211417   0.067   4.625  14.984  0.5807  0.3128  0.2509
  770MPD2    C311418   0.072   0.013  15.050  0.2336 -0.3739  0.2705
  770MPD2    C411419   0.086   0.018  15.184  1.0221  0.6276 -0.0338
  770MPD2    C511420   0.116   4.641  15.257  0.4813  0.1029  0.1014
  770MPD2     H11421   0.030   4.616  14.883  0.5822 -2.9782  0.5426
  770MPD2    H111422   0.074   0.105  15.247 -1.1122 -0.4280  1.0289
  770MPD2    H211423   0.155   4.435  15.242 -1.6201 -0.2552 -0.2333
  770MPD2    H311424   0.129   4.647  15.365 -1.0866  0.9778  0.2438
  770MPD2     N11425   0.067   0.136  14.974  0.0987 -0.1433  0.2879
  770MPD2    H511426   0.064   0.125  14.873 -0.2959  2.2177  0.0318
  770MPD2    N111427   0.098   4.382  15.003  0.4129 -0.2359  0.6854
  770MPD2    H711428   0.126   4.307  15.065 -2.2095 -2.1667 -0.4481
  771MPD2     C11429   1.477   2.987  13.908 -1.1650 -0.0976  0.6009
  771MPD2    C111430   1.393   3.081  13.850 -0.6035 -0.4709  0.7194
  771MPD2    C211431   1.279   3.038  13.783  0.2122 -0.0972 -0.5695
  771MPD2    C311432   1.255   2.902  13.761  0.0364  0.1391 -0.1348
  771MPD2    C411433   1.343   2.813  13.818 -0.0478  0.5696 -0.1181
  771MPD2    C511434   1.449   2.855  13.895 -0.0783  0.2100 -0.2005
  771MPD2     H11435   1.216   3.109  13.730 -0.3873  0.8188  1.3589
  771MPD2    H111436   1.322   2.707  13.816  2.4221  0.0700 -0.2466
  771MPD2    H211437   1.555   3.016  13.977 -1.5261  1.5252  0.3273
  771MPD2    H311438   1.509   2.778  13.941  0.3554  0.1270 -0.9039
  771MPD2     N11439   1.141   2.869  13.684 -0.1700  0.0372 -0.3297
  771MPD2    H511440   1.078   2.946  13.662  0.7239  0.9066  0.1803
  771MPD2    N111441   1.417   3.221  13.850 -0.3873 -0.1704 -0.0258
  771MPD2    H711442   1.353   3.268  13.786 -0.1013 -1.2471 -1.0959
  772MPD2     C11443   1.009   3.759  13.613  0.6881 -0.2128 -0.2913
  772MPD2    C111444   1.021   3.689  13.730 -0.0811  0.7337 -0.2416
  772MPD2    C211445   0.910   3.679  13.815 -0.1244  0.5100 -0.3891
  772MPD2    C311446   0.797   3.740  13.781 -0.5397  0.5058  0.1455
  772MPD2    C411447   0.795   3.826  13.666  0.5902  0.2017 -0.1389
  772MPD2    C511448   0.902   3.836  13.579  0.3985  0.0790 -0.4468
  772MPD2     H11449   0.914   3.620  13.907 -0.2029  0.0612 -0.6742
  772MPD2    H111450   0.705   3.883  13.647 -0.4626 -0.9323  1.4672
  772MPD2    H211451   1.081   3.742  13.534  2.9569  1.1518  1.4995
  772MPD2    H311452   0.903   3.899  13.491 -0.4303 -0.1874 -0.6440
  772MPD2     N11453   0.665   3.729  13.842 -0.2545 -0.6338  0.0736
  772MPD2    H511454   0.598   3.788  13.794 -0.2356 -0.0744  0.7429
  772MPD2    N111455   1.149   3.624  13.766 -0.7185  0.1020 -0.4273
  772MPD2    H711456   1.145   3.559  13.844 -0.6503 -0.5706 -0.9895
  773MPD2     C11457   0.630   4.258   0.079  0.3440 -0.4105  0.2543
  773MPD2    C111458   0.527   4.175   0.041  0.0080 -0.3893  0.3406
  773MPD2    C211459   0.511   4.058   0.114 -0.1520  1.2696 -0.7408
  773MPD2    C311460   0.597   4.021   0.220  0.0762 -0.5657  0.1999
  773MPD2    C411461   0.700   4.109   0.254  0.2011  0.0589 -0.2206
  773MPD2    C511462   0.711   4.226   0.186  0.9732  0.5568  0.1300
  773MPD2     H11463   0.436   3.982   0.094 -1.1607  2.0394  0.1579
  773MPD2    H111464   0.779   4.085   0.324  0.6615 -2.2940 -1.5554
  773MPD2    H211465   0.659   4.354   0.037 -0.8018 -0.8664 -1.5575
  773MPD2    H311466   0.793   4.295   0.203  0.1589  0.8586  2.8038
  773MPD2     N11467   0.581   3.893   0.280 -0.2847 -1.3763 -0.3684
  773MPD2    H511468   0.494   3.848   0.252 -0.3865 -0.5720 -1.3781
  773MPD2    N111469   0.423   4.203  17.689  0.1600 -0.1609 -0.1309
  773MPD2    H711470   0.350   4.137  17.663 -1.1287  1.2441 -0.0530
  774MPD2     C11471   4.580   3.600  14.128 -0.2182 -1.2455  0.0087
  774MPD2    C111472   4.485   3.644  14.041 -0.3830 -0.7316  0.1900
  774MPD2    C211473   4.482   3.784  14.029 -0.4892 -0.3207 -0.8450
  774MPD2    C311474   4.566   3.870  14.098  0.0343 -0.3758 -0.2694
  774MPD2    C411475   4.667   3.820  14.177  0.9350  0.2221 -0.1156
  774MPD2    C511476   4.671   3.688  14.193 -0.9980 -0.0341  0.0431
  774MPD2     H11477   4.420   3.825  13.950 -1.0272  1.4081  0.4636
  774MPD2    H111478   0.014   3.870  14.223  0.5303  0.4033  0.4418
  774MPD2    H211479   4.597   3.496  14.150 -2.1822 -1.5379  0.1706
  774MPD2    H311480   0.012   3.643  14.252  0.7876  0.6670 -1.8205
  774MPD2     N11481   4.565   4.002  14.073 -0.1910  0.1212  0.6218
  774MPD2    H511482   4.507   4.043  14.000  1.6076  1.2666 -0.1882
  774MPD2    N111483   4.410   3.556  13.964 -0.1744  0.0196 -0.0262
  774MPD2    H711484   4.424   3.456  13.974 -0.5992 -0.2241 -1.8311
  775MPD2     C11485   0.799   0.426  15.361  0.1493 -0.4397  0.2080
  775MPD2    C111486   0.875   0.469  15.466  0.6728  0.1919 -0.1880
  775MPD2    C211487   1.001   0.517  15.434 -0.6410  0.5192 -0.4380
  775MPD2    C311488   1.048   0.525  15.302 -0.3052 -0.0464 -0.4015
  775MPD2    C411489   0.965   0.486  15.198 -0.2621 -0.3746 -0.4213
  775MPD2    C511490   0.850   0.431  15.231  0.1637  0.2383 -0.1111
  775MPD2     H11491   1.070   0.544  15.513  0.5119 -2.0506 -0.5592
  775MPD2    H111492   0.991   0.490  15.093  1.5779 -1.2144  0.0122
  775MPD2    H211493   0.698   0.388  15.375 -0.4733  1.0256 -0.3653
  775MPD2    H311494   0.780   0.403  15.153 -1.1395  0.5898  0.9194
  775MPD2     N11495   1.180   0.559  15.257  0.0420  0.5202  0.4231
  775MPD2    H511496   1.202   0.544  15.159  0.0005 -0.1358  0.5111
  775MPD2    N111497   0.826   0.459  15.591 -0.1229  0.3687 -0.5252
  775MPD2    H711498   0.737   0.412  15.604 -0.0334  0.2788 -0.2208
  776MPD2     C11499   4.627   0.456  11.124  0.2081 -0.2905 -0.4007
  776MPD2    C111500   4.533   0.425  11.216 -0.5293  0.1332  0.0702
  776MPD2    C211501   4.432   0.510  11.243 -0.5939 -0.1451  0.5004
  776MPD2    C311502   4.412   0.625  11.165  0.0381 -0.5124 -0.0473
  776MPD2    C411503   4.510   0.662  11.075  0.3922 -0.7198  0.7894
  776MPD2    C511504   4.623   0.585  11.064 -0.1964 -0.2569  0.1676
  776MPD2     H11505   4.355   0.479  11.313 -1.0987 -1.6451 -0.7173
  776MPD2    H111506   4.497   0.746  11.008  0.6432 -0.6533  0.8247
  776MPD2    H211507   4.716   0.398  11.100 -1.3074 -1.9200 -2.1632
  776MPD2    H311508   4.704   0.625  11.003  0.9190 -2.5027  0.1680
  776MPD2     N11509   4.299   0.710  11.183  0.3339  0.4684  0.0460
  776MPD2    H511510   4.291   0.798  11.133 -1.8423  0.5476  0.5359
  776MPD2    N111511   4.548   0.298  11.276 -0.0538 -0.2360  0.4882
  776MPD2    H711512   4.613   0.230  11.235  1.1701  2.2092 -1.6045
  777MPD2     C11513   0.673   2.126   0.704 -0.5470 -0.0951 -0.7529
  777MPD2    C111514   0.558   2.132   0.776 -0.0496 -0.3546 -0.0993
  777MPD2    C211515   0.443   2.072   0.730 -0.2435 -0.6593 -0.0716
  777MPD2    C311516   0.448   2.006   0.609 -0.5063  0.4736  0.3602
  777MPD2    C411517   0.566   2.003   0.531 -0.1063  0.3810  0.4356
  777MPD2    C511518   0.680   2.059   0.582 -0.5656 -0.3637 -0.1525
  777MPD2     H11519   0.348   2.073   0.782 -0.0960 -0.6465  0.1959
  777MPD2    H111520   0.564   1.953   0.435 -0.8546  0.9267  0.1697
  777MPD2    H211521   0.758   2.178   0.746  0.1506 -0.0552 -2.1930
  777MPD2    H311522   0.775   2.047   0.530 -0.6703  0.0243 -0.4354
  777MPD2     N11523   0.325   1.955   0.565 -0.2492 -0.8284  0.0275
  777MPD2    H511524   0.245   1.951   0.628  1.1170 -1.1936  1.7184
  777MPD2    N111525   0.568   2.199   0.907  0.0679  0.3032 -0.3029
  777MPD2    H711526   0.660   2.239   0.925 -0.1706 -0.1279  1.8732
  778MPD2     C11527   1.629   3.367  14.736  0.1531 -0.2792 -0.1360
  778MPD2    C111528   1.679   3.238  14.754 -0.8541 -0.5644  0.6024
  778MPD2    C211529   1.795   3.196  14.694 -0.0907 -0.0227  0.6442
  778MPD2    C311530   1.866   3.284  14.622 -0.4021 -0.5770 -0.3252
  778MPD2    C411531   1.824   3.415  14.611  0.2777 -0.5935  0.4740
  778MPD2    C511532   1.710   3.453  14.662  0.1168 -0.2142  0.3677
  778MPD2     H11533   1.834   3.097  14.714  1.5889  0.2733 -1.2246
  778MPD2    H111534   1.885   3.493  14.566 -0.6378  0.2035  0.6310
  778MPD2    H211535   1.529   3.401  14.760 -0.6072 -2.8107  0.2687
  778MPD2    H311536   1.672   3.552  14.640  0.0826 -0.4528 -0.6569
  778MPD2     N11537   1.992   3.238  14.582 -0.0678 -0.2684 -0.2321
  778MPD2    H511538   2.019   3.145  14.613 -2.3019 -0.7062  0.3583
  778MPD2    N111539   1.614   3.145  14.832 -0.1896  0.2318 -0.1398
  778MPD2    H711540   1.641   3.047  14.828 -0.3006  0.1683  0.7026
  779MPD2     C11541   0.760   1.876  14.296 -0.0515 -0.2700  0.1864
  779MPD2    C111542   0.885   1.820  14.285 -0.1992 -1.1211 -0.5881
  779MPD2    C211543   0.990   1.900  14.294  0.4695 -0.7986 -0.1978
  779MPD2    C311544   0.980   2.041  14.286  0.7957  0.6753 -0.1668
  779MPD2    C411545   0.849   2.089  14.293  0.3436  0.9251  0.3943
  779MPD2    C511546   0.744   2.008  14.302 -0.4258 -0.0586 -0.2716
  779MPD2     H11547   1.083   1.848  14.277  0.7846 -0.1671 -0.4188
  779MPD2    H111548   0.834   2.196  14.291  0.4046  0.9621  1.6642
  779MPD2    H211549   0.670   1.816  14.300  0.7266 -1.6348 -3.0568
  779MPD2    H311550   0.644   2.051  14.306 -1.4046 -2.1243 -3.3942
  779MPD2     N11551   1.089   2.125  14.271 -0.2392  0.0382 -0.3213
  779MPD2    H511552   1.064   2.223  14.272 -0.0523  0.0955 -1.0201
  779MPD2    N111553   0.896   1.684  14.273  0.7887  0.2718 -0.2999
  779MPD2    H711554   0.994   1.656  14.275 -0.0993 -2.6889  1.4157
  780MPD2     C11555   1.695   1.317   0.917  0.0479  0.0123 -0.4191
  780MPD2    C111556   1.572   1.382   0.942 -0.0005 -0.3375  0.0119
  780MPD2    C211557   1.514   1.468   0.840  0.3070 -0.1174  0.1177
  780MPD2    C311558   1.590   1.491   0.718 -0.2671  0.4979 -0.1062
  780MPD2    C411559   1.696   1.418   0.696 -0.1141 -0.2379 -0.0981
  780MPD2    C511560   1.752   1.347   0.793 -0.3502  0.4312  0.0365
  780MPD2     H11561   1.421   1.518   0.864 -1.3462 -3.0365 -0.1058
  780MPD2    H111562   1.745   1.421   0.599  0.8107 -1.3224  0.3405
  780MPD2    H211563   1.740   1.264   1.000  0.7843 -2.0974 -2.1853
  780MPD2    H311564   1.845   1.299   0.765 -0.5726  0.3959 -0.6639
  780MPD2     N11565   1.548   1.586   0.617  0.3863 -0.4063 -0.2535
  780MPD2    H511566   1.591   1.581   0.525 -2.5101 -0.6329 -1.5782
  780MPD2    N111567   1.505   1.342   1.065 -0.3072 -0.1762 -1.2204
  780MPD2    H711568   1.554   1.274   1.122 -1.2826  0.1421 -0.0051
  781MPD2     C11569   3.032   3.730  12.505  0.0849  1.0979  0.5341
  781MPD2    C111570   2.912   3.661  12.492  0.3298  0.3384  0.6006
  781MPD2    C211571   2.846   3.650  12.372  0.0220 -0.6303  0.1773
  781MPD2    C311572   2.904   3.692  12.259  0.2431 -0.3094  0.1093
  781MPD2    C411573   3.035   3.745  12.264 -0.6081 -0.4905  0.7913
  781MPD2    C511574   3.095   3.763  12.386 -0.2831 -0.2849  0.6388
  781MPD2     H11575   2.748   3.605  12.360  0.1638 -0.6880 -0.8328
  781MPD2    H111576   3.083   3.789  12.177  2.4749 -3.6062  0.8878
  781MPD2    H211577   3.084   3.754  12.597 -1.4381  0.2502  1.6187
  781MPD2    H311578   3.190   3.812  12.401 -0.3485  0.3313 -0.9157
  781MPD2     N11579   2.832   3.719  12.137 -0.3233  0.4673 -0.0854
  781MPD2    H511580   2.890   3.754  12.061 -0.4297 -0.7862 -0.7359
  781MPD2    N111581   2.840   3.609  12.609  0.2269  0.6523  0.6319
  781MPD2    H711582   2.756   3.553  12.604  1.0184 -0.4031 -0.7344
  782MPD2     C11583   0.085   4.527  10.030 -0.0272  0.4578 -0.5084
  782MPD2    C111584   0.190   4.472  10.103 -0.1117 -0.1088 -0.7692
  782MPD2    C211585   0.284   4.546  10.163 -0.6945  0.1624  0.4895
  782MPD2    C311586   0.290   4.685  10.145  0.1243 -0.8037 -0.2944
  782MPD2    C411587   0.183   0.005  10.074 -0.3122  0.1219  0.8655
  782MPD2    C511588   0.084   4.661  10.016 -0.5160  0.6909  0.3499
  782MPD2     H11589   0.358   4.494  10.222 -0.5748  1.2791  1.3181
  782MPD2    H111590   0.170   0.110  10.050  1.9023 -0.2341 -1.9225
  782MPD2    H211591   0.004   4.476   9.980  0.0181 -0.9971  0.9218
  782MPD2    H311592   0.008   4.708   9.956  0.1767  1.2596 -0.0831
  782MPD2     N11593   0.398   0.012  10.206  0.5891  1.0702 -0.9480
  782MPD2    H511594   0.471   4.697  10.252 -1.1407 -2.4728 -2.2143
  782MPD2    N111595   0.211   4.328  10.115  0.0962  0.3267  0.3896
  782MPD2    H711596   0.283   4.285  10.172 -1.1671  0.6609  2.2301
  783MPD2     C11597   4.349   3.659  10.424 -0.0676  0.1401 -0.5515
  783MPD2    C111598   4.378   3.797  10.422  0.6045 -0.6115  1.2367
  783MPD2    C211599   4.498   3.844  10.369 -0.4355  0.3661 -0.9726
  783MPD2    C311600   4.584   3.761  10.305  0.0222  0.4477  0.5373
  783MPD2    C411601   4.559   3.625  10.304  0.2285 -0.0200 -0.0089
  783MPD2    C511602   4.444   3.578  10.361 -0.4774 -0.4054 -0.4662
  783MPD2     H11603   4.523   3.949  10.374 -1.1290  0.4665  0.1536
  783MPD2    H111604   4.624   3.558  10.248 -0.0085  0.0931 -0.4243
  783MPD2    H211605   4.259   3.620  10.471 -0.4194 -0.0790 -1.4136
  783MPD2    H311606   4.421   3.472  10.356 -2.5769  0.1152 -1.4939
  783MPD2     N11607   4.699   3.817  10.249  0.3738 -0.4067  0.4108
  783MPD2    H511608   4.719   3.913  10.273 -0.5946  0.2841 -1.5714
  783MPD2    N111609   4.274   3.879  10.475  0.7142 -0.9322  0.2421
  783MPD2    H711610   4.184   3.834  10.479 -0.2303  1.1130  1.5180
  784MPD2     C11611   3.302   3.996   0.521  0.0713 -0.6604  0.1615
  784MPD2    C111612   3.306   4.106   0.602  0.2751 -0.1463 -0.1106
  784MPD2    C211613   3.245   4.226   0.559 -0.2623  0.1692 -0.2556
  784MPD2    C311614   3.164   4.237   0.450 -0.0400 -0.3099  0.4831
  784MPD2    C411615   3.172   4.121   0.371  0.4467 -0.6348 -0.1035
  784MPD2    C511616   3.239   4.010   0.407  0.2387 -0.5893 -0.4442
  784MPD2     H11617   3.254   4.316   0.619  3.2107 -1.3800  1.4694
  784MPD2    H111618   3.119   4.113   0.276  0.6651 -0.6109 -0.2275
  784MPD2    H211619   3.348   3.901   0.541  0.5785 -0.6660 -1.0205
  784MPD2    H311620   3.244   3.927   0.337  1.8465 -0.3007 -0.6581
  784MPD2     N11621   3.094   4.356   0.413  0.3349  0.0295  1.0338
  784MPD2    H511622   3.117   4.437   0.470  2.2800  0.7527 -0.7667
  784MPD2    N111623   3.379   4.116   0.721 -0.0428  0.3078  0.0164
  784MPD2    H711624   3.406   4.210   0.746 -0.7830  0.1821  1.2696
  785MPD2     C11625   2.727   3.540  10.273 -0.0360 -0.0667  0.2897
  785MPD2    C111626   2.700   3.568  10.404 -0.1793 -0.1060  0.2082
  785MPD2    C211627   2.571   3.579  10.440  0.2081  0.5826 -0.5210
  785MPD2    C311628   2.469   3.575  10.346 -0.8264  0.0734  0.3635
  785MPD2    C411629   2.500   3.542  10.216 -0.1376  0.1586 -0.4828
  785MPD2    C511630   2.627   3.524  10.186 -0.0160  0.0292  0.1207
  785MPD2     H11631   2.534   3.612  10.537  1.3460  1.4446 -0.3833
  785MPD2    H111632   2.427   3.551  10.135 -1.1054 -0.6924  0.2919
  785MPD2    H211633   2.826   3.529  10.229 -0.3303  0.5135 -0.5129
  785MPD2    H311634   2.647   3.506  10.081  2.0072 -1.7185  0.8006
  785MPD2     N11635   2.332   3.603  10.386  0.2448 -0.0729  0.0010
  785MPD2    H511636   2.314   3.619  10.485  2.0076 -0.8499  0.4621
  785MPD2    N111637   2.796   3.577  10.511 -0.2078 -0.4736 -0.0889
  785MPD2    H711638   2.763   3.614  10.600 -1.6099  0.1880 -0.8907
  786MPD2     C11639   1.592   0.826  14.813 -0.0657  0.9016  0.4532
  786MPD2    C111640   1.683   0.738  14.765 -0.4315  0.1367 -0.0400
  786MPD2    C211641   1.802   0.728  14.827  0.0265 -0.3136  0.3094
  786MPD2    C311642   1.828   0.794  14.947 -1.1145 -0.0541  0.2468
  786MPD2    C411643   1.731   0.874  14.996 -0.5065 -0.5647  0.6465
  786MPD2    C511644   1.610   0.895  14.932  0.0651 -0.3140 -0.1932
  786MPD2     H11645   1.869   0.656  14.779  0.0020  1.1320 -1.8815
  786MPD2    H111646   1.741   0.913  15.097  0.9618  2.1031 -0.5260
  786MPD2    H211647   1.493   0.832  14.770  0.3456  1.9821 -0.3376
  786MPD2    H311648   1.552   0.980  14.965  0.2502  0.2385 -1.2932
  786MPD2     N11649   1.951   0.786  15.018  0.2105  0.3860  0.4663
  786MPD2    H511650   1.950   0.831  15.109  0.6277  0.6089  0.3589
  786MPD2    N111651   1.665   0.670  14.648  0.1477  0.0125  0.2851
  786MPD2    H711652   1.744   0.609  14.626 -0.8306 -0.5707 -1.6362
  787MPD2     C11653   1.938   0.058  14.534 -0.0537 -0.1760  0.2735
  787MPD2    C111654   1.913   0.133  14.419 -0.7609 -0.5096 -0.6866
  787MPD2    C211655   1.971   0.101  14.300  0.2348  0.7096  0.0050
  787MPD2    C311656   2.056   4.733  14.296  0.0005 -0.1969  0.1725
  787MPD2    C411657   2.075   4.651  14.407 -0.3174 -0.1796 -0.1112
  787MPD2    C511658   2.012   4.688  14.523 -0.4977 -0.1810 -0.2429
  787MPD2     H11659   1.953   0.144  14.202 -0.3266 -0.6566 -0.4823
  787MPD2    H111660   2.139   4.564  14.403 -0.2859 -0.1828  0.4145
  787MPD2    H211661   1.883   0.081  14.625  2.0052  1.3997  1.1006
  787MPD2    H311662   2.028   4.625  14.610 -3.1421  0.2656  0.5629
  787MPD2     N11663   2.117   4.694  14.175 -0.6610 -0.1780  0.0666
  787MPD2    H511664   2.069   4.725  14.090  0.0293  1.8353  0.4106
  787MPD2    N111665   1.825   0.243  14.432  0.1293 -0.1602 -0.0612
  787MPD2    H711666   1.761   0.260  14.510 -1.9031  0.2676 -1.8240
  788MPD2     C11667   3.856   4.251   1.053 -0.1238  0.6396  0.2480
  788MPD2    C111668   3.821   4.182   0.941  0.1380 -0.1055  0.5729
  788MPD2    C211669   3.750   4.250   0.843  0.5498 -0.5527 -0.2977
  788MPD2    C311670   3.734   4.383   0.855 -0.0493 -0.3565  0.8315
  788MPD2    C411671   3.758   4.452   0.972  0.6740 -0.0527  0.4410
  788MPD2    C511672   3.819   4.381   1.073 -0.3100 -0.6174 -0.6761
  788MPD2     H11673   3.724   4.190   0.757 -0.8046 -0.4942  0.0610
  788MPD2    H111674   3.735   4.557   0.981  1.3406 -0.0214  1.7448
  788MPD2    H211675   3.901   4.206   1.141 -2.0805 -0.5461  0.6283
  788MPD2    H311676   3.848   4.439   1.159 -0.9372 -1.9156  0.4109
  788MPD2     N11677   3.687   4.466   0.752 -0.0432 -0.0104  0.2290
  788MPD2    H511678   3.695   4.567   0.766 -0.5109  0.1025 -0.3334
  788MPD2    N111679   3.857   4.046   0.928 -0.2046  0.0752 -0.0668
  788MPD2    H711680   3.823   4.002   0.843  0.8746  1.7609 -1.3621
  789MPD2     C11681   3.931   3.211  16.464  0.2028  0.0828  0.1435
  789MPD2    C111682   3.835   3.285  16.396  0.4949 -0.6260 -0.6396
  789MPD2    C211683   3.792   3.403  16.455  1.4819  0.3441 -0.3709
  789MPD2    C311684   3.856   3.462  16.566 -0.0757 -0.1245  0.0105
  789MPD2    C411685   3.949   3.388  16.626 -0.1780  0.3029 -0.0955
  789MPD2    C511686   3.985   3.259  16.580 -0.2552  0.7490 -0.2800
  789MPD2     H11687   3.713   3.456  16.402 -0.0006 -0.4632  1.0241
  789MPD2    H111688   3.994   3.431  16.714  0.8558 -1.2350  0.1253
  789MPD2    H211689   3.950   3.107  16.444  0.8436  0.4027 -0.9120
  789MPD2    H311690   4.052   3.197  16.639 -0.6452  3.1212  2.6407
  789MPD2     N11691   3.819   3.581  16.624  0.3212 -0.6885  0.4026
  789MPD2    H511692   3.835   3.593  16.724 -0.7239 -3.3347  0.9077
  789MPD2    N111693   3.776   3.245  16.275  0.3713 -0.0108  0.1522
  789MPD2    H711694   3.693   3.292  16.240 -0.7933 -1.9226  0.3176
  790MPD2     C11695   0.305   1.064  13.258 -0.3072  0.5513 -0.1281
  790MPD2    C111696   0.275   0.929  13.267 -0.3502 -0.3366 -0.5490
  790MPD2    C211697   0.245   0.851  13.155  0.4624 -0.1920 -0.1315
  790MPD2    C311698   0.273   0.903  13.027  0.8643  0.3380  0.0858
  790MPD2    C411699   0.310   1.038  13.017  0.1851  0.2633  0.0094
  790MPD2    C511700   0.324   1.120  13.133 -0.8778 -0.1953 -0.6849
  790MPD2     H11701   0.203   0.751  13.160 -1.9182  0.7872 -0.4873
  790MPD2    H111702   0.340   1.081  12.922  0.4613  0.9430  0.4057
  790MPD2    H211703   0.320   1.128  13.344  0.1362 -2.3750  1.9197
  790MPD2    H311704   0.349   1.225  13.122  2.2853 -1.0116 -1.1138
  790MPD2     N11705   0.254   0.810  12.919  0.9216 -0.2313  0.1241
  790MPD2    H511706   0.194   0.728  12.926  0.4242  0.2577  1.5255
  790MPD2    N111707   0.270   0.878  13.396  0.3627 -0.5606 -0.3428
  790MPD2    H711708   0.293   0.939  13.474  0.6574  0.1181 -0.9623
  791MPD2     C11709   4.552   0.495  12.294  0.6829 -0.2761  0.2086
  791MPD2    C111710   4.580   0.454  12.420  0.6100 -0.0314 -0.4901
  791MPD2    C211711   4.479   0.402  12.496 -0.0238 -0.3328  0.9127
  791MPD2    C311712   4.357   0.382  12.443 -0.6274 -0.1788  0.0724
  791MPD2    C411713   4.339   0.419  12.311 -0.3056 -0.2492 -0.4703
  791MPD2    C511714   4.437   0.476  12.239 -0.0891 -0.5902  0.0381
  791MPD2     H11715   4.495   0.372  12.599  2.3997 -0.9666  0.3415
  791MPD2    H111716   4.244   0.403  12.260 -0.0003  1.8675 -1.6864
  791MPD2    H211717   4.631   0.537  12.233  1.6880 -0.9547  1.0417
  791MPD2    H311718   4.432   0.513  12.137 -2.9028 -2.2792 -0.4400
  791MPD2     N11719   4.260   0.307  12.519 -0.7132 -0.0789  0.7518
  791MPD2    H511720   4.293   0.280  12.611  0.9648 -1.3736 -0.2229
  791MPD2    N111721   4.709   0.479  12.468 -0.5394  0.0218 -0.4575
  791MPD2    H711722   0.042   0.500  12.397  1.7719 -0.0265  1.8357
  792MPD2     C11723   0.342   0.426  11.267  0.6949 -0.1435 -0.5273
  792MPD2    C111724   0.273   0.524  11.192  0.3322  0.6622  0.3766
  792MPD2    C211725   0.231   0.484  11.066 -0.1282  0.1658  0.7901
  792MPD2    C311726   0.262   0.368  11.005  0.5269  0.4467 -0.1842
  792MPD2    C411727   0.338   0.276  11.074 -0.2767 -0.3595 -0.6119
  792MPD2    C511728   0.378   0.313  11.199  0.0717  0.0459 -0.4609
  792MPD2     H11729   0.176   0.562  11.015  1.4720  1.3969  0.9504
  792MPD2    H111730   0.375   0.183  11.033 -0.2509 -0.4014 -0.4933
  792MPD2    H211731   0.366   0.440  11.372  1.3136  2.1608 -0.9753
  792MPD2    H311732   0.447   0.245  11.247  0.3677  2.1414  2.1285
  792MPD2     N11733   0.220   0.331  10.874  0.1518  0.3473 -0.3493
  792MPD2    H511734   0.262   0.248  10.833  1.2517 -0.3381  2.1619
  792MPD2    N111735   0.244   0.656  11.247 -0.6776 -0.5408 -0.3307
  792MPD2    H711736   0.283   0.662  11.340  1.6640  0.0311 -1.3341
  793MPD2     C11737   4.574   0.872  10.133 -0.4565  1.0567 -0.1795
  793MPD2    C111738   4.629   0.893  10.254 -0.0320  0.1886 -0.9171
  793MPD2    C211739   4.669   0.783  10.324 -0.2083  0.3748  0.0415
  793MPD2    C311740   4.681   0.657  10.262  0.8308  0.1964  0.3383
  793MPD2    C411741   4.627   0.642  10.135 -0.1866  0.4612 -0.1002
  793MPD2    C511742   4.581   0.751  10.072  0.1955  0.0735  0.2268
  793MPD2     H11743   4.693   0.800  10.429 -3.9852  0.0376  0.9505
  793MPD2    H111744   4.632   0.551  10.076 -0.4817  0.6432 -0.4036
  793MPD2    H211745   4.523   0.947  10.074 -0.2806 -0.8622 -2.7549
  793MPD2    H311746   4.543   0.737   9.972 -0.9219 -1.1277  0.8286
  793MPD2     N11747   0.006   0.557  10.342 -0.1862 -1.3932  0.3211
  793MPD2    H511748   0.042   0.584  10.433  0.5793 -1.6243  0.0857
  793MPD2    N111749   4.622   1.019  10.317 -0.1701 -0.3403 -0.1935
  793MPD2    H711750   4.653   1.021  10.414  1.5725  4.3473 -0.8502
  794MPD2     C11751   0.108   4.697  16.997  0.0462  0.1444 -0.7134
  794MPD2    C111752   0.022   4.618  17.070 -0.6196 -0.4186  0.1197
  794MPD2    C211753   4.623   4.627  17.036  0.2229  0.8296 -0.4202
  794MPD2    C311754   4.587   4.713  16.934  0.1352 -0.5897  0.0276
  794MPD2    C411755   4.686   0.048  16.862  0.0209  0.0302  0.8364
  794MPD2    C511756   0.079   0.045  16.895  0.0885  0.3790 -0.4835
  794MPD2     H11757   4.556   4.575  17.104  2.3174  2.6052  3.0549
  794MPD2    H111758   4.651   0.121  16.790  2.1948  1.7556  1.5388
  794MPD2    H211759   0.213   4.682  17.018  0.2148  3.3457  0.6827
  794MPD2    H311760   0.153   0.106  16.845  0.9110  0.3682  0.7227
  794MPD2     N11761   4.453   0.006  16.904 -0.2100  0.3912  0.2930
  794MPD2    H511762   4.450   0.088  16.844  1.7704 -0.3975 -0.8800
  794MPD2    N111763   0.067   4.521  17.169  0.2729  0.0861 -0.0261
  794MPD2    H711764   4.732   4.463  17.210  0.1888 -1.6835 -2.7257
  795MPD2     C11765   2.205   2.116  14.099 -0.4792 -0.3176 -0.1505
  795MPD2    C111766   2.150   2.008  14.029  0.3651 -0.2350  0.1311
  795MPD2    C211767   2.218   1.887  14.033  0.2357  0.1768  0.0122
  795MPD2    C311768   2.341   1.871  14.097 -0.0714 -0.0121  1.3397
  795MPD2    C411769   2.395   1.983  14.160 -1.0203  0.0184 -0.1322
  795MPD2    C511770   2.324   2.103  14.161 -0.6221  0.1947  0.2312
  795MPD2     H11771   2.185   1.807  13.968  1.4771  2.6120 -3.6303
  795MPD2    H111772   2.488   1.982  14.216 -0.2828 -0.4329 -1.3761
  795MPD2    H211773   2.154   2.212  14.106  1.4929  0.9107 -2.6068
  795MPD2    H311774   2.355   2.189  14.219 -0.5273  1.0730 -1.1222
  795MPD2     N11775   2.406   1.746  14.100 -0.6903  0.3642  0.0974
  795MPD2    H511776   2.368   1.673  14.041 -0.4192 -0.1932  0.6109
  795MPD2    N111777   2.040   2.031  13.944 -0.3187 -0.5620 -0.1654
  795MPD2    H711778   2.008   2.126  13.927 -2.0280 -0.5225  3.3264
  796MPD2     C11779   1.658   3.154  16.339  0.2447 -0.0212 -0.5792
  796MPD2    C111780   1.774   3.229  16.365  0.2314  0.3310  0.5732
  796MPD2    C211781   1.822   3.325  16.277  0.1026 -0.1560  0.6197
  796MPD2    C311782   1.742   3.352  16.168 -0.3767  0.3737  0.0240
  796MPD2    C411783   1.628   3.277  16.140 -0.5444 -0.0638 -0.2982
  796MPD2    C511784   1.589   3.179  16.221  0.1287 -0.0041 -0.1578
  796MPD2     H11785   1.915   3.378  16.295  1.4175 -2.0940 -0.6059
  796MPD2    H111786   1.570   3.295  16.050 -1.4411 -0.3525  0.2220
  796MPD2    H211787   1.616   3.081  16.408  0.2000  0.1802 -0.3950
  796MPD2    H311788   1.500   3.119  16.207  0.3738 -0.2127 -0.8455
  796MPD2     N11789   1.773   3.472  16.095 -0.8028 -0.3020 -0.1157
  796MPD2    H511790   1.859   3.523  16.112 -0.6659 -0.7655  0.5998
  796MPD2    N111791   1.848   3.176  16.481 -0.0302 -0.8411  0.1626
  796MPD2    H711792   1.812   3.093  16.526  1.7325 -0.8027  1.6488
  797MPD2     C11793   2.963   2.652  17.436 -0.5214 -0.1608 -0.1956
  797MPD2    C111794   3.045   2.764  17.467 -0.5768 -0.3537 -0.0523
  797MPD2    C211795   2.982   2.876  17.504  0.1488  0.0033 -0.9183
  797MPD2    C311796   2.848   2.891  17.496  0.1050  0.1110 -0.2788
  797MPD2    C411797   2.765   2.784  17.466  0.0552  0.0969  0.2963
  797MPD2    C511798   2.826   2.669  17.435 -0.4411 -0.3110 -0.1325
  797MPD2     H11799   3.038   2.960  17.543  0.9651  0.1637 -2.4191
  797MPD2    H111800   2.658   2.793  17.478 -0.0888 -0.1251 -0.7785
  797MPD2    H211801   2.996   2.550  17.422  2.1630  0.9435 -1.9918
  797MPD2    H311802   2.764   2.581  17.421 -1.6613 -0.0112  3.5165
  797MPD2     N11803   2.804   3.019  17.527  0.8602  0.0907 -0.0436
  797MPD2    H511804   2.881   3.082  17.549 -0.5903  1.6303  0.6072
  797MPD2    N111805   3.186   2.767  17.498  0.1037 -0.3682  0.1999
  797MPD2    H711806   3.217   2.858  17.529 -0.2059 -0.4888  0.8625
  798MPD2     C11807   3.354   3.481  17.554 -0.1989  0.2812  0.4679
  798MPD2    C111808   3.250   3.387  17.576  0.6203 -0.2489  0.1988
  798MPD2    C211809   3.298   3.255  17.575  0.2516 -0.1059 -0.1349
  798MPD2    C311810   3.431   3.219  17.572  0.7270  0.2464 -0.4584
  798MPD2    C411811   3.526   3.311  17.561  0.2168 -0.8704 -0.7218
  798MPD2    C511812   3.486   3.439  17.550 -0.0265 -0.1050 -0.2855
  798MPD2     H11813   3.238   3.165  17.573 -0.7204  0.6236 -3.3092
  798MPD2    H111814   3.629   3.280  17.556  1.5046  2.9832  2.3828
  798MPD2    H211815   3.332   3.587  17.545  0.5012  0.5448  1.7434
  798MPD2    H311816   3.563   3.515  17.554 -0.9446  0.7685  0.8283
  798MPD2     N11817   3.457   3.082  17.567  0.0554 -0.2991 -0.7201
  798MPD2    H511818   3.380   3.018  17.586 -1.7702  2.2128  0.4857
  798MPD2    N111819   3.118   3.421  17.566  0.1851  0.1510 -0.4641
  798MPD2    H711820   3.094   3.520  17.564 -0.5132 -0.0231 -0.7981
  799MPD2     C11821   1.559   4.518  14.734 -0.1196  0.0414  0.5519
  799MPD2    C111822   1.644   4.483  14.631  0.1131  0.2201  0.1806
  799MPD2    C211823   1.604   4.515  14.505 -0.7104 -0.3108  0.3046
  799MPD2    C311824   1.492   4.586  14.476  0.5450  0.0099 -0.2420
  799MPD2    C411825   1.404   4.609  14.587 -0.5913  0.0542 -0.6142
  799MPD2    C511826   1.437   4.572  14.717  0.5665  0.0791  0.1276
  799MPD2     H11827   1.671   4.481  14.426  1.7046 -0.0453  2.2328
  799MPD2    H111828   1.309   4.658  14.566 -0.6010  0.1222 -0.4112
  799MPD2    H211829   1.579   4.501  14.839 -0.6836  2.1423  0.9953
  799MPD2    H311830   1.372   4.613  14.794  2.0170 -1.8780  2.3623
  799MPD2     N11831   1.466   4.646  14.351  0.7542  0.4250  0.9641
  799MPD2    H511832   1.370   4.678  14.340  0.7891  0.1699 -0.0206
  799MPD2    N111833   1.758   4.403  14.652  0.4030  0.0701 -0.1980
  799MPD2    H711834   1.798   4.364  14.567  0.8061 -1.7401  0.8334
  800MPD2     C11835   1.809   1.041  14.453  0.5549 -0.2270  0.5198
  800MPD2    C111836   1.929   1.010  14.403  0.3244 -0.3778 -0.2656
  800MPD2    C211837   1.937   0.935  14.286  0.5276  0.1036  0.2990
  800MPD2    C311838   1.822   0.892  14.229 -1.1831 -0.3822 -0.1251
  800MPD2    C411839   1.698   0.907  14.288 -0.3580 -1.0292  1.1638
  800MPD2    C511840   1.695   0.990  14.400  0.3867  0.2866  0.1669
  800MPD2     H11841   2.030   0.903  14.242  0.7433 -0.9235  1.4982
  800MPD2    H111842   1.609   0.864  14.243  1.9297  0.1539 -4.4580
  800MPD2    H211843   1.798   1.107  14.538 -0.8620 -1.0125  0.9401
  800MPD2    H311844   1.601   1.000  14.453 -0.7279  0.3424 -1.8590
  800MPD2     N11845   1.841   0.838  14.097 -0.1105 -0.5161 -0.5990
  800MPD2    H511846   1.937   0.818  14.074  0.0305  0.0507 -0.5022
  800MPD2    N111847   2.036   1.079  14.455 -0.5372 -0.1741 -0.4713
  800MPD2    H711848   2.010   1.160  14.510  1.1172  0.7808 -1.0926
  801MPD2     C11849   2.503   1.788  14.476 -0.6771  0.3380 -0.0666
  801MPD2    C111850   2.391   1.708  14.484  0.6296  0.1458 -0.1198
  801MPD2    C211851   2.267   1.763  14.516 -0.4789 -0.5699  0.7366
  801MPD2    C311852   2.255   1.895  14.518  0.3401 -0.4084  0.2709
  801MPD2    C411853   2.363   1.981  14.500 -0.2721  0.5850 -0.0695
  801MPD2    C511854   2.487   1.925  14.479  0.4739  0.2677 -1.1114
  801MPD2     H11855   2.176   1.706  14.525 -0.2820 -1.1083 -0.5572
  801MPD2    H111856   2.340   2.086  14.490  0.0885  0.8436  1.9251
  801MPD2    H211857   2.604   1.750  14.462 -1.6501 -1.7920 -1.2991
  801MPD2    H311858   2.567   1.995  14.457  1.6964 -0.7849  0.0572
  801MPD2     N11859   2.129   1.966  14.553  0.8415 -0.1087 -0.2556
  801MPD2    H511860   2.136   2.067  14.555  0.0830 -0.0437 -1.0058
  801MPD2    N111861   2.410   1.566  14.472  0.0716  0.0328  0.5136
  801MPD2    H711862   2.505   1.532  14.474  0.0929 -0.0206 -1.5538
  802MPD2     C11863   2.042   2.673   0.254 -0.3169 -0.1606 -0.0063
  802MPD2    C111864   1.956   2.577   0.310 -0.6130  0.0843  0.2948
  802MPD2    C211865   1.996   2.449   0.304 -0.6421  0.0176 -0.2796
  802MPD2    C311866   2.113   2.417   0.225 -0.0793  0.1609  0.2972
  802MPD2    C411867   2.195   2.516   0.169  0.4324  0.1331 -0.4578
  802MPD2    C511868   2.152   2.642   0.182 -0.1227 -0.4585  0.0852
  802MPD2     H11869   1.934   2.366   0.338  1.4605 -0.3655  2.5658
  802MPD2    H111870   2.282   2.500   0.108 -0.4339  3.3411 -2.5578
  802MPD2    H211871   2.018   2.778   0.239  0.3932  0.1033  0.6962
  802MPD2    H311872   2.205   2.732   0.153 -0.6347 -0.5837 -1.2298
  802MPD2     N11873   2.144   2.282   0.190  0.0105 -0.0406 -0.3119
  802MPD2    H511874   2.210   2.275   0.113  0.3846  1.6550 -0.1491
  802MPD2    N111875   1.836   2.612   0.377  0.7578  0.2930 -0.2316
  802MPD2    H711876   1.790   2.527   0.410  0.8753 -0.8371 -2.9523
  803MPD2     C11877   2.922   0.537  11.928 -0.5954 -0.1695 -0.3266
  803MPD2    C111878   3.002   0.565  12.033  0.3586 -0.2403 -0.5109
  803MPD2    C211879   2.984   0.509  12.159 -0.0124 -0.4177 -0.0322
  803MPD2    C311880   2.895   0.401  12.171  1.0192  0.0621 -0.6622
  803MPD2    C411881   2.820   0.358  12.061  0.3967  0.1539  0.1036
  803MPD2    C511882   2.836   0.431  11.942  0.0795 -0.2091  0.1907
  803MPD2     H11883   3.041   0.545  12.243  0.7100 -1.6571  0.0104
  803MPD2    H111884   2.739   0.286  12.067 -1.8120  2.5027 -1.4042
  803MPD2    H211885   2.925   0.599  11.840  1.6772  0.6536  0.3231
  803MPD2    H311886   2.773   0.413  11.856 -1.0843  0.3606  0.9214
  803MPD2     N11887   2.867   0.337  12.290 -0.1052  0.4517  0.5672
  803MPD2    H511888   2.792   0.269  12.296  0.9712 -0.6542  1.3785
  803MPD2    N111889   3.108   0.659  12.024 -0.0494 -0.6124  0.1319
  803MPD2    H711890   3.157   0.687  12.109 -0.0020  2.1606 -0.8336
  804MPD2     C11891   2.809   1.771  17.213 -0.3410  0.5313 -0.2342
  804MPD2    C111892   2.828   1.717  17.338 -0.1160 -0.0987 -0.2292
  804MPD2    C211893   2.892   1.793  17.431  0.3575  0.3619  1.3571
  804MPD2    C311894   2.978   1.896  17.382  0.1104 -0.0153 -1.1640
  804MPD2    C411895   2.978   1.936  17.251  0.1456  0.6106  0.0149
  804MPD2    C511896   2.888   1.873  17.171 -0.0120 -0.8820  0.5930
  804MPD2     H11897   2.898   1.766  17.535  0.1151 -1.3115  0.9267
  804MPD2    H111898   3.049   2.012  17.219 -0.3866  1.0461 -0.1310
  804MPD2    H211899   2.734   1.741  17.141  0.5556 -1.7123 -0.2371
  804MPD2    H311900   2.866   1.904  17.070  0.3977  2.0165  1.3895
  804MPD2     N11901   3.066   1.971  17.468  0.1507 -0.7883  0.1320
  804MPD2    H511902   3.113   2.053  17.431  0.4687 -0.3428  1.5218
  804MPD2    N111903   2.769   1.595  17.380  0.5674  0.2504 -0.1544
  804MPD2    H711904   2.804   1.555  17.466 -1.1867 -1.0834 -0.0697
  805MPD2     C11905   1.654   3.940  15.516  0.0641 -0.2522  0.2097
  805MPD2    C111906   1.605   4.065  15.516 -0.2369 -0.7674 -0.4779
  805MPD2    C211907   1.683   4.169  15.566 -0.0156 -0.1483 -0.2965
  805MPD2    C311908   1.810   4.144  15.613  0.2495 -0.2066 -0.5337
  805MPD2    C411909   1.862   4.017  15.606  0.4534 -0.1624 -0.0311
  805MPD2    C511910   1.784   3.919  15.562 -0.3761  0.0726 -0.5871
  805MPD2     H11911   1.636   4.267  15.562 -1.1028 -0.7498 -1.9874
  805MPD2    H111912   1.965   3.988  15.621  0.8636 -0.1953 -2.9781
  805MPD2    H211913   1.594   3.850  15.502  0.4075 -0.4558  0.0318
  805MPD2    H311914   1.828   3.821  15.564  0.8818  0.6485 -0.0159
  805MPD2     N11915   1.886   4.248  15.660  0.0532  0.1331  0.9262
  805MPD2    H511916   1.844   4.340  15.649  1.1394  0.4060 -0.8545
  805MPD2    N111917   1.478   4.099  15.471 -0.2772 -0.1524 -0.2239
  805MPD2    H711918   1.451   4.196  15.473 -1.9578 -0.6002 -2.4105
  806MPD2     C11919   2.183   4.213   0.432 -0.7485  0.0963 -0.5243
  806MPD2    C111920   2.254   4.332   0.457  0.0629  0.3922 -0.0017
  806MPD2    C211921   2.297   4.405   0.349  0.0064 -0.7099 -0.2082
  806MPD2    C311922   2.271   4.365   0.220 -0.5466  0.1984  0.5367
  806MPD2    C411923   2.196   4.251   0.199  0.3564  0.7824  0.3226
  806MPD2    C511924   2.156   4.174   0.306  0.6881  0.4674  0.2710
  806MPD2     H11925   2.372   4.482   0.360 -1.3684  0.2954  2.1436
  806MPD2    H111926   2.171   4.201   0.106 -0.6732  0.8567  0.5623
  806MPD2    H211927   2.169   4.145   0.515  1.8655 -0.5549 -0.6215
  806MPD2    H311928   2.108   4.079   0.290  3.1184 -1.0198  1.7549
  806MPD2     N11929   2.323   4.437   0.115  0.3041  0.1567 -0.1778
  806MPD2    H511930   2.406   4.493   0.133  2.0787 -2.0511 -1.4442
  806MPD2    N111931   2.290   4.357   0.590 -0.1926 -0.1210  0.0904
  806MPD2    H711932   2.248   4.301   0.663  1.4297 -3.7512 -1.7563
  807MPD2     C11933   1.847   4.216   1.083 -0.4025 -0.5906 -0.2655
  807MPD2    C111934   1.952   4.252   1.163 -0.0197 -0.4888 -0.1201
  807MPD2    C211935   1.958   4.196   1.297  0.0180  0.0401 -0.2528
  807MPD2    C311936   1.871   4.098   1.338  0.8066  0.0173  0.3497
  807MPD2    C411937   1.769   4.057   1.252  0.5026  0.1884  0.6085
  807MPD2    C511938   1.753   4.135   1.139  0.5789  0.2862  0.2543
  807MPD2     H11939   2.042   4.218   1.362 -0.7547  0.5097  0.6008
  807MPD2    H111940   1.691   3.990   1.286  0.9224  0.4486  2.1192
  807MPD2    H211941   1.833   4.257   0.983 -0.5238 -1.9236 -0.8056
  807MPD2    H311942   1.660   4.122   1.084  0.7795 -0.7972  0.1845
  807MPD2     N11943   1.890   4.051   1.471  0.9120  0.2224  0.6068
  807MPD2    H511944   1.956   4.106   1.525  1.1779  1.3339 -0.8416
  807MPD2    N111945   2.063   4.321   1.111 -0.3008  0.2816  0.0561
  807MPD2    H711946   2.145   4.316   1.171 -0.6708  1.3869  0.6473
  808MPD2     C11947   2.366   1.834  10.591  0.2730 -0.1691  0.5479
  808MPD2    C111948   2.315   1.907  10.699  0.1057 -0.4470  0.2502
  808MPD2    C211949   2.318   2.043  10.686  0.6134 -0.7934 -0.6185
  808MPD2    C311950   2.353   2.097  10.563  0.1070 -0.1007  0.5478
  808MPD2    C411951   2.406   2.029  10.454  0.8303  0.4528  0.0276
  808MPD2    C511952   2.413   1.893  10.471  0.0518  0.0079  0.4195
  808MPD2     H11953   2.271   2.109  10.758 -0.1153 -0.8523 -1.0398
  808MPD2    H111954   2.436   2.070  10.358 -0.7397 -0.8924 -1.0262
  808MPD2    H211955   2.377   1.727  10.588 -1.1711 -0.2803 -0.6190
  808MPD2    H311956   2.462   1.832  10.395 -1.1066  1.2735 -1.3552
  808MPD2     N11957   2.348   2.236  10.541  0.3645  0.5232  0.1564
  808MPD2    H511958   2.399   2.266  10.459 -0.9953 -0.3049 -0.9856
  808MPD2    N111959   2.255   1.838  10.817 -0.9445 -0.3850 -0.0319
  808MPD2    H711960   2.196   1.900  10.871  0.0757  0.0024  0.6371
  809MPD2     C11961   1.855   2.590   9.840  0.2526  0.5056  0.6135
  809MPD2    C111962   1.954   2.503   9.868  0.1692 -0.3077  0.0512
  809MPD2    C211963   2.042   2.518   9.976 -0.3529 -0.4136 -0.1570
  809MPD2    C311964   2.026   2.622  10.065  0.0687 -0.5797  0.4378
  809MPD2    C411965   1.916   2.701  10.043 -0.0496 -0.9136  0.1786
  809MPD2    C511966   1.835   2.683   9.933 -1.0770  0.0152 -0.1421
  809MPD2     H11967   2.124   2.452  10.000 -0.2264  0.4705  1.8261
  809MPD2    H111968   1.878   2.771  10.116 -1.9782 -0.8412 -0.8746
  809MPD2    H211969   1.793   2.572   9.753 -1.2122 -1.3944  2.0484
  809MPD2    H311970   1.753   2.753   9.924 -1.3087 -0.4824 -1.9158
  809MPD2     N11971   2.102   2.641  10.183  0.0723  0.3549 -0.4176
  809MPD2    H511972   2.069   2.715  10.245  2.4077  0.3586  0.8122
  809MPD2    N111973   1.981   2.389   9.785  0.3602 -0.0232  0.1198
  809MPD2    H711974   2.061   2.329   9.802 -1.2886 -1.9864  0.9631
  810MPD2     C11975   1.582   0.504  10.227 -0.1032 -0.1006 -0.0562
  810MPD2    C111976   1.474   0.529  10.302  0.2773  0.0530 -0.1619
  810MPD2    C211977   1.472   0.633  10.391 -0.2737 -0.2545 -0.8103
  810MPD2    C311978   1.595   0.692  10.414  0.4153 -0.6016  0.5613
  810MPD2    C411979   1.714   0.646  10.352 -0.3857  0.3382  0.8896
  810MPD2    C511980   1.706   0.556  10.250 -0.5172  0.2141  0.3611
  810MPD2     H11981   1.383   0.656  10.448 -0.4621 -2.2732 -0.3102
  810MPD2    H111982   1.814   0.683  10.368  0.2245 -0.1287 -1.8153
  810MPD2    H211983   1.586   0.418  10.161  1.3384  0.1335 -0.2881
  810MPD2    H311984   1.786   0.512  10.191 -2.0392 -2.0146 -0.0515
  810MPD2     N11985   1.607   0.805  10.500 -0.6969 -0.0986 -0.4363
  810MPD2    H511986   1.697   0.852  10.501 -0.9610  0.3910  0.2085
  810MPD2    N111987   1.358   0.451  10.272  0.2901  0.4577  0.2370
  810MPD2    H711988   1.365   0.374  10.205  1.2685 -1.1397  2.1764
  811MPD2     C11989   0.657   0.747   9.993  0.0277 -0.0778 -1.1736
  811MPD2    C111990   0.787   0.759  10.046  0.4555 -0.0134 -0.5788
  811MPD2    C211991   0.841   0.885  10.073 -0.5651  0.2554 -0.3304
  811MPD2    C311992   0.771   1.001  10.049  0.3475 -0.4651 -0.2207
  811MPD2    C411993   0.643   0.991   9.996 -0.0820  0.8226 -0.7109
  811MPD2    C511994   0.594   0.863   9.970  0.2744 -0.2127 -0.2104
  811MPD2     H11995   0.947   0.895  10.089 -0.4657 -1.0697 -0.1734
  811MPD2    H111996   0.579   1.076   9.978  1.9638  2.5329  0.0463
  811MPD2    H211997   0.601   0.655   9.979  0.9047 -0.6021 -1.1744
  811MPD2    H311998   0.493   0.857   9.933  0.5832 -1.6213 -0.8481
  811MPD2     N11999   0.836   1.114  10.093 -1.0008 -0.3423 -0.2754
  811MPD2    H512000   0.924   1.096  10.140  0.5236  2.5422 -1.9930
  811MPD2    N112001   0.871   0.648  10.068  0.5229  0.1348  0.0158
  811MPD2    H712002   0.962   0.664  10.109 -0.2987  0.4022  1.7161
  812MPD2     C12003   0.157   0.291  12.007  0.0415 -0.7616 -0.3612
  812MPD2    C112004   0.279   0.354  11.991 -0.6981 -0.5973  0.1740
  812MPD2    C212005   0.388   0.313  12.065 -0.1632 -0.2593  0.2807
  812MPD2    C312006   0.376   0.216  12.163  0.4424 -1.0037  0.2692
  812MPD2    C412007   0.247   0.167  12.188 -0.1049  0.3853 -0.9042
  812MPD2    C512008   0.142   0.206  12.110 -0.3732  0.8697 -0.2463
  812MPD2     H12009   0.484   0.354  12.039 -1.1527  3.5293  2.7225
  812MPD2    H112010   0.223   0.091  12.262 -0.1674  1.2388 -0.0528
  812MPD2    H212011   0.071   0.302  11.942  0.8136 -1.4861 -1.5123
  812MPD2    H312012   0.051   0.151  12.134  1.1971 -1.1783  1.0716
  812MPD2     N12013   0.487   0.186  12.247 -0.2945  0.2151  0.5020
  812MPD2    H512014   0.579   0.225  12.228 -0.8998  1.3315 -0.1506
  812MPD2    N112015   0.275   0.456  11.892 -0.2386  1.3449  0.4976
  812MPD2    H712016   0.185   0.493  11.862  1.2344  2.5734 -2.4726
  813MPD2     C12017   4.186   2.026  12.870  0.1351 -0.3487  0.1788
  813MPD2    C112018   4.222   2.135  12.948  0.1523 -0.5070  0.7214
  813MPD2    C212019   4.132   2.185  13.035 -0.3903 -0.0873  0.4586
  813MPD2    C312020   4.011   2.127  13.062 -0.3270  0.1047 -0.4209
  813MPD2    C412021   3.967   2.026  12.977 -0.5978 -0.0201 -1.2395
  813MPD2    C512022   4.049   1.984  12.877 -0.4148 -0.6917 -0.4697
  813MPD2     H12023   4.168   2.264  13.100 -2.3977  0.1069  1.3202
  813MPD2    H112024   3.867   1.988  12.994 -0.8010  1.4057  0.8532
  813MPD2    H212025   4.239   1.980  12.787 -1.2625 -2.4211  0.4332
  813MPD2    H312026   4.015   1.904  12.812 -1.4496 -1.4294  0.9812
  813MPD2     N12027   3.940   2.184  13.168 -0.2133 -0.2843 -0.3158
  813MPD2    H512028   3.963   2.275  13.207  1.8600 -0.4729 -1.0918
  813MPD2    N112029   4.346   2.194  12.949  0.7132  0.1333 -0.3845
  813MPD2    H712030   4.356   2.266  13.020 -1.3506 -0.4265  0.4794
  814MPD2     C12031   0.218   3.955  11.928  0.0376 -0.5197  0.3494
  814MPD2    C112032   0.273   4.039  11.833  0.2941 -0.8892 -0.5522
  814MPD2    C212033   0.392   4.105  11.876 -0.6067  0.0378  0.3618
  814MPD2    C312034   0.442   4.096  12.006 -0.0056 -0.5048  0.5164
  814MPD2    C412035   0.385   4.011  12.091  0.2876  0.4874 -0.8649
  814MPD2    C512036   0.272   3.940  12.058  0.1854  0.4060  0.8204
  814MPD2     H12037   0.428   4.178  11.804  1.0987 -2.9188 -1.7889
  814MPD2    H112038   0.411   3.991  12.195 -1.0278 -0.9548 -0.8103
  814MPD2    H212039   0.122   3.906  11.918  0.0798 -0.3912 -0.7143
  814MPD2    H312040   0.221   3.882  12.133 -1.3261  0.1851 -0.3892
  814MPD2     N12041   0.546   4.181  12.057  0.0934  0.2080  0.1193
  814MPD2    H512042   0.572   4.173  12.155 -0.2784  0.5250  0.2447
  814MPD2    N112043   0.230   4.052  11.704  0.3737 -0.0356  0.5273
  814MPD2    H712044   0.281   4.117  11.645 -2.4244  0.4780 -1.3523
  815MPD2     C12045   0.931   2.365  12.369  0.0562 -0.4458  0.1513
  815MPD2    C112046   0.887   2.257  12.294 -0.5302  0.0033 -0.4084
  815MPD2    C212047   0.754   2.216  12.321  1.1663 -0.7774 -0.3724
  815MPD2    C312048   0.686   2.276  12.433  0.1288  0.3090  0.3134
  815MPD2    C412049   0.736   2.379  12.507  0.3999 -0.5884 -0.2461
  815MPD2    C512050   0.861   2.428  12.471 -0.0126  0.1057 -0.4131
  815MPD2     H12051   0.709   2.132  12.270  0.0528  0.3746 -1.2740
  815MPD2    H112052   0.680   2.431  12.584  0.6568 -1.0711  0.2653
  815MPD2    H212053   1.033   2.402  12.363  0.4286 -1.6639 -1.2307
  815MPD2    H312054   0.901   2.515  12.523  1.4832 -1.2216  0.6449
  815MPD2     N12055   0.570   2.213  12.469  0.3488  0.3790  0.7349
  815MPD2    H512056   0.557   2.126  12.418 -3.0674  1.4490 -0.2141
  815MPD2    N112057   0.961   2.212  12.180 -0.1345  0.1040 -0.1714
  815MPD2    H712058   1.046   2.256  12.147  0.4352 -1.2224 -0.4972
  816MPD2     C12059   0.844   0.918  17.300 -0.7474 -0.3599 -0.0932
  816MPD2    C112060   0.938   1.015  17.321  0.1167 -0.5309 -0.0182
  816MPD2    C212061   1.073   0.983  17.303 -0.0043 -0.2845 -0.3450
  816MPD2    C312062   1.111   0.858  17.246 -0.3144  0.0709  0.0786
  816MPD2    C412063   1.011   0.768  17.221 -0.2766  0.0086 -0.4565
  816MPD2    C512064   0.881   0.793  17.256  0.2439 -0.9466 -0.1338
  816MPD2     H12065   1.154   1.048  17.334  0.4765  0.1130 -2.4332
  816MPD2    H112066   1.022   0.669  17.177  0.3751 -0.0444 -0.1629
  816MPD2    H212067   0.743   0.940  17.334 -0.4880 -2.4242  1.9845
  816MPD2    H312068   0.814   0.712  17.231  0.6911 -1.6382  0.8920
  816MPD2     N12069   1.244   0.840  17.212  0.8739 -0.6197 -0.3769
  816MPD2    H512070   1.305   0.918  17.233 -1.7527  0.8015  1.9602
  816MPD2    N112071   0.890   1.144  17.368 -0.3028  0.4827  0.6384
  816MPD2    H712072   0.790   1.155  17.372 -0.2794  1.0677 -0.3881
  817MPD2     C12073   4.663   2.955  10.128  0.1989  0.1149  0.2583
  817MPD2    C112074   0.036   3.017  10.069  0.5377  0.4733 -0.5570
  817MPD2    C212075   0.018   3.148  10.023 -0.4554  0.4311  0.7313
  817MPD2    C312076   4.631   3.219  10.031 -0.1591  0.3062 -0.5687
  817MPD2    C412077   4.521   3.154  10.085  0.0581  0.2238  0.3143
  817MPD2    C512078   4.545   3.027  10.135 -0.0846 -0.4628 -0.4266
  817MPD2     H12079   0.106   3.188   9.975  0.1664 -0.9677  0.7064
  817MPD2    H112080   4.423   3.199  10.082 -0.2176 -0.4725 -1.3913
  817MPD2    H212081   4.677   2.854  10.163  0.6885 -0.1118 -0.5794
  817MPD2    H312082   4.462   2.962  10.159 -0.2058  0.3697  1.3937
  817MPD2     N12083   4.628   3.348   9.968  0.5310 -0.1313  0.7093
  817MPD2    H512084   4.716   3.377   9.927  0.5135 -0.2383  0.5937
  817MPD2    N112085   0.168   2.974  10.069  0.3135 -0.0409  0.0614
  817MPD2    H712086   0.237   3.047  10.050  1.1206 -0.5943  0.8907
  818MPD2     C12087   3.352   3.275  10.198 -0.3394 -0.1876 -0.2638
  818MPD2    C112088   3.424   3.232  10.304 -0.5006 -0.2304  0.3813
  818MPD2    C212089   3.447   3.101  10.319 -0.8997 -0.0587  0.0358
  818MPD2    C312090   3.388   3.006  10.244 -0.2955  0.0839  0.1981
  818MPD2    C412091   3.323   3.047  10.132 -0.4661  0.4868  0.1333
  818MPD2    C512092   3.303   3.183  10.114  0.1421 -0.1967 -0.6801
  818MPD2     H12093   3.515   3.070  10.398 -0.9777 -1.1079 -0.3139
  818MPD2    H112094   3.277   2.980  10.061  0.1507 -1.1751  1.2850
  818MPD2    H212095   3.314   3.375  10.183  2.0485  1.1735  2.6436
  818MPD2    H312096   3.246   3.208  10.025 -0.8286 -1.6405 -0.4729
  818MPD2     N12097   3.392   2.870  10.277  0.0700 -0.1546  0.6056
  818MPD2    H512098   3.336   2.811  10.216 -1.0044  4.8228 -3.2970
  818MPD2    N112099   3.489   3.316  10.405  0.3203  0.5068 -0.0189
  818MPD2    H712100   3.530   3.260  10.479 -0.6891 -0.2353 -0.0341
  819MPD2     C12101   2.495   4.620  15.605  0.6038 -0.4028  0.5095
  819MPD2    C112102   2.456   4.485  15.583  0.0061  0.3554 -0.0026
  819MPD2    C212103   2.513   4.380  15.655 -0.3715  0.2134 -0.2842
  819MPD2    C312104   2.616   4.407  15.744  0.0306  0.5915 -0.9924
  819MPD2    C412105   2.658   4.535  15.760  0.0778  0.9290  0.2337
  819MPD2    C512106   2.591   4.641  15.698  0.4771  0.3127 -0.4358
  819MPD2     H12107   2.485   4.275  15.649  1.6282 -0.3066 -0.3058
  819MPD2    H112108   2.732   4.575  15.828 -1.2670  1.2752  1.4949
  819MPD2    H212109   2.447   4.706  15.559 -1.5370 -0.4205  2.7092
  819MPD2    H312110   2.626   0.003  15.725  1.0198 -0.4272  1.5053
  819MPD2     N12111   2.670   4.296  15.819  0.0036 -0.4354 -0.2533
  819MPD2    H512112   2.617   4.211  15.807  0.5989 -0.9671  0.9809
  819MPD2    N112113   2.348   4.476  15.487  0.1485 -0.0016  0.2368
  819MPD2    H712114   2.331   4.571  15.454  0.0887  0.3378  1.2381
  820MPD2     C12115   1.422   4.694  15.117  0.2276  0.0616  0.4828
  820MPD2    C112116   1.455   4.589  15.200 -0.9041  0.0871 -0.1654
  820MPD2    C212117   1.586   4.565  15.225 -0.0901  0.3490  0.3685
  820MPD2    C312118   1.690   4.644  15.166 -0.0008 -0.1043 -0.1801
  820MPD2    C412119   1.654   0.010  15.086  0.1961  0.0648  0.7129
  820MPD2    C512120   1.523   0.029  15.063  0.3812 -0.3057 -0.1866
  820MPD2     H12121   1.620   4.474  15.275 -0.5335 -1.2253 -2.2103
  820MPD2    H112122   1.712   0.086  15.034 -0.7813 -0.7607 -1.5792
  820MPD2    H212123   1.323   4.706  15.074  0.0581  0.5137  0.9902
  820MPD2    H312124   1.505   0.123  15.012  3.0999  1.4623  2.1423
  820MPD2     N12125   1.827   4.609  15.185  0.0897  0.7665 -0.4381
  820MPD2    H512126   1.891   4.644  15.114  1.8562  0.3017  0.9075
  820MPD2    N112127   1.359   4.492  15.235  0.4566 -0.0541 -0.3548
  820MPD2    H712128   1.278   4.504  15.176  0.4921 -0.2821 -0.4473
  821MPD2     C12129   2.135   1.325  13.723  0.7850  0.0590  0.5584
  821MPD2    C112130   2.175   1.221  13.647  0.5855  0.6022 -0.5699
  821MPD2    C212131   2.294   1.224  13.576  0.0964 -0.5374  0.2952
  821MPD2    C312132   2.378   1.339  13.589 -0.1526  0.1543  0.3235
  821MPD2    C412133   2.332   1.452  13.663  0.4472  0.2981  0.0646
  821MPD2    C512134   2.214   1.438  13.732  0.0403  0.5153  0.4903
  821MPD2     H12135   2.323   1.140  13.514 -0.3634 -0.3541 -0.1637
  821MPD2    H112136   2.397   1.538  13.675  0.0032  0.7174 -0.5843
  821MPD2    H212137   2.059   1.315  13.800 -0.4774 -1.8811 -0.9442
  821MPD2    H312138   2.188   1.517  13.801 -1.4711  0.2544  0.2202
  821MPD2     N12139   2.507   1.354  13.525  0.0866  0.5653 -0.2044
  821MPD2    H512140   2.571   1.432  13.537  1.6352 -0.6046 -0.9316
  821MPD2    N112141   2.102   1.096  13.656 -0.9734  0.1550  0.2526
  821MPD2    H712142   2.150   1.019  13.610  0.8154 -0.9965  4.1101
  822MPD2     C12143   3.355   1.167  15.740  0.3569 -0.3973 -0.1429
  822MPD2    C112144   3.280   1.128  15.851 -0.3051 -0.6596  0.5991
  822MPD2    C212145   3.209   1.215  15.924 -0.9475  0.2431  0.5662
  822MPD2    C312146   3.227   1.351  15.904 -0.2072 -0.2671  0.4106
  822MPD2    C412147   3.293   1.394  15.797 -0.0614 -0.2308  0.8234
  822MPD2    C512148   3.351   1.301  15.714  0.3020 -0.3115 -0.0397
  822MPD2     H12149   3.153   1.184  16.012  0.9650  0.2649  1.7881
  822MPD2    H112150   3.293   1.498  15.765 -0.4888 -0.4045  0.2709
  822MPD2    H212151   3.413   1.108  15.670 -1.4966 -1.3544 -0.8947
  822MPD2    H312152   3.405   1.321  15.622  2.8119 -1.1524  1.2584
  822MPD2     N12153   3.167   1.432  16.007  0.4354  0.7031 -0.2927
  822MPD2    H512154   3.113   1.394  16.084  1.2325  0.8267  0.3184
  822MPD2    N112155   3.269   0.994  15.903 -0.2088 -0.1162 -0.0430
  822MPD2    H712156   3.240   0.990  16.000 -0.9111  1.3146 -0.1934
  823MPD2     C12157   2.963   1.551  16.820  0.5490 -0.2654 -0.3475
  823MPD2    C112158   2.985   1.467  16.714  0.0504  0.3392  0.2970
  823MPD2    C212159   3.004   1.325  16.728  0.2057 -0.4206  0.1155
  823MPD2    C312160   2.975   1.269  16.851  0.4608  0.4324  0.2400
  823MPD2    C412161   2.935   1.351  16.953 -0.2145  0.0887 -0.0748
  823MPD2    C512162   2.938   1.487  16.936 -0.2190 -0.3763 -0.8621
  823MPD2     H12163   3.048   1.273  16.643 -1.5764 -1.8877  0.1082
  823MPD2    H112164   2.915   1.312  17.052 -1.5676 -1.4102 -0.9337
  823MPD2    H212165   2.955   1.660  16.820  1.8641 -0.1729 -0.3964
  823MPD2    H312166   2.931   1.543  17.029 -1.8213  0.0359 -1.2270
  823MPD2     N12167   3.010   1.134  16.880 -0.1753 -0.6004 -0.4609
  823MPD2    H512168   2.989   1.095  16.971  0.0131  2.2934  0.8252
  823MPD2    N112169   3.014   1.532  16.589  0.2854  0.4634 -0.6678
  823MPD2    H712170   3.042   1.629  16.585  1.1823  0.2877  1.2687
  824MPD2     C12171   3.322   0.127  15.749 -0.6485  0.2265  0.2114
  824MPD2    C112172   3.388   0.236  15.699 -0.4901  0.0121  0.2414
  824MPD2    C212173   3.475   0.217  15.590 -0.0431  0.2123  0.1089
  824MPD2    C312174   3.488   0.092  15.528  0.1483 -0.0589 -0.0405
  824MPD2    C412175   3.414   4.728  15.573 -0.3798 -0.1155 -0.4954
  824MPD2    C512176   3.331   0.008  15.686 -0.5423  0.2700 -0.0738
  824MPD2     H12177   3.515   0.303  15.536  1.6996  0.5179  1.8702
  824MPD2    H112178   3.416   4.629  15.529  1.3088 -0.3170  0.0081
  824MPD2    H212179   3.260   0.134  15.838  1.6211  0.3734  1.7904
  824MPD2    H312180   3.272   4.663  15.725  1.4961 -0.7677  0.8150
  824MPD2     N12181   3.593   0.068  15.430 -0.3462 -0.1697  0.3181
  824MPD2    H512182   3.654   0.145  15.404  0.7745 -1.0288  0.3913
  824MPD2    N112183   3.388   0.372  15.756  0.4259 -0.2450  0.5843
  824MPD2    H712184   3.443   0.440  15.705 -1.0358 -0.6555 -1.5253
  825MPD2     C12185   4.043   0.341  14.774  0.2356 -0.2779  0.4182
  825MPD2    C112186   4.038   0.325  14.913 -0.2775  0.1773 -0.0359
  825MPD2    C212187   4.099   0.422  14.994 -0.0916 -0.8082  0.1373
  825MPD2    C312188   4.162   0.531  14.933  0.2387 -1.0567  0.1163
  825MPD2    C412189   4.166   0.544  14.794  0.3955  0.3753 -0.0196
  825MPD2    C512190   4.109   0.452  14.714 -0.6561 -1.0306  0.5858
  825MPD2     H12191   4.088   0.425  15.101 -0.6314 -0.7901  0.0808
  825MPD2    H112192   4.204   0.630  14.739  0.5725 -0.2309 -0.8424
  825MPD2    H212193   3.990   0.272  14.710  0.7237  1.3309 -1.7178
  825MPD2    H312194   4.114   0.469  14.608 -2.3604  1.8226  0.9737
  825MPD2     N12195   4.221   0.637  15.006 -0.0612  0.1673 -0.6920
  825MPD2    H512196   4.243   0.722  14.954 -2.1127  0.2154 -1.5029
  825MPD2    N112197   3.988   0.207  14.971  0.2223  0.2192 -0.1713
  825MPD2    H712198   3.983   0.123  14.914  1.2218  0.3067 -0.4001
  826MPD2     C12199   3.679   0.440  13.813  0.1008 -0.0706  0.4184
  826MPD2    C112200   3.640   0.444  13.681  0.1510  0.0059 -0.5437
  826MPD2    C212201   3.552   0.540  13.628 -0.4791  0.1306  0.5771
  826MPD2    C312202   3.509   0.642  13.710  0.5377 -0.5990  0.3873
  826MPD2    C412203   3.553   0.641  13.846 -1.1006 -0.4236  0.0580
  826MPD2    C512204   3.636   0.544  13.895 -0.2437 -0.2213  0.0545
  826MPD2     H12205   3.524   0.523  13.525  1.7139 -1.6057  0.2661
  826MPD2    H112206   3.513   0.714  13.916  1.4312  1.8013 -0.8189
  826MPD2    H212207   3.736   0.363  13.862 -1.3892 -1.7081 -0.4223
  826MPD2    H312208   3.662   0.541  14.000 -1.0948  0.2434  0.2818
  826MPD2     N12209   3.430   0.744  13.667  0.2639 -0.0953  0.3696
  826MPD2    H512210   3.405   0.803  13.747 -2.0161  0.5040 -0.7916
  826MPD2    N112211   3.684   0.338  13.607 -0.3419  0.0130  0.5242
  826MPD2    H712212   3.728   0.262  13.658 -1.4942 -1.5949 -0.8616
  827MPD2     C12213   3.883   2.123  10.854 -0.1244 -0.0181  0.2023
  827MPD2    C112214   3.905   1.992  10.887  0.0476 -0.6034  0.6356
  827MPD2    C212215   3.822   1.886  10.834  0.1018 -0.2928  0.1660
  827MPD2    C312216   3.739   1.917  10.728  0.0264  0.8029  0.2456
  827MPD2    C412217   3.727   2.048  10.686  0.7207  0.7954  0.7431
  827MPD2    C512218   3.787   2.150  10.752 -0.6134  0.2173 -0.2866
  827MPD2     H12219   3.831   1.781  10.860  3.0192 -0.0250  0.2104
  827MPD2    H112220   3.657   2.076  10.608  0.0762 -0.7221  0.7784
  827MPD2    H212221   3.927   2.206  10.909 -0.2722  0.0020  0.2914
  827MPD2    H312222   3.776   2.246  10.704 -1.6146 -0.7493 -1.9991
  827MPD2     N12223   3.668   1.809  10.668 -0.0975 -0.3291  0.2853
  827MPD2    H512224   3.689   1.714  10.700 -0.1549 -0.8561 -1.2473
  827MPD2    N112225   4.011   1.970  10.979  0.0652  0.1124  0.6253
  827MPD2    H712226   4.066   2.053  10.998 -0.3605  1.1435 -2.7488
  828MPD2     C12227   3.256   1.555  12.646 -0.1561  0.5444 -0.6544
  828MPD2    C112228   3.169   1.551  12.546 -0.3471 -0.0482  0.3860
  828MPD2    C212229   3.226   1.517  12.424  0.3218  0.0211  0.3655
  828MPD2    C312230   3.355   1.483  12.393  0.2455  0.3599 -0.1522
  828MPD2    C412231   3.446   1.496  12.499 -0.0105 -0.3126 -0.7582
  828MPD2    C512232   3.391   1.530  12.621  0.1727 -0.1337 -0.3230
  828MPD2     H12233   3.159   1.504  12.339 -0.4904  0.4094  0.9450
  828MPD2    H112234   3.555   1.495  12.494  0.0709  0.2580  0.9169
  828MPD2    H212235   3.233   1.581  12.749  1.2174 -0.1851 -0.1613
  828MPD2    H312236   3.458   1.558  12.701 -0.7811  0.0864  0.4024
  828MPD2     N12237   3.406   1.440  12.270  0.2708 -0.2447  0.1669
  828MPD2    H512238   3.495   1.391  12.266  1.4375  1.9269 -0.4302
  828MPD2    N112239   3.027   1.579  12.571  0.4335  0.3788 -0.0039
  828MPD2    H712240   2.976   1.590  12.484 -0.8598  1.2899  0.8627
  829MPD2     C12241   2.556   1.855  11.953  0.0010  0.0315  0.9064
  829MPD2    C112242   2.462   1.876  12.057 -0.4308  0.4114 -0.5298
  829MPD2    C212243   2.481   1.812  12.177 -0.6627 -0.0418 -0.2356
  829MPD2    C312244   2.594   1.727  12.186 -0.2494 -0.2223  0.0575
  829MPD2    C412245   2.682   1.705  12.085 -0.4409  0.3110  0.0246
  829MPD2    C512246   2.665   1.774  11.968 -0.2104 -0.0928  0.0506
  829MPD2     H12247   2.408   1.823  12.256 -2.5864 -2.3355 -1.7038
  829MPD2    H112248   2.781   1.663  12.101 -0.5144 -0.0672 -0.5114
  829MPD2    H212249   2.551   1.916  11.863 -0.5793 -2.1516 -0.5464
  829MPD2    H312250   2.732   1.768  11.883 -0.0299  0.5172  0.1529
  829MPD2     N12251   2.632   1.658  12.309  0.2198 -0.2868 -0.3820
  829MPD2    H512252   2.721   1.609  12.311 -0.0252 -0.7538 -1.1068
  829MPD2    N112253   2.359   1.963  12.028 -0.6502  0.6849  0.1205
  829MPD2    H712254   2.356   2.006  11.936 -0.3744  0.8999  0.2125
  830MPD2     C12255   2.817   3.594  15.694 -0.2456  0.3645  0.0407
  830MPD2    C112256   2.902   3.692  15.742  0.2214  0.0361  0.5934
  830MPD2    C212257   3.041   3.681  15.705 -0.1509 -0.0109 -0.6306
  830MPD2    C312258   3.084   3.584  15.620  0.0827  0.0105 -0.0223
  830MPD2    C412259   2.999   3.482  15.584  0.0970 -0.3155 -0.4549
  830MPD2    C512260   2.867   3.491  15.621 -0.3426 -0.1751  0.2435
  830MPD2     H12261   3.115   3.754  15.738  0.5281 -1.5047  1.1149
  830MPD2    H112262   3.034   3.389  15.539  3.0606  1.3297 -1.5317
  830MPD2    H212263   2.714   3.601  15.728 -0.5826 -3.1541 -0.3075
  830MPD2    H312264   2.790   3.421  15.592 -0.8941 -0.0002  1.2674
  830MPD2     N12265   3.224   3.577  15.570 -0.6210  0.4711 -0.1328
  830MPD2    H512266   3.244   3.510  15.497 -1.3724  1.7080 -1.4722
  830MPD2    N112267   2.842   3.793  15.827 -0.6759  0.5104 -0.2461
  830MPD2    H712268   2.742   3.813  15.832 -0.7453 -0.2657  1.1979
  831MPD2     C12269   3.489   1.432  16.270 -1.3150  0.5403 -0.5468
  831MPD2    C112270   3.471   1.321  16.192 -0.4715  0.2814  0.4275
  831MPD2    C212271   3.372   1.231  16.225 -0.0521 -0.8498 -0.1714
  831MPD2    C312272   3.292   1.242  16.342  0.2455 -0.1602 -0.0011
  831MPD2    C412273   3.325   1.341  16.428  0.1931 -0.7932 -0.0262
  831MPD2    C512274   3.414   1.444  16.386 -0.0287 -0.2401 -0.3025
  831MPD2     H12275   3.355   1.156  16.148 -3.3236 -1.0739  0.7837
  831MPD2    H112276   3.269   1.356  16.520  0.0964 -0.2299 -0.1727
  831MPD2    H212277   3.563   1.509  16.250 -1.9312  0.9866 -1.1087
  831MPD2    H312278   3.436   1.523  16.457  1.5480  0.8231 -1.9869
  831MPD2     N12279   3.175   1.170  16.364  0.4627  0.2400  0.1981
  831MPD2    H512280   3.112   1.211  16.432 -0.4674 -0.2513 -0.3697
  831MPD2    N112281   3.557   1.304  16.082 -0.2211  0.0411 -0.1254
  831MPD2    H712282   3.620   1.379  16.055  1.0083 -0.2771  1.8658
  832MPD2     C12283   1.749   2.248  17.509  0.1573  0.4586  0.4292
  832MPD2    C112284   1.738   2.345  17.411 -0.1463 -0.1535 -0.3954
  832MPD2    C212285   1.618   2.364  17.351 -0.2376  0.6139  0.5442
  832MPD2    C312286   1.506   2.290  17.385 -0.2749 -0.1444  0.4579
  832MPD2    C412287   1.517   2.183  17.483  0.4261  0.2878  0.2950
  832MPD2    C512288   1.646   2.167  17.540  0.9646 -0.0509  0.2640
  832MPD2     H12289   1.621   2.429  17.264 -1.6450  0.8897  0.6983
  832MPD2    H112290   1.439   2.123  17.527 -0.1530 -0.6685 -2.0292
  832MPD2    H212291   1.843   2.228  17.559 -1.6230  0.4995  3.8707
  832MPD2    H312292   1.664   2.100  17.624 -1.7911  0.8810  1.5801
  832MPD2     N12293   1.383   2.289  17.310 -0.4798  0.2008 -0.0247
  832MPD2    H512294   1.315   2.215  17.321 -0.4872  0.3746  1.1355
  832MPD2    N112295   1.856   2.409  17.373  0.6244  0.6193  0.3777
  832MPD2    H712296   1.942   2.390  17.423 -0.3688 -1.4733  1.3353
  833MPD2     C12297   4.063   4.242  12.695 -0.4235 -0.0074  0.2903
  833MPD2    C112298   4.062   4.267  12.557 -0.4377 -0.6241  0.2248
  833MPD2    C212299   4.163   4.213  12.476  0.0883 -0.1142  0.9176
  833MPD2    C312300   4.257   4.128  12.538  0.2606  0.3516 -0.2044
  833MPD2    C412301   4.254   4.108  12.673  0.5261  0.3694  0.3671
  833MPD2    C512302   4.149   4.159  12.747 -0.5591 -0.1282  0.3178
  833MPD2     H12303   4.164   4.244  12.372 -2.0508  0.1625  0.9796
  833MPD2    H112304   4.329   4.053  12.729  1.0455  0.5378 -0.1713
  833MPD2    H212305   3.985   4.278  12.760 -0.0140 -1.2434  1.4830
  833MPD2    H312306   4.147   4.159  12.856  3.6908  2.7471  0.3603
  833MPD2     N12307   4.354   4.059  12.473  0.2514 -0.0531 -0.2908
  833MPD2    H512308   4.394   3.987  12.532 -3.1750 -1.0799  0.7440
  833MPD2    N112309   3.947   4.326  12.504  0.4280 -0.4879 -0.0514
  833MPD2    H712310   3.869   4.351  12.564  0.7619 -1.4301  0.7701
  834MPD2     C12311   3.940   3.258  12.074 -0.4261  0.7863 -0.9906
  834MPD2    C112312   3.868   3.365  12.018  0.6407  0.0343 -0.2180
  834MPD2    C212313   3.893   3.495  12.081 -0.3043  0.0947  0.3084
  834MPD2    C312314   3.972   3.506  12.201 -0.1694 -0.5571 -0.5432
  834MPD2    C412315   4.028   3.388  12.253 -0.5892 -0.0709  0.8146
  834MPD2    C512316   4.018   3.275  12.181  0.0486 -0.1769  0.2128
  834MPD2     H12317   3.841   3.584  12.047  1.5093  2.0576  2.6816
  834MPD2    H112318   4.104   3.387  12.330 -0.7051 -0.8877  0.9236
  834MPD2    H212319   3.927   3.154  12.046 -0.9162  0.7982 -0.8008
  834MPD2    H312320   4.077   3.193  12.218  0.2501 -0.2668 -0.3101
  834MPD2     N12321   4.005   3.634  12.249 -0.7331  0.2029 -0.3835
  834MPD2    H512322   3.975   3.711  12.190  0.8707  1.8330  0.8974
  834MPD2    N112323   3.789   3.349  11.901  0.6995  0.2436 -0.2385
  834MPD2    H712324   3.783   3.256  11.861  0.4661 -0.9273  2.4971
  835MPD2     C12325   3.572   1.419  11.417  0.0813  0.5011 -0.0692
  835MPD2    C112326   3.471   1.501  11.457  0.6331 -0.3155 -0.8164
  835MPD2    C212327   3.493   1.570  11.579 -0.3798  0.0730 -0.6610
  835MPD2    C312328   3.609   1.558  11.651  0.1429 -0.6562 -0.1332
  835MPD2    C412329   3.706   1.472  11.600 -0.1028  0.2016 -0.6455
  835MPD2    C512330   3.683   1.409  11.484 -0.0422  0.0283  0.4960
  835MPD2     H12331   3.415   1.635  11.617 -2.9746 -2.2258 -1.9847
  835MPD2    H112332   3.797   1.456  11.657 -1.6461  0.4532  1.8727
  835MPD2    H212333   3.573   1.363  11.324 -1.2950 -0.1122  0.2791
  835MPD2    H312334   3.762   1.342  11.451 -3.6769 -1.9872 -4.0049
  835MPD2     N12335   3.638   1.624  11.776 -0.6194  0.4233  0.6473
  835MPD2    H512336   3.728   1.608  11.819 -1.5675  0.8365  2.8082
  835MPD2    N112337   3.358   1.525  11.387  0.4194  0.5281 -0.3369
  835MPD2    H712338   3.307   1.602  11.429 -1.0056 -0.7747  0.3181
  836MPD2     C12339   3.066   1.801  12.272  0.7394 -0.2067  0.0581
  836MPD2    C112340   3.193   1.852  12.313  0.3387 -0.1998 -0.7133
  836MPD2    C212341   3.191   1.939  12.423 -0.2486 -1.2228  0.1397
  836MPD2    C312342   3.072   1.983  12.481  0.6426 -0.6302 -0.0987
  836MPD2    C412343   2.946   1.947  12.431  0.9642 -0.5785  0.5678
  836MPD2    C512344   2.946   1.853  12.332 -0.0572  0.0311 -0.7282
  836MPD2     H12345   3.282   1.982  12.462 -0.1039 -0.7143 -0.7690
  836MPD2    H112346   2.851   1.991  12.458  0.6383 -1.8354  1.4821
  836MPD2    H212347   3.057   1.731  12.190 -2.2774 -1.4559  1.4535
  836MPD2    H312348   2.848   1.834  12.291  0.6285 -3.1542 -0.8482
  836MPD2     N12349   3.074   2.063  12.595 -0.7869  0.8436  0.0557
  836MPD2    H512350   2.989   2.062  12.650  0.3211 -1.3832  1.6996
  836MPD2    N112351   3.313   1.818  12.244 -0.1360 -0.3374  0.2351
  836MPD2    H712352   3.305   1.749  12.170  1.9417 -0.0745 -0.2306
  837MPD2     C12353   1.479   1.506  10.312  0.4668  0.3673 -0.2278
  837MPD2    C112354   1.356   1.560  10.343 -0.3806  0.0926  0.2547
  837MPD2    C212355   1.355   1.676  10.409 -0.2041  0.1290 -0.1053
  837MPD2    C312356   1.467   1.748  10.439 -0.3588 -0.6170  0.3290
  837MPD2    C412357   1.589   1.700  10.409  0.1479 -0.4146  0.3662
  837MPD2    C512358   1.594   1.575  10.345  0.5461  0.2504  0.0224
  837MPD2     H12359   1.263   1.711  10.455  0.4565  0.7973  0.7098
  837MPD2    H112360   1.687   1.741  10.431 -0.5397  1.8831 -0.7734
  837MPD2    H212361   1.490   1.411  10.261 -0.5870  1.9483 -3.4130
  837MPD2    H312362   1.692   1.534  10.323 -0.6557 -1.4790 -2.0800
  837MPD2     N12363   1.447   1.867  10.501 -0.0906 -0.4273 -0.2485
  837MPD2    H512364   1.351   1.889  10.523  0.0625 -0.4593  0.4512
  837MPD2    N112365   1.234   1.510  10.295 -0.3450  0.2047 -0.1987
  837MPD2    H712366   1.150   1.564  10.316 -0.4476  0.2296 -0.6762
  838MPD2     C12367   0.633   4.638  11.899 -0.3119 -0.1085 -0.5186
  838MPD2    C112368   0.505   4.640  11.865 -0.5093  0.1473 -0.1988
  838MPD2    C212369   0.395   4.625  11.957 -0.6868  0.6272 -0.5011
  838MPD2    C312370   0.422   4.593  12.085 -0.2343 -0.0470 -0.2088
  838MPD2    C412371   0.554   4.595  12.124 -0.4501  0.7023  0.4198
  838MPD2    C512372   0.650   4.619  12.033  0.1455  1.1330  0.1848
  838MPD2     H12373   0.291   4.625  11.929 -1.0799  2.0860  0.9655
  838MPD2    H112374   0.580   4.562  12.224  1.4258  1.4493  0.1661
  838MPD2    H212375   0.719   4.638  11.834  0.6660  1.4160  0.7929
  838MPD2    H312376   0.748   4.627  12.080 -1.8416  1.4011  4.2081
  838MPD2     N12377   0.320   4.568  12.178 -0.3125  0.8061  0.1334
  838MPD2    H512378   0.226   4.591  12.149 -0.0133  2.6625  0.6723
  838MPD2    N112379   0.467   4.652  11.730  0.1352  0.3453 -0.2974
  838MPD2    H712380   0.367   4.654  11.717  0.0359 -0.1108  0.3701
  839MPD2     C12381   4.485   4.257  11.227  0.2554 -0.3749 -0.8029
  839MPD2    C112382   4.563   4.270  11.117  0.4526 -0.2092  0.2732
  839MPD2    C212383   4.682   4.341  11.132 -0.7851  0.1348  0.2509
  839MPD2    C312384   4.727   4.396  11.248  0.4045  0.1423  0.4120
  839MPD2    C412385   4.643   4.388  11.360 -1.2780  0.8579  0.7208
  839MPD2    C512386   4.525   4.313  11.346 -0.6632  0.3894 -0.7109
  839MPD2     H12387   0.009   4.348  11.045 -0.7413  1.5092  0.4010
  839MPD2    H112388   4.668   4.410  11.463 -1.9735  0.6141  0.9422
  839MPD2    H212389   4.388   4.208  11.230  0.1282 -0.0731  0.0090
  839MPD2    H312390   4.469   4.290  11.436 -0.2020  1.9920 -0.0098
  839MPD2     N12391   0.123   4.452  11.250 -0.0233  0.0645  0.5189
  839MPD2    H512392   0.182   4.437  11.169 -1.4992 -0.5027 -0.4582
  839MPD2    N112393   4.534   4.209  10.994 -0.2784 -0.2085 -0.4620
  839MPD2    H712394   4.613   4.215  10.931  1.2049  0.6962  1.4809
  840MPD2     C12395   4.604   2.069  10.746 -0.1105  0.6717 -0.4681
  840MPD2    C112396   4.627   2.051  10.886 -0.2482 -0.0601  0.4813
  840MPD2    C212397   0.013   2.076  10.940  0.1793  0.2328 -0.0661
  840MPD2    C312398   0.110   2.130  10.863  0.0578 -0.5136 -0.4265
  840MPD2    C412399   0.086   2.159  10.734 -0.5226 -0.4410  0.1207
  840MPD2    C512400   4.709   2.124  10.677  0.4605 -0.3045  0.2409
  840MPD2     H12401   0.039   2.051  11.042  0.4787  0.9821  0.0433
  840MPD2    H112402   0.165   2.199  10.671 -1.1045  0.3221 -0.1129
  840MPD2    H212403   4.514   2.037  10.695  0.2820 -1.1759 -0.0253
  840MPD2    H312404   4.702   2.136  10.569  0.4370  0.3491  0.3150
  840MPD2     N12405   0.235   2.155  10.919 -0.3324  0.4777 -0.3881
  840MPD2    H512406   0.302   2.177  10.846  0.6904  1.0558  0.7432
  840MPD2    N112407   4.514   2.000  10.962 -0.1564 -0.1499 -0.4438
  840MPD2    H712408   4.422   2.016  10.922  0.4943  2.1743 -1.0202
  841MPD2     C12409   4.705   2.079  14.545  0.1077 -0.0401  0.1505
  841MPD2    C112410   0.018   1.960  14.588  0.3521 -0.2956 -0.4004
  841MPD2    C212411   0.138   1.962  14.654 -1.2052  0.0380  0.6586
  841MPD2    C312412   0.202   2.085  14.670 -0.4417 -0.6626 -0.5681
  841MPD2    C412413   0.159   2.197  14.609  0.6232  0.4284 -0.1498
  841MPD2    C512414   0.037   2.197  14.543 -0.1348  0.1840  0.3328
  841MPD2     H12415   0.176   1.872  14.701  1.7750  0.4757 -0.9240
  841MPD2    H112416   0.218   2.287  14.610 -0.1732  0.9463  0.5995
  841MPD2    H212417   4.606   2.074  14.501 -0.8248 -0.2224  2.2542
  841MPD2    H312418   4.729   2.289  14.509  0.8264  0.3587 -0.4418
  841MPD2     N12419   0.314   2.085  14.756 -0.3022 -0.2590 -0.0162
  841MPD2    H512420   0.321   2.005  14.819 -1.2435  0.2374  0.7272
  841MPD2    N112421   4.691   1.835  14.581 -0.3317 -0.6857  0.1620
  841MPD2    H712422   0.016   1.761  14.609 -0.1398 -0.6119 -0.0638
  842MPD2     C12423   0.189   2.296  16.955  1.4275  0.1311  0.3522
  842MPD2    C112424   0.242   2.425  16.980  0.7258  0.3798 -0.2134
  842MPD2    C212425   0.314   2.463  17.089  0.0403  0.1489  0.0532
  842MPD2    C312426   0.288   2.381  17.198  0.2757  0.0648  0.4711
  842MPD2    C412427   0.221   2.260  17.185 -0.0423  0.7103 -0.6208
  842MPD2    C512428   0.173   2.217  17.062  0.5491  0.2213 -0.7624
  842MPD2     H12429   0.368   2.556  17.103  0.5559 -0.2160  0.4931
  842MPD2    H112430   0.213   2.193  17.270 -1.8057  0.3397 -1.0929
  842MPD2    H212431   0.147   2.254  16.864 -0.9359 -0.2867  1.6230
  842MPD2    H312432   0.123   2.123  17.042  2.3737 -0.2591 -2.9780
  842MPD2     N12433   0.332   2.409  17.324 -0.3387 -0.4789  0.3712
  842MPD2    H512434   0.287   2.357  17.399 -0.0375  0.3931  1.1658
  842MPD2    N112435   0.231   2.515  16.870  0.1671 -0.2463 -1.1003
  842MPD2    H712436   0.166   2.491  16.796 -1.2478  0.7763 -0.2016
  843MPD2     C12437   2.728   3.055   0.158 -0.3955  0.4672  1.0394
  843MPD2    C112438   2.855   3.004   0.145  0.1035 -0.7674 -1.1675
  843MPD2    C212439   2.971   3.083   0.155  0.5130  1.0290  0.0983
  843MPD2    C312440   2.956   3.221   0.170  0.1814  0.3186 -0.8502
  843MPD2    C412441   2.829   3.270   0.183  1.0267  0.0878 -0.5243
  843MPD2    C512442   2.717   3.191   0.187 -0.2960 -0.4140 -0.7804
  843MPD2     H12443   3.062   3.024   0.157  0.2729  0.7032  1.2520
  843MPD2    H112444   2.820   3.372   0.217  1.2260 -0.6989  1.8863
  843MPD2    H212445   2.636   2.998   0.160  0.7819 -1.5034 -1.3251
  843MPD2    H312446   2.617   3.232   0.200 -0.1616 -1.2192  2.7509
  843MPD2     N12447   3.063   3.310   0.177 -0.2645 -0.7981 -0.2296
  843MPD2    H512448   3.040   3.409   0.173  0.5125 -0.5407  1.6925
  843MPD2    N112449   2.878   2.871   0.124 -0.5265 -0.3990 -0.3806
  843MPD2    H712450   2.972   2.838   0.141 -0.3849 -0.3028 -0.9735
  844MPD2     C12451   1.070   1.589  16.960  0.3205  0.2407  0.2698
  844MPD2    C112452   1.105   1.646  16.836  0.1022 -0.1798  0.0081
  844MPD2    C212453   1.187   1.760  16.839  1.0417 -0.2319 -0.4078
  844MPD2    C312454   1.228   1.818  16.958 -0.0972 -0.1272 -0.2247
  844MPD2    C412455   1.187   1.762  17.076  1.0058  1.1887 -0.1514
  844MPD2    C512456   1.110   1.646  17.076  0.9493  0.2264 -0.7256
  844MPD2     H12457   1.208   1.805  16.742 -1.1870  1.8765  0.0725
  844MPD2    H112458   1.217   1.799  17.174  1.4337 -0.0411  0.1840
  844MPD2    H212459   1.007   1.501  16.969  0.2425 -0.1269 -3.8407
  844MPD2    H312460   1.089   1.592  17.168  0.3993  2.5982  0.5431
  844MPD2     N12461   1.314   1.931  16.970 -0.1008 -0.6042 -0.3288
  844MPD2    H512462   1.331   1.969  17.062  1.8075 -0.9061 -0.5561
  844MPD2    N112463   1.084   1.587  16.709 -0.2837 -0.0516  0.1076
  844MPD2    H712464   1.127   1.638  16.633  1.3007 -0.1534  0.9340
  845MPD2     C12465   1.510   2.942  17.002  0.1429  0.3016  0.5476
  845MPD2    C112466   1.597   2.878  17.088  0.7325 -0.3201 -0.6671
  845MPD2    C212467   1.615   2.739  17.082 -1.4444 -0.0183  0.7035
  845MPD2    C312468   1.560   2.673  16.980  0.2810  0.2939  0.2276
  845MPD2    C412469   1.483   2.740  16.891  0.4321  0.5776 -0.5483
  845MPD2    C512470   1.445   2.870  16.915 -0.4828  0.1841  0.5349
  845MPD2     H12471   1.689   2.700  17.151 -0.7144  1.3414  0.7098
  845MPD2    H112472   1.426   2.689  16.814  1.5721 -1.8557  0.2077
  845MPD2    H212473   1.484   3.047  17.014  2.7212  0.9874  0.0639
  845MPD2    H312474   1.377   2.916  16.844  0.3924  0.8645  0.1353
  845MPD2     N12475   1.604   2.539  16.965  0.0916  0.3037 -0.2837
  845MPD2    H512476   1.663   2.504  17.040 -3.3937 -3.3331  0.8106
  845MPD2    N112477   1.661   2.967  17.177  0.3169 -0.3252 -0.3909
  845MPD2    H712478   1.638   3.065  17.169 -0.8574 -0.7550 -2.0490
  846MPD2     C12479   3.307   3.352  14.462  0.5304  0.1670  0.3499
  846MPD2    C112480   3.193   3.322  14.392 -0.0636  0.2244 -0.1554
  846MPD2    C212481   3.081   3.297  14.467 -0.0688  0.6711 -0.2592
  846MPD2    C312482   3.085   3.288  14.608 -0.0318  0.0967  0.0268
  846MPD2    C412483   3.200   3.297  14.672 -0.4011 -0.1777  0.0634
  846MPD2    C512484   3.302   3.340  14.597 -0.5545 -0.0968  0.0931
  846MPD2     H12485   2.985   3.293  14.416  0.0290  0.9536 -0.4629
  846MPD2    H112486   3.211   3.296  14.780  0.5087 -0.0470 -0.0249
  846MPD2    H212487   3.397   3.389  14.414  1.0375 -0.4672  0.7954
  846MPD2    H312488   3.394   3.350  14.654 -0.1646  3.0488 -1.0534
  846MPD2     N12489   2.965   3.276  14.679 -0.0045  0.0938 -0.0939
  846MPD2    H512490   2.885   3.280  14.617  0.4066 -0.6755 -0.6840
  846MPD2    N112491   3.188   3.326  14.253 -0.0124 -0.0858 -1.0833
  846MPD2    H712492   3.096   3.313  14.212 -0.7545  0.6927  0.3643
  847MPD2     C12493   3.293   4.570  14.100  0.3625  0.3495  0.0434
  847MPD2    C112494   3.303   4.580  14.242  0.2417 -0.2023  0.1890
  847MPD2    C212495   3.354   4.480  14.315 -0.7196  0.0405 -0.5002
  847MPD2    C312496   3.393   4.358  14.257 -0.2498  0.0541 -0.0225
  847MPD2    C412497   3.375   4.346  14.124  0.5383  0.1415 -0.6497
  847MPD2    C512498   3.334   4.447  14.042 -0.0651  0.3405 -0.3387
  847MPD2     H12499   3.359   4.498  14.422  1.2449  0.9934 -0.7435
  847MPD2    H112500   3.387   4.250  14.075 -0.6010 -1.9305  3.1505
  847MPD2    H212501   3.242   4.640  14.034  0.7912  1.1826  0.5945
  847MPD2    H312502   3.319   4.421  13.938  1.0190 -1.6225  0.0072
  847MPD2     N12503   3.431   4.255  14.351 -0.3430 -0.0929 -0.1897
  847MPD2    H512504   3.442   4.303  14.439 -0.6153 -0.6328  0.1426
  847MPD2    N112505   3.253   4.688  14.311  0.2220 -0.2599 -0.5476
  847MPD2    H712506   3.267   4.690  14.411  0.4864  0.6906 -0.6071
  848MPD2     C12507   1.118   2.659  16.562  0.1629  0.0361  0.1639
  848MPD2    C112508   1.132   2.699  16.696 -0.5499 -0.5194  0.3769
  848MPD2    C212509   1.126   2.840  16.715 -0.4851 -0.1357  0.3794
  848MPD2    C312510   1.093   2.926  16.612  0.3947 -0.3385  0.7004
  848MPD2    C412511   1.085   2.879  16.483  0.0375 -0.8226 -0.1911
  848MPD2    C512512   1.093   2.748  16.460  0.2923 -0.0747  0.6688
  848MPD2     H12513   1.142   2.877  16.816 -1.3065 -2.1005  1.2266
  848MPD2    H112514   1.044   2.939  16.402  0.8228  1.2629  0.9479
  848MPD2    H212515   1.119   2.555  16.533 -0.2526  0.6291 -2.0348
  848MPD2    H312516   1.079   2.710  16.360 -0.5976 -1.1146  1.1835
  848MPD2     N12517   1.090   3.067  16.624 -0.1805  0.0784  0.3687
  848MPD2    H512518   1.073   3.122  16.540 -1.2409 -0.0687  0.4808
  848MPD2    N112519   1.141   2.613  16.808 -0.0660 -0.1716  0.0129
  848MPD2    H712520   1.136   2.662  16.897  0.6017  1.0920 -0.6456
  849MPD2     C12521   0.031   2.638  14.388 -0.2151  0.2310 -0.4336
  849MPD2    C112522   0.151   2.685  14.334 -0.6240  0.0656  0.7294
  849MPD2    C212523   0.271   2.665  14.401 -0.8148 -0.0292  0.4013
  849MPD2    C312524   0.280   2.587  14.515  0.2900  0.0736  0.7110
  849MPD2    C412525   0.158   2.541  14.564  0.3140 -0.1312  0.5739
  849MPD2    C512526   0.041   2.565  14.501  0.1227  0.4067  0.9256
  849MPD2     H12527   0.364   2.706  14.364 -1.0385  0.6083  0.5455
  849MPD2    H112528   0.156   2.489  14.659 -2.6490 -0.1299  0.5046
  849MPD2    H212529   4.672   2.661  14.346 -1.5140 -1.5113  1.5912
  849MPD2    H312530   4.687   2.527  14.547  2.1298 -0.8176  3.8979
  849MPD2     N12531   0.398   2.554  14.584  0.0819  0.1255 -0.2492
  849MPD2    H512532   0.389   2.505  14.672 -1.4513 -1.6431 -1.4009
  849MPD2    N112533   0.139   2.749  14.210 -0.1409  0.2760  0.1719
  849MPD2    H712534   0.045   2.748  14.172 -0.7040 -0.9732  1.5851
  850MPD2     C12535   3.126   0.410  14.894 -0.6757 -0.0374  0.5783
  850MPD2    C112536   3.214   0.328  14.963  0.4334 -0.0215 -0.6002
  850MPD2    C212537   3.350   0.346  14.933 -0.4527 -0.3957 -0.3308
  850MPD2    C312538   3.396   0.451  14.850  0.0196  0.5600  0.1063
  850MPD2    C412539   3.300   0.516  14.780 -0.5866 -0.4984 -0.1899
  850MPD2    C512540   3.164   0.497  14.800 -0.4482 -0.1795 -0.8893
  850MPD2     H12541   3.424   0.281  14.977 -1.0205 -1.2980 -0.7285
  850MPD2    H112542   3.326   0.589  14.705  0.2187 -0.8609 -0.2654
  850MPD2    H212543   3.023   0.392  14.924  0.2116 -3.5752  1.4852
  850MPD2    H312544   3.092   0.562  14.753 -0.5007 -0.8399 -1.7335
  850MPD2     N12545   3.531   0.494  14.830  0.6088 -0.2853 -0.1325
  850MPD2    H512546   3.544   0.568  14.762 -0.9227 -0.5303 -0.6832
  850MPD2    N112547   3.159   0.238  15.055  0.2459 -0.5760  0.1492
  850MPD2    H712548   3.058   0.233  15.067  0.3513 -0.8091  0.9810
  851MPD2     C12549   3.105   4.328  15.708 -0.4929  0.5144 -0.3431
  851MPD2    C112550   3.189   4.359  15.606  0.1940 -0.2907  0.5096
  851MPD2    C212551   3.276   4.254  15.559 -0.8525  0.1399  0.7731
  851MPD2    C312552   3.287   4.136  15.627 -0.3821 -0.2717  0.6749
  851MPD2    C412553   3.202   4.110  15.739 -0.7112  0.7330  0.3274
  851MPD2    C512554   3.120   4.213  15.775  0.4020 -1.2930 -0.4010
  851MPD2     H12555   3.338   4.283  15.475  0.4459 -0.0749  1.6632
  851MPD2    H112556   3.210   4.020  15.800  1.1780 -0.6554 -2.0046
  851MPD2    H212557   3.029   4.399  15.738  0.0510  0.6471  0.6998
  851MPD2    H312558   3.052   4.196  15.858 -0.4552  0.7175 -0.6966
  851MPD2     N12559   3.378   4.031  15.596  0.0585 -0.0372  0.3411
  851MPD2    H512560   3.353   3.943  15.640  1.7193 -0.2746  0.8061
  851MPD2    N112561   3.156   4.468  15.526  0.3414 -0.2092 -0.8014
  851MPD2    H712562   3.080   4.534  15.546  1.2357  0.3990  0.5451
  852MPD2     C12563   2.018   4.294  10.353  0.8506  0.5379 -0.5777
  852MPD2    C112564   2.118   4.235  10.419  0.1420 -0.3760 -0.0015
  852MPD2    C212565   2.230   4.309  10.449  0.4706 -0.2947  0.3630
  852MPD2    C312566   2.244   4.437  10.399  0.4558 -0.4223  0.3493
  852MPD2    C412567   2.140   4.500  10.340 -0.9753  0.3086  0.7056
  852MPD2    C512568   2.030   4.427  10.315 -1.1225 -0.2606 -0.2937
  852MPD2     H12569   2.316   4.271  10.503  0.2134 -0.0944  0.9166
  852MPD2    H112570   2.143   4.603  10.307 -0.4103  0.1407  0.2436
  852MPD2    H212571   1.926   4.241  10.330  0.0136  1.5671  0.3757
  852MPD2    H312572   1.945   4.472  10.265  0.5115  0.2597 -2.6243
  852MPD2     N12573   2.373   4.498  10.417  0.4904  0.6911 -0.5205
  852MPD2    H512574   2.451   4.453  10.464  0.0604 -0.9576 -1.3580
  852MPD2    N112575   2.117   4.092  10.454  0.0713  0.3961 -0.0793
  852MPD2    H712576   2.178   4.057  10.526  0.5896 -2.0473 -1.7102
  853MPD2     C12577   4.502   2.752  12.866 -0.7729 -0.1963  0.0524
  853MPD2    C112578   4.480   2.885  12.852 -0.3926  0.0904 -0.0090
  853MPD2    C212579   4.512   2.946  12.729  0.3019 -0.4233 -0.0644
  853MPD2    C312580   4.557   2.877  12.617  0.2631  0.2906  0.3321
  853MPD2    C412581   4.576   2.742  12.638  0.3204  0.6394 -0.1437
  853MPD2    C512582   4.552   2.678  12.757  0.1125 -0.2911 -0.6950
  853MPD2     H12583   4.490   3.049  12.704  0.1445 -0.4773 -0.1485
  853MPD2    H112584   4.604   2.674  12.559 -1.6041 -0.8816  0.4953
  853MPD2    H212585   4.482   2.701  12.959  1.8848  0.1111  0.7792
  853MPD2    H312586   4.576   2.572  12.768 -2.1093 -0.7826 -0.5320
  853MPD2     N12587   4.570   2.931  12.481  0.1375  0.3116 -0.3571
  853MPD2    H512588   4.615   2.865  12.418 -0.8832 -2.1868  1.5296
  853MPD2    N112589   4.433   2.950  12.966  0.6282 -0.6151 -0.5232
  853MPD2    H712590   4.411   2.893  13.047  0.8812 -0.4533 -0.3401
  854MPD2     C12591   1.408   3.270  13.132 -0.0402 -0.1619 -0.1098
  854MPD2    C112592   1.472   3.237  13.011 -0.5204 -0.1848 -0.3756
  854MPD2    C212593   1.551   3.121  13.015 -0.2829  0.2418 -0.3365
  854MPD2    C312594   1.579   3.058  13.136  0.6221  0.5797 -0.0015
  854MPD2    C412595   1.528   3.106  13.253  0.5265  0.3592  0.4269
  854MPD2    C512596   1.430   3.207  13.252 -0.4247 -0.0068 -0.2580
  854MPD2     H12597   1.596   3.091  12.921  1.2732  1.7631 -0.0890
  854MPD2    H112598   1.558   3.068  13.350 -1.7182  2.3711  1.9182
  854MPD2    H212599   1.362   3.367  13.143  2.0829  0.6746  1.4422
  854MPD2    H312600   1.390   3.247  13.344 -0.1167 -1.8430  0.6628
  854MPD2     N12601   1.659   2.947  13.162  0.0478  0.0613 -0.1821
  854MPD2    H512602   1.681   2.918  13.257  1.3071  1.3413 -0.0772
  854MPD2    N112603   1.464   3.330  12.899 -0.1615  1.1576  0.2208
  854MPD2    H712604   1.394   3.403  12.902 -0.3520  1.0300 -1.5110
  855MPD2     C12605   2.084   2.845  13.861 -0.3462  0.1462 -0.1987
  855MPD2    C112606   2.048   2.719  13.825  0.0585 -0.7161 -1.3101
  855MPD2    C212607   2.009   2.695  13.694 -0.2268  0.0267 -0.2465
  855MPD2    C312608   2.005   2.791  13.599  0.3698 -0.1205  0.8644
  855MPD2    C412609   2.034   2.920  13.639  0.3285 -0.8870 -0.1166
  855MPD2    C512610   2.068   2.944  13.768  0.0674  0.1775  0.4677
  855MPD2     H12611   1.978   2.594  13.667 -1.3112  0.6178 -1.2400
  855MPD2    H112612   2.024   3.004  13.573 -0.0920 -0.5065  0.4262
  855MPD2    H212613   2.108   2.875  13.963 -1.8380 -2.2403  0.8525
  855MPD2    H312614   2.097   3.045  13.796  1.4484 -0.2200  0.4490
  855MPD2     N12615   1.964   2.767  13.471 -0.1666 -0.6694 -0.0478
  855MPD2    H512616   1.941   2.844  13.409 -0.5607 -0.0673  0.8389
  855MPD2    N112617   2.052   2.607  13.911  0.3128 -0.4265 -0.5843
  855MPD2    H712618   2.008   2.526  13.867  0.5878 -0.2644 -1.1592
  856MPD2     C12619   4.318   3.977  14.359 -0.4256  0.0876 -0.5633
  856MPD2    C112620   4.276   4.108  14.349  0.4850  0.3623 -0.0602
  856MPD2    C212621   4.207   4.142  14.235  0.3635 -0.0174 -0.0381
  856MPD2    C312622   4.163   4.049  14.141 -1.5327 -0.3824 -0.2629
  856MPD2    C412623   4.199   3.918  14.157 -0.4781  0.1532 -0.2738
  856MPD2    C512624   4.270   3.886  14.264 -0.1746 -0.4056  0.9929
  856MPD2     H12625   4.180   4.246  14.221 -1.3062 -0.7619 -2.3424
  856MPD2    H112626   4.180   3.835  14.090  1.2043 -0.9025  0.5549
  856MPD2    H212627   4.384   3.942  14.437 -1.0676 -0.3299 -0.2105
  856MPD2    H312628   4.281   3.778  14.270 -0.0010 -0.4329  0.1900
  856MPD2     N12629   4.087   4.080  14.025  0.8157  0.2559  0.4222
  856MPD2    H512630   4.073   4.007  13.956 -1.8114  3.7366 -2.7462
  856MPD2    N112631   4.302   4.210  14.448  0.0022  0.6110 -0.5609
  856MPD2    H712632   4.258   4.298  14.422 -0.6191  0.7851  1.0709
  857MPD2     C12633   0.895   1.577  12.230 -0.2704  0.2926 -0.1754
  857MPD2    C112634   0.967   1.520  12.331  0.2761 -0.3328 -0.2641
  857MPD2    C212635   1.040   1.605  12.413 -0.4987  0.0973 -0.5110
  857MPD2    C312636   1.050   1.736  12.388 -0.2123 -0.2060 -1.2623
  857MPD2    C412637   0.964   1.790  12.300  0.5575  0.0185 -0.4829
  857MPD2    C512638   0.888   1.711  12.225 -0.5171  0.3701  0.6069
  857MPD2     H12639   1.097   1.574  12.499 -0.2327  0.8231 -0.4250
  857MPD2    H112640   0.956   1.897  12.290 -1.7162  0.0916  2.1351
  857MPD2    H212641   0.843   1.515  12.159  0.1983 -1.0585  0.6652
  857MPD2    H312642   0.839   1.760  12.141 -1.5838 -0.7207  0.5829
  857MPD2     N12643   1.134   1.808  12.477 -0.2512  0.1041 -0.3102
  857MPD2    H512644   1.209   1.752  12.515 -1.4651 -0.7687  0.7953
  857MPD2    N112645   0.970   1.379  12.348  0.5249 -1.0916  0.0852
  857MPD2    H712646   0.928   1.317  12.280 -0.8010  2.4133 -2.2873
  858MPD2     C12647   2.131   0.172  16.756 -0.5018  0.2642 -0.2156
  858MPD2    C112648   2.021   0.098  16.786  0.2253 -0.4365  0.1815
  858MPD2    C212649   1.989   0.068  16.912 -0.1076 -0.7535 -0.2783
  858MPD2    C312650   2.065   0.106  17.012 -0.1248  0.3936  1.0470
  858MPD2    C412651   2.184   0.168  16.982  0.2212 -0.0091 -0.7316
  858MPD2    C512652   2.220   0.209  16.857  0.0672 -0.0934  0.2919
  858MPD2     H12653   1.895   0.017  16.928 -1.4980  1.1505 -2.2947
  858MPD2    H112654   2.260   0.173  17.059  2.3230 -0.1745 -2.7889
  858MPD2    H212655   2.168   0.182  16.655 -3.4832 -2.9007 -1.6299
  858MPD2    H312656   2.314   0.264  16.854  0.5960 -0.9386  1.4255
  858MPD2     N12657   2.034   0.082  17.146 -0.1228 -0.1678 -0.1319
  858MPD2    H512658   2.073   0.142  17.218 -2.3814 -0.9159  1.6965
  858MPD2    N112659   1.949   0.044  16.669  0.3079 -0.3794  0.1192
  858MPD2    H712660   1.985   0.077  16.580  0.4688  0.0484  0.3420
  859MPD2     C12661   0.146   2.656  15.800 -0.1833 -0.0896 -0.6387
  859MPD2    C112662   0.106   2.643  15.671  0.0666  0.3303 -0.3813
  859MPD2    C212663   0.006   2.556  15.637 -0.0577 -0.2868  0.4553
  859MPD2    C312664   4.678   2.479  15.732  0.0534  0.5572 -0.3883
  859MPD2    C412665   4.725   2.485  15.862 -0.8012 -0.2820  0.3310
  859MPD2    C512666   0.078   2.586  15.894 -0.1252  0.2970  0.4566
  859MPD2     H12667   4.701   2.552  15.537  0.7438  0.3007  0.0916
  859MPD2    H112668   4.682   2.426  15.942 -0.5984 -0.2157  0.4889
  859MPD2    H212669   0.227   2.723  15.825 -1.6871  1.8806 -0.9969
  859MPD2    H312670   0.101   2.598  16.000 -0.2247  2.5117  0.2310
  859MPD2     N12671   4.581   2.382  15.700  0.4906  0.4295  0.6968
  859MPD2    H512672   4.554   2.326  15.781  1.2386 -1.6910 -0.5194
  859MPD2    N112673   0.175   2.717  15.573  0.1095  0.0885  0.1483
  859MPD2    H712674   0.255   2.768  15.610  0.6143 -0.6742  0.1030
  860MPD2     C12675   2.952   2.838  11.811  0.1071  0.1198 -0.4787
  860MPD2    C112676   2.947   2.891  11.938 -0.4242 -0.6824  0.5898
  860MPD2    C212677   2.827   2.906  12.000 -0.1045 -0.0065 -0.2894
  860MPD2    C312678   2.707   2.860  11.944  0.3890 -0.1590  0.6782
  860MPD2    C412679   2.717   2.795  11.822 -0.0308 -0.1022  0.5151
  860MPD2    C512680   2.838   2.781  11.760 -0.1053  0.7827  0.3300
  860MPD2     H12681   2.841   2.951  12.098  2.3154  2.7819 -1.8950
  860MPD2    H112682   2.629   2.748  11.779  1.6200 -1.8444 -0.9148
  860MPD2    H212683   3.041   2.832  11.748  2.3354 -1.9659  2.8991
  860MPD2    H312684   2.841   2.745  11.658 -1.0777  1.4568  0.0517
  860MPD2     N12685   2.593   2.857  12.022 -0.1741 -0.3234  0.4503
  860MPD2    H512686   2.596   2.906  12.111 -2.1931 -1.1828  0.9995
  860MPD2    N112687   3.060   2.930  12.015  0.7447 -0.0700 -0.2233
  860MPD2    H712688   3.042   2.962  12.109  1.8833 -3.8339  1.2771
  861MPD2     C12689   0.854   0.789  11.518  0.1660  0.4241  0.1432
  861MPD2    C112690   0.946   0.891  11.493 -0.3265 -0.4245 -0.1309
  861MPD2    C212691   0.917   0.988  11.398 -0.6336  0.3066 -0.1671
  861MPD2    C312692   0.807   0.984  11.316  0.7445  0.1412  0.4058
  861MPD2    C412693   0.721   0.877  11.330  0.2671 -0.1960 -0.0761
  861MPD2    C512694   0.752   0.779  11.422 -0.0950 -0.4532  0.8416
  861MPD2     H12695   0.991   1.067  11.387 -0.8809  1.2086  4.5838
  861MPD2    H112696   0.635   0.856  11.268  0.7624 -1.6682 -0.2726
  861MPD2    H212697   0.863   0.719  11.600  1.8541 -1.0461 -1.2884
  861MPD2    H312698   0.685   0.696  11.437 -1.8352  1.1192  1.8230
  861MPD2     N12699   0.766   1.087  11.231  0.3283 -0.8414  0.3047
  861MPD2    H512700   0.680   1.062  11.183 -0.1252  3.3622 -1.0002
  861MPD2    N112701   1.064   0.905  11.567 -0.3640 -0.4532 -0.3612
  861MPD2    H712702   1.115   0.990  11.545 -0.8260 -0.2600 -0.6800
  862MPD2     C12703   0.388   1.198  10.618  0.0628 -0.0021  1.1625
  862MPD2    C112704   0.475   1.116  10.683  0.3586 -0.1299 -1.0572
  862MPD2    C212705   0.472   0.980  10.662  0.3047 -0.3179 -0.5520
  862MPD2    C312706   0.374   0.918  10.583 -0.4017  0.0090  0.0198
  862MPD2    C412707   0.278   1.001  10.523  0.0866 -0.3296 -0.1638
  862MPD2    C512708   0.302   1.137  10.524  0.9201  0.7267 -0.1427
  862MPD2     H12709   0.550   0.924  10.711  0.3529 -0.4242 -0.7505
  862MPD2    H112710   0.208   0.959  10.452  1.8538 -1.7838 -1.0600
  862MPD2    H212711   0.386   1.307  10.620 -2.6634 -0.0426  1.0586
  862MPD2    H312712   0.236   1.197  10.464  0.8913  1.5190  0.6726
  862MPD2     N12713   0.350   0.779  10.574  0.1045 -0.2435 -0.0023
  862MPD2    H512714   0.292   0.757  10.493 -0.2740 -0.0125  0.2033
  862MPD2    N112715   0.570   1.164  10.777  0.4723 -0.4276  0.0189
  862MPD2    H712716   0.629   1.096  10.824 -2.3853 -1.9175  1.4846
  863MPD2     C12717   4.510   3.866  16.401  0.7291 -0.7560  0.2598
  863MPD2    C112718   4.451   3.871  16.526  0.1075  0.3795  0.3731
  863MPD2    C212719   4.523   3.857  16.640  0.9022 -0.9237  0.5652
  863MPD2    C312720   4.661   3.821  16.635  0.2067  0.5897  0.2702
  863MPD2    C412721   4.716   3.829  16.516 -0.0964  0.4577 -0.5446
  863MPD2    C512722   4.646   3.859  16.401 -0.0700 -0.4870  0.0797
  863MPD2     H12723   4.477   3.849  16.738 -2.5480  1.1263 -0.9246
  863MPD2    H112724   0.083   3.805  16.498 -0.3026  0.5282 -1.8592
  863MPD2    H212725   4.454   3.872  16.308  0.3295  1.1679  0.6317
  863MPD2    H312726   4.709   3.859  16.314  1.0641  1.5536  0.9041
  863MPD2     N12727   0.001   3.788  16.744  0.4116  0.2550 -0.2028
  863MPD2    H512728   0.101   3.800  16.729 -0.0969  1.2260 -2.8962
  863MPD2    N112729   4.311   3.873  16.534  0.3408  0.0745  0.0851
  863MPD2    H712730   4.266   3.882  16.443  2.0625  0.5101 -0.7323
  864MPD2     C12731   0.461   0.135  17.173  0.7381 -0.4739 -0.3741
  864MPD2    C112732   0.532   0.074  17.066 -0.8538  0.2399 -0.6629
  864MPD2    C212733   0.648   0.140  17.020  0.0541 -0.7994 -0.2593
  864MPD2    C312734   0.685   0.266  17.072  0.1890 -0.5630  0.5391
  864MPD2    C412735   0.624   0.324  17.177 -0.0409 -0.5789 -0.0612
  864MPD2    C512736   0.505   0.262  17.217 -0.0327 -0.7863 -0.1670
  864MPD2     H12737   0.698   0.110  16.928  0.7888 -0.5369  0.0621
  864MPD2    H112738   0.665   0.409  17.228 -2.0618  1.3429 -1.6137
  864MPD2    H212739   0.372   0.092  17.215 -0.0983 -0.0104 -1.6726
  864MPD2    H312740   0.457   0.305  17.304 -2.7664 -1.2367 -1.4567
  864MPD2     N12741   0.801   0.326  17.011 -0.5853  0.7879 -0.6002
  864MPD2    H512742   0.854   0.271  16.944  1.5596 -0.3799  2.0259
  864MPD2    N112743   0.475   4.703  17.003 -0.4874  0.2402 -0.6158
  864MPD2    H712744   0.386   4.662  17.030 -1.6334  0.9644 -3.2989
  865MPD2     C12745   0.549   0.670  16.430 -0.2681 -0.0905 -0.0821
  865MPD2    C112746   0.680   0.656  16.383  0.3540  0.4127 -0.0505
  865MPD2    C212747   0.787   0.687  16.454 -0.2837  0.3312  0.6462
  865MPD2    C312748   0.763   0.741  16.580 -0.3806 -0.4754 -0.2496
  865MPD2    C412749   0.633   0.765  16.622 -0.1733 -0.4912 -0.0847
  865MPD2    C512750   0.526   0.732  16.547  0.2067  0.0674 -0.7305
  865MPD2     H12751   0.888   0.665  16.419 -0.7056  1.4190 -1.2771
  865MPD2    H112752   0.625   0.807  16.722  2.1913 -2.4383  0.9494
  865MPD2    H212753   0.461   0.645  16.371 -1.1615  0.6855  0.9307
  865MPD2    H312754   0.428   0.749  16.591  1.3187 -0.6446  2.0354
  865MPD2     N12755   0.868   0.775  16.669 -0.2778  0.1484 -0.1166
  865MPD2    H512756   0.848   0.813  16.762  2.6849 -0.8309  0.9191
  865MPD2    N112757   0.689   0.603  16.255  0.1769 -0.0184 -0.3390
  865MPD2    H712758   0.603   0.561  16.221 -1.5297  1.7772  1.7272
  866MPD2     C12759   1.756   1.534  12.055 -0.3352  0.6426 -0.5280
  866MPD2    C112760   1.800   1.506  11.928 -0.2659  0.8558  0.7078
  866MPD2    C212761   1.713   1.527  11.823 -0.0608 -0.1994  0.1854
  866MPD2    C312762   1.576   1.561  11.849 -0.7572  0.3992 -0.3740
  866MPD2    C412763   1.541   1.593  11.978  0.0523  0.2092 -1.3535
  866MPD2    C512764   1.638   1.590  12.077 -0.0931  0.0456 -1.0915
  866MPD2     H12765   1.744   1.496  11.724 -1.5516 -2.8362  0.5577
  866MPD2    H112766   1.438   1.614  12.004 -0.2174 -2.0086 -0.5840
  866MPD2    H212767   1.822   1.516  12.139  1.0952 -0.8972 -1.9897
  866MPD2    H312768   1.614   1.613  12.181 -1.0524  0.4319 -1.3956
  866MPD2     N12769   1.475   1.566  11.751  0.4019 -0.0506 -0.1504
  866MPD2    H512770   1.381   1.599  11.770  0.2595 -1.1895  1.0591
  866MPD2    N112771   1.925   1.440  11.915  0.4739  0.5880 -0.1187
  866MPD2    H712772   1.975   1.435  12.003 -0.1732 -0.7610  0.1735
  867MPD2     C12773   4.076   0.571  16.440 -0.0576 -0.1780  0.0612
  867MPD2    C112774   4.173   0.510  16.519 -0.7077 -0.0221 -0.0035
  867MPD2    C212775   4.285   0.589  16.556 -0.0198 -1.0639 -0.2501
  867MPD2    C312776   4.306   0.714  16.499  0.3654  0.2559  0.3374
  867MPD2    C412777   4.214   0.764  16.409 -0.2328 -0.5028 -0.3728
  867MPD2    C512778   4.096   0.697  16.388  0.2400 -0.4808  0.0107
  867MPD2     H12779   4.349   0.563  16.640 -0.0795  1.4038  0.5596
  867MPD2    H112780   4.222   0.854  16.349 -0.1564 -1.1714 -1.3678
  867MPD2    H212781   3.983   0.522  16.411 -1.4071  2.3224  0.1034
  867MPD2    H312782   4.024   0.738  16.319  1.2197 -0.3833 -0.9522
  867MPD2     N12783   4.411   0.796  16.539  0.0349 -0.9423  0.6557
  867MPD2    H512784   4.413   0.885  16.491  0.4438 -2.8016 -2.7371
  867MPD2    N112785   4.150   0.380  16.568 -0.7083 -0.6811  0.3161
  867MPD2    H712786   4.082   0.322  16.519 -0.5898  1.6769 -2.6578
  868MPD2     C12787   1.128   4.619  12.943 -0.7927  0.2243 -0.8759
  868MPD2    C112788   1.151   4.504  13.014 -0.4885  0.4125 -1.0284
  868MPD2    C212789   1.083   4.480  13.135 -0.1701 -0.1084  0.4197
  868MPD2    C312790   0.999   4.581  13.195  0.1065  0.6993 -1.1233
  868MPD2    C412791   0.971   4.696  13.119  0.0740  0.6227 -0.2609
  868MPD2    C512792   1.040   4.709  13.000 -0.0629  0.6211 -0.4491
  868MPD2     H12793   1.118   4.399  13.198 -1.3801 -0.6008  0.4648
  868MPD2    H112794   0.899   0.035  13.143 -0.8772 -1.6163  4.0326
  868MPD2    H212795   1.177   4.645  12.850  4.0058  1.7937  2.1344
  868MPD2    H312796   1.020   0.065  12.947 -1.2594  0.6532  0.0522
  868MPD2     N12797   0.967   4.565  13.326 -0.7269 -0.3959  0.2001
  868MPD2    H512798   1.013   4.485  13.369 -0.2961 -1.0163 -1.4172
  868MPD2    N112799   1.238   4.409  12.965 -0.4043  0.1153 -0.1995
  868MPD2    H712800   1.271   4.420  12.870  0.2571 -1.5641 -0.1738
  869MPD2     C12801   2.394   1.948   0.484  0.0606 -0.1764  0.2508
  869MPD2    C112802   2.327   1.996   0.595  0.3009 -0.0594 -0.1465
  869MPD2    C212803   2.311   1.913   0.702  0.4806  0.4249 -0.3611
  869MPD2    C312804   2.372   1.793   0.710  0.4146 -0.6960  0.3598
  869MPD2    C412805   2.426   1.745   0.598 -0.5262  0.1092  0.4528
  869MPD2    C512806   2.444   1.822   0.487  0.2623 -0.8214  0.0429
  869MPD2     H12807   2.259   1.946   0.791  1.7460  0.7265  0.2707
  869MPD2    H112808   2.474   1.648   0.602  0.1436  0.4756  1.4889
  869MPD2    H212809   2.422   2.018   0.406  0.4793  3.0430  3.2942
  869MPD2    H312810   2.505   1.784   0.406  1.0720  2.0902 -0.7111
  869MPD2     N12811   2.372   1.726   0.833 -0.4851 -0.0576  0.8243
  869MPD2    H512812   2.389   1.628   0.815 -1.6717  0.1090 -1.2088
  869MPD2    N112813   2.272   2.131   0.587  0.1712 -0.5148 -0.3561
  869MPD2    H712814   2.295   2.190   0.507  2.9772  1.8252  2.1806
  870MPD2     C12815   2.145   0.713   2.017  0.4056  0.0616  0.2153
  870MPD2    C112816   2.164   0.640   1.901  0.0501  0.0281 -0.2127
  870MPD2    C212817   2.099   0.681   1.792  0.3987 -0.0752  0.5361
  870MPD2    C312818   2.019   0.794   1.789 -0.4540 -0.2467 -0.2046
  870MPD2    C412819   1.998   0.867   1.906 -0.0470 -0.1583 -0.1394
  870MPD2    C512820   2.066   0.822   2.019 -0.2190 -0.5752 -0.4340
  870MPD2     H12821   2.113   0.634   1.695 -1.8843 -0.4251  0.3758
  870MPD2    H112822   1.928   0.949   1.914 -0.4190 -0.5719  0.7456
  870MPD2    H212823   2.194   0.690   2.110 -0.2789 -1.2996  0.2493
  870MPD2    H312824   2.046   0.870   2.114 -0.5039 -1.9029  0.1757
  870MPD2     N12825   1.953   0.820   1.669 -0.1285 -0.2667  0.5394
  870MPD2    H512826   1.972   0.748   1.601  0.9008  0.8908 -0.4033
  870MPD2    N112827   2.240   0.521   1.902 -0.6716  0.3686 -0.7780
  870MPD2    H712828   2.289   0.494   1.987  0.9995 -0.5269 -2.0270
  871MPD2     C12829   3.042   0.545  16.341 -0.0568 -0.3849  0.2076
  871MPD2    C112830   3.087   0.503  16.466 -0.0138 -0.4208 -0.5034
  871MPD2    C212831   3.161   0.387  16.481  0.2561 -0.8145 -0.3059
  871MPD2    C312832   3.196   0.310  16.381  0.2912  0.0784  0.4512
  871MPD2    C412833   3.148   0.345  16.254 -0.1554 -0.4511 -0.1468
  871MPD2    C512834   3.070   0.460  16.241 -0.6327 -0.4911 -0.6957
  871MPD2     H12835   3.203   0.369  16.578 -1.2515  1.1416  0.7200
  871MPD2    H112836   3.157   0.290  16.161  2.0460  0.2784 -0.3555
  871MPD2    H212837   2.984   0.631  16.311 -1.6248 -1.2991  0.6078
  871MPD2    H312838   3.026   0.476  16.143 -0.6321  2.1117 -0.2808
  871MPD2     N12839   3.272   0.197  16.406 -0.2413  0.2436  0.3855
  871MPD2    H512840   3.309   0.180  16.499 -1.4700  1.2698  1.0743
  871MPD2    N112841   3.056   0.591  16.571 -0.1144 -0.4085 -0.6493
  871MPD2    H712842   3.012   0.681  16.557 -0.2278 -0.2392  0.7963
  872MPD2     C12843   4.149   3.036  14.211 -0.2039  0.4617  0.3571
  872MPD2    C112844   4.053   3.098  14.138 -0.4537  0.1113 -0.4056
  872MPD2    C212845   3.925   3.084  14.185 -0.8506  0.1235  1.0946
  872MPD2    C312846   3.893   3.016  14.300 -0.0255 -0.4248  0.0920
  872MPD2    C412847   4.000   2.973  14.380 -0.3151  0.1947  0.7609
  872MPD2    C512848   4.128   2.984  14.336  0.2098 -0.6410 -0.9977
  872MPD2     H12849   3.842   3.131  14.134  0.8230  1.4920 -0.3668
  872MPD2    H112850   3.983   2.929  14.477 -1.9252  1.3684  1.0217
  872MPD2    H212851   4.253   3.050  14.181 -0.0743 -0.2707  0.4613
  872MPD2    H312852   4.215   2.949  14.389 -0.2779  0.1251  0.3017
  872MPD2     N12853   3.767   3.015  14.352 -0.2909  0.4825  0.0429
  872MPD2    H512854   3.771   3.010  14.453  2.8553  1.8003 -0.0316
  872MPD2    N112855   4.084   3.165  14.021 -0.7960 -0.1486 -0.1199
  872MPD2    H712856   4.017   3.233  13.987  0.4172  1.3425  0.4731
  873MPD2     C12857   1.231   2.452   0.903  0.7255 -0.2041 -0.5066
  873MPD2    C112858   1.099   2.455   0.931  0.3539 -0.3454  0.4032
  873MPD2    C212859   1.034   2.337   0.943  0.0967  0.3171  0.0782
  873MPD2    C312860   1.105   2.227   0.905 -0.0293  0.1865 -0.3296
  873MPD2    C412861   1.233   2.228   0.853  0.9102  0.6158  0.6883
  873MPD2    C512862   1.296   2.343   0.868  0.3497 -0.0231  0.3501
  873MPD2     H12863   0.932   2.326   0.979 -0.2275 -0.7100 -1.1531
  873MPD2    H112864   1.295   2.144   0.822 -0.2393  0.3591 -0.8926
  873MPD2    H212865   1.294   2.541   0.907 -0.5567  0.6727  0.4680
  873MPD2    H312866   1.404   2.336   0.858  0.0979 -0.8826 -1.5899
  873MPD2     N12867   1.046   2.097   0.910 -0.2951  0.2300  0.6573
  873MPD2    H512868   1.099   2.016   0.881 -1.6805 -0.7841  0.9610
  873MPD2    N112869   1.041   2.580   0.970  0.3734 -0.2863 -0.1583
  873MPD2    H712870   1.102   2.661   0.971 -1.2043  0.9235  0.2359
  874MPD2     C12871   0.352   3.312  16.380 -0.8922 -0.6775 -0.5226
  874MPD2    C112872   0.417   3.210  16.451  0.6778 -0.4788 -0.4040
  874MPD2    C212873   0.545   3.232  16.488 -0.1415  0.3018  0.1665
  874MPD2    C312874   0.616   3.348  16.480 -0.4233  0.0682 -0.6633
  874MPD2    C412875   0.556   3.449  16.405  0.7751 -0.1961  0.1155
  874MPD2    C512876   0.429   3.428  16.358 -0.5511 -0.2274  0.5490
  874MPD2     H12877   0.590   3.153  16.547 -0.8069 -0.1284  0.0875
  874MPD2    H112878   0.596   3.549  16.393  2.9858 -1.1723 -0.7947
  874MPD2    H212879   0.248   3.304  16.351 -0.6033 -0.2946 -1.6694
  874MPD2    H312880   0.383   3.513  16.309  1.1815  0.8757  0.8584
  874MPD2     N12881   0.745   3.354  16.541  0.3786 -0.3649 -0.3975
  874MPD2    H512882   0.786   3.269  16.578  1.1844 -0.4121 -1.3894
  874MPD2    N112883   0.349   3.096  16.487  0.7462  0.2668 -0.1264
  874MPD2    H712884   0.249   3.099  16.471  0.7303  0.3394 -0.0167
  875MPD2     C12885   1.319   1.129  14.551  0.5139  0.6766  0.6180
  875MPD2    C112886   1.259   1.257  14.551  0.3810  0.6012 -0.0161
  875MPD2    C212887   1.284   1.343  14.658  0.0569 -0.3380 -0.7073
  875MPD2    C312888   1.370   1.296  14.759  0.2856  0.4629 -0.2390
  875MPD2    C412889   1.417   1.169  14.766  0.8130  0.1997  0.8728
  875MPD2    C512890   1.406   1.094  14.655 -0.1978 -0.5002  0.1051
  875MPD2     H12891   1.228   1.436  14.664 -0.4106 -0.5936 -1.0397
  875MPD2    H112892   1.491   1.135  14.837 -0.5795 -0.7202  1.8730
  875MPD2    H212893   1.319   1.057  14.469 -0.4798  1.5540 -0.1541
  875MPD2    H312894   1.433   0.989  14.656 -2.6993 -1.1530 -1.1178
  875MPD2     N12895   1.414   1.368  14.868  0.4231 -0.1158 -0.2268
  875MPD2    H512896   1.479   1.320  14.928  1.5171  1.1264 -0.4051
  875MPD2    N112897   1.178   1.303  14.448  0.3178  0.0830  0.4808
  875MPD2    H712898   1.159   1.403  14.444  0.9489  0.2308  1.2231
  876MPD2     C12899   0.402   2.348  16.051 -0.3423  0.2375 -0.2396
  876MPD2    C112900   0.497   2.362  15.959 -0.1172  0.2959  0.3491
  876MPD2    C212901   0.567   2.255  15.906  0.0827 -1.0075  0.6850
  876MPD2    C312902   0.535   2.133  15.956  0.2260 -0.1276  0.7997
  876MPD2    C412903   0.433   2.115  16.041  1.0146 -0.1218 -0.1181
  876MPD2    C512904   0.359   2.223  16.081  0.4283  0.5496 -0.2396
  876MPD2     H12905   0.641   2.269  15.828 -0.5833 -1.0151  0.0494
  876MPD2    H112906   0.397   2.016  16.070  1.3955 -0.2262  0.0032
  876MPD2    H212907   0.351   2.432  16.098 -3.3044 -0.5075 -2.1227
  876MPD2    H312908   0.260   2.215  16.123  0.8796 -1.0725  0.5138
  876MPD2     N12909   0.606   2.018  15.917  0.1855 -0.1724  0.2053
  876MPD2    H512910   0.588   1.932  15.968 -0.7797 -0.1257 -0.0512
  876MPD2    N112911   0.528   2.494  15.922  0.0651 -0.4313  0.5670
  876MPD2    H712912   0.468   2.565  15.964 -0.8448 -0.4847 -0.6484
  877MPD2     C12913   0.315   3.118  15.506  0.0259  1.6229  1.2300
  877MPD2    C112914   0.449   3.122  15.525 -0.7250 -0.1399 -0.0712
  877MPD2    C212915   0.531   3.206  15.447 -0.5470 -0.7322 -0.0616
  877MPD2    C312916   0.476   3.284  15.352 -1.0613  0.4050 -0.7066
  877MPD2    C412917   0.335   3.282  15.337 -0.0835  0.5412 -0.5807
  877MPD2    C512918   0.261   3.198  15.414  0.2185  0.4966 -0.2708
  877MPD2     H12919   0.637   3.189  15.460 -0.4483  0.0014  0.0995
  877MPD2    H112920   0.289   3.327  15.249 -1.2469  2.6319  1.1154
  877MPD2    H212921   0.247   3.055  15.562 -0.4555  1.3868  0.3763
  877MPD2    H312922   0.154   3.205  15.405  0.1999 -0.4383 -0.7264
  877MPD2     N12923   0.554   3.366  15.265  0.0354 -0.3993  0.1899
  877MPD2    H512924   0.502   3.382  15.180 -1.5691 -1.6534  0.9444
  877MPD2    N112925   0.519   3.045  15.631 -0.2796 -0.5054 -0.2773
  877MPD2    H712926   0.615   3.069  15.649 -0.1791 -0.3545 -1.0303
  878MPD2     C12927   4.420   2.501  13.407 -0.8515  0.4409  0.6027
  878MPD2    C112928   4.550   2.502  13.361  0.8117  0.4087 -0.0234
  878MPD2    C212929   4.646   2.557  13.444 -0.2546  0.0755  0.4559
  878MPD2    C312930   4.610   2.619  13.564  0.0354  0.3464  0.4455
  878MPD2    C412931   4.474   2.636  13.605  0.3471  0.4330 -0.3515
  878MPD2    C512932   4.384   2.567  13.523  0.0393 -0.8030  0.0276
  878MPD2     H12933   0.015   2.546  13.425 -0.1944  0.3813  0.6200
  878MPD2    H112934   4.444   2.646  13.708 -0.5151  0.8448 -0.6401
  878MPD2    H212935   4.342   2.455  13.346 -0.3185 -0.5114  0.6348
  878MPD2    H312936   4.284   2.564  13.566  0.4908  0.2336  1.1710
  878MPD2     N12937   4.723   2.662  13.636 -0.7814 -0.2499 -0.4184
  878MPD2    H512938   0.080   2.641  13.605 -0.3896 -0.6964  1.0338
  878MPD2    N112939   4.575   2.446  13.235 -0.0636 -0.4501  0.1906
  878MPD2    H712940   4.485   2.419  13.196  0.2882 -2.3716  0.7136
  879MPD2     C12941   0.953   3.773  17.321  0.9072 -0.3108 -0.7954
  879MPD2    C112942   0.947   3.633  17.316  0.1729 -0.1929  0.1383
  879MPD2    C212943   0.862   3.569  17.226 -0.1377 -0.3909  0.1596
  879MPD2    C312944   0.775   3.643  17.149 -0.3746 -0.3496  0.4261
  879MPD2    C412945   0.776   3.780  17.157  0.5143 -0.6917  0.0831
  879MPD2    C512946   0.866   3.840  17.244 -0.2614 -0.1211  0.6188
  879MPD2     H12947   0.854   3.461  17.224 -1.8704 -0.2167 -1.3671
  879MPD2    H112948   0.715   3.846  17.096 -1.2006 -2.4128 -0.0304
  879MPD2    H212949   1.025   3.818  17.389 -0.0309 -0.0172 -0.0050
  879MPD2    H312950   0.866   3.948  17.249  1.3784 -0.0484 -0.8938
  879MPD2     N12951   0.695   3.582  17.050  0.2738  0.0791 -0.5976
  879MPD2    H512952   0.652   3.648  16.986 -2.2294 -1.7579 -0.7953
  879MPD2    N112953   1.033   3.560  17.398  0.8250 -0.6103 -0.0059
  879MPD2    H712954   1.080   3.623  17.461 -1.3318 -1.1329  2.1377
  880MPD2     C12955   2.324   0.316   0.071 -0.1763  0.0457 -0.1581
  880MPD2    C112956   2.354   0.320   0.205 -0.3106  0.1664  0.4454
  880MPD2    C212957   2.423   0.220   0.262 -0.6956 -0.6871  0.2932
  880MPD2    C312958   2.472   0.113   0.187  0.1618 -0.8045 -0.3890
  880MPD2    C412959   2.437   0.101   0.055  0.1021  0.3869 -0.2756
  880MPD2    C512960   2.364   0.204   0.004  0.2373 -0.3405 -0.3832
  880MPD2     H12961   2.454   0.217   0.366  2.8514  1.2312 -0.6812
  880MPD2    H112962   2.472   0.016  17.745  0.3083  0.5368 -0.3713
  880MPD2    H212963   2.271   0.389   0.012 -1.2780  1.1471  2.2041
  880MPD2    H312964   2.339   0.192  17.647  0.3329  2.2100 -0.7059
  880MPD2     N12965   2.554   0.026   0.254 -0.3769  0.5927 -0.0230
  880MPD2    H512966   2.581   0.045   0.350  0.8022 -0.9514 -0.0497
  880MPD2    N112967   2.320   0.441   0.274  0.0961  0.3792 -0.4647
  880MPD2    H712968   2.276   0.518   0.226 -2.4351  0.1557  1.4691
  881MPD2     C12969   2.490   1.417   0.217 -0.6863  0.4555 -0.5846
  881MPD2    C112970   2.518   1.305   0.143  0.8874  0.8843  0.1480
  881MPD2    C212971   2.501   1.179   0.203 -0.0397  0.3692 -0.1613
  881MPD2    C312972   2.477   1.169   0.341 -0.0535  0.8952  0.2234
  881MPD2    C412973   2.455   1.286   0.413  0.4397 -0.4712  0.1042
  881MPD2    C512974   2.445   1.407   0.348  0.2242 -0.4434 -0.7303
  881MPD2     H12975   2.518   1.087   0.148  3.2602 -0.2060  1.7930
  881MPD2    H112976   2.445   1.282   0.520  0.5939 -2.8561  0.0262
  881MPD2    H212977   2.472   1.514   0.174  1.5496 -0.1803 -2.9522
  881MPD2    H312978   2.416   1.499   0.397  2.3515 -0.9802  1.5524
  881MPD2     N12979   2.443   1.046   0.403 -0.3718  0.1301  0.2738
  881MPD2    H512980   2.400   1.057   0.494  1.6912  0.5120  1.1935
  881MPD2    N112981   2.536   1.331   0.003 -0.3503 -0.7502 -0.6611
  881MPD2    H712982   2.536   1.424  17.711 -1.0234 -2.3360 -4.3090
  882MPD2     C12983   0.763   3.532  14.455 -0.7939 -0.5717 -0.0806
  882MPD2    C112984   0.689   3.489  14.559 -0.6399  0.9847 -0.3256
  882MPD2    C212985   0.589   3.397  14.533  0.0141 -0.4810  0.1646
  882MPD2    C312986   0.564   3.349  14.407  0.0962  0.3934 -0.7949
  882MPD2    C412987   0.630   3.405  14.305  0.0536 -0.2899 -0.0991
  882MPD2    C512988   0.732   3.492  14.327  0.1609 -0.2215 -0.8159
  882MPD2     H12989   0.528   3.352  14.610  0.5375 -1.5682 -0.0645
  882MPD2    H112990   0.622   3.380  14.200  0.0706 -0.9552  0.0590
  882MPD2    H212991   0.851   3.594  14.465 -0.4846 -1.0332  0.0958
  882MPD2    H312992   0.798   3.528  14.249 -3.0617  1.1458 -2.9029
  882MPD2     N12993   0.446   3.274  14.386  0.4521  0.6679  0.1843
  882MPD2    H512994   0.403   3.272  14.294 -1.1159 -2.0055  0.9467
  882MPD2    N112995   0.736   3.514  14.691  0.1440  0.6032 -0.2465
  882MPD2    H712996   0.826   3.560  14.698 -0.8290  2.3193  1.0505
  883MPD2     C12997   2.474   2.897  16.421  0.2211 -0.5253  0.3017
  883MPD2    C112998   2.402   3.010  16.381 -0.0726  0.2090 -0.0469
  883MPD2    C212999   2.440   3.129  16.444  0.3315  0.3059  0.3765
  883MPD2    C313000   2.547   3.132  16.535 -0.6741  0.5552  0.5427
  883MPD2    C413001   2.611   3.020  16.574  0.3695  0.2715 -0.2715
  883MPD2    C513002   2.565   2.896  16.522 -0.0873  0.0994 -0.1830
  883MPD2     H13003   2.391   3.220  16.411 -0.6227  0.6224  2.6791
  883MPD2    H113004   2.704   3.020  16.628  0.2197  0.8616 -0.0141
  883MPD2    H213005   2.444   2.801  16.379  1.2632 -0.9570  0.5225
  883MPD2    H313006   2.613   2.801  16.540  2.1269  1.3869  0.7046
  883MPD2     N13007   2.601   3.254  16.572  0.7889  0.3062  0.4416
  883MPD2    H513008   2.576   3.340  16.524 -1.6570 -1.7345 -1.9366
  883MPD2    N113009   2.300   3.014  16.289  0.6247 -0.5225 -0.3541
  883MPD2    H713010   2.250   3.102  16.277  1.1708  0.1016  1.8139
  884MPD2     C13011   4.427   3.750  14.966 -1.0349  0.2388  0.1419
  884MPD2    C113012   4.434   3.881  15.000 -0.3479 -0.4492  0.1765
  884MPD2    C213013   4.315   3.950  15.032 -0.5179  0.3348 -0.6341
  884MPD2    C313014   4.192   3.881  15.051 -0.0504 -0.0111  0.2403
  884MPD2    C413015   4.195   3.738  15.038 -0.1724 -1.2259  0.2187
  884MPD2    C513016   4.306   3.679  14.987 -0.1382  0.7003 -0.3020
  884MPD2     H13017   4.318   4.053  15.066  0.8447 -0.7875  2.6678
  884MPD2    H113018   4.112   3.668  15.043  0.0429 -1.5259 -0.5069
  884MPD2    H213019   4.509   3.691  14.925 -1.5041  0.0721 -0.5647
  884MPD2    H313020   4.322   3.572  14.977  0.3224  0.7516 -0.1558
  884MPD2     N13021   4.077   3.945  15.101 -0.4082 -0.0678  0.1597
  884MPD2    H513022   4.075   4.046  15.102 -2.3619 -0.1042  0.2742
  884MPD2    N113023   4.554   3.962  14.977 -0.6095  0.1955 -0.0597
  884MPD2    H713024   4.551   4.063  14.976  0.9760  0.2356 -1.1661
  885MPD2     C13025   2.678   4.151   0.280  0.1197  0.5390  0.2373
  885MPD2    C113026   2.741   4.036   0.245 -0.0785 -0.0316 -0.2696
  885MPD2    C213027   2.737   3.990   0.114 -0.6231  0.3317 -0.3673
  885MPD2    C313028   2.656   4.055   0.018 -0.5769  0.2808  0.4613
  885MPD2    C413029   2.570   4.155   0.074  0.4621  0.3821 -0.2478
  885MPD2    C513030   2.582   4.205   0.199 -0.8251  0.4271 -0.2513
  885MPD2     H13031   2.803   3.911   0.082 -1.6949 -0.5521 -0.3743
  885MPD2    H113032   2.485   4.194   0.019 -1.1147 -2.9796 -0.2348
  885MPD2    H213033   2.690   4.195   0.378 -1.2356 -0.5473  0.8910
  885MPD2    H313034   2.520   4.285   0.236 -1.9218 -1.1221  1.2256
  885MPD2     N13035   2.658   4.021  17.626 -0.0928  0.9408  0.0055
  885MPD2    H513036   2.733   3.959  17.596 -1.0304  0.3438 -1.1118
  885MPD2    N113037   2.827   3.977   0.346 -0.3264  0.4062 -0.5565
  885MPD2    H713038   2.840   4.036   0.427 -0.3522  0.6037 -0.6962
  886MPD2     C13039   3.639   2.472  15.007 -0.1159 -0.4054  0.0688
  886MPD2    C113040   3.744   2.505  15.086  0.0273 -0.0340 -0.1273
  886MPD2    C213041   3.811   2.629  15.057 -0.4812 -0.1630 -0.1588
  886MPD2    C313042   3.783   2.703  14.948 -0.0656 -0.4256 -0.2448
  886MPD2    C413043   3.669   2.667  14.872  0.1428  0.4735  0.3677
  886MPD2    C513044   3.599   2.554  14.905  0.5111  0.2447  0.4028
  886MPD2     H13045   3.897   2.655  15.117 -0.3132 -2.0253  0.4046
  886MPD2    H113046   3.632   2.721  14.786 -0.9039  0.3014  0.7173
  886MPD2    H213047   3.562   2.402  15.040  0.0360  0.0306  1.3080
  886MPD2    H313048   3.505   2.543  14.852  1.2451  1.7460 -1.2212
  886MPD2     N13049   3.860   2.807  14.895 -0.4713  0.6108 -0.1510
  886MPD2    H513050   3.834   2.853  14.808  1.0330  0.9001 -0.4598
  886MPD2    N113051   3.771   2.419  15.199 -0.5659 -0.4417 -0.1252
  886MPD2    H713052   3.744   2.321  15.203  1.3029 -0.9564 -0.4225
  887MPD2     C13053   4.190   2.480  15.970  0.0155 -0.1295 -0.4792
  887MPD2    C113054   4.200   2.513  15.835  0.1570 -0.5109  1.0136
  887MPD2    C213055   4.296   2.605  15.796  0.0916  0.0823  0.6795
  887MPD2    C313056   4.378   2.664  15.888  0.3646  0.0055 -0.1227
  887MPD2    C413057   4.365   2.628  16.019  0.2932  0.4678 -0.2358
  887MPD2    C513058   4.281   2.535  16.066 -0.4318 -0.3777 -0.6014
  887MPD2     H13059   4.314   2.620  15.690 -2.3386  2.6834  0.6221
  887MPD2    H113060   4.437   2.659  16.094 -0.6858 -0.2822  0.9990
  887MPD2    H213061   4.121   2.404  16.004 -2.1445  2.0744  0.0668
  887MPD2    H313062   4.300   2.497  16.165  0.4851  0.3103 -0.5099
  887MPD2     N13063   4.471   2.754  15.839 -0.4243 -0.0549  0.2636
  887MPD2    H513064   4.463   2.767  15.739 -0.2739  1.4298  0.4475
  887MPD2    N113065   4.121   2.455  15.727 -0.6116 -0.4567  0.3210
  887MPD2    H713066   4.145   2.491  15.635  1.0355 -0.2758  0.8217
  888MPD2     C13067   1.353   2.411  15.111 -0.2117  0.3623 -0.6131
  888MPD2    C113068   1.333   2.459  15.237 -0.8080 -0.3040  0.2060
  888MPD2    C213069   1.408   2.567  15.279 -0.1216  0.2516 -0.5266
  888MPD2    C313070   1.510   2.620  15.192 -0.2098 -0.5581 -0.2005
  888MPD2    C413071   1.533   2.566  15.068  0.1369  0.7247 -0.2698
  888MPD2    C513072   1.453   2.459  15.028  0.6168 -0.4990  0.2594
  888MPD2     H13073   1.379   2.607  15.376 -0.5418 -1.0673 -0.1049
  888MPD2    H113074   1.595   2.605  14.988  0.0241 -1.2439 -1.3079
  888MPD2    H213075   1.294   2.330  15.070 -0.6115  0.6153 -0.5392
  888MPD2    H313076   1.466   2.417  14.929 -2.1799 -0.5481 -0.0909
  888MPD2     N13077   1.560   2.738  15.232 -0.0642 -0.5151 -0.3064
  888MPD2    H513078   1.541   2.774  15.325  0.7955 -0.7743 -0.0265
  888MPD2    N113079   1.235   2.412  15.323 -0.2345  0.0839  0.3646
  888MPD2    H713080   1.229   2.464  15.410  2.1686  0.0972  0.5407
  889MPD2     C13081   1.085   2.558  12.767  0.3348  0.4760 -0.2200
  889MPD2    C113082   1.128   2.473  12.866 -0.2339 -0.4587  0.0491
  889MPD2    C213083   1.072   2.484  12.988  0.3558 -0.0367 -0.6959
  889MPD2    C313084   1.006   2.598  13.026 -0.0964  0.8667  0.0668
  889MPD2    C413085   0.982   2.697  12.928  0.1270 -0.6219  0.0628
  889MPD2    C513086   1.018   2.673  12.802 -0.6032  0.4525 -0.1819
  889MPD2     H13087   1.103   2.424  13.072 -0.8633  1.5430  0.8916
  889MPD2    H113088   0.947   2.798  12.948 -0.1472 -0.1455 -2.7716
  889MPD2    H213089   1.135   2.541  12.672 -0.3807 -0.8122 -0.3598
  889MPD2    H313090   1.005   2.750  12.726 -0.0810 -0.0821 -0.8056
  889MPD2     N13091   0.977   2.615  13.164 -0.0301  0.1948 -0.4881
  889MPD2    H513092   1.021   2.548  13.226  0.3696 -0.0234 -1.0117
  889MPD2    N113093   1.191   2.351  12.837 -0.6800 -0.2353  0.0056
  889MPD2    H713094   1.181   2.277  12.905  1.6457 -0.8115 -0.2976
  890MPD2     C13095   0.384   3.860  14.613  0.1456  0.0435 -0.0827
  890MPD2    C113096   0.511   3.893  14.654  0.0723  0.6782  0.1239
  890MPD2    C213097   0.553   3.879  14.785  0.0866 -0.4362  0.1840
  890MPD2    C313098   0.471   3.818  14.876 -0.5688  0.9013 -0.4552
  890MPD2    C413099   0.346   3.779  14.835  0.0252 -0.1914  0.4830
  890MPD2    C513100   0.306   3.799  14.706  0.2205  0.0683 -0.4262
  890MPD2     H13101   0.656   3.907  14.804  0.2810  0.3826 -2.0687
  890MPD2    H113102   0.272   3.736  14.901  0.6076 -0.7880  0.7369
  890MPD2    H213103   0.355   3.874  14.509 -0.4559  0.7417  0.1783
  890MPD2    H313104   0.202   3.774  14.685 -0.1172 -1.5279  3.2401
  890MPD2     N13105   0.521   3.804  15.008  0.4919 -0.1375  0.1427
  890MPD2    H513106   0.614   3.835  15.032  0.3918  0.3802 -0.1178
  890MPD2    N113107   0.601   3.949  14.557  0.0667  0.1940  0.1584
  890MPD2    H713108   0.557   3.970  14.468  0.1752 -0.7566 -0.1205
  891MPD2     C13109   3.404   2.574  16.456  0.3327 -0.1558  0.0932
  891MPD2    C113110   3.449   2.630  16.571 -0.4346 -0.9430 -0.0202
  891MPD2    C213111   3.555   2.578  16.647  0.9610  0.5212 -0.7630
  891MPD2    C313112   3.609   2.460  16.601  0.2095 -0.4105  0.3090
  891MPD2    C413113   3.578   2.407  16.478 -0.1819  0.0460 -0.0696
  891MPD2    C513114   3.483   2.474  16.404 -0.3650 -0.7960  0.7148
  891MPD2     H13115   3.581   2.623  16.742  2.7346 -1.9759 -0.0503
  891MPD2    H113116   3.637   2.331  16.430  1.5129  0.9499  0.5704
  891MPD2    H213117   3.310   2.599  16.410  1.4674  2.3670 -0.8843
  891MPD2    H313118   3.446   2.431  16.311 -0.4196  1.8995 -0.4931
  891MPD2     N13119   3.703   2.396  16.686  0.0275 -0.2854 -0.1516
  891MPD2    H513120   3.740   2.444  16.767  1.4243 -1.9047  0.1881
  891MPD2    N113121   3.374   2.744  16.612  0.4661 -0.2287  0.1238
  891MPD2    H713122   3.295   2.775  16.557  1.7458 -0.1866 -1.6978
  892MPD2     C13123   4.568   3.800  14.625  0.4601  0.2968 -0.5474
  892MPD2    C113124   4.489   3.685  14.618 -0.0904 -1.2058 -0.8910
  892MPD2    C213125   4.543   3.571  14.555 -1.0974  0.0034  0.8791
  892MPD2    C313126   4.676   3.568  14.519  0.8697  0.3216  0.8248
  892MPD2    C413127   0.014   3.687  14.533  0.9509  0.9319  0.1852
  892MPD2    C513128   4.697   3.804  14.576 -0.6879  0.2918 -0.5462
  892MPD2     H13129   4.488   3.478  14.546 -0.2323 -0.3941 -0.2734
  892MPD2    H113130   0.108   3.710  14.484  2.2937  0.6670  2.6551
  892MPD2    H213131   4.517   3.886  14.665 -1.2943 -1.1171  0.2403
  892MPD2    H313132   0.009   3.899  14.560  0.8074 -0.3676  0.2075
  892MPD2     N13133   4.729   3.454  14.467  0.5992 -0.1277 -0.2526
  892MPD2    H513134   0.093   3.457  14.456  0.5514  0.2727 -0.5935
  892MPD2    N113135   4.353   3.692  14.663 -0.2516 -0.4549 -0.3375
  892MPD2    H713136   4.319   3.784  14.690 -0.5253 -1.2572  2.0119
  893MPD2     C13137   0.982   1.503   1.025 -0.2827 -0.1954  0.6125
  893MPD2    C113138   1.004   1.608   1.112 -0.1056  0.1037 -0.0509
  893MPD2    C213139   0.896   1.647   1.193 -0.3673 -0.5264 -0.4058
  893MPD2    C313140   0.770   1.576   1.190 -0.4765 -0.4734  0.3629
  893MPD2    C413141   0.755   1.471   1.100 -0.4500  0.4819 -0.3612
  893MPD2    C513142   0.864   1.439   1.018  0.1528  0.1521 -0.3738
  893MPD2     H13143   0.912   1.712   1.278 -0.6210  0.2247 -0.9296
  893MPD2    H113144   0.669   1.406   1.087  0.5965 -1.2832  1.5749
  893MPD2    H213145   1.067   1.476   0.964 -1.2717 -1.0196 -0.3997
  893MPD2    H313146   0.856   1.356   0.949 -0.2621  0.6139 -0.8887
  893MPD2     N13147   0.670   1.599   1.287  0.5887  1.0421 -0.1861
  893MPD2    H513148   0.607   1.520   1.296  0.3930  1.3067  0.7112
  893MPD2    N113149   1.132   1.666   1.133 -0.6366 -0.3271 -0.0759
  893MPD2    H713150   1.211   1.604   1.119  0.6618  0.7618  2.4975
  894MPD2     C13151   4.511   4.298   1.022 -0.6120 -0.2073  0.6654
  894MPD2    C113152   4.617   4.211   1.027 -0.2556 -0.4461  0.0051
  894MPD2    C213153   4.736   4.255   0.974 -0.1427  0.0501 -0.2593
  894MPD2    C313154   0.012   4.374   0.904 -0.2844 -0.0360 -0.4995
  894MPD2    C413155   4.637   4.453   0.890 -0.0526  0.0195 -0.3119
  894MPD2    C513156   4.525   4.414   0.950 -0.5574 -0.6066  0.2454
  894MPD2     H13157   0.091   4.198   0.977 -0.9883 -1.2906  0.5645
  894MPD2    H113158   4.646   4.547   0.838  0.8648  0.5549  0.8097
  894MPD2    H213159   4.414   4.281   1.066 -1.4227 -2.7202 -2.1508
  894MPD2    H313160   4.444   4.486   0.946 -0.0484  0.0775  1.9918
  894MPD2     N13161   0.140   4.413   0.863  0.0111  0.2324 -0.2114
  894MPD2    H513162   0.217   4.366   0.911 -1.8828 -1.1556  1.5145
  894MPD2    N113163   4.603   4.079   1.078 -0.2426  0.0338 -0.0804
  894MPD2    H713164   4.688   4.024   1.071 -0.0451  0.3412 -0.0716
  895MPD2     C13165   3.777   2.315  14.200  0.8311 -0.0394  0.1260
  895MPD2    C113166   3.677   2.309  14.106 -0.0800  0.6430 -0.2535
  895MPD2    C213167   3.659   2.187  14.041  0.0669  0.2107  0.5208
  895MPD2    C313168   3.733   2.076  14.076  0.6732 -0.2959  0.3233
  895MPD2    C413169   3.829   2.091  14.173  0.0150 -0.1332  0.6477
  895MPD2    C513170   3.849   2.208  14.243 -0.6487  0.1573  0.4617
  895MPD2     H13171   3.599   2.190  13.950  1.5868 -0.4856 -0.4993
  895MPD2    H113172   3.898   2.010  14.195 -0.6229 -1.0135 -0.5706
  895MPD2    H213173   3.786   2.406  14.259  1.3440  0.6945 -1.0845
  895MPD2    H313174   3.933   2.224  14.309  1.7803 -1.6537 -2.2288
  895MPD2     N13175   3.721   1.947  14.009  0.4346  0.0664  0.3683
  895MPD2    H513176   3.775   1.872  14.049  0.2293 -0.0687  0.3931
  895MPD2    N113177   3.593   2.422  14.072 -0.3565  0.1771  0.2064
  895MPD2    H713178   3.523   2.402  14.001 -1.0807 -0.0199  0.9607
  896MPD2     C13179   1.490   4.282   1.209  0.5463  0.2982 -0.0829
  896MPD2    C113180   1.471   4.360   1.098 -0.1039 -0.2484 -0.7499
  896MPD2    C213181   1.359   4.338   1.026 -0.0079  0.0301 -0.3950
  896MPD2    C313182   1.274   4.237   1.052  1.3308  0.0790  0.1178
  896MPD2    C413183   1.291   4.162   1.168  0.0187  0.7181 -0.0284
  896MPD2    C513184   1.410   4.177   1.232  0.3463 -0.6759 -0.0009
  896MPD2     H13185   1.337   4.401   0.941 -0.8362 -3.1032 -2.5179
  896MPD2    H113186   1.220   4.083   1.189 -1.5327  2.1634  0.1427
  896MPD2    H213187   1.577   4.300   1.271  1.8397  1.8071 -2.3178
  896MPD2    H313188   1.438   4.115   1.317 -3.8071 -0.7314  1.3187
  896MPD2     N13189   1.168   4.218   0.957 -0.2260 -0.0545 -0.0923
  896MPD2    H513190   1.149   4.292   0.889  2.5569  1.4891  0.8294
  896MPD2    N113191   1.550   4.477   1.086  0.4511  0.0590  0.5710
  896MPD2    H713192   1.616   4.504   1.157 -0.6580  1.0131  1.2353
  897MPD2     C13193   1.903   1.786  10.656  0.0022 -0.2430 -0.4001
  897MPD2    C113194   1.890   1.921  10.688  0.6895 -0.6989 -0.2157
  897MPD2    C213195   1.828   1.951  10.805  0.0817 -0.5157 -0.0147
  897MPD2    C313196   1.759   1.856  10.881  1.0835  0.6537  0.4855
  897MPD2    C413197   1.788   1.725  10.852  0.8004 -0.4763 -0.2615
  897MPD2    C513198   1.867   1.690  10.746  0.0861 -0.1546  0.3378
  897MPD2     H13199   1.817   2.057  10.827  1.2216 -0.3843 -0.1248
  897MPD2    H113200   1.760   1.637  10.909 -0.1298 -0.3011 -0.4530
  897MPD2    H213201   1.954   1.756  10.565 -0.6491 -0.9746 -0.5272
  897MPD2    H313202   1.899   1.588  10.731 -0.6200  0.1384 -3.1076
  897MPD2     N13203   1.673   1.895  10.985 -0.7787 -1.3889 -0.5855
  897MPD2    H513204   1.650   1.993  10.988 -1.7447 -1.5760 -1.5658
  897MPD2    N113205   1.941   2.016  10.598 -0.4854  1.1698 -0.1631
  897MPD2    H713206   1.968   1.989  10.504  1.0033  0.5871  0.4364
  898MPD2     C13207   4.347   2.635  17.486 -1.4580  0.2568  1.0037
  898MPD2    C113208   4.367   2.754  17.557 -0.4248 -0.6407 -0.1152
  898MPD2    C213209   4.281   2.865  17.542  0.1355  0.4580  0.0421
  898MPD2    C313210   4.167   2.854  17.466  0.5024 -0.5587 -0.0987
  898MPD2    C413211   4.154   2.736  17.388 -0.5702 -0.4732  0.3209
  898MPD2    C513212   4.240   2.628  17.401 -0.0030  0.7678 -0.2692
  898MPD2     H13213   4.294   2.957  17.599  1.4516  0.2256  0.1169
  898MPD2    H113214   4.074   2.731  17.315  1.5305  0.7283 -2.0856
  898MPD2    H213215   4.419   2.554  17.492 -0.2880  1.1650 -0.8457
  898MPD2    H313216   4.222   2.540  17.340  0.1233  0.7263 -0.2467
  898MPD2     N13217   4.083   2.966  17.440 -0.2278 -0.0032  0.2051
  898MPD2    H513218   4.127   3.057  17.446  0.5355 -0.2655 -1.4344
  898MPD2    N113219   4.464   2.751  17.658 -0.1485  0.1035 -0.4282
  898MPD2    H713220   4.516   2.664  17.668 -1.3271 -0.9896 -3.9675
  899MPD2     C13221   4.651   3.152  17.214  0.1483  0.6932  0.4825
  899MPD2    C113222   4.736   3.252  17.256  0.2986  0.6129  0.0134
  899MPD2    C213223   0.034   3.261  17.390 -0.4813 -0.4060  0.1299
  899MPD2    C313224   4.720   3.169  17.479 -0.0233  0.4090 -0.1942
  899MPD2    C413225   4.641   3.065  17.431  0.1813  0.4804 -0.1203
  899MPD2    C513226   4.608   3.054  17.301 -0.2525  0.6982 -0.9374
  899MPD2     H13227   0.099   3.342  17.423 -0.4583 -0.2863 -0.2046
  899MPD2    H113228   4.605   2.984  17.492  0.3957  1.4067  1.2342
  899MPD2    H213229   4.614   3.144  17.112  2.6436  3.3264 -0.6332
  899MPD2    H313230   4.532   2.982  17.273  0.7650 -0.5965 -0.4121
  899MPD2     N13231   4.728   3.182  17.623 -0.1925  0.1439  0.3433
  899MPD2    H513232   4.666   3.121  17.674 -0.1531 -0.1773  0.0027
  899MPD2    N113233   0.048   3.347  17.161  0.0258 -0.2882 -0.2242
  899MPD2    H713234   0.024   3.335  17.063  0.4611  0.7545 -0.4623
  900MPD2     C13235   0.061   0.036  12.595 -0.2590 -0.6060 -0.2199
  900MPD2    C113236   4.699   4.679  12.612  0.2482 -0.0350  0.1785
  900MPD2    C213237   4.589   4.684  12.531 -0.5915 -0.5113 -0.2037
  900MPD2    C313238   4.573   0.040  12.430 -0.4284  0.4658 -0.0142
  900MPD2    C413239   4.676   0.128  12.420 -0.1900  0.2698  0.3350
  900MPD2    C513240   0.048   0.130  12.500 -0.5828  0.1510 -0.5907
  900MPD2     H13241   4.514   4.606  12.534  0.2580 -1.3063  0.5004
  900MPD2    H113242   4.677   0.208  12.347 -0.8783  1.1510  1.2832
  900MPD2    H213243   0.159   0.024  12.641  0.2888 -0.0776 -1.2488
  900MPD2    H313244   0.129   0.201  12.488  0.2641 -0.7201 -0.0491
  900MPD2     N13245   4.453   0.040  12.355 -0.3234  0.3235 -0.0893
  900MPD2    H513246   4.379   4.713  12.383 -1.0643  1.1806 -0.0602
  900MPD2    N113247   4.731   4.563  12.689 -0.0214  0.1774 -0.2247
  900MPD2    H713248   0.083   4.562  12.736  0.2095  1.2494 -0.6420
  901MPD2     C13249   4.501   3.531  12.919 -0.0941 -0.0942  0.4682
  901MPD2    C113250   4.618   3.546  12.846  0.6082 -0.0542  0.1119
  901MPD2    C213251   4.687   3.659  12.842  0.5864 -0.5794  0.2231
  901MPD2    C313252   4.631   3.767  12.904 -0.6300  0.2927  0.5327
  901MPD2    C413253   4.524   3.755  12.993  1.0272  0.3033  0.3561
  901MPD2    C513254   4.472   3.627  13.008 -0.1619 -0.0598 -0.3453
  901MPD2     H13255   0.033   3.673  12.773 -1.6755 -1.4030 -2.6709
  901MPD2    H113256   4.481   3.840  13.044 -1.7676 -1.5304  1.0761
  901MPD2    H213257   4.437   3.443  12.914 -3.1853  2.2396 -0.4095
  901MPD2    H313258   4.392   3.626  13.082 -0.3984  1.6699 -0.5703
  901MPD2     N13259   4.685   3.890  12.867  0.4060  0.7109  0.0046
  901MPD2    H513260   0.037   3.892  12.818 -0.5767 -1.3497 -1.8652
  901MPD2    N113261   4.645   3.432  12.765  0.3233 -0.7655  0.2457
  901MPD2    H713262   4.580   3.354  12.760 -0.1444 -0.4402  1.1505
  902MPD2     C13263   3.450   2.934  12.769 -0.0849  0.0126  0.7034
  902MPD2    C113264   3.525   3.040  12.813  0.1708 -0.0482 -0.1340
  902MPD2    C213265   3.647   3.018  12.871 -0.6133 -0.0868  0.3645
  902MPD2    C313266   3.699   2.891  12.860 -0.2818 -0.0233 -0.2513
  902MPD2    C413267   3.628   2.784  12.815  0.5306  0.1159  0.3386
  902MPD2    C513268   3.499   2.805  12.770  0.1982  0.1663 -0.1173
  902MPD2     H13269   3.708   3.098  12.911  0.1809 -0.8548  0.6785
  902MPD2    H113270   3.668   2.683  12.819 -0.6745 -0.3940 -0.5978
  902MPD2    H213271   3.350   2.950  12.728  0.9421 -1.6756 -2.5186
  902MPD2    H313272   3.430   2.731  12.731  1.4295 -2.9779  3.7370
  902MPD2     N13273   3.836   2.859  12.896  0.3430  0.2710 -0.9122
  902MPD2    H513274   3.861   2.763  12.873 -2.5988 -0.6817 -0.2066
  902MPD2    N113275   3.472   3.168  12.805 -0.2667 -0.1505  0.3449
  902MPD2    H713276   3.406   3.183  12.730  0.7746  2.7740  0.0044
  903MPD2     C13277   4.123   2.836  12.199 -0.2840 -0.0084 -0.3286
  903MPD2    C113278   4.080   2.919  12.305 -0.3080 -0.1844  0.4316
  903MPD2    C213279   3.952   2.974  12.297  0.1869 -0.5152 -0.1805
  903MPD2    C313280   3.870   2.946  12.189  0.2422  0.1200 -0.2619
  903MPD2    C413281   3.921   2.862  12.088  0.2178  0.0063 -0.4190
  903MPD2    C513282   4.045   2.803  12.095 -1.2603  0.0920  0.1694
  903MPD2     H13283   3.912   3.035  12.377  1.4095  3.5665 -2.7220
  903MPD2    H113284   3.864   2.838  11.999 -1.2726  2.2485 -0.0671
  903MPD2    H213285   4.213   2.777  12.196 -0.8358 -0.8955  0.8925
  903MPD2    H313286   4.088   2.736  12.021 -0.3133  0.7106  0.1656
  903MPD2     N13287   3.737   2.999  12.180 -0.2718 -0.3596  0.3978
  903MPD2    H513288   3.705   3.057  12.257 -4.3114 -1.6438 -0.2932
  903MPD2    N113289   4.158   2.930  12.416 -0.4433  0.0789 -0.3480
  903MPD2    H713290   4.247   2.881  12.420 -0.9669 -0.7209  1.1503
  904MPD2     C13291   3.591   1.503  14.402  0.3985  0.4490 -0.3438
  904MPD2    C113292   3.599   1.636  14.421  0.2154  0.5099  0.6095
  904MPD2    C213293   3.720   1.691  14.455 -1.0406  0.1404  0.1754
  904MPD2    C313294   3.834   1.609  14.476  0.7015  0.2853  0.9373
  904MPD2    C413295   3.814   1.466  14.466  0.3446  0.2522 -0.5592
  904MPD2    C513296   3.695   1.423  14.426  0.2326  0.0863 -0.1015
  904MPD2     H13297   3.729   1.798  14.468 -0.3387  0.0399  0.5016
  904MPD2    H113298   3.895   1.394  14.471  0.8259  0.6577 -2.2933
  904MPD2    H213299   3.501   1.453  14.366  1.7096 -2.1776  0.0532
  904MPD2    H313300   3.683   1.316  14.412  2.5818 -0.6863  4.0283
  904MPD2     N13301   3.966   1.676  14.487 -0.3141  0.3969 -0.0827
  904MPD2    H513302   3.965   1.777  14.475  0.8404  0.3903 -0.2510
  904MPD2    N113303   3.497   1.730  14.386 -0.2470  0.1802  0.1200
  904MPD2    H713304   3.510   1.830  14.396  2.5062 -0.1330 -0.5950
  905MPD2     C13305   3.055   1.538  13.775  0.8015 -0.1371  0.5606
  905MPD2    C113306   3.153   1.630  13.811  0.8208 -0.1872  0.1061
  905MPD2    C213307   3.254   1.653  13.718  0.1606  0.3235  0.0647
  905MPD2    C313308   3.279   1.562  13.615 -0.3756 -0.3774  0.1309
  905MPD2    C413309   3.185   1.462  13.591  0.0357  0.4164 -1.0225
  905MPD2    C513310   3.068   1.457  13.669 -0.0070 -0.1686  0.2422
  905MPD2     H13311   3.321   1.738  13.726 -0.4994  0.6852  1.7473
  905MPD2    H113312   3.190   1.399  13.503 -0.2324 -3.0794  1.4776
  905MPD2    H213313   2.967   1.515  13.834  1.0788 -1.2404  0.5611
  905MPD2    H313314   2.986   1.388  13.652 -0.2555  0.2154 -0.1015
  905MPD2     N13315   3.382   1.579  13.519  0.5116  0.4010  0.5923
  905MPD2    H513316   3.359   1.547  13.425 -0.6980  1.4896  0.5217
  905MPD2    N113317   3.139   1.699  13.928 -0.3889  0.3268 -0.6711
  905MPD2    H713318   3.070   1.667  13.995  2.0452 -1.1486  1.0872
  906MPD2     C13319   0.647   2.396  11.636  0.0117 -0.2967  0.0693
  906MPD2    C113320   0.565   2.295  11.579 -0.4314 -0.3490 -0.3900
  906MPD2    C213321   0.523   2.191  11.656 -0.3479 -0.3150 -0.2847
  906MPD2    C313322   0.541   2.192  11.790  0.0227 -0.1795  0.1835
  906MPD2    C413323   0.622   2.282  11.847  0.3182 -0.0199  0.1228
  906MPD2    C513324   0.670   2.384  11.767  0.5581 -0.8675  0.1195
  906MPD2     H13325   0.470   2.107  11.612  0.5343 -0.3344 -1.3254
  906MPD2    H113326   0.624   2.306  11.952 -1.1169  0.8049 -0.0343
  906MPD2    H213327   0.700   2.478  11.588 -0.2735  0.2909  0.7510
  906MPD2    H313328   0.719   2.464  11.822  0.4021  0.9657 -2.4346
  906MPD2     N13329   0.476   2.111  11.878  0.5835 -0.9527  0.4312
  906MPD2    H513330   0.501   2.117  11.977  0.2850  1.3258  0.3648
  906MPD2    N113331   0.526   2.298  11.441 -0.0165  0.7513  0.2819
  906MPD2    H713332   0.458   2.227  11.414 -1.7831  2.6046 -0.1750
  907MPD2     C13333   4.667   0.844  15.728 -0.4790 -0.1859  0.4146
  907MPD2    C113334   4.658   0.748  15.630 -0.0325 -0.0305  0.1239
  907MPD2    C213335   4.711   0.617  15.655  0.3811  0.3217  0.3001
  907MPD2    C313336   0.039   0.589  15.768  0.1041 -0.4155  0.8444
  907MPD2    C413337   0.065   0.691  15.856 -0.1773  0.6911  0.2567
  907MPD2    C513338   0.005   0.813  15.838 -0.0852  0.0568  0.0694
  907MPD2     H13339   4.720   0.544  15.576  0.4365  1.9541 -1.2030
  907MPD2    H113340   0.125   0.681  15.946 -0.3241  1.2581  0.4184
  907MPD2    H213341   4.613   0.938  15.719 -0.3986  0.0219  2.1644
  907MPD2    H313342   0.023   0.877  15.925  1.1228 -0.8966  0.5266
  907MPD2     N13343   0.088   0.453  15.786  0.1504  0.4605 -0.2361
  907MPD2    H513344   0.068   0.391  15.708  0.3033  1.9245 -1.4130
  907MPD2    N113345   4.598   0.774  15.500 -0.5116 -0.3388 -0.2626
  907MPD2    H713346   4.617   0.702  15.430  0.4545  0.2801 -0.6346
  908MPD2     C13347   1.355   1.993  10.034  0.0189 -0.1263 -0.3496
  908MPD2    C113348   1.464   1.917  10.067  0.0204  0.2282  0.3759
  908MPD2    C213349   1.558   1.979  10.143  0.1418 -0.3041 -0.6331
  908MPD2    C313350   1.555   2.113  10.178  0.1154 -0.6964  0.3645
  908MPD2    C413351   1.448   2.191  10.145 -0.5278 -0.2864 -0.1693
  908MPD2    C513352   1.350   2.127  10.074  0.3243  0.5952  0.0467
  908MPD2     H13353   1.643   1.922  10.176  0.4981 -0.0532 -1.1241
  908MPD2    H113354   1.439   2.295  10.174 -0.2521 -0.9284  2.2507
  908MPD2    H213355   1.281   1.950   9.968  1.0330 -1.1498 -0.8294
  908MPD2    H313356   1.263   2.181  10.038 -0.2234 -0.0731  0.3553
  908MPD2     N13357   1.670   2.169  10.241 -0.5320  0.3573 -0.8119
  908MPD2    H513358   1.736   2.102  10.280 -1.3804  0.3926  0.6655
  908MPD2    N113359   1.467   1.786  10.021 -0.1580 -0.3556 -0.0788
  908MPD2    H713360   1.380   1.758   9.977  1.2291 -1.1442 -2.2874
  909MPD2     C13361   2.680   4.673  12.279  0.0108  0.5113 -0.5325
  909MPD2    C113362   2.632   0.024  12.185  0.4307  0.2527 -0.1539
  909MPD2    C213363   2.556   0.125  12.235  0.4091 -0.0832 -0.5312
  909MPD2    C313364   2.516   0.130  12.369 -0.5109  0.5958  0.1816
  909MPD2    C413365   2.564   0.037  12.451  0.7677  0.0335  0.6059
  909MPD2    C513366   2.657   4.685  12.409  0.3371  0.4382  0.5519
  909MPD2     H13367   2.514   0.202  12.172  1.7711 -1.0049 -2.5982
  909MPD2    H113368   2.531   0.036  12.554 -2.1236  0.3868 -0.3192
  909MPD2    H213369   2.736   4.583  12.256  0.3248  0.3198  1.0003
  909MPD2    H313370   2.688   4.622  12.492  0.5779  0.6354  0.6076
  909MPD2     N13371   2.424   0.230  12.414 -0.1636 -0.1796  0.2090
  909MPD2    H513372   2.404   0.302  12.346  0.2649  1.5171  1.8726
  909MPD2    N113373   2.668   0.023  12.049  0.0541 -0.5084 -0.0483
  909MPD2    H713374   2.641   0.103  11.993  1.7503 -0.3616 -0.6439
  910MPD2     C13375   4.172   1.246  15.864  0.3801  0.6908  0.0639
  910MPD2    C113376   4.200   1.160  15.757  0.1128 -0.5713  0.4803
  910MPD2    C213377   4.185   1.202  15.626  0.3219 -0.1474  0.0503
  910MPD2    C313378   4.126   1.327  15.603 -0.2004  0.5533 -0.2034
  910MPD2    C413379   4.096   1.410  15.706  0.5784  0.0846  0.2978
  910MPD2    C513380   4.113   1.370  15.833  0.0491  0.2271 -0.5641
  910MPD2     H13381   4.207   1.131  15.548 -1.6697 -0.1543 -0.5052
  910MPD2    H113382   4.059   1.511  15.691  1.1926  0.3550  0.5824
  910MPD2    H213383   4.174   1.214  15.967 -0.6684  1.0617  0.1901
  910MPD2    H313384   4.081   1.436  15.913  1.0330 -0.2124  0.1925
  910MPD2     N13385   4.089   1.372  15.474 -0.3421 -0.0651  0.1787
  910MPD2    H513386   4.066   1.471  15.474 -0.5674 -0.1150 -0.7766
  910MPD2    N113387   4.260   1.033  15.779 -0.2276 -0.4653  0.1069
  910MPD2    H713388   4.291   0.982  15.697  0.4916  0.1806 -0.0190
  911MPD2     C13389   2.051   1.760  16.781  0.3644  0.0142 -0.3370
  911MPD2    C113390   2.087   1.892  16.778  0.0561  0.0285  0.0656
  911MPD2    C213391   1.989   1.989  16.766 -0.1946  0.2524  0.2719
  911MPD2    C313392   1.859   1.938  16.754 -0.6955 -0.1805 -0.3089
  911MPD2    C413393   1.818   1.805  16.749  0.3239  0.7398 -0.2966
  911MPD2    C513394   1.922   1.719  16.776 -0.6876  0.0887  0.2527
  911MPD2     H13395   2.023   2.092  16.762 -0.0186  0.0358 -3.2246
  911MPD2    H113396   1.717   1.772  16.731  1.1700 -1.2129 -1.5904
  911MPD2    H213397   2.122   1.678  16.791  0.6403 -0.0440 -2.7342
  911MPD2    H313398   1.904   1.612  16.783  1.1756 -0.0902  2.1562
  911MPD2     N13399   1.756   2.026  16.721 -0.3837 -0.0719  0.4503
  911MPD2    H513400   1.673   1.980  16.684  1.0052 -2.8765  0.7829
  911MPD2    N113401   2.224   1.925  16.763 -0.5271 -0.2406  0.3792
  911MPD2    H713402   2.285   1.848  16.740  3.2812  2.9613 -0.2298
  912MPD2     C13403   1.415   1.964  15.990  0.0895  0.3595  0.0972
  912MPD2    C113404   1.413   1.953  16.123 -0.0594  0.3158 -0.4461
  912MPD2    C213405   1.347   1.848  16.186 -0.0739 -0.5706 -0.3621
  912MPD2    C313406   1.290   1.744  16.111  0.2822  0.0155 -0.3052
  912MPD2    C413407   1.317   1.742  15.969 -0.3610  0.7119 -0.5390
  912MPD2    C513408   1.373   1.862  15.918  0.0466 -0.2069 -0.3513
  912MPD2     H13409   1.326   1.856  16.292  0.0967 -0.3839 -0.3430
  912MPD2    H113410   1.286   1.659  15.905 -0.1544  0.0914  0.1612
  912MPD2    H213411   1.468   2.049  15.949  1.7806  0.0106  1.5623
  912MPD2    H313412   1.383   1.872  15.810 -0.0457 -1.6116 -0.4906
  912MPD2     N13413   1.203   1.651  16.179  0.3567  0.0430 -0.8482
  912MPD2    H513414   1.172   1.571  16.125  1.9874  0.4910 -2.4959
  912MPD2    N113415   1.485   2.051  16.195 -0.0824  0.0946  0.5174
  912MPD2    H713416   1.549   2.114  16.147 -0.3267  1.7538  2.3327
  913MPD2     C13417   1.968   3.338  10.829 -0.4879  0.5267  0.1893
  913MPD2    C113418   2.010   3.443  10.899  0.3449 -0.5522 -0.2768
  913MPD2    C213419   1.959   3.567  10.872  0.1164  0.6847  0.0078
  913MPD2    C313420   1.862   3.578  10.770 -0.3839 -0.1585 -0.2202
  913MPD2    C413421   1.805   3.469  10.704  0.5923 -0.7673 -0.4305
  913MPD2    C513422   1.868   3.347  10.732  0.4131 -0.0764  0.6474
  913MPD2     H13423   1.989   3.650  10.934 -1.3193  1.0245  0.2448
  913MPD2    H113424   1.710   3.470  10.653  0.6968  1.3613 -0.5722
  913MPD2    H213425   2.012   3.242  10.851 -0.0363  1.2275  2.2875
  913MPD2    H313426   1.829   3.254  10.691  1.5287 -0.2336 -0.0569
  913MPD2     N13427   1.798   3.700  10.732 -0.0309 -0.7060  0.1468
  913MPD2    H513428   1.714   3.696  10.675  0.2724 -1.8055 -0.2169
  913MPD2    N113429   2.104   3.419  11.002  0.5524  0.3599  0.8925
  913MPD2    H713430   2.141   3.325  11.010 -1.0426 -0.2972  0.4672
  914MPD2     C13431   4.610   3.908  12.094 -0.1635 -0.5292 -0.1556
  914MPD2    C113432   4.689   3.925  12.200  0.9785  0.4641  0.2574
  914MPD2    C213433   4.733   3.816  12.273 -0.0492 -0.4128 -0.5652
  914MPD2    C313434   4.700   3.689  12.228  0.3469 -0.5309  0.0364
  914MPD2    C413435   4.622   3.676  12.123 -0.2300  0.5120 -0.5381
  914MPD2    C513436   4.579   3.783  12.052 -0.3866 -0.6401  0.2928
  914MPD2     H13437   0.058   3.832  12.360  1.3761 -2.2805 -1.2358
  914MPD2    H113438   4.579   3.582  12.091 -0.2419 -0.3707  2.0632
  914MPD2    H213439   4.572   3.991  12.035 -4.4053 -1.3860  1.3410
  914MPD2    H313440   4.513   3.769  11.967 -0.1029 -1.5173  0.2212
  914MPD2     N13441   0.013   3.576  12.302 -0.3028  0.2146  0.4377
  914MPD2    H513442   0.063   3.594  12.388  1.1996  1.8824 -0.7791
  914MPD2    N113443   4.718   4.063  12.235 -0.5510 -0.3857 -0.5774
  914MPD2    H713444   4.678   4.140  12.182  3.8891 -0.2371 -3.6718
  915MPD2     C13445   2.416   3.216  15.865 -0.1070 -0.0244 -0.2617
  915MPD2    C113446   2.425   3.343  15.811 -0.0144 -1.0948 -0.7817
  915MPD2    C213447   2.460   3.447  15.900  0.7793 -0.3343  0.4979
  915MPD2    C313448   2.485   3.422  16.036  0.4444 -0.2559  0.1932
  915MPD2    C413449   2.490   3.294  16.083  0.5127 -0.2234  0.5057
  915MPD2    C513450   2.454   3.188  15.996 -0.8454  0.0112 -0.7608
  915MPD2     H13451   2.463   3.552  15.873 -2.1406  0.0588  1.7397
  915MPD2    H113452   2.524   3.262  16.180  0.2232 -0.0149  0.6742
  915MPD2    H213453   2.401   3.130  15.801  2.6238 -0.4468 -0.3259
  915MPD2    H313454   2.455   3.087  16.034 -1.8306  0.7956  1.3743
  915MPD2     N13455   2.506   3.539  16.116 -0.2428  0.0238  0.2787
  915MPD2    H513456   2.497   3.624  16.061 -1.5431  1.8485  3.3113
  915MPD2    N113457   2.405   3.350  15.671 -1.0800  0.4712 -0.5334
  915MPD2    H713458   2.360   3.279  15.614 -1.5506 -0.2182  0.6981
  916MPD2     C13459   1.226   1.928  15.497 -0.1125 -0.1500  0.2523
  916MPD2    C113460   1.213   1.821  15.589  0.6000  0.1080  0.2401
  916MPD2    C213461   1.324   1.744  15.618 -0.1993 -0.0279 -0.4001
  916MPD2    C313462   1.449   1.771  15.560  0.8201  1.4664  0.7684
  916MPD2    C413463   1.451   1.878  15.472  0.6288 -0.3724 -0.0388
  916MPD2    C513464   1.340   1.954  15.443  0.7262  0.1041 -0.0376
  916MPD2     H13465   1.323   1.665  15.693 -1.9308  1.1651  0.8318
  916MPD2    H113466   1.536   1.907  15.412  0.2674 -0.6496 -0.6762
  916MPD2    H213467   1.139   1.990  15.476  2.1610  2.7810 -0.4334
  916MPD2    H313468   1.351   2.027  15.364 -0.3050 -0.6182 -0.8352
  916MPD2     N13469   1.562   1.688  15.591  0.4121  0.1892 -0.0858
  916MPD2    H513470   1.545   1.614  15.658  3.9059  1.2084  1.9473
  916MPD2    N113471   1.086   1.807  15.649 -0.1106 -0.0918  0.1804
  916MPD2    H713472   1.008   1.864  15.618  0.5895 -0.4693 -2.3601
  917MPD2     C13473   1.652   4.698  11.390  0.4897 -0.3969  1.2642
  917MPD2    C113474   1.528   4.677  11.332  0.9181 -0.6113 -0.3845
  917MPD2    C213475   1.517   4.706  11.199  0.5507  0.0543 -0.2139
  917MPD2    C313476   1.614   0.052  11.139  0.6532 -0.5305  0.5034
  917MPD2    C413477   1.738   0.078  11.201 -0.1276  0.1664  0.0372
  917MPD2    C513478   1.752   0.023  11.328  0.5371  0.5748 -0.2182
  917MPD2     H13479   1.425   4.683  11.148  0.7659 -1.7884  0.2455
  917MPD2    H113480   1.821   0.133  11.157  0.6938  0.1840  1.6016
  917MPD2    H213481   1.682   4.672  11.491  1.2597  1.4594  1.5158
  917MPD2    H313482   1.844   0.050  11.378  0.2235  2.5402 -0.6785
  917MPD2     N13483   1.598   0.117  11.015 -0.3561 -0.1434 -0.7602
  917MPD2    H513484   1.681   0.169  10.989 -0.6204 -0.3154 -1.9340
  917MPD2    N113485   1.426   4.606  11.405 -0.2221 -0.6469  0.8516
  917MPD2    H713486   1.421   4.627  11.504  0.3109  2.4296  0.2273
  918MPD2     C13487   1.354   0.210  12.096 -0.6365 -0.4305 -0.3301
  918MPD2    C113488   1.426   0.106  12.046 -0.2045  0.7086  0.0168
  918MPD2    C213489   1.362   0.006  11.973 -0.9275 -0.1603 -0.4955
  918MPD2    C313490   1.227   0.017  11.942 -0.2634  0.2699 -0.1959
  918MPD2    C413491   1.165   0.124  11.989  0.0991  0.6502  0.3708
  918MPD2    C513492   1.226   0.222  12.062  0.4126  0.5984 -0.2338
  918MPD2     H13493   1.418   4.663  11.926 -0.4441 -0.0631 -0.0819
  918MPD2    H113494   1.072   0.155  11.944  1.2691  0.3610 -2.2541
  918MPD2    H213495   1.404   0.283  12.158  2.2074 -0.6079 -2.3735
  918MPD2    H313496   1.172   0.314  12.080 -0.5977  0.0424 -0.4228
  918MPD2     N13497   1.187   4.670  11.844 -0.0708  0.6182  0.4397
  918MPD2    H513498   1.253   4.599  11.816  0.6337  0.5780  2.1694
  918MPD2    N113499   1.565   0.091  12.071  0.0499  0.0626  0.3734
  918MPD2    H713500   1.613   0.012  12.030 -0.1371  0.5483 -0.7686
  919MPD2     C13501   1.926   3.550  11.567 -0.1881 -0.0075  0.1753
  919MPD2    C113502   1.885   3.415  11.578 -0.3183  0.1208 -0.3281
  919MPD2    C213503   1.867   3.347  11.462 -0.0285  0.4980  0.0783
  919MPD2    C313504   1.876   3.408  11.336  0.6278  0.0009 -0.2054
  919MPD2    C413505   1.918   3.537  11.331 -0.4993  0.8181 -1.1954
  919MPD2    C513506   1.943   3.605  11.446  0.5241  0.7044  0.0688
  919MPD2     H13507   1.849   3.241  11.473  1.6639  0.0905 -0.9951
  919MPD2    H113508   1.930   3.595  11.240 -0.4788  1.3949 -0.8207
  919MPD2    H213509   1.959   3.608  11.651  0.3151 -0.1516  0.0795
  919MPD2    H313510   1.979   3.707  11.441 -3.3147  2.0384 -0.3053
  919MPD2     N13511   1.834   3.345  11.214 -0.6281 -0.1049 -0.1050
  919MPD2    H513512   1.836   3.395  11.126  1.5702 -1.2505 -0.7033
  919MPD2    N113513   1.850   3.345  11.696  0.3697 -0.1253 -0.4035
  919MPD2    H713514   1.827   3.246  11.688  1.0119 -0.2569 -0.6468
  920MPD2     C13515   1.293   3.607  10.424 -0.5976  0.7604  0.0884
  920MPD2    C113516   1.293   3.471  10.412 -0.6984  0.7021  0.2513
  920MPD2    C213517   1.347   3.391  10.513  0.4898  0.4753 -0.3736
  920MPD2    C313518   1.411   3.452  10.624  0.1188  0.2917  0.3330
  920MPD2    C413519   1.410   3.591  10.634 -0.2822 -0.1222  0.1569
  920MPD2    C513520   1.354   3.665  10.533 -0.1609 -0.7072 -0.7101
  920MPD2     H13521   1.342   3.284  10.501  2.6659  0.4469 -1.1411
  920MPD2    H113522   1.464   3.636  10.716 -0.5905 -0.2248  0.4132
  920MPD2    H213523   1.229   3.673  10.367  0.9680  1.6114 -0.6888
  920MPD2    H313524   1.376   3.771  10.530 -0.2177 -0.7011 -0.9428
  920MPD2     N13525   1.462   3.371  10.728  0.0955 -0.2537 -0.1356
  920MPD2    H513526   1.454   3.271  10.709  3.1051  0.1121 -3.2409
  920MPD2    N113527   1.206   3.406  10.316  0.5341 -0.3232  0.0491
  920MPD2    H713528   1.188   3.308  10.332 -3.7828  0.5632  0.7581
  921MPD2     C13529   2.594   2.874  16.906  0.0243  0.4690 -0.2784
  921MPD2    C113530   2.702   2.801  16.873 -0.9489 -0.4125 -0.1645
  921MPD2    C213531   2.687   2.671  16.823 -0.2991 -0.0453  0.5384
  921MPD2    C313532   2.566   2.609  16.839 -0.6609  0.0995  0.0527
  921MPD2    C413533   2.460   2.674  16.889  0.2255  0.0300 -0.2084
  921MPD2    C513534   2.470   2.810  16.922 -0.5414  0.8153  0.4087
  921MPD2     H13535   2.775   2.617  16.789 -0.4864  0.2001 -0.3174
  921MPD2    H113536   2.370   2.619  16.914  0.1158  0.1962 -0.2353
  921MPD2    H213537   2.610   2.976  16.938 -1.0656  0.6707 -0.3755
  921MPD2    H313538   2.393   2.868  16.971  0.7630  1.4437  1.7372
  921MPD2     N13539   2.535   2.472  16.798 -0.0335  0.3044  0.3452
  921MPD2    H513540   2.441   2.443  16.824  0.1272 -0.8657 -0.3666
  921MPD2    N113541   2.825   2.864  16.860 -0.0351  0.4089 -0.3025
  921MPD2    H713542   2.831   2.965  16.867  1.0029  0.5186 -2.6306
  922MPD2     C13543   3.697   0.197  17.583 -0.1423 -0.4826 -0.1142
  922MPD2    C113544   3.627   0.271  17.497  0.2741  0.2549  0.0678
  922MPD2    C213545   3.515   0.204  17.441  0.2353  0.0565  0.0281
  922MPD2    C313546   3.481   0.074  17.477 -0.3568 -0.6676 -0.4191
  922MPD2    C413547   3.557   0.007  17.570 -0.2657 -0.3581  0.9362
  922MPD2    C513548   3.664   0.069  17.622  0.0775 -0.0851  0.0690
  922MPD2     H13549   3.464   0.251  17.358 -0.3171 -0.7779 -0.0990
  922MPD2    H113550   3.544   4.639  17.593 -0.0379 -0.6441 -0.2462
  922MPD2    H213551   3.788   0.232  17.632 -0.5161  1.6169 -0.9298
  922MPD2    H313552   3.723   0.021  17.699  0.9255 -1.2643 -1.3310
  922MPD2     N13553   3.359   0.028  17.420 -0.9068  0.0769  0.3395
  922MPD2    H513554   3.309   0.091  17.357 -0.4463  2.3929  2.2908
  922MPD2    N113555   3.654   0.405  17.462 -0.5749  0.0163 -0.5964
  922MPD2    H713556   3.591   0.451  17.398 -0.1894  2.6673  0.9429
  923MPD2     C13557   2.492   3.177   9.804  0.4468  0.1185 -0.3296
  923MPD2    C113558   2.588   3.128   9.891 -0.0496 -0.7206 -0.6307
  923MPD2    C213559   2.691   3.037   9.848  0.1317  0.3700  0.1441
  923MPD2    C313560   2.710   3.012   9.716 -0.1361  0.3120  0.7870
  923MPD2    C413561   2.613   3.061   9.627  0.4606  0.0273  0.2546
  923MPD2    C513562   2.516   3.146   9.673  0.1906  0.2548  0.2083
  923MPD2     H13563   2.765   3.001   9.919  0.4311 -0.2632 -0.4887
  923MPD2    H113564   2.620   3.043   9.520 -0.0620  1.4458 -0.0250
  923MPD2    H213565   2.419   3.247   9.843  1.2191 -0.0037  1.3621
  923MPD2    H313566   2.450   3.193   9.601  2.7926  4.2746  0.4368
  923MPD2     N13567   2.816   2.927   9.673  0.1578  0.2666 -0.5500
  923MPD2    H513568   2.831   2.899   9.577 -0.3145 -1.1326 -0.2207
  923MPD2    N113569   2.569   3.160  10.026  0.0266  0.9206  0.0708
  923MPD2    H713570   2.483   3.212  10.044  0.7943  2.2274  0.0006
  924MPD2     C13571   4.338   4.601  15.472  0.0726 -0.0956  0.1634
  924MPD2    C113572   4.365   4.560  15.603 -0.1429 -0.7787 -0.1960
  924MPD2    C213573   4.486   4.611  15.661 -0.9765  0.0790 -0.0379
  924MPD2    C313574   4.570   4.696  15.595  0.0947 -0.4040  0.1986
  924MPD2    C413575   4.530   0.013  15.472  0.4114 -0.0893 -0.6994
  924MPD2    C513576   4.422   4.694  15.410  0.3390 -0.8754  0.1111
  924MPD2     H13577   4.506   4.585  15.764 -1.2912  0.6458  0.1682
  924MPD2    H113578   4.589   0.090  15.423  0.6538 -0.7888 -1.5110
  924MPD2    H213579   4.243   4.568  15.430 -0.1721  1.6763 -0.6542
  924MPD2    H313580   4.388   4.720  15.310 -3.0137  1.2055  1.8007
  924MPD2     N13581   4.689   4.725  15.667 -0.5437  0.5936  0.3455
  924MPD2    H513582   4.697   4.689  15.762  0.2216  1.2611  0.5423
  924MPD2    N113583   4.278   4.476  15.668 -0.5430 -0.4693 -0.2142
  924MPD2    H713584   4.204   4.438  15.610 -0.3292 -0.8021 -0.2704
  925MPD2     C13585   3.556   3.016  15.039  0.6429  0.9105  0.1025
  925MPD2    C113586   3.441   3.000  14.974  0.5061 -0.0088 -0.2381
  925MPD2    C213587   3.326   2.965  15.048  0.0163 -0.2016 -0.4988
  925MPD2    C313588   3.338   2.936  15.182 -0.3896 -0.5087  0.3222
  925MPD2    C413589   3.459   2.947  15.240  0.0315  0.0774  0.0709
  925MPD2    C513590   3.569   2.997  15.174 -0.2547  0.1457 -0.2501
  925MPD2     H13591   3.229   2.959  15.000 -0.1143  1.1986 -0.4179
  925MPD2    H113592   3.476   2.936  15.346  0.2730  1.6682  0.1872
  925MPD2    H213593   3.640   3.062  14.988  0.4911  0.4861 -0.5307
  925MPD2    H313594   3.661   3.030  15.222 -0.3717 -0.1610  0.1832
  925MPD2     N13595   3.228   2.896  15.263 -0.2423 -0.8255 -0.5099
  925MPD2    H513596   3.233   2.882  15.364 -1.0912  0.1508 -0.3329
  925MPD2    N113597   3.432   2.995  14.833  0.6903 -0.9954  0.3816
  925MPD2    H713598   3.340   2.988  14.792  1.2796  0.2810 -1.1340
  926MPD2     C13599   1.450   1.250  13.386 -0.3122  0.0297  0.2257
  926MPD2    C113600   1.491   1.378  13.431 -0.4328 -0.0718 -0.3092
  926MPD2    C213601   1.554   1.470  13.343 -0.2496  0.2628 -0.1731
  926MPD2    C313602   1.575   1.435  13.212  0.2882 -0.2835 -0.7697
  926MPD2    C413603   1.535   1.309  13.173  0.0208  0.2786  0.3331
  926MPD2    C513604   1.470   1.224  13.255  0.3827  0.1923  0.2008
  926MPD2     H13605   1.585   1.568  13.376  0.1568 -0.0162  0.2769
  926MPD2    H113606   1.538   1.275  13.070 -0.4696 -0.6195  0.6196
  926MPD2    H213607   1.389   1.182  13.445 -0.7157 -0.4119 -0.6844
  926MPD2    H313608   1.434   1.126  13.223  0.8643  0.1676 -0.2613
  926MPD2     N13609   1.637   1.513  13.110  0.1100 -0.5688 -0.2568
  926MPD2    H513610   1.638   1.472  13.017 -0.9341 -1.0289 -0.0614
  926MPD2    N113611   1.475   1.421  13.559 -0.2535  0.4669 -0.6590
  926MPD2    H713612   1.498   1.518  13.578 -2.0248  1.0195 -1.2728
  927MPD2     C13613   2.501   3.642   0.116  0.5673  0.3169  0.7331
  927MPD2    C113614   2.386   3.712   0.104 -0.1502  0.1845 -0.1062
  927MPD2    C213615   2.333   3.743  17.729 -0.6313  0.1526  0.4385
  927MPD2    C313616   2.390   3.689  17.617  0.1434  0.2010 -0.0711
  927MPD2    C413617   2.499   3.601  17.631  0.0318  0.0571 -0.0191
  927MPD2    C513618   2.553   3.583   0.004  0.1450  0.1308  1.1584
  927MPD2     H13619   2.247   3.807  17.713 -0.1634  0.4402 -0.9248
  927MPD2    H113620   2.556   3.561  17.548  0.8707  1.0779  0.0557
  927MPD2    H213621   2.548   3.623   0.211 -1.9379 -1.3095  1.6342
  927MPD2    H313622   2.640   3.520   0.018  0.2871  0.3512  1.2532
  927MPD2     N13623   2.340   3.731  17.490  0.4882  0.4517 -0.0083
  927MPD2    H513624   2.279   3.810  17.473  0.4309  0.4548  0.2116
  927MPD2    N113625   2.328   3.741   0.228  0.0535 -0.2640 -0.5295
  927MPD2    H713626   2.388   3.728   0.310 -1.6556  1.1529  0.9518
  928MPD2     C13627   4.533   1.498   1.082 -0.3599  0.2487  0.1236
  928MPD2    C113628   4.464   1.597   1.018 -0.0472  0.7063  0.6283
  928MPD2    C213629   4.524   1.655   0.911 -0.8120  0.1710 -0.2829
  928MPD2    C313630   4.639   1.601   0.844 -0.0477  0.6832 -0.4983
  928MPD2    C413631   4.704   1.504   0.914 -0.0479  0.4061 -0.0255
  928MPD2    C513632   4.658   1.456   1.037 -0.0116 -0.2242 -0.9723
  928MPD2     H13633   4.470   1.733   0.858  0.5261  0.2299 -1.5683
  928MPD2    H113634   0.051   1.461   0.862  0.0466 -0.4456  0.8272
  928MPD2    H213635   4.494   1.458   1.174 -1.4629 -1.3417 -1.0340
  928MPD2    H313636   4.700   1.374   1.094  1.0459  1.0478  0.0622
  928MPD2     N13637   4.692   1.654   0.727 -0.1888 -0.1475 -0.1340
  928MPD2    H513638   0.038   1.613   0.686  1.0048  0.6994  1.4437
  928MPD2    N113639   4.346   1.630   1.088 -0.7040 -0.5522  0.7533
  928MPD2    H713640   4.329   1.583   1.177 -2.3727 -0.4049  0.5244
  929MPD2     C13641   3.662   2.481  11.109 -0.2422  0.1061  0.3462
  929MPD2    C113642   3.629   2.363  11.040 -0.0689 -0.0197  0.5000
  929MPD2    C213643   3.573   2.370  10.914 -0.2149 -0.7251 -0.6015
  929MPD2    C313644   3.559   2.491  10.857  0.1475  0.3468  0.2721
  929MPD2    C413645   3.590   2.609  10.930  0.2590  0.2470  0.4641
  929MPD2    C513646   3.649   2.598  11.050  0.2062  0.0338  0.8133
  929MPD2     H13647   3.542   2.278  10.865  2.0790 -0.6929 -2.1533
  929MPD2    H113648   3.581   2.703  10.876  0.4862 -0.8881 -1.5381
  929MPD2    H213649   3.711   2.472  11.206 -1.5070 -1.1747  0.8742
  929MPD2    H313650   3.681   2.691  11.097  0.1319 -0.6414  2.2092
  929MPD2     N13651   3.517   2.513  10.725 -0.0670 -0.9346 -0.2955
  929MPD2    H513652   3.514   2.613  10.709  2.9017 -0.5721  1.4249
  929MPD2    N113653   3.632   2.235  11.099 -0.3719 -0.4451  0.2656
  929MPD2    H713654   3.579   2.161  11.056  2.0702 -2.0301 -0.0389
  930MPD2     C13655   1.267   4.025  13.971  0.8007  0.4478 -0.6810
  930MPD2    C113656   1.405   4.055  13.991  0.3098  0.0318  0.3258
  930MPD2    C213657   1.492   4.059  13.881  0.1609  0.5042  0.1734
  930MPD2    C313658   1.442   4.027  13.755 -0.4851 -0.8052 -0.6964
  930MPD2    C413659   1.307   3.980  13.743  0.2784  0.6079 -0.4921
  930MPD2    C513660   1.227   3.973  13.853 -0.2190 -0.1992  0.9683
  930MPD2     H13661   1.592   4.099  13.896  1.2574 -2.6618  1.3832
  930MPD2    H113662   1.274   3.950  13.644  1.7235  0.0900 -0.8096
  930MPD2    H213663   1.192   4.026  14.050  1.8341 -0.0215  0.3034
  930MPD2    H313664   1.121   3.951  13.849 -0.1086 -0.5523 -0.0507
  930MPD2     N13665   1.511   4.036  13.635  0.3544 -0.1518  1.0247
  930MPD2    H513666   1.458   4.017  13.551  2.7212  0.0698 -0.5085
  930MPD2    N113667   1.443   4.098  14.116  0.2296  1.1701  0.3483
  930MPD2    H713668   1.367   4.129  14.174 -0.2378  2.4769 -0.9749
  931MPD2     C13669   2.470   3.377   0.650 -0.0832  0.4961  0.3532
  931MPD2    C113670   2.355   3.422   0.703  0.8280 -0.1013  0.2269
  931MPD2    C213671   2.280   3.347   0.793 -0.4631  0.3025 -0.0254
  931MPD2    C313672   2.325   3.217   0.822 -0.0243  0.1272  0.2576
  931MPD2    C413673   2.434   3.168   0.758 -0.4209  0.1951  0.5015
  931MPD2    C513674   2.516   3.253   0.688 -0.7164 -0.1616  0.5537
  931MPD2     H13675   2.203   3.390   0.856 -1.6334  0.5845 -1.6698
  931MPD2    H113676   2.472   3.070   0.784  2.1535  0.5428 -2.0109
  931MPD2    H213677   2.528   3.435   0.579 -1.0079 -0.3007 -1.0687
  931MPD2    H313678   2.609   3.220   0.643 -3.3197 -1.1618 -4.0954
  931MPD2     N13679   2.258   3.129   0.904  0.7615 -0.1101 -0.3132
  931MPD2    H513680   2.275   3.029   0.899 -2.3217 -0.4201 -3.9965
  931MPD2    N113681   2.322   3.550   0.657 -0.7678  0.8081 -0.4392
  931MPD2    H713682   2.373   3.596   0.583 -1.7187 -1.9667 -2.8249
  932MPD2     C13683   3.556   2.826  11.477  0.0965  0.7526 -0.1999
  932MPD2    C113684   3.584   2.864  11.612  0.4055 -0.1024 -0.2969
  932MPD2    C213685   3.631   2.766  11.700  0.2656  0.6377  0.9109
  932MPD2    C313686   3.656   2.637  11.641  0.0085 -0.5466 -0.1965
  932MPD2    C413687   3.623   2.600  11.515 -0.6387  0.2149  0.2991
  932MPD2    C513688   3.589   2.704  11.434  0.6766 -0.1254  0.2112
  932MPD2     H13689   3.673   2.794  11.796  0.8876  1.9789  0.2513
  932MPD2    H113690   3.642   2.505  11.466  1.1514  1.3038 -1.1586
  932MPD2    H213691   3.534   2.900  11.401  1.2885 -0.3081 -1.5768
  932MPD2    H313692   3.570   2.671  11.333 -2.6360  0.7492  0.5331
  932MPD2     N13693   3.709   2.532  11.713  0.2539  0.6743 -0.3056
  932MPD2    H513694   3.685   2.441  11.676 -0.2305  0.8087 -0.3247
  932MPD2    N113695   3.564   3.002  11.655  0.0869 -0.1484 -0.3001
  932MPD2    H713696   3.622   3.032  11.733 -2.3879  3.8893 -0.0260
  933MPD2     C13697   3.747   2.170   0.855  0.8485  0.8296 -0.2518
  933MPD2    C113698   3.879   2.130   0.858 -0.4156  0.7757  0.2163
  933MPD2    C213699   3.972   2.193   0.775  0.2843  0.2365 -0.5480
  933MPD2    C313700   3.932   2.289   0.677 -0.7055 -0.4874 -0.6349
  933MPD2    C413701   3.801   2.329   0.680 -0.2056 -0.0644  0.2513
  933MPD2    C513702   3.710   2.269   0.767 -0.0703 -0.3495  0.7220
  933MPD2     H13703   4.076   2.170   0.793  0.3109  1.9311  1.5672
  933MPD2    H113704   3.755   2.408   0.622 -0.5676 -1.8017 -1.8659
  933MPD2    H213705   3.669   2.135   0.922 -0.1948  2.6732 -0.4979
  933MPD2    H313706   3.608   2.304   0.758  0.8062  2.3223  1.2700
  933MPD2     N13707   4.032   2.360   0.606 -0.5396 -0.3897  0.1109
  933MPD2    H513708   4.126   2.322   0.606 -0.0411  0.8197 -1.3289
  933MPD2    N113709   3.934   2.034   0.945  0.7271 -0.2146  0.7388
  933MPD2    H713710   4.035   2.027   0.947  0.7910  0.9353  1.7927
  934MPD2     C13711   0.598   3.274   1.917  0.1427 -0.2761 -0.7501
  934MPD2    C113712   0.706   3.358   1.897 -0.3191 -0.4371  0.4864
  934MPD2    C213713   0.714   3.423   1.777  0.4539  0.2500 -0.2840
  934MPD2    C313714   0.627   3.392   1.672  0.3492 -0.0350 -0.3840
  934MPD2    C413715   0.532   3.304   1.695 -0.2263 -1.0568  0.2708
  934MPD2    C513716   0.510   3.242   1.815  0.9307  0.0451  0.2954
  934MPD2     H13717   0.796   3.491   1.759 -1.1696  1.9539 -1.1787
  934MPD2    H113718   0.471   3.281   1.609 -0.9136 -0.7033  0.6620
  934MPD2    H213719   0.590   3.213   2.006  1.3647 -0.1714 -0.5685
  934MPD2    H313720   0.425   3.175   1.821  0.4880  0.7003  1.3664
  934MPD2     N13721   0.640   3.448   1.542  0.8544  0.0216 -0.0616
  934MPD2    H513722   0.563   3.426   1.480  1.0482  1.9372 -0.9791
  934MPD2    N113723   0.813   3.381   1.994 -0.1189 -0.8786  0.4755
  934MPD2    H713724   0.879   3.451   1.963 -0.1440 -1.3061 -0.5348
  935MPD2     C13725   1.038   3.114   0.854 -0.8849  0.0725  0.6293
  935MPD2    C113726   0.900   3.125   0.846 -1.2371 -0.4506  0.7955
  935MPD2    C213727   0.838   3.230   0.908  0.8235 -0.2837  0.2430
  935MPD2    C313728   0.910   3.311   0.996 -0.1497  0.7216 -0.4434
  935MPD2    C413729   1.053   3.296   1.004  0.5841  0.1192  0.9325
  935MPD2    C513730   1.112   3.196   0.929 -0.1719 -0.2881 -0.5393
  935MPD2     H13731   0.730   3.224   0.907  0.8893 -1.6208  1.3950
  935MPD2    H113732   1.107   3.369   1.064  1.9185 -0.4984  0.4773
  935MPD2    H213733   1.097   3.031   0.817  0.4378  0.1564  2.5524
  935MPD2    H313734   1.220   3.195   0.935 -0.1016 -0.7708 -1.9871
  935MPD2     N13735   0.843   3.401   1.077  0.1278  0.3222 -0.0400
  935MPD2    H513736   0.891   3.437   1.159 -0.3870 -0.2169  0.4950
  935MPD2    N113737   0.821   3.032   0.782  0.5497  0.0470  0.5383
  935MPD2    H713738   0.720   3.046   0.773  0.2617 -2.5710 -0.2681
  936MPD2     C13739   3.926   1.094  12.397 -0.2665  0.2207  0.3041
  936MPD2    C113740   3.948   1.043  12.526  0.8786 -0.7265 -0.6646
  936MPD2    C213741   4.078   1.037  12.569 -0.1579 -0.1431  0.0978
  936MPD2    C313742   4.186   1.074  12.495 -0.0108 -0.2105  0.3395
  936MPD2    C413743   4.161   1.131  12.374 -0.3877  0.1574 -0.4254
  936MPD2    C513744   4.035   1.141  12.326  0.1583  0.1106 -0.3572
  936MPD2     H13745   4.098   1.006  12.671  0.4163  0.1590  0.0759
  936MPD2    H113746   4.241   1.163  12.309  0.7640 -2.2942 -0.2362
  936MPD2    H213747   3.832   1.097  12.344 -0.5696 -0.4886  0.7968
  936MPD2    H313748   4.018   1.199  12.236 -0.3353  0.9349  0.2637
  936MPD2     N13749   4.322   1.088  12.536 -0.4148 -0.2763  0.0706
  936MPD2    H513750   4.390   1.111  12.464  0.7415 -2.3368  0.4899
  936MPD2    N113751   3.844   1.000  12.610  0.4825  0.5962 -0.5853
  936MPD2    H713752   3.869   0.926  12.675 -1.1804 -0.0187 -0.6432
  937MPD2     C13753   1.987   2.751  11.855 -0.2880  0.4139 -0.2670
  937MPD2    C113754   1.932   2.843  11.771 -0.6158 -0.2558 -0.0160
  937MPD2    C213755   1.998   2.861  11.652  0.4609 -0.4049  0.1505
  937MPD2    C313756   2.111   2.799  11.619  0.5472 -0.1337  0.5791
  937MPD2    C413757   2.154   2.699  11.702 -0.6981  0.0802  0.5394
  937MPD2    C513758   2.097   2.679  11.822  1.0869 -0.0357  0.3361
  937MPD2     H13759   1.983   2.946  11.585  1.9330  0.2077  0.5961
  937MPD2    H113760   2.243   2.645  11.672 -0.4275  0.1350  1.2645
  937MPD2    H213761   1.931   2.717  11.941  0.4730 -1.1342 -0.3960
  937MPD2    H313762   2.148   2.613  11.891 -0.4864 -2.0905 -0.4460
  937MPD2     N13763   2.191   2.848  11.509 -0.2385  0.6769 -0.2459
  937MPD2    H513764   2.156   2.922  11.448  1.9995  1.0257 -1.1179
  937MPD2    N113765   1.850   2.943  11.816 -0.1227 -0.0198 -0.3276
  937MPD2    H713766   1.820   3.018  11.753 -0.8496  2.5482  3.0540
  938MPD2     C13767   4.206   3.666   0.452 -0.1418 -0.0997  0.2046
  938MPD2    C113768   4.330   3.671   0.513  0.6197  0.3456 -0.3338
  938MPD2    C213769   4.369   3.562   0.581 -0.5536  0.1398  0.4414
  938MPD2    C313770   4.286   3.459   0.622 -0.2543  0.4645 -0.3411
  938MPD2    C413771   4.159   3.457   0.569  0.1824 -0.2871 -0.4863
  938MPD2    C513772   4.125   3.557   0.483 -0.8593 -0.1270 -0.1013
  938MPD2     H13773   4.471   3.569   0.617  0.3046 -1.2678 -1.7129
  938MPD2    H113774   4.097   3.371   0.590 -2.5615  1.6541 -0.6271
  938MPD2    H213775   4.176   3.742   0.380  0.2748 -0.0733  0.0576
  938MPD2    H313776   4.032   3.550   0.428 -0.9567  2.1111 -0.2189
  938MPD2     N13777   4.333   3.358   0.706  0.0733 -0.4035 -0.4006
  938MPD2    H513778   4.261   3.291   0.732  0.4488 -1.3007 -1.6541
  938MPD2    N113779   4.438   3.764   0.478  0.1765  0.5550 -0.5413
  938MPD2    H713780   4.527   3.745   0.523 -0.5403 -1.7549 -0.0735
  939MPD2     C13781   1.176   4.616   1.345  0.1644 -1.0391  0.5664
  939MPD2    C113782   1.249   4.720   1.307  0.2024  0.0349  0.2603
  939MPD2    C213783   1.262   0.008   1.171 -0.3586 -0.0450  0.0416
  939MPD2    C313784   1.192   4.676   1.074  0.0893  0.3748  0.9934
  939MPD2    C413785   1.112   4.567   1.121 -0.3056  0.0931  0.4335
  939MPD2    C513786   1.105   4.540   1.253  0.7242 -0.4535 -0.4254
  939MPD2     H13787   1.328   0.089   1.144  0.5739 -1.0160 -0.6011
  939MPD2    H113788   1.050   4.515   1.050 -0.3287  0.0570  0.4797
  939MPD2    H213789   1.165   4.587   1.449 -1.5505  0.0166  0.6887
  939MPD2    H313790   1.052   4.451   1.285  0.2020 -0.3089 -0.9076
  939MPD2     N13791   1.208   4.704   0.935 -0.1884  0.1696  0.8625
  939MPD2    H513792   1.260   0.049   0.905 -0.8030  0.3125  0.1967
  939MPD2    N113793   1.320   0.059   1.405 -0.0322  0.0255 -0.2760
  939MPD2    H713794   1.336   0.013   1.494 -1.0218  0.1760 -0.0263
  940MPD2     C13795   0.070   1.519  13.321 -0.5404 -0.5808  0.3080
  940MPD2    C113796   0.072   1.394  13.251  0.2255  0.3455  0.0516
  940MPD2    C213797   0.116   1.397  13.121 -0.4179 -0.7977 -0.5863
  940MPD2    C313798   0.172   1.508  13.060  0.3264  0.2249  0.2244
  940MPD2    C413799   0.181   1.626  13.130 -0.0738 -0.3299  0.6118
  940MPD2    C513800   0.133   1.628  13.260 -0.8867 -0.0615  0.0787
  940MPD2     H13801   0.102   1.308  13.060 -0.4711 -1.8940  1.0067
  940MPD2    H113802   0.218   1.712  13.076  2.7696 -3.0845 -1.8441
  940MPD2    H213803   0.030   1.536  13.421 -0.9762  1.8430 -0.2992
  940MPD2    H313804   0.147   1.713  13.326  1.6297 -0.9560  0.6756
  940MPD2     N13805   0.227   1.504  12.934 -0.2082  0.0201  0.6680
  940MPD2    H513806   0.255   1.595  12.899  2.9300 -0.8783  0.8440
  940MPD2    N113807   0.034   1.266  13.307 -0.1214  0.8600  0.0836
  940MPD2    H713808   0.034   1.188  13.243  3.3851  0.2728  0.7971
  941MPD2     C13809   3.982   0.445  10.146  0.0540  0.3477 -0.0214
  941MPD2    C113810   3.912   0.564  10.132 -0.3679  0.2060  0.6098
  941MPD2    C213811   3.780   0.564  10.170 -0.0446  0.3883  0.2914
  941MPD2    C313812   3.711   0.448  10.216 -0.1228 -0.1294 -0.3154
  941MPD2    C413813   3.782   0.332  10.217 -0.2711  0.3387 -0.4328
  941MPD2    C513814   3.912   0.336  10.182 -0.0969 -0.1241  0.0137
  941MPD2     H13815   3.728   0.659  10.169  0.2816  0.5552 -3.9198
  941MPD2    H113816   3.736   0.236  10.240 -3.6235  1.5480 -2.0467
  941MPD2    H213817   4.089   0.434  10.129 -0.2333  1.6481 -2.6145
  941MPD2    H313818   3.966   0.244  10.200  0.2503 -0.3532 -2.2748
  941MPD2     N13819   3.577   0.436  10.262 -1.0349  0.1954 -0.0537
  941MPD2    H513820   3.551   0.346  10.302 -0.1712  1.0892  2.5495
  941MPD2    N113821   3.966   0.689  10.086 -0.1511  0.2133 -0.2958
  941MPD2    H713822   3.906   0.770  10.073 -0.1091  0.4536  1.0108
  942MPD2     C13823   2.553   2.837  10.205 -0.2537 -0.7066 -0.2872
  942MPD2    C113824   2.529   2.767  10.090  0.0414  0.2536  0.5456
  942MPD2    C213825   2.628   2.696  10.035  0.0894 -0.6476 -0.1788
  942MPD2    C313826   2.753   2.688  10.101 -0.3678  0.0630 -0.3380
  942MPD2    C413827   2.767   2.733  10.230 -0.3198  0.6305  0.0050
  942MPD2    C513828   2.666   2.812  10.277 -0.2617  0.3194 -0.1987
  942MPD2     H13829   2.607   2.649   9.940  1.5350  0.4414 -1.0391
  942MPD2    H113830   2.852   2.719  10.296 -0.6054 -2.6701 -0.2925
  942MPD2    H213831   2.470   2.886  10.253 -0.6459  0.1477 -1.8344
  942MPD2    H313832   2.680   2.839  10.380 -0.2601 -1.0371  0.1588
  942MPD2     N13833   2.866   2.629  10.043 -0.0386  0.5307 -0.6573
  942MPD2    H513834   2.950   2.623  10.101  0.4925  0.8476 -1.3948
  942MPD2    N113835   2.407   2.781  10.017 -0.1321  0.9427 -0.3340
  942MPD2    H713836   2.407   2.738   9.925  1.5144 -2.8070  1.4246
  943MPD2     C13837   2.312   0.775  11.017 -0.2612  0.5483  0.1197
  943MPD2    C113838   2.276   0.659  11.087 -0.8535 -0.0866 -0.2930
  943MPD2    C213839   2.250   0.667  11.223  0.2411  0.1478  0.9377
  943MPD2    C313840   2.222   0.788  11.283 -0.1216 -0.1671  0.7301
  943MPD2    C413841   2.241   0.899  11.205  0.4624 -0.4076 -0.3075
  943MPD2    C513842   2.293   0.895  11.077  0.1274 -0.6694 -0.0334
  943MPD2     H13843   2.249   0.578  11.284  2.1664 -2.7930 -3.2895
  943MPD2    H113844   2.233   1.000  11.245  2.1747 -0.0991 -0.7275
  943MPD2    H213845   2.355   0.765  10.918  0.8052  1.9661  0.4381
  943MPD2    H313846   2.324   0.985  11.025 -2.4639  0.8135  0.9709
  943MPD2     N13847   2.198   0.806  11.419 -0.4380  0.7075  0.1347
  943MPD2    H513848   2.175   0.901  11.444 -0.7201  0.7773 -0.3794
  943MPD2    N113849   2.278   0.541  11.009 -0.6762 -0.0068 -0.0633
  943MPD2    H713850   2.301   0.556  10.912 -0.8497 -1.4602 -0.3221
  944MPD2     C13851   2.865   0.955  11.512  0.1074  0.3708 -0.0247
  944MPD2    C113852   2.750   0.886  11.546  0.1537 -0.5038 -0.3060
  944MPD2    C213853   2.704   0.883  11.677 -0.0284  0.0577  0.9218
  944MPD2    C313854   2.782   0.934  11.773 -0.2693  0.1658 -0.1440
  944MPD2    C413855   2.902   0.995  11.745  0.0429 -0.5699 -0.1941
  944MPD2    C513856   2.941   1.013  11.614  0.2678 -0.7741 -0.1629
  944MPD2     H13857   2.609   0.834  11.691 -1.7263  2.9373 -0.4634
  944MPD2    H113858   2.963   1.035  11.825 -2.1959 -0.0666  1.2591
  944MPD2    H213859   2.896   0.964  11.409 -1.0337 -0.2021 -0.4072
  944MPD2    H313860   3.038   1.057  11.589  0.4335 -1.7254 -1.2016
  944MPD2     N13861   2.743   0.904  11.907 -0.5387  0.0985  0.3451
  944MPD2    H513862   2.650   0.863  11.914 -0.5754  0.1575  0.2050
  944MPD2    N113863   2.678   0.809  11.452 -0.5411  0.4057 -0.0836
  944MPD2    H713864   2.714   0.810  11.358 -1.0825  0.1388 -0.2923
    1TMC1    C113865   1.011   0.963  14.665  0.1110  0.3122  0.2323
    1TMC1    C213866   1.036   0.907  14.543 -0.1578  0.3773 -0.3768
    1TMC1    C313867   1.132   0.807  14.544 -0.6970 -0.5958  0.5087
    1TMC1    C413868   1.064   0.917  14.783 -0.9577  0.0309  0.3922
    1TMC1    C513869   1.159   0.821  14.770 -0.0831  0.3051 -0.4480
    1TMC1    C613870   1.199   0.764  14.655 -0.1687  0.5865  0.7558
    1TMC1     C13871   0.958   1.108  14.669  0.1061  0.3744  0.1863
    1TMC1     O13872   0.991   1.173  14.765  0.5480  0.2696  0.1610
    1TMC1     H13873   0.991   0.936  14.449 -0.3165 -1.3053 -0.8307
    1TMC1    H113874   1.033   0.963  14.877 -0.4198  2.0264 -0.4134
    1TMC1    H213875   1.259   0.674  14.648  3.2396  3.0010 -0.8372
    1TMC1    C713876   1.209   0.750  14.887 -0.0895 -0.2076  0.3553
    1TMC1    C813877   1.199   0.758  14.420  0.2769 -0.1000 -0.4088
    1TMC1    O113878   1.295   0.667  14.901 -0.1557 -0.2158 -0.0922
    1TMC1    O213879   1.243   0.644  14.413 -0.2809  0.3078  0.0055
    1TMC1    O313880   1.129   0.790  14.983  0.4542 -0.1552 -0.2422
    1TMC1    H313881   1.041   0.805  14.942  0.8636 -0.9517 -1.4250
    1TMC1    O513882   1.195   0.845  14.322 -0.5818 -0.0561 -0.0921
    1TMC1    H513883   1.172   0.933  14.359  0.6771  0.1127  0.3255
    2MPD2     C13884   0.623   1.473  14.545  0.2883  0.6423 -0.1827
    2MPD2    C113885   0.592   1.360  14.476 -0.3659  0.1869 -0.0871
    2MPD2    C213886   0.677   1.247  14.485 -0.0234 -0.6700 -0.0230
    2MPD2    C313887   0.784   1.246  14.570  0.1573 -0.6762  0.0828
    2MPD2    C413888   0.815   1.356  14.641  0.7813 -0.1218 -0.2634
    2MPD2    C513889   0.726   1.467  14.636 -0.0067 -0.0619  0.1053
    2MPD2     H13890   0.668   1.180  14.400  0.2838  0.1989 -0.7442
    2MPD2    H113891   0.889   1.358  14.721  2.7212 -1.1508 -2.0500
    2MPD2    H213892   0.555   1.557  14.549  0.5962  0.8974 -0.2702
    2MPD2    H313893   0.743   1.551  14.702 -0.5425  0.6723 -0.6900
    2MPD2     N13894   0.854   1.127  14.577  0.0339  0.0705  0.3711
    2MPD2    H513895   0.832   1.051  14.514 -0.8333  1.4902 -1.0258
    2MPD2    N113896   0.487   1.373  14.386  0.1538 -0.2245 -0.6618
    2MPD2    H713897   0.458   1.469  14.370 -1.2913 -0.6021 -0.3082
    3TMC2    C113898   0.317   1.320  14.235  0.3096  0.3626 -0.4169
    3TMC2    C213899   0.281   1.249  14.120  0.4858  0.3519  0.4046
    3TMC2    C313900   0.183   1.295  14.036 -0.4113 -0.1107 -0.0610
    3TMC2    C413901   0.245   1.433  14.281  0.7785 -0.1218 -0.1188
    3TMC2    C513902   0.147   1.467  14.192 -0.1622 -0.5435 -0.4791
    3TMC2    C613903   0.107   1.398  14.077 -0.5071 -0.3212  0.0626
    3TMC2     C13904   0.435   1.275  14.303  0.5355 -0.0204  0.9305
    3TMC2     O13905   0.468   1.160  14.303  0.0264  0.2855  0.5614
    3TMC2     H13906   0.337   1.162  14.088  0.3567  0.4353 -0.0493
    3TMC2    H113907   0.279   1.483  14.371  0.6154  0.3929 -0.3425
    3TMC2    H213908   0.017   1.424  14.023  0.3257 -1.0406 -1.6824
    3TMC2    C713909   0.090   1.603  14.220 -0.3031  0.3357 -0.1684
    3TMC2    C813910   0.131   1.209  13.932 -0.8642  0.3527 -0.1475
    3TMC2    O113911   0.135   1.667  14.313 -0.2885 -0.1905  0.5778
    3TMC2    O213912   0.015   1.204  13.887  0.6614  0.6462 -0.0032
    3TMC2    O513913   0.244   1.172  13.865  0.5380 -0.4131  0.3017
    3TMC2    H513914   0.323   1.220  13.898  0.0764 -0.2284  1.1582
    4TMC2    C113915   4.205   1.859  13.484 -0.4673 -0.0460 -0.5037
    4TMC2    C213916   4.171   1.989  13.462  0.2212 -0.1361  0.1681
    4TMC2    C313917   4.220   2.072  13.562 -0.0739 -0.1778 -0.5223
    4TMC2    C413918   4.288   1.813  13.579  0.4508  0.1535 -0.3671
    4TMC2    C513919   4.334   1.899  13.668 -0.3898  0.7479 -0.7112
    4TMC2    C613920   4.295   2.029  13.666  0.6907  0.0822 -0.3788
    4TMC2     C13921   4.242   1.799  13.359  0.5003  0.5932 -0.1796
    4TMC2     O13922   4.364   1.796  13.332  0.2661 -0.3420 -0.0784
    4TMC2     H13923   4.113   2.021  13.377  0.1177  0.4112  0.4480
    4TMC2    H113924   4.304   1.706  13.588  3.1833  0.4894 -1.1658
    4TMC2    H213925   4.348   2.094  13.734 -0.5151  0.4113  0.2413
    4TMC2    C713926   4.424   1.848  13.766 -1.0565  0.2018 -0.2862
    4TMC2    C813927   4.220   2.212  13.555  0.3853 -0.2568  0.3035
    4TMC2    O113928   4.465   1.734  13.752  0.9030 -0.2862 -0.8467
    4TMC2    O213929   4.174   2.268  13.656 -0.4223 -0.0181  0.1304
    4TMC2    O513930   4.201   2.249  13.427  0.5942  0.2763  0.6929
    4TMC2    H513931   4.231   2.182  13.363  2.9978  0.9869  1.0881
    5MPD2     C13932   4.100   1.665  12.881  0.4240  0.1279  0.1557
    5MPD2    C113933   3.986   1.677  12.962 -0.1835 -0.4651  0.2742
    5MPD2    C213934   4.002   1.713  13.093 -0.0393 -0.1459 -0.2523
    5MPD2    C313935   4.125   1.744  13.146 -0.1462  0.2890 -0.1263
    5MPD2    C413936   4.233   1.720  13.065  0.6237 -0.2102  0.0955
    5MPD2    C513937   4.224   1.679  12.938  0.4979  0.4880  0.1572
    5MPD2     H13938   3.909   1.729  13.146 -2.2005 -1.0095 -3.7735
    5MPD2    H113939   4.337   1.725  13.096  0.4437  1.2298  0.4462
    5MPD2    H213940   4.091   1.653  12.774  2.4465 -0.8925  0.1035
    5MPD2    H313941   4.318   1.665  12.885  1.6204  1.0363  2.0031
    5MPD2     N13942   4.129   1.783  13.280 -0.1718  0.1650 -0.3242
    5MPD2    H513943   4.035   1.787  13.319 -0.6403  1.7075 -1.5941
    5MPD2    N113944   3.863   1.669  12.894  0.1837 -0.3967 -0.2065
    5MPD2    H713945   3.878   1.666  12.794  0.2734 -1.4722 -0.1606
    6MPD1     C13946   3.877   3.340  13.357  0.7096  0.8171 -0.6941
    6MPD1    C113947   3.869   3.264  13.471 -0.4241 -0.5729 -0.1850
    6MPD1    C213948   3.830   3.130  13.467  0.5416 -0.0695  0.5095
    6MPD1    C313949   3.790   3.075  13.347  0.0402 -0.7388  0.1227
    6MPD1    C413950   3.793   3.154  13.236  0.4810  0.1458  0.2353
    6MPD1    C513951   3.822   3.285  13.242 -0.0466 -0.1889  0.5199
    6MPD1     H13952   3.820   3.064  13.553 -1.9174 -1.5243 -0.8884
    6MPD1    H113953   3.764   3.126  13.135 -0.0729  2.1772 -0.1719
    6MPD1    H213954   3.897   3.445  13.379  0.8460  0.3866  1.2544
    6MPD1    H313955   3.811   3.344  13.151 -0.4917  0.1473  0.7915
    6MPD1     N13956   3.744   2.947  13.324 -0.5102 -0.0859 -0.2192
    6MPD1    H513957   3.745   2.925  13.225 -0.4439 -0.5387 -0.1200
    6MPD1    N113958   3.906   3.317  13.594 -0.0699 -0.6769  0.1476
    6MPD1    H613959   3.875   3.271  13.680  0.6856  0.9415  1.3001
    6MPD1    H713960   3.894   3.418  13.602  0.7927 -0.5608  0.0594
    7MPD2     C13961   3.405   2.120  13.434 -0.4719  0.2687 -0.3961
    7MPD2    C113962   3.412   2.186  13.315 -0.5002  0.1092 -0.5793
    7MPD2    C213963   3.372   2.117  13.201  0.5523  0.6721  0.1441
    7MPD2    C313964   3.346   1.981  13.196 -0.0638 -0.5798 -0.0093
    7MPD2    C413965   3.350   1.923  13.318  0.0949  0.6083  0.6859
    7MPD2    C513966   3.369   1.989  13.440 -0.4248 -1.0123 -0.3687
    7MPD2     H13967   3.382   2.166  13.104 -2.2572 -1.5633 -1.2639
    7MPD2    H113968   3.342   1.815  13.329 -0.6542  0.7061  1.0661
    7MPD2    H213969   3.429   2.173  13.525  1.2245  0.2148 -0.8134
    7MPD2    H313970   3.386   1.943  13.536  0.6220  0.4377  0.1451
    7MPD2     N13971   3.323   1.905  13.080  0.0624  0.3964  0.3960
    7MPD2    H513972   3.279   1.815  13.096  0.9896 -0.1876 -0.3485
    7MPD2    N113973   3.451   2.321  13.305  0.0609  0.2625  0.1355
    7MPD2    H713974   3.435   2.367  13.215 -1.1964  0.6961  0.5799
    8TMC3    C113975   3.424   1.826  12.873  0.0343  0.4226  0.0121
    8TMC3    C213976   3.516   1.741  12.937 -0.2179  0.3163  0.2008
    8TMC3    C313977   3.628   1.698  12.870 -0.2110 -0.0497 -0.4929
    8TMC3    C413978   3.454   1.866  12.749 -0.0851  0.3131 -0.7708
    8TMC3    C513979   3.567   1.826  12.683  0.2247 -0.0778  0.6259
    8TMC3    C613980   3.645   1.730  12.737  0.2331 -0.6550  0.1368
    8TMC3     C13981   3.372   1.938  12.955  0.2917  0.3380 -0.5497
    8TMC3     O13982   3.421   2.041  12.921  0.2833 -0.0873  0.2303
    8TMC3     H13983   3.518   1.737  13.046  0.9463 -0.6041  0.1465
    8TMC3    H113984   3.401   1.945  12.697  2.0722  0.5022 -2.7097
    8TMC3    H213985   3.728   1.689  12.680  0.2105 -1.6435  0.8091
    8TMC3    C713986   3.646   1.941  12.651 -0.9622 -0.4659  0.0836
    8TMC3    C813987   3.743   1.678  12.953  0.4151 -0.1969  0.1920
    8TMC3    O113988   3.737   1.928  12.570 -0.3500 -0.3417 -0.2274
    8TMC3    O213989   3.714   1.658  13.072 -0.2664  0.0526  0.7358
    9TMC3    C113990   3.684   2.718  13.350 -0.4358  0.6356  0.2554
    9TMC3    C213991   3.728   2.700  13.224 -0.3611  0.4869  0.6469
    9TMC3    C313992   3.688   2.589  13.154 -0.1477  0.4401 -0.6602
    9TMC3    C413993   3.599   2.629  13.413  1.4347  0.6092  0.1187
    9TMC3    C513994   3.572   2.516  13.345  0.7445  0.1484 -0.3877
    9TMC3    C613995   3.613   2.499  13.215  0.1708 -0.3717 -0.0065
    9TMC3     C13996   3.708   2.847  13.413  0.8659  0.1454 -0.7854
    9TMC3     O13997   3.707   2.853  13.535  0.0787 -0.3832 -0.3199
    9TMC3     H13998   3.784   2.769  13.162  1.4649 -1.0753  0.5477
    9TMC3    H113999   3.566   2.652  13.514 -1.5427  0.5736 -0.8419
    9TMC3    H214000   3.598   2.399  13.174 -2.0509  0.0285 -0.1776
    9TMC3    C714001   3.516   2.398  13.400 -0.3383  0.5462  0.0517
    9TMC3    C814002   3.763   2.550  13.036 -0.9625  0.3579 -0.1070
    9TMC3    O114003   3.546   2.367  13.512  0.6099  0.6452  0.4663
    9TMC3    O214004   3.873   2.597  13.013  0.2420  0.8584  0.0885
   10MPD2     C14005   3.822   2.180  12.673 -0.4265  0.4958 -0.1690
   10MPD2    C114006   3.702   2.167  12.737  0.2946  0.7588  0.5682
   10MPD2    C214007   3.656   2.259  12.827 -0.1372 -0.5964  0.3240
   10MPD2    C314008   3.738   2.373  12.853  0.1524 -0.3478  0.2310
   10MPD2    C414009   3.858   2.387  12.780 -0.2407 -0.2663 -0.1096
   10MPD2    C514010   3.893   2.298  12.682  0.9633  0.0707 -0.2837
   10MPD2     H14011   3.561   2.245  12.877 -0.6439 -0.0492 -0.4912
   10MPD2    H114012   3.921   2.471  12.806 -1.0481  0.0713  0.7734
   10MPD2    H214013   3.866   2.110  12.603 -0.0461  0.4849  0.0845
   10MPD2    H314014   3.985   2.313  12.627  0.7655 -1.0433 -0.9225
   10MPD2     N14015   3.691   2.451  12.959 -0.3837 -0.7399 -0.1406
   10MPD2    H514016   3.598   2.422  12.986 -0.6308 -0.4726 -0.6996
   10MPD2    N114017   3.615   2.057  12.722  0.3411 -0.2867  0.0036
   10MPD2    H714018   3.536   2.053  12.784 -0.8230  0.8340 -1.3865
   11MPD2     C14019   4.725   1.894  14.178 -0.5670 -0.9674 -0.3145
   11MPD2    C114020   4.693   1.783  14.103 -0.1411 -0.3583  0.4845
   11MPD2    C214021   4.604   1.801  14.002  1.2276 -0.8522 -0.2427
   11MPD2    C314022   4.543   1.924  13.978  0.0673  0.6239 -0.3125
   11MPD2    C414023   4.569   2.031  14.063 -0.0407 -0.0402  0.4281
   11MPD2    C514024   4.656   2.015  14.165  0.3052  0.4743  0.0654
   11MPD2     H14025   4.598   1.719  13.931 -1.2390 -1.5807  0.7946
   11MPD2    H114026   4.513   2.122  14.046 -1.4125 -0.9417  0.0931
   11MPD2    H214027   0.054   1.879  14.262  0.1313  1.0229 -0.5133
   11MPD2    H314028   4.688   2.095  14.229  1.8432  0.5810 -0.8523
   11MPD2     N14029   4.450   1.938  13.871  0.2759 -0.3946 -0.2240
   11MPD2    H514030   4.410   2.031  13.864 -2.0050 -1.5265 -2.4421
   11MPD2    N114031   0.015   1.654  14.116 -0.4805  0.2463 -0.0010
   11MPD2    H714032   4.734   1.591  14.039 -1.0052 -0.3860  0.6335
    1MPD1     C14033   3.458   2.517  17.169  0.1694  0.1572 -0.5156
    1MPD1    C114034   3.491   2.562  17.045 -0.7214 -0.1618 -0.5640
    1MPD1    C214035   3.622   2.597  17.022 -0.6367 -0.1220  0.3732
    1MPD1    C314036   3.705   2.634  17.126  0.3374  0.2143  0.0280
    1MPD1    C414037   3.671   2.597  17.249  0.6390  0.4986  0.3708
    1MPD1    C514038   3.550   2.529  17.268 -0.0253  0.1131 -0.0900
    1MPD1     H14039   3.657   2.619  16.922  0.9160 -0.6581  0.8026
    1MPD1    H114040   3.731   2.616  17.337  1.0693 -0.5350  0.2956
    1MPD1    H214041   3.367   2.464  17.198  0.3797 -0.1938 -0.4983
    1MPD1    H314042   3.534   2.493  17.369 -0.3882 -0.0995 -0.2222
    1MPD1     N14043   3.840   2.685  17.115 -0.0578  0.0685 -0.3428
    1MPD1    H514044   3.885   2.724  17.197  1.7482 -1.3059 -0.6699
    1MPD1    N114045   3.409   2.525  16.933 -0.4883 -0.1807 -0.5767
    1MPD1    H614046   3.416   2.588  16.853 -1.1872 -1.0607 -1.3306
    1MPD1    H714047   3.312   2.529  16.963  0.0047 -1.1783  1.1184
    2MPD1     C14048   4.570   2.233  17.328 -0.2560 -0.7985 -0.8285
    2MPD1    C114049   4.443   2.202  17.292  0.4762 -0.3027  0.5173
    2MPD1    C214050   4.377   2.293  17.210  0.5527  0.0326 -0.3081
    2MPD1    C314051   4.441   2.401  17.156  0.1201 -0.1939  0.2093
    2MPD1    C414052   4.563   2.431  17.195  0.8489  0.1391 -0.1572
    2MPD1    C514053   4.630   2.341  17.274  0.0321 -0.1232  0.2333
    2MPD1     H14054   4.273   2.284  17.183  0.1259 -0.9508  1.6366
    2MPD1    H114055   4.619   2.521  17.171  1.6713 -0.1027  0.8371
    2MPD1    H214056   4.619   2.180  17.409 -0.6992 -0.5992 -0.4339
    2MPD1    H314057   4.724   2.380  17.310  0.7490  0.5055 -2.3193
    2MPD1     N14058   4.358   2.494  17.091  0.0628  0.6624  0.4203
    2MPD1    H514059   4.260   2.469  17.092  0.3840 -0.5649  0.5615
    2MPD1    N114060   4.375   2.096  17.354  0.3380  0.1893 -0.7266
    2MPD1    H614061   4.444   2.031  17.389 -0.7560 -0.5871 -0.0152
    2MPD1    H714062   4.314   2.057  17.282 -1.9950  0.7081  0.9930
    3TMC3    C114063   4.287   2.706  17.040  0.2192 -0.5955  0.5016
    3TMC3    C214064   4.301   2.829  17.076 -0.6104 -0.8572  0.7320
    3TMC3    C314065   4.186   2.905  17.085 -0.3144  0.2378  0.5346
    3TMC3    C414066   4.160   2.651  17.010  1.1973  1.0002  0.0889
    3TMC3    C514067   4.046   2.720  17.020 -0.8964 -0.2039  0.4877
    3TMC3    C614068   4.058   2.854  17.058 -0.1534  0.1850  0.8002
    3TMC3     C14069   4.398   2.621  17.057  0.3245  0.4125  0.0872
    3TMC3     O14070   4.514   2.660  17.056  0.2159 -0.8136  0.4044
    3TMC3     H14071   4.397   2.863  17.112 -2.0729  4.4555 -0.4465
    3TMC3    H114072   4.158   2.555  16.959  0.4991  1.0624  0.0081
    3TMC3    H214073   3.967   2.912  17.060  0.3196  0.9191  0.9123
    3TMC3    C714074   3.922   2.659  17.000  0.1591  0.7504  0.1755
    3TMC3    C814075   4.209   3.049  17.109 -0.5533 -0.2279 -0.4679
    3TMC3    O114076   3.906   2.589  16.903 -0.5251  0.1302  0.1880
    3TMC3    O214077   4.306   3.075  17.176  0.4089  0.6874  0.0129
    4MPD1     C14078   4.077   3.538  17.084 -0.2551 -0.2106 -0.2952
    4MPD1    C114079   3.967   3.467  17.030  0.4399 -0.0518  0.4956
    4MPD1    C214080   3.984   3.330  17.008 -0.3205  0.0414 -0.1176
    4MPD1    C314081   4.095   3.268  17.064  0.2223  0.0447 -0.3078
    4MPD1    C414082   4.190   3.338  17.125  0.1087 -0.3131  0.4391
    4MPD1    C514083   4.194   3.476  17.127 -0.4384  0.0803 -0.1530
    4MPD1     H14084   3.908   3.266  16.966 -0.2930  0.3366 -0.6105
    4MPD1    H114085   4.271   3.290  17.178 -0.1771 -2.1743 -0.8175
    4MPD1    H214086   4.076   3.646  17.088  0.3283 -0.2229  0.1776
    4MPD1    H314087   4.281   3.524  17.170 -2.1258  2.3005  0.7952
    4MPD1     N14088   4.108   3.125  17.062 -0.4275 -0.1663  0.1085
    4MPD1    H514089   4.044   3.079  16.998  0.7144  0.1027 -1.2149
    4MPD1    N114090   3.858   3.538  16.983  0.2358 -0.5020  0.0237
    4MPD1    H614091   3.819   3.602  17.053 -1.5507 -1.5635 -0.0144
    4MPD1    H714092   3.774   3.485  16.964  0.7924 -1.2197 -0.3988
    1TCq1    O114093   3.417   1.906  11.530  0.2324  0.2017  0.0353
    1TCq1    C114094   3.297   1.897  11.479 -1.0459  0.8956  0.3632
    1TCq1    O214095   3.235   1.793  11.453 -0.5126 -0.2442  0.6850
    1TCq1    C214096   3.233   2.026  11.476  0.3544 -0.7529  0.2036
    1TCq1    C314097   3.220   2.093  11.592  0.0523 -0.0392 -0.3400
    1TCq1    C414098   3.141   2.211  11.589  0.0789 -0.4166  0.3301
    1TCq1    C514099   3.048   2.228  11.491  0.0668 -0.4465 -0.0196
    1TCq1    C614100   3.060   2.157  11.374  0.3571  0.3186 -0.1716
    1TCq1    C714101   3.157   2.053  11.367  0.5410  0.5800 -0.3069
    1TCq1    C814102   3.001   2.201  11.247  0.0148  0.3979  0.5905
    1TCq1    O414103   3.006   2.122  11.151  0.2217 -0.2298 -0.3628
    1TCq1    C914104   3.130   2.280  11.719 -0.1202  0.3799 -0.1717
    1TCq1    O514105   3.035   2.368  11.717 -0.0682 -0.1939  0.3523
    1TCq1    O614106   3.229   2.270  11.793 -0.6066  0.0186  0.4087
    1TCq1    H114107   3.450   1.998  11.534 -0.3482  0.4836 -1.6661
    1TCq1    H214108   3.290   2.081  11.674 -0.5396  1.0549  0.3265
    1TCq1    H314109   2.967   2.299  11.507 -0.7407 -1.2479 -0.5103
    1TCq1    H414110   3.177   2.002  11.273 -0.1558 -2.2918  1.1126
    2MPD1     C14111   2.776   2.569  10.965  1.1154 -0.3705 -0.0747
    2MPD1    C114112   2.828   2.620  11.087  0.3320  0.2302 -0.0326
    2MPD1    C214113   2.897   2.538  11.169  0.0059 -0.0321  0.5579
    2MPD1    C314114   2.908   2.404  11.142  0.9083 -0.4840 -0.8849
    2MPD1    C414115   2.858   2.353  11.027  0.4835  0.3271  0.5881
    2MPD1    C514116   2.793   2.427  10.933 -0.4878  0.0211  0.5195
    2MPD1     H14117   2.961   2.574  11.249 -3.1537 -0.0231  3.1101
    2MPD1    H114118   2.853   2.245  11.018 -0.4428  0.4007  0.2373
    2MPD1    H214119   2.719   2.629  10.896  0.1729 -0.5973  0.5011
    2MPD1    H314120   2.749   2.378  10.847 -0.3521  1.5140 -0.4149
    2MPD1     N14121   2.958   2.333  11.250 -0.5650  0.5740  0.0159
    2MPD1    H514122   2.974   2.378  11.339 -1.5499 -3.0435  1.9885
    2MPD1    N114123   2.833   2.756  11.102  0.0687  0.0508  0.2838
    2MPD1    H614124   2.853   2.797  11.194  0.3055 -0.7701  0.5949
    2MPD1    H714125   2.757   2.807  11.058  1.3078  0.6625 -1.1370
    1TMC1    C114126   2.412   3.986   1.086 -0.4743 -0.4859  0.2500
    1TMC1    C214127   2.333   4.062   1.167  0.0272 -0.0588  0.4190
    1TMC1    C314128   2.350   4.058   1.301  0.4758 -0.2800 -0.1740
    1TMC1    C414129   2.514   3.908   1.137 -0.1817  0.0401 -0.0631
    1TMC1    C514130   2.527   3.907   1.272  0.1198  0.0273 -0.3470
    1TMC1    C614131   2.451   3.982   1.361  0.5708 -0.0443 -0.6089
    1TMC1     C14132   2.420   4.014   0.950 -0.3037 -1.0378  0.4001
    1TMC1     O14133   2.381   4.120   0.905 -0.1686 -0.4452 -0.1311
    1TMC1     H14134   2.263   4.136   1.132  2.6466  2.1372 -0.2238
    1TMC1    H114135   2.584   3.853   1.076 -0.7335  0.4216 -1.0495
    1TMC1    H214136   2.442   3.957   1.466 -2.1188  0.8527 -0.6203
    1TMC1    C714137   2.609   3.797   1.327 -1.0633  0.3617 -0.5763
    1TMC1    C814138   2.285   4.162   1.376  0.1716  0.7228 -0.4337
    1TMC1    O114139   2.616   3.687   1.274 -0.3445  0.3933  0.2138
    1TMC1    O214140   2.259   4.272   1.331 -0.2945  0.7656  0.3575
    1TMC1    O314141   2.690   3.850   1.421 -0.3159 -0.6155  0.3019
    1TMC1    H314142   2.676   3.946   1.438  0.8084 -0.5931  1.1730
    1TMC1    O514143   2.213   4.099   1.465 -0.0307  0.1575  0.2793
    1TMC1    H514144   2.225   4.002   1.471  4.5894  0.6628 -0.6496
    2MPD1     C14145   2.527   3.884   0.449  0.1521 -0.2977  0.8744
    2MPD1    C114146   2.564   3.780   0.531 -0.1576  0.3316  1.3072
    2MPD1    C214147   2.530   3.794   0.668 -1.1633 -0.5712  0.3185
    2MPD1    C314148   2.467   3.907   0.729  0.3576  0.4465  0.6110
    2MPD1    C414149   2.442   4.014   0.645 -0.2157 -1.0269  0.2002
    2MPD1    C514150   2.471   3.999   0.508 -0.5021 -0.0525 -0.6986
    2MPD1     H14151   2.555   3.722   0.746  2.1293 -0.1839 -0.3905
    2MPD1    H114152   2.395   4.107   0.675 -2.1122 -1.0967 -2.6143
    2MPD1    H214153   2.555   3.891   0.344  3.1766 -1.1833  1.6377
    2MPD1    H314154   2.461   4.088   0.446 -1.7692  0.5255  0.3386
    2MPD1     N14155   2.450   3.906   0.876 -0.7292  0.8404 -0.0973
    2MPD1    H514156   2.474   3.815   0.914 -2.2803  0.5716  0.2311
    2MPD1    N114157   2.597   3.655   0.476 -0.3654 -0.1065  0.1328
    2MPD1    H614158   2.652   3.672   0.392 -0.5458  0.2520  0.0893
    2MPD1    H714159   2.637   3.598   0.550 -4.4394 -4.6808 -1.1645
    1MPD1     C14160   1.371   2.807  11.799  0.2297  0.2982  0.1563
    1MPD1    C114161   1.252   2.847  11.753  0.5409  0.4917  0.4565
    1MPD1    C214162   1.237   2.979  11.734  0.6418 -0.2545  1.1906
    1MPD1    C314163   1.345   3.060  11.727 -0.0907 -0.0457  0.2267
    1MPD1    C414164   1.470   3.019  11.749 -0.5207  0.0481 -0.6316
    1MPD1    C514165   1.481   2.888  11.794  0.1370 -0.1758  0.3206
    1MPD1     H14166   1.146   3.036  11.713  0.5687  0.5640  3.7256
    1MPD1    H114167   1.557   3.072  11.785 -0.5227  0.9428 -1.9331
    1MPD1    H214168   1.388   2.702  11.823  1.7486 -0.0367 -2.3989
    1MPD1    H314169   1.579   2.856  11.827  0.3345 -0.2650 -0.3646
    1MPD1     N14170   1.316   3.201  11.703  0.0778  0.0409  0.2305
    1MPD1    H514171   1.217   3.224  11.701  0.5145  1.8697 -0.4725
    1MPD1    N114172   1.136   2.765  11.765 -0.6886 -0.2185  0.0629
    1MPD1    H614173   1.064   2.794  11.701 -0.7409 -0.2544  0.1057
    1MPD1    H714174   1.130   2.669  11.732  0.6598  0.1439 -1.2415
    2MPD1     C14175   0.602   2.700  11.938  0.1761 -0.6144  0.3099
    2MPD1    C114176   0.733   2.740  11.925 -0.3127  0.6060  0.1368
    2MPD1    C214177   0.776   2.786  11.802  0.0760 -0.8347 -0.3416
    2MPD1    C314178   0.698   2.771  11.688 -0.6529  0.0550 -0.3688
    2MPD1    C414179   0.572   2.718  11.704  0.4001 -0.1643 -0.0162
    2MPD1    C514180   0.524   2.696  11.834 -0.6121 -0.0544  0.1253
    2MPD1     H14181   0.878   2.820  11.788 -0.6022  0.3073 -2.4411
    2MPD1    H114182   0.505   2.726  11.620  0.1619  0.9412  0.2830
    2MPD1    H214183   0.554   2.688  12.034  0.1009 -0.1959  0.3242
    2MPD1    H314184   0.429   2.645  11.848 -0.6859 -0.5687 -2.1465
    2MPD1     N14185   0.743   2.797  11.556 -0.0169 -0.3676  0.3482
    2MPD1    H514186   0.677   2.772  11.483  0.2368 -0.2096  0.0642
    2MPD1    N114187   0.798   2.782  12.041 -0.4962 -0.4974  0.1093
    2MPD1    H614188   0.760   2.722  12.114 -1.1115 -1.0851 -0.6891
    2MPD1    H714189   0.896   2.759  12.027 -0.7038 -2.4118  1.8617
    3MPD1     C14190   0.234   2.545  11.003 -0.5596  0.6396 -0.0435
    3MPD1    C114191   0.243   2.591  11.134  0.4174  0.6704  0.3053
    3MPD1    C214192   0.365   2.643  11.170 -0.2769  0.4930 -0.4282
    3MPD1    C314193   0.476   2.641  11.090  0.8955 -0.2426  0.3908
    3MPD1    C414194   0.458   2.609  10.955  0.6105 -0.8194 -0.3578
    3MPD1    C514195   0.338   2.546  10.917  0.1820 -0.3449  0.1043
    3MPD1     H14196   0.388   2.665  11.273 -2.9760 -0.9107  0.4557
    3MPD1    H114197   0.540   2.626  10.886  1.4529 -0.1499  0.8013
    3MPD1    H214198   0.136   2.527  10.961 -1.3057  1.0907  1.4982
    3MPD1    H314199   0.320   2.534  10.810 -0.0571 -3.0048  0.4515
    3MPD1     N14200   0.596   2.704  11.138  0.0695  0.6366  0.7022
    3MPD1    H514201   0.585   2.741  11.231  1.5164  0.4727  0.9375
    3MPD1    N114202   0.137   2.606  11.219 -0.5065 -0.0394  0.1089
    3MPD1    H614203   0.083   2.519  11.215 -0.6483 -0.0052  1.2583
    3MPD1    H714204   0.165   2.621  11.315  0.7090  0.1401 -0.2696
    4MPD2     C14205   0.799   3.588  11.580  0.3490 -0.5014  0.6676
    4MPD2    C114206   0.923   3.646  11.556 -0.1157 -0.5320  0.0501
    4MPD2    C214207   0.948   3.690  11.426 -0.4249  0.1177 -0.0810
    4MPD2    C314208   0.860   3.674  11.321 -0.5192 -0.3167 -0.6795
    4MPD2    C414209   0.733   3.617  11.349  0.1031  0.0996 -0.0990
    4MPD2    C514210   0.706   3.574  11.477  0.1795  0.5465 -0.1147
    4MPD2     H14211   1.043   3.738  11.406 -0.1086  0.0171  1.1396
    4MPD2    H114212   0.646   3.613  11.285  0.9257 -0.6692 -1.1841
    4MPD2    H214213   0.782   3.553  11.681  1.4037  0.3314  1.1278
    4MPD2    H314214   0.612   3.524  11.498  1.1446 -0.4439  1.7949
    4MPD2     N14215   0.895   3.728  11.198 -0.5287 -0.4278  0.0232
    4MPD2    H514216   0.984   3.777  11.197 -0.2619 -0.9497 -1.4484
    4MPD2    N114217   1.022   3.664  11.651 -0.6940 -0.5108  0.4241
    4MPD2    H714218   1.105   3.713  11.619 -0.0493 -0.1925  2.5280
    5TMC3    C114219   1.179   3.584  11.799  1.0640  0.6861 -0.3350
    5TMC3    C214220   1.225   3.455  11.778  0.5768  0.4262 -0.0112
    5TMC3    C314221   1.345   3.437  11.706  0.2404  0.9785 -0.5412
    5TMC3    C414222   1.247   3.693  11.754  0.5559 -0.2648 -0.2838
    5TMC3    C514223   1.369   3.672  11.691 -0.2907  0.0454 -0.1053
    5TMC3    C614224   1.417   3.547  11.664 -0.3581  0.2804  0.6124
    5TMC3     C14225   1.036   3.592  11.771  0.0758 -0.0055  0.0815
    5TMC3     O14226   0.963   3.502  11.815 -0.3580 -0.1222 -0.5356
    5TMC3     H14227   1.180   3.367  11.821 -1.2942  1.1684 -0.4836
    5TMC3    H114228   1.211   3.793  11.776 -1.7056 -0.9028 -1.0978
    5TMC3    H214229   1.502   3.531  11.599 -2.2972 -1.6269 -1.4532
    5TMC3    C714230   1.367   3.759  11.575 -0.0580  0.6260  0.1037
    5TMC3    C814231   1.406   3.303  11.700  0.3601  0.2926  0.4739
    5TMC3    O114232   1.255   3.789  11.534  0.4302  0.4488  0.2426
    5TMC3    O214233   1.523   3.296  11.671 -0.1224 -0.1192 -0.0338
    6TMC3    C114234   0.898   2.819  11.382  0.3875 -0.2720 -0.1671
    6TMC3    C214235   0.808   2.755  11.307  0.7488  0.7356 -0.2603
    6TMC3    C314236   0.826   2.759  11.166 -0.0323  0.1659  0.0364
    6TMC3    C414237   1.005   2.890  11.335  0.0582 -0.5712  0.2054
    6TMC3    C514238   1.012   2.899  11.194  0.0387  1.0600  0.3575
    6TMC3    C614239   0.934   2.822  11.112  0.1748  0.5500 -0.2254
    6TMC3     C14240   0.866   2.836  11.518 -0.2634  0.3699  0.9128
    6TMC3     O14241   0.960   2.871  11.588 -0.1149  0.5299 -0.0857
    6TMC3     H14242   0.727   2.695  11.348  0.8496  0.6799 -0.1426
    6TMC3    H114243   1.068   2.954  11.396 -0.2911  1.9702 -2.1234
    6TMC3    H214244   0.941   2.832  11.004 -0.0915 -1.4286 -0.4311
    6TMC3    C714245   1.078   3.017  11.139 -0.3709  0.1883  0.6106
    6TMC3    C814246   0.720   2.703  11.078  0.2416  0.1836 -0.1839
    6TMC3    O114247   1.046   3.061  11.032 -0.5725  0.7384  0.5729
    6TMC3    O214248   0.762   2.651  10.972 -0.1618  0.0588  0.5019
    7MPD2     C14249   1.573   3.838  11.115  0.1711 -0.9325 -0.7197
    7MPD2    C114250   1.445   3.841  11.156 -0.5587 -0.7900  0.0915
    7MPD2    C214251   1.421   3.816  11.293 -1.0053  0.1107 -0.9360
    7MPD2    C314252   1.526   3.786  11.376 -0.3700 -0.8544  0.0959
    7MPD2    C414253   1.656   3.786  11.337  0.1119 -0.3385 -0.3880
    7MPD2    C514254   1.675   3.800  11.200  0.2310  0.2805  1.1795
    7MPD2     H14255   1.317   3.799  11.319 -1.0305 -1.3460 -1.9789
    7MPD2    H114256   1.733   3.735  11.393  1.1490  0.4214 -1.1102
    7MPD2    H214257   1.593   3.841  11.009 -0.9458  0.4398 -0.9000
    7MPD2    H314258   1.775   3.800  11.157  0.3550  1.6003  1.4590
    7MPD2     N14259   1.492   3.748  11.513  0.1214 -0.0514  0.3026
    7MPD2    H514260   1.567   3.717  11.573  2.0233  0.0985 -2.0196
    7MPD2    N114261   1.346   3.853  11.056 -0.1213 -0.1982 -0.1634
    7MPD2    H714262   1.380   3.863  10.961  0.3395  0.7134  0.1075
    8TMC3    C114263   1.135   3.835  10.948 -0.0980  0.7127  0.1316
    8TMC3    C214264   1.183   3.718  10.892 -0.3128  0.3222 -0.6194
    8TMC3    C314265   1.089   3.619  10.876  0.1991  0.2323 -0.2520
    8TMC3    C414266   1.002   3.855  10.976  0.4131 -0.2306  0.4590
    8TMC3    C514267   0.913   3.754  10.958  0.1184 -0.3356 -0.0440
    8TMC3    C614268   0.957   3.645  10.897  0.1957  0.0829  0.5947
    8TMC3     C14269   1.210   3.862  11.071 -0.0964  1.2413  0.2596
    8TMC3     O14270   1.144   3.851  11.175  0.5494 -0.3427 -0.3143
    8TMC3     H14271   1.286   3.690  10.873 -0.3941 -2.7168  3.3924
    8TMC3    H114272   0.967   3.933  11.044  0.2754 -0.7854  1.0188
    8TMC3    H214273   0.892   3.559  10.900 -0.8376  0.9210  2.3052
    8TMC3    C714274   0.828   3.711  11.076 -0.1197 -0.1666 -0.0375
    8TMC3    C814275   1.125   3.492  10.938 -0.4135  0.4604 -0.1864
    8TMC3    O114276   0.738   3.634  11.055  0.2007  0.0677 -0.0709
    8TMC3    O214277   1.079   3.388  10.883 -0.2141  0.1493  0.2277
    9MPD2     C14278   1.364   3.434  11.204 -0.2841  0.4676  0.0853
    9MPD2    C114279   1.249   3.411  11.130 -0.2624 -0.8919 -0.1881
    9MPD2    C214280   1.192   3.286  11.138 -0.8585 -0.0125 -0.7075
    9MPD2    C314281   1.252   3.191  11.217 -0.3638  0.3123  0.1002
    9MPD2    C414282   1.359   3.223  11.300  0.0709 -0.2460  0.1725
    9MPD2    C514283   1.425   3.339  11.280  0.0782 -0.1848  0.2317
    9MPD2     H14284   1.101   3.265  11.084 -1.4723 -1.2868  0.8206
    9MPD2    H114285   1.409   3.138  11.346 -0.9806 -0.7351  0.4366
    9MPD2    H214286   1.412   3.529  11.187 -0.3103  0.7915  1.8155
    9MPD2    H314287   1.520   3.353  11.330 -0.3029 -1.0624  1.2271
    9MPD2     N14288   1.187   3.062  11.223 -0.2110 -0.3474 -0.0321
    9MPD2    H514289   1.225   2.993  11.286  2.2388 -0.1876 -1.3051
    9MPD2    N114290   1.207   3.510  11.040  0.3608  0.0780  0.4286
    9MPD2    H714291   1.229   3.604  11.071  1.4171  1.0390 -3.2428
    1MPD1     C14292   0.630   2.594  16.581  0.2655  0.1090 -0.0109
    1MPD1    C114293   0.689   2.577  16.701 -0.2855  0.1172  0.3247
    1MPD1    C214294   0.650   2.467  16.782  0.3955 -0.2153 -0.1439
    1MPD1    C314295   0.548   2.381  16.747  0.4511 -0.5360  0.5755
    1MPD1    C414296   0.478   2.412  16.632  0.1992 -0.1972  0.4203
    1MPD1    C514297   0.518   2.520  16.550  0.4748 -0.1909  1.0706
    1MPD1     H14298   0.702   2.448  16.875 -0.7777 -2.0821  0.1216
    1MPD1    H114299   0.398   2.349  16.595 -0.6929  0.7008  0.8212
    1MPD1    H214300   0.664   2.671  16.512  1.8504 -0.4710  0.1304
    1MPD1    H314301   0.471   2.531  16.453 -1.9980  0.9655  2.4073
    1MPD1     N14302   0.512   2.269  16.826  0.3274  0.4103  0.1730
    1MPD1    H514303   0.424   2.224  16.802  0.4698  0.1997  0.0470
    1MPD1    N114304   0.806   2.648  16.728 -0.2470 -0.0566 -0.1975
    1MPD1    H614305   0.808   2.740  16.684  0.4850  0.1425  0.2534
    1MPD1    H714306   0.825   2.656  16.828  0.5546  0.8822 -0.4339
    2TMC2    C114307   0.464   2.003  17.216 -0.4575  0.7139 -0.1701
    2TMC2    C214308   0.401   1.902  17.146 -0.0155 -0.3238  0.1673
    2TMC2    C314309   0.392   1.913  17.013  0.5509 -0.0829  0.5190
    2TMC2    C414310   0.501   2.119  17.146 -0.2095 -0.1030 -0.1987
    2TMC2    C514311   0.489   2.133  17.009  0.1685  0.6808  0.5778
    2TMC2    C614312   0.423   2.033  16.948 -0.0137 -0.1087 -0.5024
    2TMC2     C14313   0.489   1.976  17.357  0.5756 -0.3388 -0.0435
    2TMC2     O14314   0.445   1.870  17.398  0.3657  0.3212 -0.5998
    2TMC2     H14315   0.384   1.803  17.186 -0.6209  0.3686  1.5978
    2TMC2    H114316   0.552   2.200  17.196  1.9272  0.1430 -2.7852
    2TMC2    H214317   0.455   2.011  16.847  0.3929  0.3599 -0.4761
    2TMC2    C714318   0.572   2.222  16.936  0.0803  0.7579 -0.1801
    2TMC2    C814319   0.322   1.805  16.936  0.5253 -0.1282 -0.2113
    2TMC2    O114320   0.659   2.270  17.007 -0.9501 -0.3524 -0.1032
    2TMC2    O214321   0.304   1.696  16.985 -0.4533 -0.0131 -0.5819
    2TMC2    O514322   0.299   1.829  16.807 -0.3039 -0.1695  0.6665
    2TMC2    H514323   0.310   1.924  16.782 -1.5270 -0.5248 -1.2354
    3MPD1     C14324   0.494   2.117   0.095  0.0306 -0.5904 -0.0004
    3MPD1    C114325   0.558   2.220   0.026  0.6217 -0.4926  0.2206
    3MPD1    C214326   0.552   2.218  17.639 -0.1187  0.0454  0.0411
    3MPD1    C314327   0.514   2.102  17.570  0.2894  0.4233  0.0397
    3MPD1    C414328   0.453   2.003  17.643 -0.0487 -0.4831  0.2368
    3MPD1    C514329   0.449   2.009   0.027 -0.0329  0.3651 -0.2115
    3MPD1     H14330   0.595   2.303  17.589  0.5378 -0.4909 -0.3045
    3MPD1    H114331   0.400   1.916  17.606 -0.7094 -0.4147  1.0236
    3MPD1    H214332   0.479   2.130   0.202  0.5022 -2.1561  0.2529
    3MPD1    H314333   0.386   1.941   0.084 -0.6135  1.0925  0.0142
    3MPD1     N14334   0.524   2.087  17.428  0.4029  0.5199 -0.0988
    3MPD1    H514335   0.568   2.163  17.377  1.2451  0.0125 -0.1243
    3MPD1    N114336   0.585   2.348   0.081 -0.2170 -0.0421  0.0680
    3MPD1    H614337   0.614   2.348   0.178  1.5011 -1.2874 -0.4520
    3MPD1    H714338   0.653   2.396   0.022 -2.3842  2.1102 -0.7198
    1TMC1    C114339   3.438   0.620  12.640 -0.1522 -0.5187 -0.2888
    1TMC1    C214340   3.345   0.576  12.730  0.5203  0.3157  0.0945
    1TMC1    C314341   3.213   0.581  12.697  0.6862 -0.0043  0.2854
    1TMC1    C414342   3.401   0.662  12.522 -0.8599 -0.6184 -0.0458
    1TMC1    C514343   3.272   0.671  12.489 -1.0300 -0.5013 -0.4293
    1TMC1    C614344   3.174   0.633  12.581 -0.4799  0.4362  0.4322
    1TMC1     C14345   3.575   0.602  12.665 -0.9799 -0.2806  0.2633
    1TMC1     O14346   3.649   0.628  12.568 -0.0672  0.7119 -0.4745
    1TMC1     H14347   3.369   0.530  12.825  0.7251 -1.2118 -0.7021
    1TMC1    H114348   3.478   0.702  12.457 -0.3791  2.5733  2.4616
    1TMC1    H214349   3.069   0.650  12.561 -0.4684 -1.4121 -1.2233
    1TMC1    C714350   3.234   0.723  12.362 -0.2349 -0.0815  0.6250
    1TMC1    C814351   3.113   0.553  12.797 -0.3792 -0.3316  0.6550
    1TMC1    O114352   3.283   0.691  12.258 -0.0891  0.4060 -0.2322
    1TMC1    O214353   3.125   0.480  12.898  0.3756  0.1586 -0.4954
    1TMC1    O314354   3.137   0.815  12.382  0.1542 -0.0198 -0.5454
    1TMC1    H314355   3.132   0.854  12.472 -1.9437 -0.6907 -0.3587
    1TMC1    O514356   3.000   0.618  12.759 -0.7471  0.1691 -1.2760
    1TMC1    H514357   3.016   0.696  12.702 -0.3611  0.3540 -0.9172
    2MPD2     C14358   3.848   0.522  12.748 -0.0029 -0.9318 -0.1626
    2MPD2    C114359   3.743   0.555  12.836 -0.3473  0.1585 -0.9771
    2MPD2    C214360   3.779   0.587  12.963 -0.4496  0.4390  0.4430
    2MPD2    C314361   3.898   0.563  13.023 -0.5413  0.5007 -0.5163
    2MPD2    C414362   3.998   0.527  12.946 -0.5505 -0.4309 -0.4628
    2MPD2    C514363   3.973   0.512  12.805  0.8454 -0.3818 -0.2442
    2MPD2     H14364   3.705   0.635  13.025  0.2528  0.4791  1.2429
    2MPD2    H114365   4.095   0.518  12.993  0.1000 -2.0174 -2.0890
    2MPD2    H214366   3.841   0.508  12.640 -1.6301 -1.0703 -0.0332
    2MPD2    H314367   4.051   0.476  12.738  1.8250 -0.7301  1.0661
    2MPD2     N14368   3.922   0.599  13.155 -0.3472 -0.0384 -0.0645
    2MPD2    H514369   3.844   0.642  13.204  0.0524  1.8010 -1.0635
    2MPD2    N114370   3.609   0.574  12.804  0.2747  0.4017  0.3863
    2MPD2    H714371   3.539   0.576  12.877 -1.3981 -0.4100 -1.2068
    3TCq1    O114372   3.850   0.849  13.685 -0.1012 -0.0212  0.2915
    3TCq1    C114373   3.787   0.793  13.581 -0.7806  0.0225 -0.4740
    3TCq1    O214374   3.698   0.847  13.516 -0.3078  0.3611 -0.4620
    3TCq1    C214375   3.874   0.684  13.533 -0.5766 -0.3169  0.3299
    3TCq1    C314376   3.926   0.596  13.627  1.0181 -0.1664  0.3991
    3TCq1    C414377   4.016   0.512  13.582  0.3010 -0.9553  0.4572
    3TCq1    C514378   4.066   0.512  13.453  0.5304  1.2619  0.4432
    3TCq1    C614379   4.014   0.601  13.364 -0.8077  0.2563 -0.2356
    3TCq1    C714380   3.921   0.692  13.405  0.1555  0.1264  0.1889
    3TCq1    C814381   4.042   0.580  13.225 -0.1957 -0.5073  0.0152
    3TCq1    O414382   4.138   0.514  13.198 -0.0855 -0.2697  0.0538
    3TCq1    C914383   4.074   0.415  13.671  0.1495  0.3069  0.3562
    3TCq1    O514384   4.074   0.447  13.794 -0.0675 -0.4834  0.1299
    3TCq1    O614385   4.132   0.311  13.617 -0.2786 -0.2711  0.8559
    3TCq1    H114386   3.938   0.811  13.703 -1.1510 -2.3765  0.5499
    3TCq1    H214387   3.876   0.582  13.723  0.5281  0.3552  0.2181
    3TCq1    H314388   4.141   0.442  13.419 -0.0581  0.7464  0.2005
    3TCq1    H414389   3.889   0.771  13.338  1.0196  0.8743  0.6616
    1MPD2     C14390   3.228   1.314  15.049 -0.2850  0.3769  0.1255
    1MPD2    C114391   3.101   1.271  15.056  0.3258  0.2432 -0.4584
    1MPD2    C214392   3.074   1.133  15.061  0.5862 -0.1302 -0.6481
    1MPD2    C314393   3.180   1.047  15.068  0.4418  0.5131  0.4072
    1MPD2    C414394   3.309   1.093  15.072  0.4010  0.2997 -0.4295
    1MPD2    C514395   3.335   1.223  15.055  0.4580  0.5369  0.1585
    1MPD2     H14396   2.973   1.093  15.068  0.5385  0.5846  2.7069
    1MPD2    H114397   3.394   1.025  15.073 -0.9161 -1.3808 -1.8461
    1MPD2    H214398   3.256   1.419  15.045  0.1994  0.2100 -0.8058
    1MPD2    H314399   3.435   1.265  15.060  0.6382  0.0499  0.5667
    1MPD2     N14400   3.154   0.913  15.082 -0.0031  0.6173  0.1608
    1MPD2    H514401   3.053   0.904  15.085 -0.0907  1.1079 -1.3096
    1MPD2    N114402   2.994   1.358  15.031  0.7380  0.0871 -0.1010
    1MPD2    H714403   3.014   1.453  15.001 -0.1544  0.4669  0.5077
    2TMC3    C114404   2.771   1.426  15.009  0.0923  0.1609 -1.0585
    2TMC3    C214405   2.640   1.385  15.030 -0.2458 -0.1384 -0.0681
    2TMC3    C314406   2.550   1.389  14.922 -0.1425  0.1535 -0.1243
    2TMC3    C414407   2.806   1.484  14.890 -0.1790  0.2941  0.0547
    2TMC3    C514408   2.712   1.489  14.795 -0.1822 -0.1209  0.0441
    2TMC3    C614409   2.590   1.445  14.806 -0.4147  0.0070 -0.2465
    2TMC3     C14410   2.863   1.334  15.070  0.0815 -0.2684 -0.1982
    2TMC3     O14411   2.812   1.243  15.131  0.0929 -0.3045  0.1100
    2TMC3     H14412   2.612   1.336  15.123 -0.1110  0.2001  0.1520
    2TMC3    H114413   2.908   1.500  14.858  0.6357  0.1993  2.6566
    2TMC3    H214414   2.517   1.443  14.726  1.7498 -0.8920 -2.1917
    2TMC3    C714415   2.747   1.547  14.668  0.6829  0.0615 -0.0750
    2TMC3    C814416   2.509   1.248  14.904  0.3782 -0.5598 -0.4421
    2TMC3    O114417   2.669   1.532  14.576 -0.1927  0.1762 -0.3644
    2TMC3    O214418   2.431   1.236  14.809  0.4241  0.4600  0.8730
    3TCq1    O114419   3.051   2.667  14.524  0.4611  0.1341 -0.1858
    3TCq1    C114420   3.124   2.635  14.633 -0.6836 -0.4653  0.0342
    3TCq1    O214421   3.202   2.705  14.694  0.3725 -0.5799  0.0952
    3TCq1    C214422   3.121   2.489  14.655 -0.3457  0.0754 -0.2909
    3TCq1    C314423   3.201   2.451  14.758 -0.3332  0.4399 -0.1278
    3TCq1    C414424   3.253   2.323  14.759  0.3718  0.1346  0.0422
    3TCq1    C514425   3.208   2.238  14.668  0.4104  0.2881 -0.4002
    3TCq1    C614426   3.126   2.277  14.567 -0.4109  0.0814 -0.0848
    3TCq1    C714427   3.080   2.405  14.559  0.6652  0.0586 -0.3084
    3TCq1    C814428   3.062   2.175  14.481  0.4792  0.5072  0.8664
    3TCq1    O414429   3.015   2.221  14.380 -0.3251  0.0938 -0.3328
    3TCq1    C914430   3.344   2.291  14.863  0.6468  0.6468 -0.3702
    3TCq1    O514431   3.345   2.362  14.964 -0.0156 -0.0051  0.3750
    3TCq1    O614432   3.384   2.171  14.871  0.2855  0.0497  0.1552
    3TCq1    H114433   3.061   2.762  14.498 -0.1717  0.4786  0.8523
    3TCq1    H214434   3.229   2.517  14.839 -1.8895 -0.6158  1.2575
    3TCq1    H314435   3.261   2.143  14.668  1.9526  1.1337  1.9298
    3TCq1    H414436   3.022   2.439  14.474 -0.3208  1.5142  0.9226
    4MPD2     C14437   2.960   1.910  14.374  0.1848  0.0114 -0.6157
    4MPD2    C114438   2.995   1.936  14.504  0.9673  0.4537  0.3762
    4MPD2    C214439   2.960   1.840  14.601 -0.3928  0.1280 -0.5380
    4MPD2    C314440   2.882   1.729  14.570 -0.2252 -0.4291  0.6405
    4MPD2    C414441   2.856   1.700  14.436 -0.6069 -0.6654 -0.2606
    4MPD2    C514442   2.890   1.796  14.342  0.0486 -0.1532  0.0166
    4MPD2     H14443   2.980   1.856  14.706 -2.5466 -2.2703  0.2374
    4MPD2    H114444   2.800   1.613  14.405 -0.9018 -1.3685  2.2748
    4MPD2    H214445   2.974   1.984  14.296  0.4833 -0.3972 -0.9488
    4MPD2    H314446   2.867   1.787  14.236 -0.7227 -0.3859  0.2044
    4MPD2     N14447   2.843   1.648  14.680  0.5142  0.2286  0.4385
    4MPD2    H514448   2.867   1.685  14.771 -0.5740  1.7189  0.1286
    4MPD2    N114449   3.058   2.056  14.544  0.1972 -0.0040 -0.4730
    4MPD2    H714450   3.078   2.043  14.643 -0.4259  0.4766 -0.2839
    5TMC2    C114451   2.949   0.594  15.147 -0.5789 -0.1651 -0.4530
    5TMC2    C214452   2.992   0.507  15.244 -0.1108 -0.8023  0.5212
    5TMC2    C314453   3.125   0.504  15.271 -0.0693  0.1150 -0.3485
    5TMC2    C414454   3.030   0.682  15.083  0.5770  0.3886 -0.6671
    5TMC2    C514455   3.161   0.681  15.120  0.3211 -0.0416 -0.2948
    5TMC2    C614456   3.210   0.594  15.209  0.1000  0.3834 -0.0208
    5TMC2     C14457   2.813   0.602  15.095 -0.5394  0.1622 -0.0749
    5TMC2     O14458   2.763   0.510  15.033  0.0786 -0.2458  0.3925
    5TMC2     H14459   2.928   0.435  15.294 -3.1578  1.7295  0.2454
    5TMC2    H114460   2.994   0.737  14.997 -0.7054  1.7978  0.7741
    5TMC2    H214461   3.318   0.591  15.215  0.1932  0.0777 -2.1228
    5TMC2    C714462   3.240   0.806  15.091 -0.1847 -0.2478 -0.1259
    5TMC2    C814463   3.163   0.437  15.390 -0.2306 -0.4259  0.2481
    5TMC2    O114464   3.360   0.796  15.106  0.0866  0.4240  0.3716
    5TMC2    O214465   3.119   0.326  15.428  0.8218 -0.1180  0.2704
    5TMC2    O514466   3.254   0.510  15.457  0.1893 -0.7877 -0.0427
    5TMC2    H514467   3.272   0.601  15.426 -2.9289  0.3091  1.2936
    6MPD2     C14468   2.494   0.953  14.876  0.0603 -0.4194 -0.2916
    6MPD2    C114469   2.583   1.015  14.963  0.1685  0.1049 -0.3291
    6MPD2    C214470   2.673   0.944  15.037 -0.2788  0.2835  0.0763
    6MPD2    C314471   2.678   0.804  15.028 -0.3943 -0.4593  0.0511
    6MPD2    C414472   2.588   0.738  14.943  0.9320 -0.2896 -0.3818
    6MPD2    C514473   2.505   0.813  14.865  0.3105  0.0996  0.4053
    6MPD2     H14474   2.740   0.995  15.106  2.1336 -1.6290 -0.8504
    6MPD2    H114475   2.571   0.631  14.931  2.2814 -0.6315  0.7997
    6MPD2    H214476   2.428   1.003  14.806  1.3214  1.8619  0.1571
    6MPD2    H314477   2.435   0.761  14.801 -1.0841  0.5292  1.5659
    6MPD2     N14478   2.775   0.736  15.104  0.0359  0.1170 -0.2226
    6MPD2    H514479   2.837   0.793  15.162 -0.0948  0.1919 -0.1577
    6MPD2    N114480   2.588   1.160  14.975 -0.4369 -0.1945  0.3957
    6MPD2    H714481   2.663   1.193  15.035 -0.2805  1.0255 -0.4701
  945NH3     N114482   0.342   1.816  14.145  0.1437  0.8584 -0.4042
  945NH3     H214483   0.417   1.748  14.135 -2.3492 -2.3543  2.7565
  945NH3     H314484   0.280   1.792  14.222 -1.4782 -0.2473 -2.0655
  945NH3     H414485   0.285   1.818  14.061  1.5178  1.3206 -1.3179
  946SOD     NA14486   3.388   2.330  12.462 -0.0710  0.2420 -0.1289
  947SOD     NA14487   4.554   2.438   2.318 -0.2082 -0.0589 -0.4954
  948SOD     NA14488   2.740   0.276  13.810 -0.1615  0.0569 -0.2117
  949SOD     NA14489   4.221   4.549   9.235 -0.0566  0.0308  0.2346
  950SOD     NA14490   3.978   1.972   9.734 -0.4325 -0.3031  0.2056
  951SOD     NA14491   1.835   2.778   9.421 -0.1882  0.2027 -0.2130
  952SOD     NA14492   0.611   2.848  12.999  0.3417 -0.3594 -0.1050
  953SOD     NA14493   3.723   3.778  16.041 -0.4139 -0.3752  0.1523
  954SOL     OW14494   1.033   2.688   2.711 -0.3043  0.1696  0.5629
  954SOL    HW114495   0.958   2.655   2.662 -0.0012  0.5179 -0.1466
  954SOL    HW214496   1.025   2.783   2.710  1.4006  0.3231  1.4551
  955SOL     OW14497   1.306   1.726   0.038  0.1184  0.1623 -0.3583
  955SOL    HW114498   1.225   1.703  17.741 -1.8410  2.7952  1.8173
  955SOL    HW214499   1.299   1.821   0.033 -1.9446  0.0979  1.2690
  956SOL     OW14500   3.154   4.631   9.030 -0.3348 -0.4382 -0.6286
  956SOL    HW114501   3.177   4.712   9.075  0.4424 -0.4204 -1.0565
  956SOL    HW214502   3.146   4.572   9.105  1.1467  1.6741  1.2118
  957SOL     OW14503   3.710   2.605   5.253  0.3723 -0.6451 -0.5248
  957SOL    HW114504   3.733   2.683   5.304  0.4048 -0.9633 -0.0527
  957SOL    HW214505   3.761   2.611   5.173  0.0708 -0.6143 -0.7168
  958SOL     OW14506   2.719   3.164   8.096  0.2576 -0.4818 -0.7341
  958SOL    HW114507   2.776   3.239   8.113 -2.1668  1.2231 -0.0454
  958SOL    HW214508   2.756   3.123   8.018  0.9122  1.0063 -1.2006
  959SOL     OW14509   0.880   1.912  10.983 -0.4169  0.0880  0.3210
  959SOL    HW114510   0.813   1.980  10.976 -1.0519 -0.4941  0.7289
  959SOL    HW214511   0.904   1.917  11.076 -0.0218  1.0452  0.1649
  960SOL     OW14512   2.332   0.056   3.086  0.7071 -0.3967  0.1933
  960SOL    HW114513   2.357   4.715   3.134  0.0486 -0.4454  0.4672
  960SOL    HW214514   2.373   0.121   3.142 -0.4679  0.5077  0.0120
  961SOL     OW14515   3.634   0.086  17.183 -0.3573 -0.5692  0.5573
  961SOL    HW114516   3.660   0.006  17.138  0.9047  0.0104  0.2831
  961SOL    HW214517   3.590   0.054  17.263 -2.3544 -0.0400 -0.3218
  962SOL     OW14518   0.703   0.038  15.499  0.0169 -0.2811 -0.5037
  962SOL    HW114519   0.654   0.107  15.542 -1.2389 -1.1668 -0.5133
  962SOL    HW214520   0.791   0.069  15.477  0.5954 -0.8694  0.9993
  963SOL     OW14521   3.698   0.789   9.272  0.2729 -0.2265  0.2680
  963SOL    HW114522   3.666   0.749   9.353  0.9052  1.3394  1.2819
  963SOL    HW214523   3.779   0.737   9.270  1.9686  2.3508  1.8123
  964SOL     OW14524   0.876   1.495   5.681 -0.4562  0.1174 -0.1851
  964SOL    HW114525   0.853   1.469   5.592  0.8732  0.5561 -0.6610
  964SOL    HW214526   0.792   1.533   5.704  0.2309  1.4214  0.2005
  965SOL     OW14527   3.748   1.977   6.612  0.1203  0.3287 -0.3851
  965SOL    HW114528   3.826   1.963   6.559 -0.9662 -0.0489 -1.9042
  965SOL    HW214529   3.714   2.057   6.571 -0.8971  0.2084  0.2063
  966SOL     OW14530   3.199   1.794   2.491  0.3499 -0.2595  0.3855
  966SOL    HW114531   3.223   1.739   2.565 -0.8425  0.3369  1.2217
  966SOL    HW214532   3.291   1.810   2.471 -0.0328  0.2792 -0.9492
  967SOL     OW14533   2.178   2.230   8.425 -0.4272  0.1997 -0.5426
  967SOL    HW114534   2.244   2.214   8.357 -0.7132  0.4905 -0.8892
  967SOL    HW214535   2.228   2.295   8.474  3.4316  0.2155 -4.4778
  968SOL     OW14536   2.398   1.528   8.600  0.2708  0.2049  0.2139
  968SOL    HW114537   2.380   1.448   8.552  1.3610 -0.0848  0.2718
  968SOL    HW214538   2.493   1.521   8.611  0.4095  0.4851 -0.8449
  969SOL     OW14539   1.191   1.359   8.431 -0.1808  0.2052  0.1550
  969SOL    HW114540   1.193   1.329   8.521 -0.1120 -1.1830 -0.3040
  969SOL    HW214541   1.116   1.417   8.440 -0.5879 -0.1655 -0.8224
  970SOL     OW14542   2.297   3.319   1.672 -0.2590 -0.8557 -0.2198
  970SOL    HW114543   2.366   3.376   1.638 -0.3016 -1.5791 -1.4912
  970SOL    HW214544   2.259   3.353   1.754  1.3890  0.6840 -0.0849
  971SOL     OW14545   2.401   1.753   2.381  0.6867 -0.3672 -0.4128
  971SOL    HW114546   2.435   1.672   2.418 -1.5438 -0.4070  1.5413
  971SOL    HW214547   2.311   1.763   2.411  0.3562 -1.8730 -0.9138
  972SOL     OW14548   4.307   0.562   2.187 -0.1337 -0.0761  0.7500
  972SOL    HW114549   4.364   0.629   2.224  0.3078  0.3081 -0.6011
  972SOL    HW214550   4.258   0.533   2.264  1.1171  0.3430  1.6986
  973SOL     OW14551   4.206   0.879   9.021  0.0588 -0.1814  0.0374
  973SOL    HW114552   4.232   0.892   9.112  1.7586 -0.9117 -0.3436
  973SOL    HW214553   4.134   0.942   9.023 -0.7809 -1.1624  0.0786
  974SOL     OW14554   1.337   2.782   2.090 -0.3429 -0.3008  0.7216
  974SOL    HW114555   1.267   2.803   2.028  0.8176  3.6485  0.7594
  974SOL    HW214556   1.293   2.804   2.172  0.7884  0.3171  1.1657
  975SOL     OW14557   4.536   0.296   8.772  0.9813  0.1328 -0.3042
  975SOL    HW114558   4.489   0.356   8.714 -2.2089 -3.4036 -1.3774
  975SOL    HW214559   4.598   0.361   8.806  0.0776  1.3911 -1.0639
  976SOL     OW14560   4.071   0.474   1.466 -0.5374 -0.2793 -0.0448
  976SOL    HW114561   4.142   0.538   1.473 -1.1425  0.2422  1.1945
  976SOL    HW214562   3.997   0.534   1.464  0.7518  1.2569 -1.6255
  977SOL     OW14563   1.644   2.983   9.914 -0.1716  0.3172 -0.8831
  977SOL    HW114564   1.587   3.041   9.963  0.5639  0.3830 -0.1090
  977SOL    HW214565   1.686   3.048   9.858  0.3369 -1.5328 -2.6828
  978SOL     OW14566   2.267   0.512   8.086 -0.1146 -0.3412  0.0142
  978SOL    HW114567   2.247   0.606   8.077 -1.7215 -0.5072  1.7286
  978SOL    HW214568   2.341   0.505   8.027  1.4406 -1.5560  2.1083
  979SOL     OW14569   4.556   1.328   1.454 -0.1821 -0.2724  0.1722
  979SOL    HW114570   4.531   1.308   1.364 -0.0734  0.7281 -0.0703
  979SOL    HW214571   4.526   1.245   1.493  0.2546 -0.8526 -0.7389
  980SOL     OW14572   2.718   3.608   2.101  0.1961 -0.5880  0.0865
  980SOL    HW114573   2.724   3.658   2.182 -1.1824 -1.4111  0.7056
  980SOL    HW214574   2.688   3.675   2.039  1.1438  0.3931  0.6920
  981SOL     OW14575   2.237   0.071   2.842 -0.2780 -0.0343  0.0549
  981SOL    HW114576   2.264   0.088   2.932  0.4118 -0.8893  0.0070
  981SOL    HW214577   2.230   0.163   2.815  1.0759  0.0770  0.1177
  982SOL     OW14578   3.635   2.212   9.378  0.3004  0.2022 -0.1000
  982SOL    HW114579   3.681   2.294   9.394 -0.3337  0.3957  0.7144
  982SOL    HW214580   3.711   2.154   9.370 -1.6361 -1.9251 -3.2240
  983SOL     OW14581   1.887   4.108  13.938 -0.6773 -0.8551  0.1896
  983SOL    HW114582   1.828   4.095  13.863 -1.0248  1.0319  0.1450
  983SOL    HW214583   1.841   4.072  14.014 -1.5015 -1.4838 -0.6054
  984SOL     OW14584   3.151   1.032  15.427 -0.3023 -0.1172 -0.1358
  984SOL    HW114585   3.136   1.070  15.513  2.7560  1.9563 -0.4929
  984SOL    HW214586   3.221   1.087  15.391 -0.3464  0.1882  0.2562
  985SOL     OW14587   2.017   0.691   8.733  0.0843 -0.0059 -0.1706
  985SOL    HW114588   2.050   0.612   8.691  0.1290  0.5586 -1.2037
  985SOL    HW214589   2.014   0.744   8.653 -0.0978 -0.3540 -0.3931
  986SOL     OW14590   3.476   0.472   8.883  0.6194  0.5688 -0.6334
  986SOL    HW114591   3.567   0.442   8.878 -0.5308 -2.9240 -0.6559
  986SOL    HW214592   3.496   0.548   8.937 -1.8908 -0.0728  1.1845
  987SOL     OW14593   3.353   4.412   6.335  0.0393  0.1542 -0.5741
  987SOL    HW114594   3.406   4.486   6.306  0.6023  0.3141  0.8743
  987SOL    HW214595   3.272   4.433   6.289 -0.5153 -0.1200  0.2640
  988SOL     OW14596   3.809   1.815   6.286 -0.0139  0.6677  0.0864
  988SOL    HW114597   3.866   1.878   6.329  0.7297 -1.3490  2.0689
  988SOL    HW214598   3.858   1.822   6.204  0.1159  0.0023  0.1106
  989SOL     OW14599   0.614   2.497   2.545  0.2928 -0.4300 -0.3620
  989SOL    HW114600   0.554   2.431   2.580 -2.5328  1.7758 -1.0309
  989SOL    HW214601   0.586   2.496   2.453 -1.3733 -1.7279  0.1660
  990SOL     OW14602   0.560   1.510   7.911 -0.1274 -0.2363  0.2352
  990SOL    HW114603   0.637   1.458   7.889 -0.1086 -0.1323  0.0555
  990SOL    HW214604   0.591   1.589   7.957  1.1026  0.0440 -1.0851
  991SOL     OW14605   4.662   0.052   9.716  0.2112 -0.6821  0.4138
  991SOL    HW114606   4.685   0.131   9.764 -0.6845 -0.4444  0.4559
  991SOL    HW214607   0.001   0.043   9.659 -0.7988  1.4723 -1.2671
  992SOL     OW14608   1.442   3.690   9.656 -0.6665 -0.4200 -0.4399
  992SOL    HW114609   1.480   3.763   9.705 -1.1612 -1.4247  1.4001
  992SOL    HW214610   1.519   3.635   9.640  0.2938  0.9256 -0.4490
  993SOL     OW14611   2.012   0.198   1.773 -1.0436  0.0089 -0.3717
  993SOL    HW114612   2.038   0.288   1.753 -0.9401 -0.2840 -1.5797
  993SOL    HW214613   1.922   0.226   1.793 -1.4566 -1.5385 -0.0817
  994SOL     OW14614   1.714   3.709   0.336 -0.3635 -0.0586 -0.9191
  994SOL    HW114615   1.697   3.771   0.265 -0.5370  1.2908  0.3192
  994SOL    HW214616   1.781   3.648   0.304 -0.3242 -1.1961  1.3728
  995SOL     OW14617   1.721   0.402   6.749 -0.2726 -0.3724 -0.1149
  995SOL    HW114618   1.761   0.320   6.778  2.7465  0.5002 -1.8157
  995SOL    HW214619   1.779   0.430   6.678 -1.9162  1.9595 -0.5349
  996SOL     OW14620   0.272   0.767   0.873  0.3149  0.5422  0.5542
  996SOL    HW114621   0.253   0.860   0.859  1.8605  0.8198  0.3609
  996SOL    HW214622   0.348   0.769   0.931  2.1616  2.3594 -1.9409
  997SOL     OW14623   4.271   0.343   3.578 -0.4876 -0.6968  0.1174
  997SOL    HW114624   4.225   0.260   3.566 -0.3644 -0.8296  0.5732
  997SOL    HW214625   4.355   0.309   3.606  0.1888  0.5248 -0.4404
  998SOL     OW14626   0.675   4.188  10.659 -0.5811 -0.5033  0.2794
  998SOL    HW114627   0.666   4.124  10.729 -1.7089  1.2979  1.7701
  998SOL    HW214628   0.589   4.229  10.653 -0.0407  0.6652  0.6528
  999SOL     OW14629   2.101   1.043   4.202 -0.7508  0.1806 -0.0336
  999SOL    HW114630   2.140   0.976   4.147  0.2555 -1.1144  2.2661
  999SOL    HW214631   2.095   0.998   4.287  1.3501  0.1687  0.0989
 1000SOL     OW14632   1.945   0.328   7.109  0.2193 -0.3879 -0.0184
 1000SOL    HW114633   1.921   0.236   7.099  0.2117 -0.3099 -0.7037
 1000SOL    HW214634   1.976   0.335   7.200 -0.0037  3.3303 -0.2391
 1001SOL     OW14635   4.418   2.320  14.173  0.1755  0.3123 -0.1692
 1001SOL    HW114636   4.503   2.358  14.197  0.9383 -1.3275 -0.2334
 1001SOL    HW214637   4.383   2.293  14.258 -2.6039  1.3235 -1.0052
 1002SOL     OW14638   4.054   4.010   3.498  0.5443  0.3750 -0.2898
 1002SOL    HW114639   4.080   3.931   3.544 -0.1087 -1.0044 -2.2976
 1002SOL    HW214640   3.999   3.974   3.429  0.2435 -1.3454  0.8420
 1003SOL     OW14641   3.416   3.882   3.950 -0.2441 -0.0765 -0.2786
 1003SOL    HW114642   3.420   3.978   3.953  1.1583 -0.0412 -2.9322
 1003SOL    HW214643   3.507   3.857   3.963  0.9412  2.3103 -3.6530
 1004SOL     OW14644   2.634   1.977   2.966 -0.1259 -0.0132 -0.0423
 1004SOL    HW114645   2.680   2.061   2.960  0.4376 -0.4803 -2.0246
 1004SOL    HW214646   2.634   1.973   3.062  0.1749 -1.5681 -0.1205
 1005SOL     OW14647   2.240   3.797   5.468  0.2627  0.0432  0.2517
 1005SOL    HW114648   2.298   3.757   5.403 -0.8489  2.7243 -2.3907
 1005SOL    HW214649   2.285   3.880   5.486 -1.0734  0.4007  2.0642
 1006SOL     OW14650   0.510   4.430   4.076 -0.2697  0.3108 -0.4549
 1006SOL    HW114651   0.415   4.432   4.084 -0.1861 -0.8482  0.8416
 1006SOL    HW214652   0.521   4.525   4.082  1.2200  0.1744 -0.9040
 1007SOL     OW14653   3.466   3.208   8.794  0.3473 -0.1137  0.6596
 1007SOL    HW114654   3.523   3.195   8.719  0.8192 -1.0735  1.1831
 1007SOL    HW214655   3.499   3.293   8.822 -1.2307 -0.3570  3.2944
 1008SOL     OW14656   2.283   1.440   7.017  0.0103  0.2043 -0.1683
 1008SOL    HW114657   2.299   1.506   6.950 -0.6126  2.0264  1.4608
 1008SOL    HW214658   2.257   1.359   6.974 -0.5792  1.2918 -1.8368
 1009SOL     OW14659   2.087   0.144   4.460 -0.0923  0.4073  0.0910
 1009SOL    HW114660   2.105   0.073   4.399 -1.2552  0.1611  0.0414
 1009SOL    HW214661   2.000   0.121   4.492  0.6947 -0.7501  1.3643
 1010SOL     OW14662   3.071   3.662   6.201  0.5021  0.6828 -0.0461
 1010SOL    HW114663   3.166   3.671   6.214  0.7482 -0.9618 -0.7604
 1010SOL    HW214664   3.038   3.667   6.291  0.3128 -1.1010 -0.0233
 1011SOL     OW14665   3.207   2.201   6.905 -0.0724  0.0046 -0.0213
 1011SOL    HW114666   3.302   2.209   6.915  0.0502 -2.1439  0.5442
 1011SOL    HW214667   3.191   2.108   6.923  1.9326 -0.4576 -0.5393
 1012SOL     OW14668   4.486   2.393   1.806 -0.0390 -0.5557 -0.0284
 1012SOL    HW114669   4.549   2.404   1.736  0.1225 -1.9921 -0.1203
 1012SOL    HW214670   4.468   2.485   1.824 -0.3168 -0.4409 -0.9081
 1013SOL     OW14671   3.829   0.516   7.928 -0.3123  0.1912  0.0645
 1013SOL    HW114672   3.810   0.504   8.021 -0.9227  1.4310  0.0977
 1013SOL    HW214673   3.846   0.423   7.909  2.0609  0.6650 -0.1600
 1014SOL     OW14674   2.720   0.298   4.670  0.4534 -0.4596  0.8895
 1014SOL    HW114675   2.709   0.303   4.765 -0.1148 -2.6370  0.9351
 1014SOL    HW214676   2.749   0.207   4.666  0.5092 -0.3178 -1.7115
 1015SOL     OW14677   2.851   4.495   5.983  0.3124 -0.1691 -0.1033
 1015SOL    HW114678   2.796   4.451   6.048  1.5450 -0.5916  0.6525
 1015SOL    HW214679   2.794   4.558   5.939 -0.5957 -1.6273 -1.0564
 1016SOL     OW14680   3.619   0.336   7.344 -0.1371  0.3613 -0.4716
 1016SOL    HW114681   3.652   0.359   7.431  0.8687 -2.9320  0.0434
 1016SOL    HW214682   3.606   0.421   7.303 -0.2826 -0.4199 -2.0232
 1017SOL     OW14683   2.751   1.578   1.190 -0.2132 -0.3438  0.0977
 1017SOL    HW114684   2.725   1.499   1.144 -3.4321  2.1568 -2.4387
 1017SOL    HW214685   2.667   1.613   1.221  1.0144  1.7646  1.0445
 1018SOL     OW14686   0.944   2.231   6.649  0.2917 -0.3394  0.1989
 1018SOL    HW114687   0.853   2.216   6.675  0.2389  2.1267  1.3953
 1018SOL    HW214688   0.942   2.157   6.588  1.6348  1.3194 -1.8741
 1019SOL     OW14689   1.330   3.094   2.181 -0.0627  0.0648  0.1429
 1019SOL    HW114690   1.236   3.094   2.160  0.3912 -1.7546 -1.8999
 1019SOL    HW214691   1.338   2.999   2.175  0.2419  0.1819 -1.4425
 1020SOL     OW14692   4.440   0.094   9.876 -0.7324  0.0084 -0.6246
 1020SOL    HW114693   4.509   0.106   9.811 -0.9642 -0.4926 -0.9608
 1020SOL    HW214694   4.485   0.105   9.960 -3.0582 -1.0054  0.7766
 1021SOL     OW14695   4.652   3.138   4.803  0.1086  0.5012 -0.0620
 1021SOL    HW114696   4.737   3.178   4.822 -1.2455  3.3534  0.0114
 1021SOL    HW214697   4.622   3.202   4.738  2.4952 -1.5598 -3.2014
 1022SOL     OW14698   0.898   1.875  17.426 -0.6376 -0.5917  0.5381
 1022SOL    HW114699   0.974   1.918  17.388 -2.1651 -0.8555 -2.8260
 1022SOL    HW214700   0.852   1.948  17.467  0.5955  0.0498  0.7439
 1023SOL     OW14701   1.033   2.791   3.658  0.2090 -0.5138 -0.3234
 1023SOL    HW114702   1.013   2.790   3.751 -0.6519 -1.7395 -0.5315
 1023SOL    HW214703   1.008   2.703   3.632  1.1191 -1.3281  1.6139
 1024SOL     OW14704   2.735   2.662   3.392  0.2190 -0.0611  0.0770
 1024SOL    HW114705   2.726   2.751   3.356  0.2501  0.8145  2.2414
 1024SOL    HW214706   2.656   2.664   3.446 -0.1070  2.1464 -0.4709
 1025SOL     OW14707   4.007   3.155   7.925  0.1483 -0.6332 -0.4210
 1025SOL    HW114708   3.960   3.081   7.888 -1.2555  1.2241 -2.4054
 1025SOL    HW214709   4.018   3.213   7.849  0.6108 -2.1140 -1.4761
 1026SOL     OW14710   0.278   2.477   5.050 -0.3881  0.3787 -0.6952
 1026SOL    HW114711   0.283   2.535   4.974 -0.5184 -0.8506 -1.6447
 1026SOL    HW214712   0.296   2.396   5.003  1.2032  1.1355 -1.3666
 1027SOL     OW14713   1.013   3.525   6.871  0.4522  0.4672 -0.7738
 1027SOL    HW114714   0.995   3.484   6.956  2.1552 -0.7961 -1.0352
 1027SOL    HW214715   1.082   3.582   6.905  0.6716 -1.0961  1.4210
 1028SOL     OW14716   2.345   2.840  13.427  0.2445  0.5198  0.1385
 1028SOL    HW114717   2.351   2.853  13.521 -0.3850 -0.0466  0.2525
 1028SOL    HW214718   2.272   2.900  13.410  0.9410  1.5590  0.7873
 1029SOL     OW14719   2.855   1.089   6.451 -0.5414 -0.7282  0.3958
 1029SOL    HW114720   2.834   0.997   6.470  2.4862 -1.0948  2.0615
 1029SOL    HW214721   2.938   1.085   6.404 -0.6973 -0.6136  0.1141
 1030SOL     OW14722   1.458   3.016   8.570 -0.1409 -0.4255 -0.0663
 1030SOL    HW114723   1.369   3.049   8.559  0.3699  0.3807 -1.8749
 1030SOL    HW214724   1.490   3.058   8.650  1.2773 -0.3233 -0.6955
 1031SOL     OW14725   1.733   2.351   0.481 -0.2221 -0.5948  0.0083
 1031SOL    HW114726   1.736   2.273   0.537  0.2631 -0.4405  0.1918
 1031SOL    HW214727   1.649   2.386   0.511  0.9706  2.1780  0.1045
 1032SOL     OW14728   3.664   4.358  12.966 -0.3785  0.0494 -0.3463
 1032SOL    HW114729   3.692   4.427  13.027 -1.3170  1.9800 -2.0978
 1032SOL    HW214730   3.582   4.316  12.992  1.2847 -2.1231  1.4073
 1033SOL     OW14731   2.189   2.918   3.883 -0.2822  0.0474 -0.3739
 1033SOL    HW114732   2.100   2.889   3.861 -1.1025  1.4224  1.1928
 1033SOL    HW214733   2.192   3.006   3.846 -1.5876  0.1315 -0.2719
 1034SOL     OW14734   3.290   4.528   6.615 -0.0734 -0.5555  0.0905
 1034SOL    HW114735   3.307   4.622   6.622 -0.2674 -0.5585  0.5875
 1034SOL    HW214736   3.318   4.521   6.524  2.3002 -0.2927  0.8092
 1035SOL     OW14737   4.137   0.754  14.477 -0.1560 -0.4746  0.0619
 1035SOL    HW114738   4.101   0.672  14.443 -0.8657  0.6285 -1.8198
 1035SOL    HW214739   4.065   0.811  14.449 -0.3884 -0.5255  0.5455
 1036SOL     OW14740   0.157   0.904  15.210  0.6428  0.0057  0.2915
 1036SOL    HW114741   0.076   0.854  15.205  1.4690 -1.1420 -1.7096
 1036SOL    HW214742   0.159   0.933  15.119  0.5849 -1.9057 -0.3234
 1037SOL     OW14743   0.159   3.651   0.101 -0.7053  0.1678  0.2774
 1037SOL    HW114744   0.199   3.576   0.145 -0.8814  0.7293  1.3838
 1037SOL    HW214745   0.235   3.672   0.047  0.0427  0.5238  1.4733
 1038SOL     OW14746   3.286   4.604   7.515 -0.0477 -0.1125 -0.0696
 1038SOL    HW114747   3.209   4.623   7.461  1.1193 -0.4979 -1.9070
 1038SOL    HW214748   3.259   4.560   7.595  3.0393 -0.7368  0.6273
 1039SOL     OW14749   3.891   0.163   8.237  0.1355 -0.0946  0.1203
 1039SOL    HW114750   3.799   0.138   8.231 -0.4426  2.2214 -0.4325
 1039SOL    HW214751   3.933   0.102   8.177 -1.0945  2.0664 -2.9195
 1040SOL     OW14752   3.521   3.773  16.143  0.6005 -0.0685 -0.1318
 1040SOL    HW114753   3.468   3.774  16.223  0.4888  1.8496 -0.2272
 1040SOL    HW214754   3.448   3.773  16.081 -0.1824 -0.2182  0.7964
 1041SOL     OW14755   1.594   1.266   2.539  0.1035  0.2778  0.8859
 1041SOL    HW114756   1.502   1.274   2.514  0.5212  0.3933 -0.5823
 1041SOL    HW214757   1.633   1.342   2.495 -0.0638 -0.2855 -0.2365
 1042SOL     OW14758   3.816   2.339   9.997 -0.2571 -0.3391 -0.2872
 1042SOL    HW114759   3.779   2.399  10.062 -1.8541 -2.0555  0.3901
 1042SOL    HW214760   3.771   2.351   9.913  1.2664  0.1139 -1.0300
 1043SOL     OW14761   2.184   0.340   2.733  0.4707 -0.1008 -0.6781
 1043SOL    HW114762   2.088   0.345   2.737  0.4298  0.0731 -1.9153
 1043SOL    HW214763   2.212   0.430   2.748  1.2441 -0.6272  0.9594
 1044SOL     OW14764   2.458   1.503   7.858  0.8511  0.5640  0.4124
 1044SOL    HW114765   2.475   1.595   7.836  1.6609  1.1780  3.7099
 1044SOL    HW214766   2.378   1.493   7.909  2.5749 -2.3146  2.4998
 1045SOL     OW14767   0.608   1.153   1.948 -0.3450  0.5626  0.0914
 1045SOL    HW114768   0.624   1.073   1.899  0.3361  1.7266 -1.5942
 1045SOL    HW214769   0.659   1.219   1.902  0.7263 -0.1719  0.2310
 1046SOL     OW14770   3.457   0.805  17.240 -0.5821  0.2233  0.1212
 1046SOL    HW114771   3.458   0.756  17.157 -0.1862 -0.0628  0.2961
 1046SOL    HW214772   3.407   0.747  17.297 -2.1333 -1.2736 -2.7102
 1047SOL     OW14773   0.044   3.187  13.589  0.3462  0.2129 -0.3048
 1047SOL    HW114774   4.716   3.248  13.624  1.9784  0.9782  1.4095
 1047SOL    HW214775   0.113   3.249  13.563 -1.3600  1.6750 -1.2937
 1048SOL     OW14776   3.318   4.715   2.236 -0.5941  0.0248  0.2187
 1048SOL    HW114777   3.259   0.038   2.282 -0.6573  0.5750 -0.5926
 1048SOL    HW214778   3.386   4.692   2.299  0.0213  2.8245  0.5482
 1049SOL     OW14779   3.008   1.180   6.882 -0.7761  0.5185 -0.1658
 1049SOL    HW114780   3.039   1.171   6.791  0.2384  1.9812  0.0534
 1049SOL    HW214781   2.913   1.181   6.866 -1.0282 -1.1298  1.1553
 1050SOL     OW14782   2.003   3.394   8.223 -0.2898 -0.6730  0.3368
 1050SOL    HW114783   2.015   3.446   8.303  1.0283 -1.6748  0.7850
 1050SOL    HW214784   2.003   3.309   8.267  0.9752 -0.9150 -0.1471
 1051SOL     OW14785   1.032   0.577   7.613 -0.6522  0.1762  1.0229
 1051SOL    HW114786   1.003   0.564   7.523 -1.0464  1.5464  0.9542
 1051SOL    HW214787   0.990   0.503   7.657 -0.7356 -0.0434  0.5712
 1052SOL     OW14788   3.268   1.136   1.464 -0.0393 -0.8523  0.0575
 1052SOL    HW114789   3.341   1.091   1.422 -1.1346 -1.8576 -0.7747
 1052SOL    HW214790   3.280   1.230   1.447 -2.1703 -0.6508 -0.2779
 1053SOL     OW14791   2.044   3.789   5.757  0.0441 -0.1962  0.1615
 1053SOL    HW114792   2.091   3.868   5.782 -1.6051  0.4747  1.1775
 1053SOL    HW214793   2.080   3.722   5.815 -0.1828  1.7353  2.5113
 1054SOL     OW14794   2.018   2.749   9.181 -0.4847 -0.1072  0.3281
 1054SOL    HW114795   1.969   2.683   9.133  2.5781 -2.0873 -0.0706
 1054SOL    HW214796   2.100   2.705   9.203 -0.3062 -0.1181 -0.3801
 1055SOL     OW14797   2.979   3.911   7.360 -0.2692 -0.4649  0.4315
 1055SOL    HW114798   2.989   4.005   7.347  0.9506 -0.7495 -0.6614
 1055SOL    HW214799   2.889   3.890   7.335 -0.0409 -1.4252  0.4028
 1056SOL     OW14800   3.542   0.379   5.368  0.3000 -0.4509 -0.3021
 1056SOL    HW114801   3.604   0.308   5.352 -0.2347 -1.2554  1.2233
 1056SOL    HW214802   3.605   0.444   5.400 -3.2264  0.5265  4.6992
 1057SOL     OW14803   1.645   1.632   0.345 -0.6238  0.2555  0.0084
 1057SOL    HW114804   1.630   1.658   0.254  0.3078 -1.9841 -0.7817
 1057SOL    HW214805   1.699   1.555   0.331 -0.8773 -0.0489  0.6760
 1058SOL     OW14806   2.304   1.042   8.461  0.2218 -0.4377  0.5592
 1058SOL    HW114807   2.240   0.987   8.416 -0.7970  0.1204  1.3342
 1058SOL    HW214808   2.368   1.055   8.391  0.5753  0.3701  1.0290
 1059SOL     OW14809   2.617   1.376   8.862 -0.1519 -0.4588 -0.3922
 1059SOL    HW114810   2.583   1.293   8.896  0.6522 -0.3884  0.5697
 1059SOL    HW214811   2.704   1.342   8.841  0.1097  0.9045 -1.5741
 1060SOL     OW14812   3.254   4.102   7.327 -0.1553 -0.4831 -0.5332
 1060SOL    HW114813   3.331   4.157   7.311 -0.7603  0.4178 -0.3277
 1060SOL    HW214814   3.288   4.020   7.362  0.4758 -0.6076 -1.4641
 1061SOL     OW14815   0.130   1.775   4.860  0.3823 -0.3477 -0.2173
 1061SOL    HW114816   0.044   1.815   4.848  0.2966 -0.4311  0.1193
 1061SOL    HW214817   0.177   1.806   4.783  0.1065 -0.6330 -0.4948
 1062SOL     OW14818   1.806   2.911   3.428  0.2856 -0.2580  0.2512
 1062SOL    HW114819   1.899   2.925   3.413  0.3478 -0.6915  0.2360
 1062SOL    HW214820   1.762   2.994   3.408  1.2236  0.1731 -0.0087
 1063SOL     OW14821   0.827   4.061   4.042 -0.0407 -0.4855  0.0961
 1063SOL    HW114822   0.822   4.102   3.956  1.9932 -1.5210 -0.4954
 1063SOL    HW214823   0.746   4.083   4.088 -0.2835 -0.6434 -0.2543
 1064SOL     OW14824   3.801   0.292   7.132  0.0498  0.5363 -0.1147
 1064SOL    HW114825   3.848   0.375   7.130  1.9300 -0.5324 -0.6132
 1064SOL    HW214826   3.738   0.298   7.203  0.2319  1.0379  0.0020
 1065SOL     OW14827   2.363   0.242  12.885 -0.5272  0.1566  0.2503
 1065SOL    HW114828   2.333   0.155  12.860 -1.1604  0.9255 -1.6422
 1065SOL    HW214829   2.459   0.241  12.876 -0.4936  1.3750  0.4025
 1066SOL     OW14830   0.900   3.003   9.056  0.0421 -0.0509  0.0639
 1066SOL    HW114831   0.905   2.937   8.988 -0.3263 -1.0107  0.9683
 1066SOL    HW214832   0.983   3.050   9.050  0.5105 -0.7417  1.0006
 1067SOL     OW14833   4.576   4.603   7.540 -0.1751 -0.2966  0.1755
 1067SOL    HW114834   4.588   4.563   7.626  0.6781 -0.9242 -0.2342
 1067SOL    HW214835   4.487   4.635   7.553  0.0708  0.6294 -0.4157
 1068SOL     OW14836   4.021   4.562   2.021 -0.3020  0.7574  0.0577
 1068SOL    HW114837   4.113   4.574   2.046  0.2828 -0.9292 -1.2930
 1068SOL    HW214838   4.003   4.470   2.036 -1.7509  1.1381  0.5792
 1069SOL     OW14839   2.719   2.419   4.507 -0.1588 -0.2554 -0.3315
 1069SOL    HW114840   2.709   2.468   4.589  1.9016 -1.3476  0.5923
 1069SOL    HW214841   2.642   2.434   4.453  0.7390 -0.4476 -1.6724
 1070SOL     OW14842   1.246   4.475  15.626 -0.1916 -0.3290 -0.0804
 1070SOL    HW114843   1.322   4.504  15.576  0.7694 -0.0953  1.5264
 1070SOL    HW214844   1.293   4.425  15.693  2.1651  0.1081 -1.4242
 1071SOL     OW14845   0.146   1.205  17.428 -0.4201  0.1381  0.5622
 1071SOL    HW114846   0.148   1.250  17.343 -1.3221 -0.6410  0.1297
 1071SOL    HW214847   0.213   1.256  17.474 -1.4003  2.2078 -0.2978
 1072SOL     OW14848   0.718   4.041   9.475  0.4598 -0.1916  0.1684
 1072SOL    HW114849   0.732   4.036   9.569  0.3309  0.5142  0.2299
 1072SOL    HW214850   0.696   3.950   9.458 -0.5209  0.0769 -0.0224
 1073SOL     OW14851   2.116   2.722   8.861 -0.1557  0.9489  0.0655
 1073SOL    HW114852   2.085   2.642   8.903 -0.3940  0.3253 -1.3043
 1073SOL    HW214853   2.030   2.765   8.854 -1.7809 -1.9271  2.3754
 1074SOL     OW14854   2.071   2.962  15.082  0.2508  0.4672 -0.6869
 1074SOL    HW114855   2.050   2.904  15.154 -0.0310  2.7703  1.0883
 1074SOL    HW214856   2.039   2.916  15.004  2.2983 -1.0999 -0.5850
 1075SOL     OW14857   0.995   0.002  17.563  0.5761 -0.2315  0.1772
 1075SOL    HW114858   1.063   4.673  17.555 -0.5901 -1.3829 -0.3590
 1075SOL    HW214859   1.051   0.079  17.568 -1.6443  1.3638  1.0157
 1076SOL     OW14860   0.118   3.033   5.172  0.2088  0.3014  0.3972
 1076SOL    HW114861   0.090   2.944   5.193 -0.8981  1.0112  1.8932
 1076SOL    HW214862   0.202   3.044   5.217  0.1656 -0.2402  0.6144
 1077SOL     OW14863   3.593   4.362   5.589 -0.3550  0.0274  0.7473
 1077SOL    HW114864   3.613   4.434   5.529 -0.5665  0.6768  1.4544
 1077SOL    HW214865   3.679   4.339   5.624 -0.4382 -0.1658  0.8259
 1078SOL     OW14866   1.818   4.574   2.986  0.0313 -0.3209  0.7541
 1078SOL    HW114867   1.764   4.497   2.969 -1.2363  0.7132  0.0893
 1078SOL    HW214868   1.846   4.582   2.894 -0.9933  1.9518  0.6451
 1079SOL     OW14869   0.450   2.090   5.619 -0.4922 -0.4464  0.0699
 1079SOL    HW114870   0.471   2.082   5.526 -1.0122 -0.7954 -0.0218
 1079SOL    HW214871   0.538   2.088   5.655  0.0824  2.7969 -1.1431
 1080SOL     OW14872   0.309   3.521   9.186  0.1728 -0.8214 -0.3386
 1080SOL    HW114873   0.358   3.448   9.147 -1.3754 -1.7071 -0.6136
 1080SOL    HW214874   0.268   3.480   9.261 -2.4693 -2.5646 -2.7755
 1081SOL     OW14875   2.203   0.247   7.882 -0.0729  0.4749  0.5569
 1081SOL    HW114876   2.227   0.211   7.967  0.5137 -1.4744 -0.4397
 1081SOL    HW214877   2.286   0.290   7.861  0.0618  0.8762  1.9380
 1082SOL     OW14878   3.705   0.727   3.077  0.6305  0.3014 -0.5195
 1082SOL    HW114879   3.757   0.678   3.141 -1.0412  1.0290  1.3997
 1082SOL    HW214880   3.756   0.704   3.000 -2.1083 -3.3189 -1.2842
 1083SOL     OW14881   1.057   3.688   3.707 -0.9766 -0.0152  0.0517
 1083SOL    HW114882   1.047   3.679   3.612 -1.3112  0.4375  0.0422
 1083SOL    HW214883   1.089   3.778   3.704 -0.3749 -0.2944 -1.7416
 1084SOL     OW14884   1.993   2.735   7.427 -0.5437  0.6377  0.1080
 1084SOL    HW114885   1.906   2.712   7.394 -0.4782 -0.8346  1.0064
 1084SOL    HW214886   2.031   2.649   7.445 -0.7645 -0.1632 -3.1349
 1085SOL     OW14887   0.336   4.685   0.048  0.4476  0.0537 -0.0353
 1085SOL    HW114888   0.320   0.041   0.067  0.9585  0.1065  0.1401
 1085SOL    HW214889   0.293   4.633   0.116 -0.8587  0.2035 -0.7414
 1086SOL     OW14890   0.410   4.119   6.892 -0.4246  0.4601 -0.3616
 1086SOL    HW114891   0.503   4.098   6.906 -0.0177  0.6921 -2.5854
 1086SOL    HW214892   0.379   4.030   6.908  2.5360 -0.4259  0.4627
 1087SOL     OW14893   2.318   1.667   6.292  0.6413  0.3598 -0.2143
 1087SOL    HW114894   2.310   1.763   6.292 -3.5603  0.0088  0.5173
 1087SOL    HW214895   2.300   1.635   6.204  1.1803  1.1694 -0.6274
 1088SOL     OW14896   2.078   0.871   3.199 -0.6142 -0.4670 -0.1519
 1088SOL    HW114897   2.000   0.902   3.155 -0.6847 -0.1278  0.2138
 1088SOL    HW214898   2.147   0.929   3.168  0.1423 -1.4349 -0.3183
 1089SOL     OW14899   0.808   0.037   8.510  1.0165  0.4093 -0.2920
 1089SOL    HW114900   0.859   4.714   8.455 -1.0459 -1.4987 -0.0872
 1089SOL    HW214901   0.874   0.047   8.578 -0.3160 -0.4769  1.1144
 1090SOL     OW14902   3.045   0.656   5.668  0.0769  0.7408  0.8664
 1090SOL    HW114903   3.069   0.665   5.761  2.2774 -1.1575  0.4552
 1090SOL    HW214904   3.002   0.571   5.676  1.8522 -0.3437 -1.3986
 1091SOL     OW14905   1.574   3.073   9.209 -0.2695  0.7425 -0.0928
 1091SOL    HW114906   1.493   3.075   9.259 -2.7512 -0.8192 -4.0177
 1091SOL    HW214907   1.578   3.167   9.191 -0.8471  0.6953 -0.4781
 1092SOL     OW14908   1.478   2.618   4.958 -0.6710  0.7000  0.1811
 1092SOL    HW114909   1.554   2.581   5.002 -0.2864  2.3899  0.9021
 1092SOL    HW214910   1.481   2.707   4.993 -0.6142  1.0000 -0.5985
 1093SOL     OW14911   2.747   0.903   8.814 -0.1201 -0.1350 -0.3397
 1093SOL    HW114912   2.815   0.835   8.814 -0.3224 -0.3345 -0.4898
 1093SOL    HW214913   2.778   0.957   8.741  1.1308  1.6350  1.4882
 1094SOL     OW14914   1.809   2.671   3.797  0.0926  0.3248  0.0568
 1094SOL    HW114915   1.747   2.704   3.732  0.4814 -0.9401 -0.9545
 1094SOL    HW214916   1.786   2.732   3.867 -1.5996 -0.4238  0.1526
 1095SOL     OW14917   3.429   3.201   6.559 -0.0527  0.9547 -0.1527
 1095SOL    HW114918   3.381   3.148   6.495 -1.1576 -0.0852  1.5232
 1095SOL    HW214919   3.358   3.219   6.620 -1.7294 -2.5677 -1.0588
 1096SOL     OW14920   4.234   0.173   9.306  0.1684  0.3673 -0.7815
 1096SOL    HW114921   4.183   0.146   9.382 -0.7038  1.2165 -1.0643
 1096SOL    HW214922   4.212   0.102   9.247 -0.6494  1.1408 -1.4175
 1097SOL     OW14923   3.988   4.231   9.360 -0.0899 -0.4362  0.5894
 1097SOL    HW114924   3.901   4.207   9.391 -0.4675  2.9739  2.1975
 1097SOL    HW214925   4.034   4.162   9.408 -1.2003 -1.0832  0.7250
 1098SOL     OW14926   0.271   1.655  13.880  0.9511  0.4297  0.6991
 1098SOL    HW114927   0.264   1.748  13.859  2.4765  0.6223  1.0915
 1098SOL    HW214928   0.187   1.619  13.849  0.5934  1.2525  0.7031
 1099SOL     OW14929   0.070   3.210  16.577  0.4094  0.3178  0.5842
 1099SOL    HW114930   0.041   3.299  16.596 -0.4448 -0.6315  3.8778
 1099SOL    HW214931   0.137   3.199  16.645 -1.5772  1.7384  2.7731
 1100SOL     OW14932   0.534   3.829   3.732 -0.4526 -0.4535 -0.5003
 1100SOL    HW114933   0.617   3.838   3.685 -0.5412  1.2916 -0.3395
 1100SOL    HW214934   0.572   3.778   3.803 -2.2775 -1.1982 -0.0627
 1101SOL     OW14935   1.566   0.210   2.815  0.3517  1.0026  0.1086
 1101SOL    HW114936   1.574   0.298   2.852 -1.2032  1.3211 -0.3309
 1101SOL    HW214937   1.603   0.168   2.892  0.2906  0.0926 -0.3586
 1102SOL     OW14938   4.031   1.251   2.072 -0.8671 -0.5015 -0.8274
 1102SOL    HW114939   3.974   1.278   2.000 -1.4374  1.0236  0.1856
 1102SOL    HW214940   4.054   1.161   2.049 -0.6348 -0.2966 -1.3823
 1103SOL     OW14941   3.872   2.753  11.314  0.4051 -0.5614  0.7941
 1103SOL    HW114942   3.908   2.729  11.229 -2.7343 -0.9077 -0.4306
 1103SOL    HW214943   3.896   2.669  11.353 -1.8040 -1.4079  0.3376
 1104SOL     OW14944   1.416   0.536   5.836  0.0913  0.1444  0.5878
 1104SOL    HW114945   1.464   0.618   5.840 -1.3714  1.0578 -0.6065
 1104SOL    HW214946   1.344   0.553   5.775 -1.7087 -0.2012  2.5953
 1105SOL     OW14947   1.613   0.141   4.644  0.5356  0.2790  0.1981
 1105SOL    HW114948   1.601   0.230   4.675 -0.7744 -0.1334  0.8931
 1105SOL    HW214949   1.554   0.087   4.697 -0.6605 -0.6808 -2.1251
 1106SOL     OW14950   4.395   2.076   3.518  0.0525 -0.3727  0.4479
 1106SOL    HW114951   4.457   2.062   3.589 -0.0427 -1.7481  0.2547
 1106SOL    HW214952   4.327   2.014   3.544  3.4186 -2.9226  3.0862
 1107SOL     OW14953   3.749   2.725   1.515  0.3954 -0.3586  0.0516
 1107SOL    HW114954   3.760   2.752   1.423 -1.5540 -1.3367 -0.4626
 1107SOL    HW214955   3.677   2.663   1.503 -0.1815  0.5979 -1.4994
 1108SOL     OW14956   2.830   4.132   4.014 -0.3668 -0.5871 -0.5886
 1108SOL    HW114957   2.887   4.064   4.050 -0.5390  0.6248  1.9583
 1108SOL    HW214958   2.899   4.198   4.017 -0.6204 -0.3427 -0.1209
 1109SOL     OW14959   2.548   3.312   8.267  0.5479  0.2646 -0.1929
 1109SOL    HW114960   2.494   3.347   8.196  0.9174 -0.2027 -0.6984
 1109SOL    HW214961   2.608   3.256   8.219 -1.3872 -1.0313 -1.1085
 1110SOL     OW14962   3.761   1.266   8.863  0.6851 -0.6570  0.3806
 1110SOL    HW114963   3.830   1.275   8.798 -2.3798 -1.0374 -2.9252
 1110SOL    HW214964   3.743   1.177   8.833  0.4241  0.1719 -1.9260
 1111SOL     OW14965   4.385   2.638   3.293  0.1188 -0.0898 -0.2033
 1111SOL    HW114966   4.440   2.713   3.269 -0.9534  1.0345  0.8370
 1111SOL    HW214967   4.458   2.592   3.335  0.9844  0.3848 -1.2142
 1112SOL     OW14968   2.035   2.493   2.297 -0.1077  0.1034  0.1462
 1112SOL    HW114969   2.084   2.411   2.301 -2.0001 -0.9497  1.7502
 1112SOL    HW214970   1.944   2.465   2.284  0.4427 -1.8611  0.5749
 1113SOL     OW14971   0.413   0.357  15.236 -0.0876  0.1899  0.0804
 1113SOL    HW114972   0.408   0.441  15.280  1.5644 -0.9551  2.4316
 1113SOL    HW214973   0.396   0.292  15.304 -1.4756 -0.1525 -0.5710
 1114SOL     OW14974   1.660   0.476   6.311 -0.6945  0.6129 -0.8114
 1114SOL    HW114975   1.573   0.440   6.323  0.5350 -1.1039  2.9634
 1114SOL    HW214976   1.662   0.465   6.216 -1.1777 -0.1949 -0.7264
 1115SOL     OW14977   0.542   3.212   6.123  0.7310  0.2653 -0.2301
 1115SOL    HW114978   0.553   3.179   6.212  1.1012 -0.0054 -0.3782
 1115SOL    HW214979   0.506   3.134   6.081 -1.0513  1.5405 -1.0576
 1116SOL     OW14980   1.398   0.891   3.621 -0.3579 -0.3316  0.1791
 1116SOL    HW114981   1.345   0.811   3.620 -0.6558 -0.1583  2.6327
 1116SOL    HW214982   1.484   0.855   3.603  0.0999 -0.1124  2.0004
 1117SOL     OW14983   2.613   4.212   4.869  0.1990 -0.3989  0.0283
 1117SOL    HW114984   2.659   4.218   4.786  2.3033  0.7245  1.2853
 1117SOL    HW214985   2.576   4.124   4.863 -0.4817 -0.1057 -0.1570
 1118SOL     OW14986   2.545   0.783  17.412  0.1059 -1.2401  0.0394
 1118SOL    HW114987   2.534   0.822  17.499  2.1147  1.1292 -0.7658
 1118SOL    HW214988   2.547   0.858  17.351  0.8290 -1.9925 -0.8559
 1119SOL     OW14989   0.830   3.809   6.396  0.3396  0.2432 -0.1482
 1119SOL    HW114990   0.890   3.820   6.322 -0.0931 -0.0741 -0.5431
 1119SOL    HW214991   0.789   3.895   6.400 -2.7104 -1.3254  2.5288
 1120SOL     OW14992   0.379   1.578  13.596 -0.1295  0.1861  0.1469
 1120SOL    HW114993   0.374   1.582  13.691  1.5074 -2.0110  0.3277
 1120SOL    HW214994   0.381   1.671  13.574 -0.5622  0.3201  0.6593
 1121SOL     OW14995   3.602   2.670   6.262 -0.0138 -0.0193  0.0146
 1121SOL    HW114996   3.634   2.722   6.188  0.0836 -2.3932 -1.6007
 1121SOL    HW214997   3.538   2.609   6.225  1.9073 -0.6717 -2.1687
 1122SOL     OW14998   3.830   2.220   5.658  0.1019 -0.3643 -1.2359
 1122SOL    HW114999   3.911   2.169   5.648  0.7429  0.1646  1.0574
 1122SOL    HW215000   3.759   2.164   5.627 -0.5308  0.8265 -1.9140
 1123SOL     OW15001   1.428   0.328   5.196 -0.1977 -0.3848  0.8711
 1123SOL    HW115002   1.372   0.297   5.268 -0.5376  0.2411  0.8760
 1123SOL    HW215003   1.387   0.296   5.116  2.0302  2.0053 -1.2073
 1124SOL     OW15004   0.989   4.528  10.854 -0.3363 -0.3169 -0.4666
 1124SOL    HW115005   0.934   4.604  10.836 -1.6622 -1.0357  0.5869
 1124SOL    HW215006   1.066   4.553  10.803  0.7761 -0.0697  1.3515
 1125SOL     OW15007   1.799   1.232   4.199 -0.1130  0.7652 -0.2294
 1125SOL    HW115008   1.832   1.183   4.124  0.3194 -0.3140  0.6675
 1125SOL    HW215009   1.712   1.260   4.169 -0.7876 -1.4190 -0.3609
 1126SOL     OW15010   0.245   1.906   8.867  0.0822  0.5516  0.1307
 1126SOL    HW115011   0.267   1.817   8.894 -1.5677  0.5838  1.5424
 1126SOL    HW215012   0.300   1.917   8.789  0.4748  1.6409  0.5598
 1127SOL     OW15013   2.549   0.424   6.397 -0.5284 -0.2073 -0.4539
 1127SOL    HW115014   2.482   0.448   6.461 -1.5805 -1.2870 -1.1678
 1127SOL    HW215015   2.536   0.479   6.320  1.3932 -0.1709 -0.7699
 1128SOL     OW15016   2.951   2.004   4.497 -0.4536 -0.1296  0.1023
 1128SOL    HW115017   2.971   1.917   4.462 -0.8149 -0.4661  0.7340
 1128SOL    HW215018   3.038   2.045   4.501 -0.7106  0.5627 -1.7537
 1129SOL     OW15019   0.614   3.638   5.790  1.0197  0.4130 -0.4686
 1129SOL    HW115020   0.699   3.602   5.814  1.3005  0.7984 -0.8902
 1129SOL    HW215021   0.563   3.575   5.738  2.0234 -1.3826  0.7584
 1130SOL     OW15022   2.839   2.962   7.317 -0.2794  0.3147 -0.4256
 1130SOL    HW115023   2.775   2.894   7.339 -1.5702  1.4337 -0.7151
 1130SOL    HW215024   2.922   2.914   7.311  0.1770  0.4686  4.0568
 1131SOL     OW15025   1.630   4.488   5.908 -0.2855 -0.5980 -0.3620
 1131SOL    HW115026   1.604   4.572   5.871 -0.2444 -0.4159  0.0224
 1131SOL    HW215027   1.707   4.475   5.853  1.9078 -3.1246  3.2149
 1132SOL     OW15028   1.142   2.539   8.891  0.0297  0.1458 -0.0526
 1132SOL    HW115029   1.129   2.468   8.954  1.8936 -1.5030 -1.5171
 1132SOL    HW215030   1.070   2.521   8.831 -1.1308  0.9954  1.0952
 1133SOL     OW15031   0.660   3.035  12.101  0.1688 -0.0180 -0.3170
 1133SOL    HW115032   0.714   2.965  12.065  1.1338 -0.0996  1.2450
 1133SOL    HW215033   0.632   3.066  12.016 -1.0332  1.1567  0.5193
 1134SOL     OW15034   0.079   1.638   5.212  0.6244  0.1484  0.3462
 1134SOL    HW115035   0.027   1.719   5.217  2.4706  1.4281 -1.1217
 1134SOL    HW215036   0.166   1.672   5.188  0.6474  0.9529  1.5344
 1135SOL     OW15037   1.589   1.754   1.628  0.8173 -0.0063 -0.1576
 1135SOL    HW115038   1.527   1.827   1.626 -0.3192 -0.9626  0.1708
 1135SOL    HW215039   1.553   1.698   1.559 -1.0444 -0.4751  1.1786
 1136SOL     OW15040   3.171   2.187   4.819  0.2533  0.0529  0.6892
 1136SOL    HW115041   3.128   2.222   4.896  0.9611  1.5670  0.3909
 1136SOL    HW215042   3.168   2.260   4.757 -0.1328 -0.2252  0.3768
 1137SOL     OW15043   3.208   4.224   5.820  0.2601  0.5448  0.1997
 1137SOL    HW115044   3.216   4.312   5.857  0.6303 -0.3682  2.2749
 1137SOL    HW215045   3.300   4.205   5.800 -0.8697 -3.8645 -0.7682
 1138SOL     OW15046   0.265   3.758   3.796  0.8468  0.5073 -0.3532
 1138SOL    HW115047   0.235   3.844   3.825  1.6441 -0.0891  2.2898
 1138SOL    HW215048   0.351   3.785   3.764  2.1544 -2.8012  0.3696
 1139SOL     OW15049   0.431   0.819   8.731  0.5158  0.6617 -0.0641
 1139SOL    HW115050   0.416   0.883   8.800  0.7449  1.6593 -0.9321
 1139SOL    HW215051   0.527   0.821   8.724  0.4926 -0.2300 -0.5797
 1140SOL     OW15052   3.473   2.290   4.630  0.2387 -0.3108 -0.2347
 1140SOL    HW115053   3.552   2.319   4.676 -0.6237 -1.2960  1.8404
 1140SOL    HW215054   3.403   2.342   4.670  1.7699  1.0327  0.7199
 1141SOL     OW15055   1.077   4.132   6.454 -0.2427 -0.0002 -0.4364
 1141SOL    HW115056   1.082   4.200   6.387  0.9859  0.4143  0.0794
 1141SOL    HW215057   1.171   4.126   6.468 -0.4261 -0.3673  0.6130
 1142SOL     OW15058   1.363   3.361   2.696  0.0233  0.0406  0.3606
 1142SOL    HW115059   1.295   3.426   2.677  1.1496  1.5165  1.4201
 1142SOL    HW215060   1.315   3.286   2.661 -0.6883  0.3077  0.7594
 1143SOL     OW15061   4.489   3.037   9.104  0.0687 -0.3344  0.0675
 1143SOL    HW115062   4.428   3.024   9.032  0.8894  3.8180 -1.3855
 1143SOL    HW215063   4.479   2.951   9.146  0.1092  0.4067  1.5974
 1144SOL     OW15064   2.332   3.029   7.170 -0.0819 -0.0115  0.3991
 1144SOL    HW115065   2.325   2.971   7.094  1.3136  2.0300 -1.2581
 1144SOL    HW215066   2.396   3.088   7.131 -1.5111  1.2144 -0.0939
 1145SOL     OW15067   1.372   2.541   7.469  0.0996  0.9548  0.7887
 1145SOL    HW115068   1.369   2.496   7.385  2.2151 -0.0035  1.2481
 1145SOL    HW215069   1.350   2.631   7.443  0.1251  0.6428 -0.3209
 1146SOL     OW15070   2.318   4.310   5.746 -0.2204 -0.0551  0.2046
 1146SOL    HW115071   2.284   4.281   5.662  0.9685  1.8911 -0.9381
 1146SOL    HW215072   2.393   4.255   5.767 -0.1066 -0.4585 -1.2644
 1147SOL     OW15073   4.205   1.533   8.760 -0.6735 -0.7794 -0.0277
 1147SOL    HW115074   4.258   1.466   8.804  0.9035  0.3121 -0.2741
 1147SOL    HW215075   4.192   1.509   8.668 -0.7971 -3.1668  0.5944
 1148SOL     OW15076   3.717   2.199  12.245 -0.2257  0.4164 -0.3029
 1148SOL    HW115077   3.658   2.182  12.319  0.8315  0.3325  0.5159
 1148SOL    HW215078   3.668   2.258  12.188 -0.5626  0.9311  0.5181
 1149SOL     OW15079   1.510   4.340   4.764 -0.3175  0.2742 -0.2659
 1149SOL    HW115080   1.566   4.387   4.701 -0.7060  1.1999  0.0809
 1149SOL    HW215081   1.494   4.255   4.723 -2.1118  1.7421 -2.5930
 1150SOL     OW15082   0.187   0.648   3.308 -0.0843  0.0970  0.0003
 1150SOL    HW115083   0.194   0.657   3.213  2.5694  1.9893  0.3769
 1150SOL    HW215084   0.275   0.678   3.330 -0.9542  2.8898 -0.3637
 1151SOL     OW15085   2.557   4.556   9.488 -0.5321 -0.2158 -0.2026
 1151SOL    HW115086   2.565   4.536   9.395 -1.9216  1.4392 -0.6828
 1151SOL    HW215087   2.563   4.651   9.489  2.1542 -0.3553 -2.7631
 1152SOL     OW15088   0.661   1.788   2.206 -0.1997 -0.8661 -0.0413
 1152SOL    HW115089   0.631   1.797   2.297  1.4513 -2.5331  0.6721
 1152SOL    HW215090   0.695   1.875   2.186 -1.6207 -0.1838  0.5673
 1153SOL     OW15091   3.743   3.234   5.493 -0.1860 -0.5881  0.9197
 1153SOL    HW115092   3.779   3.201   5.410  0.0987 -0.4963  1.0064
 1153SOL    HW215093   3.668   3.285   5.464  0.6055  0.7924  1.3222
 1154SOL     OW15094   2.771   4.732   2.308 -1.0370  0.5359  0.0486
 1154SOL    HW115095   2.836   4.728   2.378 -2.2823  0.4505  1.1846
 1154SOL    HW215096   2.731   0.081   2.320 -0.8482  0.5167  0.8142
 1155SOL     OW15097   2.451   3.364   8.011 -0.1591 -0.1768 -0.0846
 1155SOL    HW115098   2.358   3.348   8.020  0.0419 -0.8502  0.7627
 1155SOL    HW215099   2.485   3.290   7.961 -0.0474 -0.2856  0.1514
 1156SOL     OW15100   2.551   2.320   4.056 -0.2714  0.5620 -0.4297
 1156SOL    HW115101   2.636   2.318   4.100 -0.2655  0.7665 -0.4328
 1156SOL    HW215102   2.534   2.411   4.034 -3.1280 -0.3387 -1.9531
 1157SOL     OW15103   2.664   1.355   3.460 -0.3968 -0.0959  0.1830
 1157SOL    HW115104   2.629   1.275   3.500  0.6217 -0.6172  0.0189
 1157SOL    HW215105   2.757   1.334   3.464 -0.4060  0.0562  1.4238
 1158SOL     OW15106   3.258   0.774   7.717 -0.0217 -0.1464 -0.2248
 1158SOL    HW115107   3.178   0.807   7.759 -0.2667  0.0117 -0.8207
 1158SOL    HW215108   3.221   0.744   7.634  1.0442 -0.0021 -0.7421
 1159SOL     OW15109   0.191   2.925   2.591 -0.0826 -0.5167  0.3476
 1159SOL    HW115110   0.171   3.009   2.634 -1.5316  0.2684 -1.8672
 1159SOL    HW215111   0.132   2.924   2.516  3.6115  1.7361 -2.5832
 1160SOL     OW15112   3.906   4.302   5.604  0.0173 -0.6331  0.4125
 1160SOL    HW115113   3.861   4.218   5.591  0.3586 -1.0761  2.1725
 1160SOL    HW215114   3.997   4.271   5.597  0.1758  0.2768 -1.6939
 1161SOL     OW15115   0.897   3.884   6.943 -0.0090 -0.5323  1.2253
 1161SOL    HW115116   0.992   3.898   6.950  0.1931 -1.4208  0.3289
 1161SOL    HW215117   0.874   3.904   6.853 -2.5077 -2.6844  1.3810
 1162SOL     OW15118   4.589   0.063  13.571  0.2682 -0.6753 -0.1391
 1162SOL    HW115119   4.585   0.075  13.476  2.1714 -1.1557 -0.2799
 1162SOL    HW215120   4.506   0.016  13.579 -0.2480  0.5911  1.9837
 1163SOL     OW15121   2.213   1.735   5.458 -0.1501 -0.4341 -0.6057
 1163SOL    HW115122   2.125   1.733   5.496  0.7520  0.2565  1.5127
 1163SOL    HW215123   2.259   1.666   5.504  1.1355  1.7787  1.4361
 1164SOL     OW15124   3.364   3.698   4.618  0.2353 -0.3457 -0.8485
 1164SOL    HW115125   3.321   3.644   4.684  1.2817 -0.7280 -0.4802
 1164SOL    HW215126   3.286   3.750   4.599  0.8523  0.0492 -2.3121
 1165SOL     OW15127   4.582   4.316  17.111 -0.1042  0.5237  0.0694
 1165SOL    HW115128   4.606   4.225  17.098 -1.2534  0.1627  0.5386
 1165SOL    HW215129   4.571   4.352  17.023  0.7060 -1.0643 -0.6664
 1166SOL     OW15130   3.474   1.321   5.651 -0.4048  0.0668  0.2822
 1166SOL    HW115131   3.466   1.226   5.642 -0.7728  0.1752 -0.5212
 1166SOL    HW215132   3.466   1.347   5.559  0.6003  0.0805  0.1927
 1167SOL     OW15133   4.312   0.153  13.719 -0.2673 -0.4521  0.1044
 1167SOL    HW115134   4.253   0.211  13.671  2.0294  0.6020 -1.4974
 1167SOL    HW215135   4.325   0.078  13.660  0.9176 -0.7012  0.6717
 1168SOL     OW15136   2.425   2.601  13.297  0.0954  0.9266 -0.4125
 1168SOL    HW115137   2.402   2.681  13.345  2.0028  1.5935 -0.6349
 1168SOL    HW215138   2.520   2.613  13.292  0.0824  0.6637 -1.2844
 1169SOL     OW15139   3.260   3.492  13.461  0.7737  0.0256 -0.5653
 1169SOL    HW115140   3.219   3.574  13.432  0.8075 -0.1813 -1.1877
 1169SOL    HW215141   3.298   3.461  13.379 -2.1649 -0.0781 -1.8604
 1170SOL     OW15142   0.827   2.300   2.162 -0.7326  0.7954 -0.3739
 1170SOL    HW115143   0.875   2.288   2.080 -1.7969 -1.0436 -0.7308
 1170SOL    HW215144   0.895   2.284   2.228  0.4410  0.7253 -1.6114
 1171SOL     OW15145   4.020   3.022   6.264  0.1702 -0.1702  0.2491
 1171SOL    HW115146   3.996   2.935   6.231 -0.1309  1.5326 -4.0381
 1171SOL    HW215147   4.109   3.015   6.301  0.5415 -0.8351 -0.7624
 1172SOL     OW15148   0.158   2.827   7.810  0.2607 -0.2413  0.2818
 1172SOL    HW115149   0.072   2.828   7.854  0.1951 -0.3260  0.1550
 1172SOL    HW215150   0.125   2.778   7.734 -0.0389  0.4962 -0.0626
 1173SOL     OW15151   0.200   1.238   3.380 -0.0932 -0.2289  0.1223
 1173SOL    HW115152   0.291   1.259   3.404  0.7031 -1.1203 -2.1423
 1173SOL    HW215153   0.166   1.318   3.421 -0.3494 -0.6742  0.7863
 1174SOL     OW15154   2.879   1.951   5.243 -0.0355 -0.2291  0.6882
 1174SOL    HW115155   2.917   1.943   5.155  1.7617 -0.1034  1.4526
 1174SOL    HW215156   2.796   1.985   5.210 -0.1809 -0.1637  1.1208
 1175SOL     OW15157   4.189   2.508   7.935  0.2583  0.3192 -0.0687
 1175SOL    HW115158   4.246   2.436   7.962 -0.9496 -0.1577  1.2859
 1175SOL    HW215159   4.201   2.566   8.010 -1.2031  1.5308 -0.7674
 1176SOL     OW15160   1.546   3.555   8.889  0.0279  0.0040 -0.1142
 1176SOL    HW115161   1.608   3.596   8.829  0.5367 -1.1439 -0.3607
 1176SOL    HW215162   1.501   3.632   8.925 -0.7351 -1.9838  3.1253
 1177SOL     OW15163   3.795   3.725   0.341 -0.0269 -0.2698  0.4097
 1177SOL    HW115164   3.772   3.632   0.329 -0.3282 -0.2285  0.6786
 1177SOL    HW215165   3.820   3.746   0.251 -0.6677 -0.9684  0.0623
 1178SOL     OW15166   3.824   3.371   8.583  0.2698  0.3466  0.2073
 1178SOL    HW115167   3.911   3.338   8.564 -0.1659  0.5159 -2.0549
 1178SOL    HW215168   3.842   3.463   8.601 -1.5555  0.3010  2.2843
 1179SOL     OW15169   4.377   0.763  14.619 -0.1358  0.6239  0.3997
 1179SOL    HW115170   4.289   0.753  14.582  1.2662  0.2106 -2.8816
 1179SOL    HW215171   4.435   0.767  14.542 -0.1681  0.5849  0.3732
 1180SOL     OW15172   2.239   3.251   7.365 -0.4482 -0.8935 -0.0670
 1180SOL    HW115173   2.292   3.212   7.295  0.9908 -0.4592  0.7862
 1180SOL    HW215174   2.165   3.192   7.376  0.4113 -1.5012  2.3912
 1181SOL     OW15175   4.292   1.026   1.254 -0.7438 -0.2928 -0.4202
 1181SOL    HW115176   4.284   0.944   1.205  1.3789 -0.7702  0.0002
 1181SOL    HW215177   4.200   1.049   1.263 -0.5512  0.5147 -0.5343
 1182SOL     OW15178   3.128   0.151   6.311 -0.4884 -0.0239 -0.2623
 1182SOL    HW115179   3.116   0.213   6.383 -2.2075 -0.3211 -0.2848
 1182SOL    HW215180   3.215   0.180   6.284 -0.6938 -0.0865 -0.9979
 1183SOL     OW15181   0.488   1.400   9.903 -0.1753  1.0515 -0.3097
 1183SOL    HW115182   0.564   1.342   9.911 -1.7189 -0.9307 -0.0460
 1183SOL    HW215183   0.441   1.359   9.831  1.6361  0.0795 -0.9308
 1184SOL     OW15184   3.122   4.397   1.081  0.7707 -0.0426  0.2589
 1184SOL    HW115185   3.057   4.434   1.140  1.8139  1.2226  0.6176
 1184SOL    HW215186   3.207   4.434   1.106  0.5260  0.4577  0.3499
 1185SOL     OW15187   0.233   3.391  13.556 -0.3185 -0.3002  0.0728
 1185SOL    HW115188   0.223   3.449  13.481  1.2212 -2.2924 -1.6831
 1185SOL    HW215189   0.325   3.403  13.580  0.0528  1.0110 -1.9933
 1186SOL     OW15190   1.332   1.244   2.142  0.2045  0.4926 -0.7733
 1186SOL    HW115191   1.303   1.326   2.182  2.6764  0.9522  0.0481
 1186SOL    HW215192   1.330   1.268   2.049  0.7835 -0.6908 -1.0935
 1187SOL     OW15193   3.990   0.713   0.846 -0.0121  0.7225  0.5343
 1187SOL    HW115194   3.992   0.630   0.894  0.4692  1.7806  2.3203
 1187SOL    HW215195   4.060   0.699   0.783 -0.9346 -0.8699 -0.1418
 1188SOL     OW15196   0.855   0.700   3.339 -0.1341 -0.1861 -0.1813
 1188SOL    HW115197   0.926   0.729   3.281 -1.4036  1.4078 -0.9455
 1188SOL    HW215198   0.893   0.702   3.427 -0.1269 -0.3677 -0.1810
 1189SOL     OW15199   4.184   1.154   8.228  0.3113  0.0234  0.0452
 1189SOL    HW115200   4.167   1.106   8.147  2.3498  1.2445 -1.1115
 1189SOL    HW215201   4.158   1.084   8.289  0.0277 -1.4044 -1.7215
 1190SOL     OW15202   1.864   2.646   2.067  0.6702  0.0355  0.1118
 1190SOL    HW115203   1.854   2.730   2.113  0.3858 -0.1649  0.4177
 1190SOL    HW215204   1.772   2.621   2.062  0.0838  1.8459  1.6729
 1191SOL     OW15205   3.416   0.128   6.405 -0.1629 -0.4344  0.3826
 1191SOL    HW115206   3.411   0.158   6.496 -1.8708 -1.7390  0.7135
 1191SOL    HW215207   3.492   0.176   6.371  0.1629 -0.2325  1.4021
 1192SOL     OW15208   4.462   2.782   6.299  0.1526 -0.3114  0.0661
 1192SOL    HW115209   4.515   2.861   6.303  0.0433 -0.2777  0.8473
 1192SOL    HW215210   4.413   2.798   6.219  1.4766 -0.5575 -0.7825
 1193SOL     OW15211   1.129   1.010   6.539 -0.0681  0.0924  0.0903
 1193SOL    HW115212   1.200   0.946   6.550  0.9575  1.0511 -1.0505
 1193SOL    HW215213   1.059   0.962   6.585 -0.2216 -1.0356 -1.3451
 1194SOL     OW15214   1.293   3.784  10.102 -0.2912 -0.1045  0.3204
 1194SOL    HW115215   1.378   3.743  10.117 -0.0343 -0.2147 -1.4322
 1194SOL    HW215216   1.237   3.708  10.120  0.6247 -0.8136  0.1917
 1195SOL     OW15217   0.797   3.010   7.557 -0.2294  0.0621  0.3140
 1195SOL    HW115218   0.804   2.916   7.575  1.0880 -0.1903 -1.5452
 1195SOL    HW215219   0.710   3.017   7.517 -0.2869  1.2754  0.6686
 1196SOL     OW15220   0.751   3.009   4.688  0.6487 -0.9363 -0.4425
 1196SOL    HW115221   0.708   2.988   4.770  1.7377 -0.7394  0.1797
 1196SOL    HW215222   0.820   2.943   4.676 -0.5576 -2.4826  1.1920
 1197SOL     OW15223   3.630   0.691   0.751  0.7704 -0.5421 -0.0139
 1197SOL    HW115224   3.687   0.620   0.721 -0.8446 -2.4665  1.5328
 1197SOL    HW215225   3.538   0.667   0.739  0.5818 -0.3034  0.9924
 1198SOL     OW15226   0.927   0.146  16.059 -0.8017  0.5004  0.2231
 1198SOL    HW115227   1.019   0.153  16.085 -0.4781 -0.1041 -0.7712
 1198SOL    HW215228   0.928   0.112  15.970  0.8386 -0.1265  0.4705
 1199SOL     OW15229   1.774   3.813   8.346  0.2394  0.2806  0.4939
 1199SOL    HW115230   1.728   3.786   8.266 -0.0845  0.1912  0.7080
 1199SOL    HW215231   1.712   3.878   8.381 -0.0594 -0.7281  1.8816
 1200SOL     OW15232   0.266   1.847   6.819  0.0265 -0.2090  0.0453
 1200SOL    HW115233   0.282   1.940   6.799  1.2255 -0.4494 -0.0780
 1200SOL    HW215234   0.180   1.834   6.779 -0.8971  2.6392  1.0916
 1201SOL     OW15235   1.357   1.788   4.699  0.3707 -0.2624 -0.1496
 1201SOL    HW115236   1.394   1.850   4.761 -0.5804 -0.9134  1.0677
 1201SOL    HW215237   1.426   1.781   4.633 -1.6685  0.0823 -2.3352
 1202SOL     OW15238   3.820   1.387   5.373  0.5610  0.0291  0.7776
 1202SOL    HW115239   3.893   1.441   5.345  1.0235 -0.4602  1.0436
 1202SOL    HW215240   3.836   1.305   5.326  0.2723 -0.8712  2.2556
 1203SOL     OW15241   4.242   3.501   3.706 -0.6831 -0.4833  0.4668
 1203SOL    HW115242   4.233   3.439   3.778  2.1198 -0.0951  1.1651
 1203SOL    HW215243   4.329   3.527   3.737  0.0756 -3.1370  0.5593
 1204SOL     OW15244   3.081   1.013  17.560  0.0636  0.3765  0.3500
 1204SOL    HW115245   3.169   0.992  17.531 -0.4700 -1.4605  0.0627
 1204SOL    HW215246   3.024   0.967  17.498  1.4301  2.0649 -2.1415
 1205SOL     OW15247   1.883   4.138   4.663 -0.5435  0.3060  0.1405
 1205SOL    HW115248   1.976   4.135   4.685 -0.1391 -0.4894 -1.6792
 1205SOL    HW215249   1.845   4.057   4.698  0.1387  0.8169  2.0414
 1206SOL     OW15250   0.939   0.032  10.730 -0.1347 -0.8133 -0.1221
 1206SOL    HW115251   0.954   0.088  10.807 -1.6554 -1.1490  0.4198
 1206SOL    HW215252   0.977   0.086  10.661 -1.1001  1.9702  1.5148
 1207SOL     OW15253   3.671   3.312   7.415 -0.6935  0.5187 -0.3158
 1207SOL    HW115254   3.643   3.364   7.339  0.4937  0.8209 -0.5352
 1207SOL    HW215255   3.751   3.270   7.385 -0.2836  0.4187  0.9016
 1208SOL     OW15256   0.946   1.775   6.347 -0.1643  0.4630  0.3273
 1208SOL    HW115257   1.022   1.748   6.398 -1.1828  1.0635  2.1365
 1208SOL    HW215258   0.988   1.840   6.289  0.6127 -1.1759 -0.9593
 1209SOL     OW15259   3.804   2.250   3.782  0.5520  0.0821  0.6900
 1209SOL    HW115260   3.856   2.176   3.751  0.1981 -0.2022  0.7743
 1209SOL    HW215261   3.868   2.321   3.775 -0.0057  0.3797 -1.2087
 1210SOL     OW15262   2.888   1.174   4.818  0.2027 -0.6288  0.5204
 1210SOL    HW115263   2.951   1.142   4.883  1.8585 -0.5259 -1.0343
 1210SOL    HW215264   2.896   1.267   4.842 -0.1078 -0.6837  0.8285
 1211SOL     OW15265   0.778   3.673   4.696 -0.1315  0.0950  0.0060
 1211SOL    HW115266   0.690   3.705   4.719 -1.4385 -2.0989 -2.0850
 1211SOL    HW215267   0.808   3.755   4.656 -1.6112  0.7470  0.1984
 1212SOL     OW15268   0.760   1.592   3.886 -0.0288  0.8524 -0.1596
 1212SOL    HW115269   0.674   1.575   3.848 -0.3940  0.5382  0.8052
 1212SOL    HW215270   0.743   1.532   3.959 -0.7365  0.8212 -0.3556
 1213SOL     OW15271   3.886   3.336  12.876 -0.2172 -0.0110  0.0034
 1213SOL    HW115272   3.826   3.299  12.811  1.6136 -0.8340 -1.1979
 1213SOL    HW215273   3.922   3.260  12.921 -0.7087 -0.0545  0.3225
 1214SOL     OW15274   3.109   1.655   2.867 -0.0471  0.2633  0.1363
 1214SOL    HW115275   3.163   1.616   2.798 -1.5051  0.8984 -1.3814
 1214SOL    HW215276   3.034   1.596   2.861  0.1920 -0.0574  0.3666
 1215SOL     OW15277   1.909   3.542   3.691 -0.2741  0.0450 -0.0533
 1215SOL    HW115278   1.840   3.589   3.644 -0.1214 -0.2233 -0.5419
 1215SOL    HW215279   1.923   3.466   3.634  0.0304 -1.3209  1.8521
 1216SOL     OW15280   2.722   2.973   4.655 -0.5266  0.0366  0.1861
 1216SOL    HW115281   2.813   2.993   4.635 -0.2904 -1.5679 -0.3567
 1216SOL    HW215282   2.687   2.956   4.567 -1.1335 -0.1801  0.4656
 1217SOL     OW15283   3.070   1.771   1.881  0.6741  0.4461  0.6815
 1217SOL    HW115284   3.115   1.721   1.813  1.8122  0.7783  1.1889
 1217SOL    HW215285   3.140   1.760   1.946 -0.3093 -1.5938  1.4016
 1218SOL     OW15286   1.712   3.957   9.657 -0.9102 -0.2574  0.1736
 1218SOL    HW115287   1.753   4.002   9.730  1.4659  0.3561 -1.5208
 1218SOL    HW215288   1.711   3.865   9.684  0.3098 -0.7459 -1.4188
 1219SOL     OW15289   2.035   3.904  13.800  0.1451  0.3253 -0.4408
 1219SOL    HW115290   2.065   3.916  13.890  1.0120 -1.1298 -0.5376
 1219SOL    HW215291   1.987   3.821  13.794  0.9085 -0.0668 -1.0584
 1220SOL     OW15292   1.810   2.843  11.278 -0.7075  0.3525  0.0111
 1220SOL    HW115293   1.743   2.879  11.337 -0.7783 -1.9632  1.3234
 1220SOL    HW215294   1.884   2.897  11.306 -0.1635 -0.6666  0.5404
 1221SOL     OW15295   1.319   2.038  14.847  0.0492  0.1475  0.3543
 1221SOL    HW115296   1.239   2.048  14.900  0.3063  0.5108  0.6760
 1221SOL    HW215297   1.378   1.989  14.904  0.8124 -0.1284 -0.6685
 1222SOL     OW15298   2.613   3.579   2.557 -0.1640 -0.1149  0.1621
 1222SOL    HW115299   2.672   3.504   2.551  0.8697  0.5331  2.4011
 1222SOL    HW215300   2.538   3.550   2.505  1.4536 -1.5284 -1.4055
 1223SOL     OW15301   2.343   3.770   2.192 -0.0126 -0.3881 -0.1227
 1223SOL    HW115302   2.270   3.784   2.252  0.1493 -1.0110  0.2143
 1223SOL    HW215303   2.382   3.857   2.195  2.1084 -1.3154 -1.0101
 1224SOL     OW15304   2.182   0.045   1.976 -0.1486 -0.7064  0.3850
 1224SOL    HW115305   2.133   0.072   2.053 -1.1570 -1.5213  0.0200
 1224SOL    HW215306   2.123   0.080   1.909  1.6961 -0.2081 -0.9737
 1225SOL     OW15307   0.998   3.775   2.448 -0.0222 -0.0088  0.5466
 1225SOL    HW115308   0.936   3.742   2.514 -2.5711  1.8156 -0.9514
 1225SOL    HW215309   1.080   3.799   2.492  2.4573 -2.2620 -2.8428
 1226SOL     OW15310   2.989   0.753   0.323 -0.1381  0.0921  0.0660
 1226SOL    HW115311   3.013   0.676   0.373  0.7508  0.8796  0.8560
 1226SOL    HW215312   3.047   0.748   0.247  0.3280  1.0954  0.3492
 1227SOL     OW15313   0.544   2.811   4.603  0.4498  0.3336  0.5802
 1227SOL    HW115314   0.613   2.802   4.537 -0.1948 -1.5500  0.1753
 1227SOL    HW215315   0.597   2.841   4.677  0.0229  3.1107 -0.2250
 1228SOL     OW15316   4.049   0.707   4.226 -0.0976  0.4269  0.0150
 1228SOL    HW115317   3.955   0.710   4.244 -0.4382 -0.6032 -1.5672
 1228SOL    HW215318   4.079   0.619   4.249 -0.8397  0.5236  1.2927
 1229SOL     OW15319   1.360   4.735   3.398  0.2271  0.7330 -0.9719
 1229SOL    HW115320   1.420   4.736   3.472 -0.3404 -0.4462 -0.4887
 1229SOL    HW215321   1.373   0.084   3.358 -1.7213  1.3777 -0.2349
 1230SOL     OW15322   3.290   0.591   9.064  0.1440  0.0994 -0.5072
 1230SOL    HW115323   3.218   0.647   9.035 -0.6348 -0.4444  0.3747
 1230SOL    HW215324   3.293   0.524   8.997 -1.6410 -1.7745  1.2841
 1231SOL     OW15325   2.486   4.603  14.445  0.2465 -0.1024  0.1014
 1231SOL    HW115326   2.413   4.595  14.384  0.1099 -2.6590  0.5814
 1231SOL    HW215327   2.460   4.543  14.516  2.0536  0.0081  0.8627
 1232SOL     OW15328   0.190   1.054   3.799 -0.3468 -0.2210 -1.0479
 1232SOL    HW115329   0.193   1.148   3.816  0.8499 -0.3247 -0.6401
 1232SOL    HW215330   0.155   1.013   3.878  2.2613 -0.5430 -0.0442
 1233SOL     OW15331   4.072   1.449  17.315  0.4441  0.4771 -0.3466
 1233SOL    HW115332   4.075   1.358  17.284  0.5473 -0.6450  2.9399
 1233SOL    HW215333   4.080   1.485  17.227  0.0558 -0.3280 -0.7162
 1234SOL     OW15334   2.515   1.818   4.020  0.2247 -0.3643 -0.3191
 1234SOL    HW115335   2.498   1.911   4.006  2.1549  0.0400  0.1070
 1234SOL    HW215336   2.463   1.773   3.953 -3.3025 -0.0413  2.2227
 1235SOL     OW15337   4.116   3.230   0.848  0.5471  0.4396  0.0497
 1235SOL    HW115338   4.137   3.224   0.941 -1.6803  1.4207  0.6166
 1235SOL    HW215339   4.048   3.297   0.845 -1.4350 -1.6774 -1.6633
 1236SOL     OW15340   3.590   3.083   9.153  0.7097  0.4584 -0.3685
 1236SOL    HW115341   3.597   3.005   9.208  0.3049  1.4426  1.0644
 1236SOL    HW215342   3.677   3.119   9.172  0.0651  1.8751 -0.1246
 1237SOL     OW15343   2.872   3.976   8.119 -0.4516 -0.3806 -0.4472
 1237SOL    HW115344   2.849   4.054   8.068 -0.7036  0.9126  1.6783
 1237SOL    HW215345   2.819   3.914   8.068  1.4475 -2.0176 -0.4207
 1238SOL     OW15346   0.912   0.580   1.282 -0.0513  0.5356  0.0010
 1238SOL    HW115347   0.944   0.654   1.230 -0.8357  2.4558  2.2654
 1238SOL    HW215348   0.861   0.527   1.221 -1.0315 -0.6438  1.8656
 1239SOL     OW15349   1.162   1.784   3.763 -0.1037 -0.2823  0.2630
 1239SOL    HW115350   1.177   1.878   3.759  0.0512 -0.3793 -1.4725
 1239SOL    HW215351   1.109   1.776   3.842  2.6641 -0.6121  2.0785
 1240SOL     OW15352   2.419   2.629   5.161  0.1954  0.1554 -0.1526
 1240SOL    HW115353   2.479   2.682   5.109  0.9167  2.0558  2.6345
 1240SOL    HW215354   2.372   2.583   5.091 -1.2221 -0.6330  1.3173
 1241SOL     OW15355   1.309   2.802   4.581  0.0183  0.2957 -0.4860
 1241SOL    HW115356   1.295   2.708   4.573  1.9154  0.0047 -0.1946
 1241SOL    HW215357   1.365   2.804   4.658  3.6377  0.1212 -3.1345
 1242SOL     OW15358   3.254   4.231   1.962 -0.3569  0.0508  0.7113
 1242SOL    HW115359   3.170   4.200   1.995 -0.0461  0.8323  2.2236
 1242SOL    HW215360   3.269   4.314   2.007  2.4731 -1.4822  2.5721
 1243SOL     OW15361   1.471   1.178   5.280  0.7862  0.3020 -0.1992
 1243SOL    HW115362   1.424   1.124   5.216  0.4679  1.2029 -0.7223
 1243SOL    HW215363   1.520   1.231   5.218  1.4663 -0.1981 -0.0946
 1244SOL     OW15364   1.099   3.878   7.220  0.0009 -0.5381  0.7351
 1244SOL    HW115365   1.006   3.873   7.202 -0.2714  3.0194  1.1283
 1244SOL    HW215366   1.098   3.919   7.307 -1.1267  1.5215 -0.2414
 1245SOL     OW15367   0.114   2.735   5.979 -0.2563  0.2522  0.2904
 1245SOL    HW115368   0.113   2.719   6.073 -0.5191  0.5935  0.3457
 1245SOL    HW215369   0.102   2.647   5.943 -1.7719  0.1301  1.0971
 1246SOL     OW15370   0.776   2.003   6.033 -0.1355 -0.1216  0.1564
 1246SOL    HW115371   0.768   2.069   6.102 -2.0839 -0.3896  0.1765
 1246SOL    HW215372   0.703   1.951   6.067 -0.6712  0.4986 -0.0478
 1247SOL     OW15373   1.577   2.270   8.820 -0.1422  0.4576  0.0647
 1247SOL    HW115374   1.628   2.224   8.887  0.0459  1.1676  0.4069
 1247SOL    HW215375   1.622   2.355   8.827 -1.4073  1.0280  1.2158
 1248SOL     OW15376   1.782   2.122   2.230  0.5891 -0.3385 -0.1508
 1248SOL    HW115377   1.832   2.125   2.149 -0.7081 -1.3490 -0.9890
 1248SOL    HW215378   1.836   2.084   2.299 -0.2441 -0.6180  0.3554
 1249SOL     OW15379   0.538   2.880  11.359 -0.0768 -0.0034 -0.4051
 1249SOL    HW115380   0.527   2.949  11.294  2.4362  1.2133  0.4659
 1249SOL    HW215381   0.556   2.944  11.428  1.4527  0.9562 -1.7062
 1250SOL     OW15382   1.396   2.412   5.951  0.4633 -0.1517 -0.0381
 1250SOL    HW115383   1.395   2.434   6.044 -1.2757  1.7740 -0.5203
 1250SOL    HW215384   1.405   2.316   5.951 -1.1046 -0.2976  0.3499
 1251SOL     OW15385   0.856   4.229  12.841  0.1528 -0.0129  0.2872
 1251SOL    HW115386   0.818   4.316  12.849 -0.4141 -0.1680 -0.7413
 1251SOL    HW215387   0.788   4.184  12.891 -0.6315 -1.6736 -2.2429
 1252SOL     OW15388   1.891   2.480   3.152 -0.2427  0.0414 -0.6792
 1252SOL    HW115389   1.929   2.449   3.070  3.1665  1.6242  0.2898
 1252SOL    HW215390   1.931   2.567   3.160  1.7145 -1.0971  2.2246
 1253SOL     OW15391   1.739   3.162  15.831  0.4718  0.1321  0.5487
 1253SOL    HW115392   1.673   3.167  15.762  0.8944  0.3467  0.1584
 1253SOL    HW215393   1.704   3.093  15.887  0.6329 -2.5464 -2.6289
 1254SOL     OW15394   3.013   2.402   1.369 -0.6061 -0.3419 -0.5899
 1254SOL    HW115395   2.961   2.470   1.328 -1.4374 -0.2163  0.6700
 1254SOL    HW215396   3.101   2.421   1.338  0.3983 -0.4540  2.1299
 1255SOL     OW15397   3.602   1.077  13.386 -0.5004  0.3259  0.3269
 1255SOL    HW115398   3.599   1.016  13.460  1.1536  1.2451  1.1511
 1255SOL    HW215399   3.672   1.031  13.340  0.9517  1.0371  1.8057
 1256SOL     OW15400   2.253   2.396  16.944 -0.3419  0.3275 -0.4337
 1256SOL    HW115401   2.175   2.448  16.921 -2.0353 -2.0770 -0.1361
 1256SOL    HW215402   2.217   2.313  16.913  0.1994 -0.7107  1.7352
 1257SOL     OW15403   2.214   4.721   4.287  0.2734 -0.3695  0.5676
 1257SOL    HW115404   2.294   4.728   4.338 -0.2127  1.2508  1.1109
 1257SOL    HW215405   2.183   4.632   4.304  0.0245 -0.7597 -1.8519
 1258SOL     OW15406   0.650   2.153   8.180  0.4270  0.1910 -0.2945
 1258SOL    HW115407   0.699   2.096   8.120 -0.6905  0.2646 -1.2746
 1258SOL    HW215408   0.713   2.152   8.251  1.5322  1.4403 -1.2587
 1259SOL     OW15409   4.613   2.076   9.722 -0.2303 -0.4460  0.3448
 1259SOL    HW115410   4.674   2.015   9.763 -3.0920 -2.7118  1.2217
 1259SOL    HW215411   4.612   2.151   9.782  1.4992 -0.6261  0.5946
 1260SOL     OW15412   3.600   2.509   5.721  0.1349 -0.1452 -0.2033
 1260SOL    HW115413   3.548   2.574   5.673  1.7664  1.0631 -0.3313
 1260SOL    HW215414   3.549   2.496   5.801  1.3865 -2.5659  0.2070
 1261SOL     OW15415   1.799   3.984   3.839 -0.4890  0.4939  0.6944
 1261SOL    HW115416   1.806   3.944   3.926 -1.1057 -0.9925  0.0506
 1261SOL    HW215417   1.892   4.005   3.825 -0.7887  0.1771 -1.6816
 1262SOL     OW15418   3.356   2.356   2.625  0.4298  0.4653  0.2603
 1262SOL    HW115419   3.379   2.449   2.622 -2.2937  1.1490  0.0485
 1262SOL    HW215420   3.417   2.318   2.688  0.8503  2.0481  0.8198
 1263SOL     OW15421   0.080   3.432   8.472  0.1217 -0.3694  0.3854
 1263SOL    HW115422   0.069   3.407   8.380 -1.8093 -0.5358  0.6684
 1263SOL    HW215423   0.113   3.521   8.465  0.1863 -0.5669 -1.8190
 1264SOL     OW15424   0.519   1.108  16.810 -0.1316  0.8530  0.8534
 1264SOL    HW115425   0.451   1.047  16.783 -0.3345  1.4820 -0.0570
 1264SOL    HW215426   0.546   1.131  16.722 -0.3578  1.6521  0.9879
 1265SOL     OW15427   2.046   0.022  13.245 -0.1002 -0.4393  0.2066
 1265SOL    HW115428   2.039   4.691  13.179  0.3563  1.6036 -1.9827
 1265SOL    HW215429   1.978   0.088  13.230 -2.4324 -1.9025  4.3771
 1266SOL     OW15430   3.422   2.282   2.146  0.3444 -0.5769 -0.5729
 1266SOL    HW115431   3.437   2.220   2.074  1.1625 -1.0228 -0.0244
 1266SOL    HW215432   3.503   2.333   2.137  0.9899 -1.3828  0.6025
 1267SOL     OW15433   0.139   1.548   2.355 -0.1219  0.1191  0.2792
 1267SOL    HW115434   0.063   1.531   2.300 -0.7991  0.6533  1.0511
 1267SOL    HW215435   0.095   1.591   2.428  0.7935  1.6613 -0.0515
 1268SOL     OW15436   1.945   0.379  16.209 -0.0455 -0.2524 -0.1618
 1268SOL    HW115437   1.943   0.436  16.286 -0.8419 -1.1759  0.4933
 1268SOL    HW215438   2.031   0.397  16.172  0.2680 -0.6678  0.3599
 1269SOL     OW15439   2.071   2.272   6.747 -0.0959 -0.8691 -0.2404
 1269SOL    HW115440   2.020   2.315   6.816  0.0614  1.6696 -1.6892
 1269SOL    HW215441   2.104   2.200   6.800  0.9740 -0.9589 -1.0150
 1270SOL     OW15442   2.813   3.210   3.273 -0.0503  0.3363  0.3380
 1270SOL    HW115443   2.827   3.274   3.343 -1.5343  2.8079 -1.6246
 1270SOL    HW215444   2.863   3.132   3.298  0.8993  1.0977  0.8109
 1271SOL     OW15445   3.841   2.551  16.181 -0.0296 -0.4407  0.6640
 1271SOL    HW115446   3.823   2.522  16.092  4.2477  0.4607 -0.5233
 1271SOL    HW215447   3.914   2.611  16.165 -1.0417  0.0595 -1.8714
 1272SOL     OW15448   3.992   0.512  12.236  0.5005  0.1333  0.3816
 1272SOL    HW115449   4.018   0.445  12.299 -3.3222 -1.8369 -0.1155
 1272SOL    HW215450   3.963   0.582  12.295  3.4088  0.7955  0.9957
 1273SOL     OW15451   2.691   2.558   6.936 -0.0617  0.3122  0.0614
 1273SOL    HW115452   2.775   2.520   6.910 -0.2725 -0.0573 -0.0657
 1273SOL    HW215453   2.734   2.635   6.976  1.2299 -0.2048 -0.3320
 1274SOL     OW15454   1.480   1.478  15.803  0.1456  0.1037 -0.0980
 1274SOL    HW115455   1.489   1.448  15.893 -1.0524 -2.4770 -0.8470
 1274SOL    HW215456   1.406   1.422  15.778  1.5529 -1.0927 -1.6182
 1275SOL     OW15457   2.565   1.171  13.774  0.2441 -0.2843 -0.0561
 1275SOL    HW115458   2.495   1.221  13.816  0.6276 -0.0031  0.2461
 1275SOL    HW215459   2.558   1.203  13.684 -4.0485 -0.1007  0.3378
 1276SOL     OW15460   1.101   3.031   6.655  0.2006 -0.1206 -0.6715
 1276SOL    HW115461   1.140   3.116   6.677 -0.6316  0.1987 -0.4357
 1276SOL    HW215462   1.022   3.059   6.609 -0.2471 -1.8640 -0.9691
 1277SOL     OW15463   2.414   2.309  12.113  0.2051  0.3147  0.2833
 1277SOL    HW115464   2.375   2.338  12.195 -0.2256 -2.0833  0.9231
 1277SOL    HW215465   2.505   2.337  12.120  0.3144 -0.3378  1.5251
 1278SOL     OW15466   2.602   3.959   6.594 -0.0850 -0.1011  0.2077
 1278SOL    HW115467   2.572   4.009   6.670  2.3558  0.0078  1.1188
 1278SOL    HW215468   2.647   4.025   6.541 -1.0786  2.4198  2.5120
 1279SOL     OW15469   3.577   0.790  17.585  0.4334  0.3657  0.0938
 1279SOL    HW115470   3.661   0.834  17.573  1.5883 -1.8116  0.0775
 1279SOL    HW215471   3.527   0.863  17.620 -1.7015 -0.2549 -1.6650
 1280SOL     OW15472   2.248   0.079   6.493 -0.3226 -0.3663 -0.4873
 1280SOL    HW115473   2.342   0.065   6.478 -0.5349 -0.1471 -2.0276
 1280SOL    HW215474   2.216   0.058   6.406  0.2952  1.7354 -1.2271
 1281SOL     OW15475   3.380   2.546   4.972 -0.2531 -0.1067  0.0088
 1281SOL    HW115476   3.442   2.486   5.013 -0.6560  0.7803  1.9034
 1281SOL    HW215477   3.308   2.490   4.942  0.2144 -0.9012  0.3630
 1282SOL     OW15478   3.813   3.676  17.604  0.3327  0.6897  0.0290
 1282SOL    HW115479   3.816   3.590  17.644 -1.2382 -0.7837 -2.9688
 1282SOL    HW215480   3.843   3.643  17.520 -1.7991 -0.9550 -0.0790
 1283SOL     OW15481   1.570   1.064   9.303  0.1929 -0.3711  0.3514
 1283SOL    HW115482   1.639   1.007   9.268  1.0721  0.9263 -0.0131
 1283SOL    HW215483   1.604   1.060   9.393  0.4280  0.7302  0.3105
 1284SOL     OW15484   0.057   0.272   6.599  0.3225 -0.3459 -0.5355
 1284SOL    HW115485   0.076   0.301   6.689 -0.6153  2.6561 -1.2795
 1284SOL    HW215486   4.703   0.244   6.607 -0.4319  2.3666  0.5427
 1285SOL     OW15487   4.166   0.490   2.410  0.3482 -0.2324 -0.0658
 1285SOL    HW115488   4.075   0.489   2.382  1.2152  0.3424 -2.8795
 1285SOL    HW215489   4.167   0.418   2.473  1.2332 -0.8132 -0.7506
 1286SOL     OW15490   3.999   3.935   1.652 -0.1563  0.0356  0.6239
 1286SOL    HW115491   4.030   3.889   1.730  1.2808  0.6885  0.4250
 1286SOL    HW215492   4.085   3.955   1.615 -0.1956 -1.2667 -0.1810
 1287SOL     OW15493   0.756   0.700   5.610 -0.6313 -0.2796  0.4721
 1287SOL    HW115494   0.818   0.710   5.538 -0.8211 -2.8361 -0.0406
 1287SOL    HW215495   0.809   0.707   5.690 -0.4023  2.2195  0.1217
 1288SOL     OW15496   1.536   0.255   7.964 -0.1214  0.3628 -0.4847
 1288SOL    HW115497   1.471   0.322   7.985 -0.4458 -0.5242  1.4070
 1288SOL    HW215498   1.602   0.318   7.937  1.9805 -1.3105  0.7366
 1289SOL     OW15499   1.221   2.170   7.486  0.0495  0.0266  0.7924
 1289SOL    HW115500   1.231   2.244   7.547  1.3141  0.4703  0.0460
 1289SOL    HW215501   1.126   2.163   7.479  0.1086  2.2307 -2.1233
 1290SOL     OW15502   3.864   1.799  13.374  0.5793 -0.3837  0.4279
 1290SOL    HW115503   3.827   1.869  13.320  0.4054 -0.1737  0.8206
 1290SOL    HW215504   3.811   1.721  13.355  0.5473 -0.3173  0.2423
 1291SOL     OW15505   4.663   1.964   2.665  0.6478  0.0687 -0.0595
 1291SOL    HW115506   4.621   1.906   2.729 -0.6018  1.5630  0.4587
 1291SOL    HW215507   4.724   2.006   2.725  0.0780  0.0379  0.5409
 1292SOL     OW15508   1.458   2.391  15.904 -0.1841  0.2822 -0.6671
 1292SOL    HW115509   1.467   2.389  15.999  2.6933 -0.1226 -0.9345
 1292SOL    HW215510   1.365   2.400  15.886 -0.6164 -2.3778  0.2702
 1293SOL     OW15511   4.394   3.197  17.651  0.4439  0.3660 -0.4744
 1293SOL    HW115512   4.343   3.244  17.717 -2.1411 -1.4891 -1.1415
 1293SOL    HW215513   4.403   3.115  17.701  0.2545  0.0796 -0.9076
 1294SOL     OW15514   2.716   3.390  11.787 -0.0980 -0.6264  0.4895
 1294SOL    HW115515   2.663   3.313  11.766 -1.2106  0.5051 -0.8241
 1294SOL    HW215516   2.796   3.344  11.813  1.2406  2.4399  1.7901
 1295SOL     OW15517   1.017   3.254  11.646 -0.5092 -0.4110 -0.3685
 1295SOL    HW115518   0.988   3.299  11.567  1.2512  1.0423 -0.1969
 1295SOL    HW215519   0.999   3.322  11.711 -0.2986 -0.2038 -0.5260
 1296SOL     OW15520   4.255   4.549  12.490  0.3411 -0.0471  0.0720
 1296SOL    HW115521   4.169   4.532  12.452 -0.3569  0.1258  1.5598
 1296SOL    HW215522   4.302   4.466  12.481 -0.5376 -0.3873 -1.3446
 1297SOL     OW15523   4.169   2.735   5.331 -0.3984  0.1609 -0.0944
 1297SOL    HW115524   4.134   2.687   5.256 -0.5060  1.0498 -0.6069
 1297SOL    HW215525   4.153   2.671   5.400  3.1708 -0.7196 -0.1125
 1298SOL     OW15526   2.643   1.524   7.285 -0.2649 -0.0894  0.2291
 1298SOL    HW115527   2.728   1.478   7.283  0.1078  0.7105 -1.8711
 1298SOL    HW215528   2.585   1.454   7.256  0.2475  0.0262 -1.0481
 1299SOL     OW15529   3.959   0.295   6.356  0.1293  0.1170 -0.3284
 1299SOL    HW115530   4.030   0.277   6.417 -0.2298  1.3971  0.4600
 1299SOL    HW215531   4.003   0.309   6.272 -0.5217 -0.0517 -0.6972
 1300SOL     OW15532   4.545   3.829   2.383 -0.9696  0.2630  0.2610
 1300SOL    HW115533   4.529   3.735   2.392  0.4426 -0.1402 -1.4134
 1300SOL    HW215534   4.463   3.858   2.344 -0.2220 -0.1893 -1.6196
 1301SOL     OW15535   2.467   0.985   4.788  0.0105 -0.4216  0.1110
 1301SOL    HW115536   2.425   1.069   4.776  1.8780  0.5916  0.6432
 1301SOL    HW215537   2.393   0.943   4.831  0.1300 -0.5232  0.2212
 1302SOL     OW15538   2.068   1.689  15.281 -0.3050  0.3952 -0.5532
 1302SOL    HW115539   2.069   1.765  15.223 -2.4766  0.5798 -0.3763
 1302SOL    HW215540   2.013   1.623  15.240  0.2377 -0.2784 -0.2010
 1303SOL     OW15541   0.856   0.228   5.893  0.1024  0.2546 -0.2964
 1303SOL    HW115542   0.847   0.146   5.846 -1.7377  0.1928  0.1516
 1303SOL    HW215543   0.781   0.223   5.953 -1.3289  2.1380 -1.9220
 1304SOL     OW15544   1.663   3.095  12.382  0.0697  0.0236  0.3412
 1304SOL    HW115545   1.716   3.106  12.303 -1.5025 -4.0683 -1.2761
 1304SOL    HW215546   1.716   3.148  12.442  0.5578  0.2510 -0.2949
 1305SOL     OW15547   4.446   1.039  10.850 -0.1975 -1.0852  0.2188
 1305SOL    HW115548   4.526   1.014  10.897  1.6833  0.8778 -1.9194
 1305SOL    HW215549   4.397   1.020  10.930 -1.4562  1.8929  0.1382
 1306SOL     OW15550   3.953   4.684   3.618  0.0515  0.1040 -0.1283
 1306SOL    HW115551   3.914   4.598   3.607 -0.8673  0.6476 -1.1688
 1306SOL    HW215552   3.978   4.690   3.710  1.3021  0.7106 -0.4994
 1307SOL     OW15553   2.031   1.294  14.688 -0.0788 -0.5711 -0.3230
 1307SOL    HW115554   1.979   1.333  14.758  0.3722  0.6873 -0.6951
 1307SOL    HW215555   2.094   1.247  14.744  0.0478  1.2509  1.0509
 1308SOL     OW15556   1.230   3.541  14.821  0.2319  0.4119 -0.1672
 1308SOL    HW115557   1.180   3.620  14.843  1.8490  1.4925 -0.3970
 1308SOL    HW215558   1.313   3.581  14.796 -0.8421  1.9242 -1.2884
 1309SOL     OW15559   2.597   2.630   1.393  0.0883 -0.2143  0.1506
 1309SOL    HW115560   2.633   2.557   1.444  1.4880  0.3257 -0.0663
 1309SOL    HW215561   2.613   2.701   1.455 -0.1752 -0.6457  0.7112
 1310SOL     OW15562   2.339   3.350   8.913 -0.2430 -0.1036  0.3269
 1310SOL    HW115563   2.418   3.403   8.917  0.2322 -0.8592  0.9188
 1310SOL    HW215564   2.385   3.268   8.895 -0.8638 -0.7070  1.4607
 1311SOL     OW15565   3.806   3.078   1.447  0.1799  0.6366  0.7908
 1311SOL    HW115566   3.869   3.127   1.394 -0.4972 -0.7098 -1.2495
 1311SOL    HW215567   3.725   3.129   1.436 -0.4852 -0.7278 -0.6597
 1312SOL     OW15568   2.897   2.976   5.956 -0.1786  0.0615  0.1514
 1312SOL    HW115569   2.838   2.908   5.925  0.3536  0.1996 -1.1486
 1312SOL    HW215570   2.895   3.047   5.892  0.9028  0.4249  0.5137
 1313SOL     OW15571   3.432   3.805  17.403  0.1471 -0.1565  0.3318
 1313SOL    HW115572   3.430   3.722  17.355 -2.0887  1.4979 -2.4711
 1313SOL    HW215573   3.526   3.816  17.419 -0.2631  2.7917  0.6511
 1314SOL     OW15574   0.945   0.294   3.118 -0.3528 -0.0597  0.2385
 1314SOL    HW115575   0.875   0.230   3.108 -1.5013  1.5366 -2.1175
 1314SOL    HW215576   0.950   0.329   3.029 -0.8416 -0.1042  0.1960
 1315SOL     OW15577   1.345   1.378  16.945  0.4651  0.1142 -0.0336
 1315SOL    HW115578   1.274   1.359  17.007  0.4106  0.3180 -0.0323
 1315SOL    HW215579   1.416   1.363  17.008 -2.4050  0.8849  3.3898
 1316SOL     OW15580   4.700   4.696   5.127 -0.0840 -0.6865  0.5912
 1316SOL    HW115581   0.018   0.035   5.115 -1.9701  0.6660  0.5151
 1316SOL    HW215582   0.007   4.626   5.079 -1.0695 -0.8538 -0.0787
 1317SOL     OW15583   3.660   3.406   4.485 -0.2356 -0.0017 -0.0858
 1317SOL    HW115584   3.705   3.460   4.421  0.3402 -0.1409  0.2052
 1317SOL    HW215585   3.608   3.341   4.436 -1.7804  1.7910 -0.8368
 1318SOL     OW15586   3.131   0.473   2.110 -0.2041  0.2783  0.4670
 1318SOL    HW115587   3.045   0.431   2.107  0.3452 -1.0604  2.9069
 1318SOL    HW215588   3.118   0.552   2.162 -0.8583 -1.2553  2.6824
 1319SOL     OW15589   4.649   0.788  17.007  0.9776  0.1391  0.5678
 1319SOL    HW115590   4.613   0.868  16.967  0.4656 -0.3153  0.1270
 1319SOL    HW215591   4.579   0.765  17.068 -1.2716  1.7255 -1.3941
 1320SOL     OW15592   3.652   3.026   3.846 -0.3920  0.5910 -0.5014
 1320SOL    HW115593   3.636   3.039   3.753 -1.3669 -0.2959 -0.4519
 1320SOL    HW215594   3.589   2.956   3.858  1.0174 -0.7899 -1.2298
 1321SOL     OW15595   2.341   4.494   8.702  0.1294 -0.4021  0.0877
 1321SOL    HW115596   2.327   4.408   8.661 -1.1563  0.5128 -1.3951
 1321SOL    HW215597   2.268   4.497   8.764  1.4760 -0.5132  1.6743
 1322SOL     OW15598   4.436   2.815  13.267 -0.2536  0.2817  0.1805
 1322SOL    HW115599   4.386   2.749  13.314 -0.1507 -0.1033 -0.2528
 1322SOL    HW215600   4.438   2.878  13.339  1.8984  0.3879  0.0484
 1323SOL     OW15601   1.081   0.793   3.196 -0.3848 -0.4038  0.0917
 1323SOL    HW115602   1.129   0.712   3.178  0.4819 -0.4329  2.5552
 1323SOL    HW215603   1.109   0.845   3.120  3.1104  1.4124  2.5928
 1324SOL     OW15604   1.346   0.253   4.653 -0.1385 -0.0513  0.1573
 1324SOL    HW115605   1.258   0.282   4.629  0.5138  1.7136 -0.0808
 1324SOL    HW215606   1.367   0.171   4.608 -1.6917  0.5180 -1.5881
 1325SOL     OW15607   1.066   1.553   4.882  0.2395 -0.7112 -0.0310
 1325SOL    HW115608   1.100   1.622   4.938 -0.0708 -3.2252  3.2615
 1325SOL    HW215609   1.000   1.595   4.827 -0.2129  0.4933  1.4317
 1326SOL     OW15610   3.359   1.807   7.986  0.0491  0.7942 -0.3359
 1326SOL    HW115611   3.287   1.753   7.952  1.0785 -1.5473  1.2610
 1326SOL    HW215612   3.336   1.887   7.937 -1.5170 -0.3107 -1.4508
 1327SOL     OW15613   2.295   1.640   2.670  0.5256  0.0717  0.2510
 1327SOL    HW115614   2.287   1.650   2.765 -1.3348 -0.7241  0.1895
 1327SOL    HW215615   2.223   1.693   2.636  1.2930 -0.3417 -2.0527
 1328SOL     OW15616   0.892   1.071   7.615 -0.1009  0.0444  0.4932
 1328SOL    HW115617   0.942   1.002   7.572  0.7341  0.1892  1.2241
 1328SOL    HW215618   0.952   1.103   7.682 -0.4082  0.3993  0.5989
 1329SOL     OW15619   2.960   2.594   4.809 -0.5630 -0.6203 -0.4122
 1329SOL    HW115620   2.941   2.570   4.899 -2.6720  0.7534 -0.4942
 1329SOL    HW215621   2.872   2.586   4.772 -1.1811 -0.2107  0.9756
 1330SOL     OW15622   3.392   1.218  15.366  0.0907  0.1785  0.4681
 1330SOL    HW115623   3.429   1.249  15.283 -0.1589  0.2965  0.3988
 1330SOL    HW215624   3.351   1.297  15.403  0.1304  0.7455 -0.6796
 1331SOL     OW15625   4.107   0.861   3.910 -0.1293  0.1709  0.3309
 1331SOL    HW115626   4.120   0.926   3.979  1.3237  1.4525 -1.1193
 1331SOL    HW215627   4.181   0.876   3.851 -1.2191  1.4349 -0.7265
 1332SOL     OW15628   1.613   2.479   2.755  0.4264  0.0726  0.4254
 1332SOL    HW115629   1.645   2.449   2.670  0.2751  1.1633 -0.0115
 1332SOL    HW215630   1.531   2.514   2.718  1.2039 -0.8787 -2.2189
 1333SOL     OW15631   3.412   1.217   7.354  0.0008 -0.2759  0.2403
 1333SOL    HW115632   3.499   1.182   7.372  0.3828  0.1071 -0.8488
 1333SOL    HW215633   3.366   1.135   7.338 -0.1622 -0.4626  1.7047
 1334SOL     OW15634   0.001   0.875   9.208  0.1862 -0.2576 -0.1801
 1334SOL    HW115635   0.014   0.800   9.266 -0.9773 -1.2788 -1.2329
 1334SOL    HW215636   4.713   0.842   9.121 -0.3362 -1.9353  0.6023
 1335SOL     OW15637   0.398   0.520   9.055  0.3844  0.0951 -0.1524
 1335SOL    HW115638   0.349   0.588   9.102 -1.5943 -1.9618  0.7111
 1335SOL    HW215639   0.368   0.544   8.967 -1.8820 -3.6616 -0.3548
 1336SOL     OW15640   3.864   2.007  14.527  0.0170  0.0243 -0.1763
 1336SOL    HW115641   3.867   2.101  14.541  0.9746 -0.0285 -0.0297
 1336SOL    HW215642   3.880   1.971  14.615 -0.5291 -0.5077 -0.2930
 1337SOL     OW15643   3.361   3.121   9.024  0.1751 -0.0032 -0.1657
 1337SOL    HW115644   3.438   3.111   9.080  0.8680 -0.5843 -1.2114
 1337SOL    HW215645   3.399   3.147   8.940  2.3698 -0.1294  0.7875
 1338SOL     OW15646   0.009   2.020  13.537  0.0410 -0.2897 -0.7187
 1338SOL    HW115647   0.078   2.062  13.589  0.3962 -0.4247 -1.0821
 1338SOL    HW215648   0.035   1.928  13.550  0.1925 -0.1479 -0.0184
 1339SOL     OW15649   3.179   0.649   6.752  0.2535 -0.2390 -0.8493
 1339SOL    HW115650   3.091   0.647   6.714 -0.2356  1.2310  0.1786
 1339SOL    HW215651   3.177   0.567   6.802 -4.3144  0.4339  0.1300
 1340SOL     OW15652   2.911   2.467   6.822 -0.3819  0.0895  0.6264
 1340SOL    HW115653   2.953   2.407   6.760 -1.8690 -0.5352  0.2219
 1340SOL    HW215654   2.950   2.551   6.799 -2.8688  0.6976 -1.3872
 1341SOL     OW15655   0.276   0.748   3.935  0.3001 -0.5903 -0.6685
 1341SOL    HW115656   0.349   0.774   3.991 -1.0563  2.8332 -0.5057
 1341SOL    HW215657   0.208   0.802   3.975  1.0956 -0.0814 -0.0097
 1342SOL     OW15658   3.002   0.960   7.395  0.1061 -0.6705  0.0706
 1342SOL    HW115659   3.032   0.939   7.483  3.0230 -2.4728 -1.3579
 1342SOL    HW215660   2.995   1.055   7.407 -0.8206 -0.7357  0.0204
 1343SOL     OW15661   1.499   4.543   8.153  0.0044  0.4738 -0.0727
 1343SOL    HW115662   1.447   4.479   8.105 -0.3141  0.8538 -0.2277
 1343SOL    HW215663   1.465   4.625   8.120  0.8016  0.8897  0.1366
 1344SOL     OW15664   1.152   2.919  12.339  0.3375 -0.0116  0.5777
 1344SOL    HW115665   1.230   2.975  12.341 -0.7932  1.5523  0.6237
 1344SOL    HW215666   1.151   2.897  12.246  0.4136  0.5932  0.4305
 1345SOL     OW15667   2.700   3.758   2.330 -0.9136 -0.2244 -0.2728
 1345SOL    HW115668   2.635   3.713   2.382 -0.8071  0.6239  0.6054
 1345SOL    HW215669   2.679   3.849   2.351  2.3641  0.5558 -0.3582
 1346SOL     OW15670   1.873   3.718   7.484  0.0361 -0.2477 -0.0404
 1346SOL    HW115671   1.840   3.668   7.410  1.3605 -0.8061 -0.2489
 1346SOL    HW215672   1.967   3.732   7.473  0.3740  0.0279  3.1636
 1347SOL     OW15673   2.067   1.540   3.779  0.0845  0.4603  0.2564
 1347SOL    HW115674   2.023   1.455   3.780  1.0521 -0.0562 -0.9596
 1347SOL    HW215675   2.082   1.544   3.685 -1.5996  1.8598  0.0581
 1348SOL     OW15676   2.611   2.634   6.485  0.8137  0.1615  0.1292
 1348SOL    HW115677   2.567   2.595   6.410  4.4648 -2.7400 -0.5065
 1348SOL    HW215678   2.694   2.586   6.477  0.0845 -0.6920 -2.3588
 1349SOL     OW15679   1.071   3.405  13.463  0.2118 -0.1293  0.3285
 1349SOL    HW115680   1.148   3.457  13.439  0.3146 -1.0856 -1.3854
 1349SOL    HW215681   0.999   3.464  13.442  0.1316  0.2125  1.5383
 1350SOL     OW15682   4.698   0.698  17.335  0.0030  0.1547  0.2002
 1350SOL    HW115683   4.675   0.614  17.375  2.8222 -0.5315  0.3820
 1350SOL    HW215684   4.630   0.701  17.269 -0.0223  1.3213  0.2844
 1351SOL     OW15685   1.825   0.207   4.040  0.2690  0.2630  0.3153
 1351SOL    HW115686   1.889   0.137   4.025 -0.4119  0.0362 -1.5208
 1351SOL    HW215687   1.824   0.212   4.136  0.8349  2.1862  0.2318
 1352SOL     OW15688   1.238   4.380   9.311  0.4451  0.6908 -0.2138
 1352SOL    HW115689   1.325   4.364   9.276  0.7727 -1.4254  1.5702
 1352SOL    HW215690   1.250   4.457   9.366  2.0000 -0.3158  0.8610
 1353SOL     OW15691   2.907   0.922   1.257 -0.0328  0.4926 -0.0525
 1353SOL    HW115692   2.916   0.828   1.240  2.0014  0.0780  3.2725
 1353SOL    HW215693   2.967   0.930   1.331 -0.8376 -0.7592  0.7440
 1354SOL     OW15694   3.996   1.618   5.363 -0.4462 -0.3027 -0.6097
 1354SOL    HW115695   4.079   1.592   5.405  0.3451  3.5827  0.1756
 1354SOL    HW215696   4.020   1.688   5.303  1.1929 -2.1991 -2.1782
 1355SOL     OW15697   4.383   4.701  15.045 -0.0975  0.1068  0.8489
 1355SOL    HW115698   4.294   4.693  15.009  0.0538 -2.4522  1.0640
 1355SOL    HW215699   4.376   0.046  15.094 -2.2274  0.5226 -0.1298
 1356SOL     OW15700   0.464   4.020  15.941  0.0964  0.8216  0.4155
 1356SOL    HW115701   0.404   4.084  15.978 -0.4082 -0.3535  1.6167
 1356SOL    HW215702   0.532   4.078  15.907  1.0028 -1.1529 -1.1549
 1357SOL     OW15703   1.812   2.070   6.646 -0.1104  0.0789 -0.3523
 1357SOL    HW115704   1.828   1.977   6.664  1.7168  0.6554  0.9911
 1357SOL    HW215705   1.893   2.098   6.690  0.1312  0.0738 -0.7996
 1358SOL     OW15706   2.195   0.028   0.426 -0.3839 -0.1033  0.2610
 1358SOL    HW115707   2.131   4.722   0.483 -2.2275 -2.2745 -3.4044
 1358SOL    HW215708   2.246   0.080   0.487  0.5652 -1.6662  0.7793
 1359SOL     OW15709   2.097   3.015   9.121  0.3759 -0.3146  0.2918
 1359SOL    HW115710   2.173   2.993   9.066  0.9167 -0.6959  1.1940
 1359SOL    HW215711   2.084   2.937   9.174  0.9637 -1.8621 -1.8755
 1360SOL     OW15712   0.260   3.570  14.380 -0.9459  0.2101 -0.0554
 1360SOL    HW115713   0.335   3.621  14.350 -1.0673  0.5391  0.2044
 1360SOL    HW215714   0.281   3.542  14.469 -1.2234 -0.0554 -0.0705
 1361SOL     OW15715   2.702   0.074   4.918 -0.6843 -0.5276  0.1573
 1361SOL    HW115716   2.611   0.102   4.911 -1.3455 -2.0341  2.6470
 1361SOL    HW215717   2.725   0.078   5.011  2.4124 -0.5350 -0.5961
 1362SOL     OW15718   0.062   1.675   3.643  0.1351 -0.1296 -0.1439
 1362SOL    HW115719   4.710   1.708   3.630  0.2996  0.1447 -0.5688
 1362SOL    HW215720   0.115   1.755   3.639 -2.3785  1.5716  0.2358
 1363SOL     OW15721   2.423   4.259   7.884 -0.6837  0.4847 -0.4711
 1363SOL    HW115722   2.380   4.255   7.799  0.6655 -4.5164 -0.9013
 1363SOL    HW215723   2.355   4.254   7.951  1.1287  0.4390  1.3717
 1364SOL     OW15724   3.135   3.978   7.710 -0.4124  0.3770  0.0081
 1364SOL    HW115725   3.229   3.997   7.703 -0.6288  2.2656  2.4015
 1364SOL    HW215726   3.128   3.949   7.801  0.0276 -1.8678 -0.6778
 1365SOL     OW15727   1.160   4.017   5.380  0.1087 -0.2651 -0.6175
 1365SOL    HW115728   1.215   3.988   5.452 -1.0222 -0.6896  0.0711
 1365SOL    HW215729   1.152   3.936   5.329  0.4172 -1.5366  1.3467
 1366SOL     OW15730   2.890   3.266   6.267 -0.3781  0.0504  0.1137
 1366SOL    HW115731   2.896   3.171   6.262 -2.0336 -0.0233 -0.2694
 1366SOL    HW215732   2.970   3.283   6.318 -0.6106  0.8308  0.2219
 1367SOL     OW15733   1.511   3.739   8.597  0.5582  0.0009  0.0590
 1367SOL    HW115734   1.531   3.813   8.539  0.0884 -0.8311 -1.1791
 1367SOL    HW215735   1.600   3.725   8.629  1.2356  0.5388 -1.5595
 1368SOL     OW15736   3.054   2.882   8.033 -0.6905 -0.3415  0.3987
 1368SOL    HW115737   3.120   2.824   8.070  1.6746 -0.6189 -4.3871
 1368SOL    HW215738   3.067   2.963   8.084 -2.3564 -0.5082  1.0986
 1369SOL     OW15739   1.314   2.452   3.360 -0.4813 -0.1142 -0.0869
 1369SOL    HW115740   1.248   2.480   3.296  0.2140  0.4728 -0.5559
 1369SOL    HW215741   1.341   2.539   3.391 -0.4697 -0.1639  0.0445
 1370SOL     OW15742   2.504   2.310   2.172 -0.0089  0.1006 -0.5339
 1370SOL    HW115743   2.462   2.386   2.132  1.9801  1.8150  0.6455
 1370SOL    HW215744   2.434   2.249   2.197  0.4849 -0.5922 -0.8384
 1371SOL     OW15745   2.006   2.014   7.923 -0.3955  0.3253  0.1270
 1371SOL    HW115746   1.995   1.953   7.850  1.6303 -1.8014  1.5984
 1371SOL    HW215747   1.915   2.040   7.941 -0.1673  2.0720 -1.2747
 1372SOL     OW15748   0.360   0.696   0.066 -0.1613  0.1131  0.1832
 1372SOL    HW115749   0.317   0.690   0.152 -0.6446 -0.1202 -0.0740
 1372SOL    HW215750   0.348   0.787   0.041 -1.2582 -0.0328  0.1743
 1373SOL     OW15751   0.873   0.404   7.796 -0.4163  0.0509 -0.1879
 1373SOL    HW115752   0.868   0.309   7.802  0.3177  0.0489  0.3349
 1373SOL    HW215753   0.882   0.430   7.888 -0.4664 -2.5722  0.5517
 1374SOL     OW15754   3.540   0.249   8.532  0.3849  0.2389  0.1033
 1374SOL    HW115755   3.588   0.174   8.564  1.5706  1.6652  1.6333
 1374SOL    HW215756   3.451   0.215   8.544 -0.0472  0.7565 -1.5835
 1375SOL     OW15757   2.776   2.822   1.909  0.0382 -0.1194  0.1886
 1375SOL    HW115758   2.870   2.808   1.915  0.4266  1.3341 -2.7423
 1375SOL    HW215759   2.741   2.734   1.893  0.3759 -0.0554 -0.8853
 1376SOL     OW15760   0.750   4.086   1.635 -1.1456  0.3819 -0.2210
 1376SOL    HW115761   0.656   4.099   1.627 -1.0773  0.2219 -1.2149
 1376SOL    HW215762   0.750   3.992   1.650 -0.3072 -0.2150 -3.9238
 1377SOL     OW15763   0.179   2.811   3.858 -0.9078 -0.1789  0.6470
 1377SOL    HW115764   0.271   2.825   3.833 -0.6977 -2.9269 -0.1057
 1377SOL    HW215765   0.156   2.882   3.918  0.3433  1.0015 -0.2803
 1378SOL     OW15766   1.269   3.067   5.547  0.0707 -0.1606 -0.6636
 1378SOL    HW115767   1.344   3.124   5.567 -0.1601  0.6281 -2.0464
 1378SOL    HW215768   1.232   3.119   5.475  0.0139  1.2420  0.3855
 1379SOL     OW15769   0.306   3.561   7.919 -0.0403  0.4045 -0.1277
 1379SOL    HW115770   0.216   3.530   7.923  0.8846 -2.2948 -0.1382
 1379SOL    HW215771   0.346   3.499   7.859  0.2419 -0.6328  1.1207
 1380SOL     OW15772   3.294   3.948   2.599  0.2497 -0.3352  0.3999
 1380SOL    HW115773   3.206   3.984   2.610  1.5847  2.7011  1.1247
 1380SOL    HW215774   3.332   4.029   2.567 -0.7757  0.6228  1.5918
 1381SOL     OW15775   3.394   2.813  10.729 -0.1001 -0.6835  0.0489
 1381SOL    HW115776   3.415   2.836  10.639  2.2953  1.6723  1.2036
 1381SOL    HW215777   3.388   2.895  10.778 -1.4717  0.3884 -1.9342
 1382SOL     OW15778   1.663   1.874   5.541  0.0399 -0.4951 -0.4925
 1382SOL    HW115779   1.651   1.788   5.582 -0.7856 -0.6021 -0.9623
 1382SOL    HW215780   1.573   1.907   5.553 -0.2328 -1.4477  0.0904
 1383SOL     OW15781   4.600   0.840  11.282  0.3854 -0.6559  0.0989
 1383SOL    HW115782   4.571   0.783  11.353 -0.1414  1.5470  1.6792
 1383SOL    HW215783   4.614   0.785  11.205 -2.5602 -0.3758 -0.6163
 1384SOL     OW15784   2.737   4.023   5.750 -0.1872 -0.3746 -0.4605
 1384SOL    HW115785   2.644   4.001   5.753 -0.0000 -1.1875 -0.5423
 1384SOL    HW215786   2.769   3.940   5.785  0.9848  0.3840  0.3063
 1385SOL     OW15787   1.912   0.378   3.134 -0.0528 -0.9741 -0.3714
 1385SOL    HW115788   1.964   0.309   3.093 -1.3637 -2.2087  0.0339
 1385SOL    HW215789   1.958   0.380   3.218  1.4193 -0.4432 -1.1932
 1386SOL     OW15790   3.255   0.105   4.296 -0.5851  0.3876  0.5062
 1386SOL    HW115791   3.343   0.091   4.263 -0.7844 -1.6506  0.8535
 1386SOL    HW215792   3.271   0.141   4.383 -3.9512  0.9835  0.9153
 1387SOL     OW15793   4.513   3.282   3.197  0.0854  0.2125  0.5255
 1387SOL    HW115794   4.538   3.370   3.226  0.5157  0.3023 -0.1055
 1387SOL    HW215795   4.547   3.270   3.108 -0.4502 -1.8181  0.6059
 1388SOL     OW15796   2.898   2.765   2.421  0.1556  0.1992 -0.1871
 1388SOL    HW115797   2.861   2.678   2.435 -3.7789  1.6078 -1.7503
 1388SOL    HW215798   2.858   2.782   2.336 -1.4306  0.8892  0.6982
 1389SOL     OW15799   1.269   3.218   3.378  0.2529 -0.1137  0.2717
 1389SOL    HW115800   1.238   3.164   3.451  1.0628 -0.5932  0.2674
 1389SOL    HW215801   1.198   3.281   3.383  0.0499 -0.1902 -1.6280
 1390SOL     OW15802   0.372   2.955   2.963  0.5671  0.2503  0.1205
 1390SOL    HW115803   0.427   3.030   2.985 -1.2692  1.1551  1.5471
 1390SOL    HW215804   0.364   2.967   2.868  0.5322  1.7942  0.3247
 1391SOL     OW15805   2.342   0.869   5.835  0.3766  0.1774 -0.4107
 1391SOL    HW115806   2.397   0.809   5.785  2.5840  1.6204  0.2790
 1391SOL    HW215807   2.408   0.917   5.885 -0.9113 -0.8614  2.2872
 1392SOL     OW15808   3.560   0.013   4.876  0.0358  0.3513  0.0344
 1392SOL    HW115809   3.468   0.020   4.852 -0.2488 -0.1406  0.9795
 1392SOL    HW215810   3.572   0.052   4.963 -0.3428 -0.2746  0.3693
 1393SOL     OW15811   1.402   2.652   9.244  0.1155  0.1511 -0.5784
 1393SOL    HW115812   1.383   2.632   9.335 -0.9995 -2.0950 -1.3325
 1393SOL    HW215813   1.316   2.629   9.210  0.5089 -0.0898 -1.4042
 1394SOL     OW15814   0.325   4.355   7.004 -0.0941  0.1494  0.1231
 1394SOL    HW115815   0.238   4.340   6.969 -0.4410 -2.2231  2.0008
 1394SOL    HW215816   0.370   4.282   6.960 -2.4563 -1.1102 -0.1794
 1395SOL     OW15817   2.818   0.374  16.916 -0.9747 -0.1373  0.5424
 1395SOL    HW115818   2.752   0.306  16.904  0.9987 -1.8348 -0.7684
 1395SOL    HW215819   2.855   0.353  16.831 -2.2766 -0.2343  0.0080
 1396SOL     OW15820   3.991   3.709  16.816 -0.0185  0.1234  0.2266
 1396SOL    HW115821   3.980   3.783  16.876 -0.4148  2.0234 -2.2204
 1396SOL    HW215822   3.956   3.638  16.870  1.2583 -0.4516  0.2728
 1397SOL     OW15823   2.271   3.881   3.221  0.1690  0.2944  0.1806
 1397SOL    HW115824   2.288   3.839   3.137 -2.8007 -1.0365  0.2148
 1397SOL    HW215825   2.176   3.895   3.216  0.2656  0.8921  0.0611
 1398SOL     OW15826   4.031   2.434   9.370 -0.0902  0.1999 -0.1775
 1398SOL    HW115827   3.964   2.378   9.331  0.1522 -0.6768  0.6664
 1398SOL    HW215828   4.113   2.386   9.355  0.4944  0.7310  1.3545
 1399SOL     OW15829   3.938   2.668   7.836  0.2691 -0.0651  0.8575
 1399SOL    HW115830   3.980   2.754   7.829  1.9545 -0.8597  1.0353
 1399SOL    HW215831   4.009   2.610   7.806 -0.5679  0.0922 -1.4615
 1400SOL     OW15832   3.386   1.200   0.667 -0.3038  0.0582  0.7536
 1400SOL    HW115833   3.347   1.145   0.734  0.3326 -1.2802  0.0249
 1400SOL    HW215834   3.415   1.137   0.600 -2.5870  2.3443 -2.3829
 1401SOL     OW15835   2.367   0.442   5.077  0.4100  0.5793 -0.0145
 1401SOL    HW115836   2.345   0.528   5.112 -0.5787  0.9328 -1.5246
 1401SOL    HW215837   2.368   0.447   4.981  2.1870 -0.7169 -0.0565
 1402SOL     OW15838   2.471   4.675  10.659 -0.4967 -0.4368 -0.4693
 1402SOL    HW115839   2.491   4.663  10.751  0.4581 -0.3662 -0.6732
 1402SOL    HW215840   2.465   4.585  10.629  4.3747 -0.7443 -0.4221
 1403SOL     OW15841   3.517   4.622  11.728 -0.0724  0.2396  0.2165
 1403SOL    HW115842   3.467   4.542  11.715  0.6167 -0.2439  0.5037
 1403SOL    HW215843   3.533   4.652  11.639 -3.1652  1.2383  0.0067
 1404SOL     OW15844   4.041   0.520   3.096 -1.0530  0.2528 -0.3251
 1404SOL    HW115845   4.106   0.488   3.159 -0.4036  0.4528 -0.8969
 1404SOL    HW215846   4.081   0.504   3.011  1.1195 -3.7196  1.4576
 1405SOL     OW15847   2.979   4.077  15.023  1.0362 -0.0362 -0.2765
 1405SOL    HW115848   3.048   4.067  14.958  1.1851 -1.2983  0.0677
 1405SOL    HW215849   3.029   4.052  15.101 -1.3819  2.4333  2.1188
 1406SOL     OW15850   1.282   1.189   0.050  0.1675 -0.7030 -1.0866
 1406SOL    HW115851   1.284   1.244   0.128  0.5289 -3.3969  0.7903
 1406SOL    HW215852   1.376   1.183   0.036  0.2163 -0.6223 -0.7927
 1407SOL     OW15853   1.304   0.578   6.539  0.6894 -0.6855  0.1853
 1407SOL    HW115854   1.216   0.542   6.526  0.5596 -0.6477  1.0136
 1407SOL    HW215855   1.330   0.502   6.590  1.5302 -1.5077 -1.4587
 1408SOL     OW15856   3.774   0.407   9.305  0.0131  0.0247  0.1255
 1408SOL    HW115857   3.768   0.323   9.351 -0.7061 -0.3230 -0.6037
 1408SOL    HW215858   3.731   0.465   9.368  1.6781  0.5027  0.8315
 1409SOL     OW15859   2.651   1.285   2.677 -0.0076 -0.0015  0.1689
 1409SOL    HW115860   2.581   1.342   2.709  0.3896  0.2884  0.5292
 1409SOL    HW215861   2.644   1.282   2.582  3.8901 -1.8523 -0.0732
 1410SOL     OW15862   4.487   0.599   4.760  0.0644  0.2213 -0.3365
 1410SOL    HW115863   4.546   0.587   4.685  1.5879 -0.7689  1.0117
 1410SOL    HW215864   4.409   0.611   4.707  0.3315 -0.8100 -0.9778
 1411SOL     OW15865   4.089   0.514  11.011  0.0914 -0.4010 -0.8384
 1411SOL    HW115866   3.997   0.540  11.005  0.3446  0.4207 -1.0782
 1411SOL    HW215867   4.114   0.528  11.102  0.3111 -0.2859 -0.9175
 1412SOL     OW15868   3.013   0.929   9.168 -0.5345 -0.1455 -0.0321
 1412SOL    HW115869   3.039   0.939   9.260 -0.0830 -0.3740 -0.1379
 1412SOL    HW215870   2.918   0.935   9.175 -0.3956 -1.8468  3.4617
 1413SOL     OW15871   3.982   4.566   6.986  0.3567 -0.2489  0.1565
 1413SOL    HW115872   3.919   4.516   6.934  0.4886 -0.3965  0.1387
 1413SOL    HW215873   3.931   4.646   6.998 -1.0541 -1.6385  3.6225
 1414SOL     OW15874   1.487   1.681   3.463  0.8297 -0.0914  0.0214
 1414SOL    HW115875   1.393   1.663   3.472  1.2099 -0.5420  3.0884
 1414SOL    HW215876   1.499   1.752   3.526  0.8420 -0.4042  0.3729
 1415SOL     OW15877   1.177   3.340   5.605 -0.3143  0.5976  0.3545
 1415SOL    HW115878   1.181   3.364   5.513  0.5691 -1.2515 -0.0866
 1415SOL    HW215879   1.268   3.338   5.636 -0.3833 -0.7803  0.4617
 1416SOL     OW15880   1.110   1.255   5.605  0.7916 -0.4759 -0.2058
 1416SOL    HW115881   1.040   1.301   5.558  0.4080 -0.3321  0.5028
 1416SOL    HW215882   1.100   1.164   5.575  2.0319 -1.3941  2.1379
 1417SOL     OW15883   0.197   1.223   5.723 -0.4359  0.2481  1.0212
 1417SOL    HW115884   0.185   1.169   5.645  1.3972  1.5425 -0.1553
 1417SOL    HW215885   0.125   1.285   5.709 -0.8472 -0.6825 -0.9362
 1418SOL     OW15886   1.505   0.125  15.609 -0.3425 -0.6022 -0.6184
 1418SOL    HW115887   1.544   0.126  15.696  0.1352  2.3244 -0.8422
 1418SOL    HW215888   1.507   0.033  15.583  0.3474 -1.0659  1.1068
 1419SOL     OW15889   2.277   3.941  13.623 -0.0376 -0.1270  0.1928
 1419SOL    HW115890   2.320   3.876  13.679 -2.8065 -1.3530  0.9158
 1419SOL    HW215891   2.187   3.934  13.656  0.6515 -0.9390  1.9293
 1420SOL     OW15892   4.698   4.175  14.489 -0.8265 -0.1458 -0.1034
 1420SOL    HW115893   4.698   4.112  14.417  0.8901 -0.7599  0.4185
 1420SOL    HW215894   4.617   4.159  14.536 -0.6905 -1.9345 -0.4667
 1421SOL     OW15895   1.284   3.290  13.596 -0.7823  0.7072 -0.3018
 1421SOL    HW115896   1.227   3.363  13.572  0.2594  1.3220 -0.9558
 1421SOL    HW215897   1.248   3.209  13.559  3.8012 -2.1641  1.4709
 1422SOL     OW15898   2.318   0.818   6.240  0.4075 -0.4495  0.1452
 1422SOL    HW115899   2.297   0.825   6.333 -1.2118  1.6882 -0.3688
 1422SOL    HW215900   2.236   0.850   6.203 -0.1302 -0.8459  1.0034
 1423SOL     OW15901   4.034   0.232  14.211  0.3975 -0.0694 -0.1010
 1423SOL    HW115902   3.946   0.256  14.180 -0.1062 -1.5231  0.2332
 1423SOL    HW215903   4.076   0.223  14.125 -2.8654  1.0076 -1.8458
 1424SOL     OW15904   0.735   4.327   9.517 -0.1035 -0.1821  0.6842
 1424SOL    HW115905   0.742   4.335   9.612 -1.1655  0.6790  0.6844
 1424SOL    HW215906   0.736   4.231   9.510 -0.8845 -0.2677  1.8745
 1425SOL     OW15907   2.069   2.199   9.052  0.1068  0.0157  0.5156
 1425SOL    HW115908   2.027   2.186   8.967  1.8628  0.4738 -0.4238
 1425SOL    HW215909   2.042   2.127   9.109  1.7117 -0.8270  0.1967
 1426SOL     OW15910   2.584   0.460   5.869  0.0911  0.2485 -0.5568
 1426SOL    HW115911   2.598   0.494   5.780 -1.0208 -0.4401 -0.9969
 1426SOL    HW215912   2.629   0.376   5.853  0.1831  0.2003 -0.0297
 1427SOL     OW15913   0.114   1.063  15.476 -0.3485  0.3113  0.1958
 1427SOL    HW115914   0.169   1.035  15.549 -0.5594 -0.5643  0.0225
 1427SOL    HW215915   0.147   1.001  15.411 -0.7070 -0.2728  0.5635
 1428SOL     OW15916   3.376   3.642   6.569 -0.2660 -0.1284  0.3522
 1428SOL    HW115917   3.388   3.574   6.636 -1.9177 -0.2069  0.5614
 1428SOL    HW215918   3.352   3.590   6.493  0.7525 -0.6099  0.3532
 1429SOL     OW15919   0.563   3.645  13.427 -0.7701 -0.0395 -0.8360
 1429SOL    HW115920   0.578   3.580  13.359 -0.2667 -1.0491  0.2320
 1429SOL    HW215921   0.587   3.729  13.388  1.3112 -0.8954 -1.3865
 1430SOL     OW15922   1.651   2.792   7.619  0.0153 -0.3243  0.0388
 1430SOL    HW115923   1.737   2.833   7.622 -0.9942  1.9562 -2.3918
 1430SOL    HW215924   1.663   2.710   7.572  0.2657 -0.5856  0.5491
 1431SOL     OW15925   4.381   4.442  17.227  0.7194 -0.0998 -0.8052
 1431SOL    HW115926   4.443   4.378  17.192  0.4338  0.7453 -2.8490
 1431SOL    HW215927   4.367   4.505  17.157  1.0774 -0.8539 -1.5625
 1432SOL     OW15928   3.856   1.740   2.436  0.0768  0.2208 -0.1492
 1432SOL    HW115929   3.782   1.792   2.405  1.0806  1.7229 -0.0210
 1432SOL    HW215930   3.890   1.710   2.352  0.4041 -2.7666  1.0532
 1433SOL     OW15931   4.621   4.137   8.428 -0.3857 -0.2110  0.3456
 1433SOL    HW115932   4.685   4.148   8.358  0.7430 -0.7760  1.2836
 1433SOL    HW215933   4.673   4.084   8.489  1.4015  0.1016 -0.9306
 1434SOL     OW15934   3.601   0.758  15.213 -0.1855  0.2549  0.0703
 1434SOL    HW115935   3.510   0.766  15.188 -0.9720 -3.6288  1.6815
 1434SOL    HW215936   3.637   0.836  15.171  0.2097  0.3800  0.6292
 1435SOL     OW15937   3.347   2.499   6.943  0.3499  0.7956  0.4584
 1435SOL    HW115938   3.261   2.492   6.984  0.9677  0.4058  1.6922
 1435SOL    HW215939   3.401   2.536   7.013  0.3674  1.0899  0.2886
 1436SOL     OW15940   0.764   2.235   8.545 -0.0372 -0.7656  0.1507
 1436SOL    HW115941   0.856   2.210   8.545  0.2396  0.2132  2.2948
 1436SOL    HW215942   0.768   2.314   8.491 -1.5860  0.3657  1.6406
 1437SOL     OW15943   0.832   0.212   2.050 -0.2834  0.4882  0.2795
 1437SOL    HW115944   0.846   0.148   2.120  0.4166  0.7955  0.4172
 1437SOL    HW215945   0.756   0.262   2.079 -1.4237 -0.7557 -0.5485
 1438SOL     OW15946   3.378   1.102  10.889 -0.1729 -0.2055  0.1934
 1438SOL    HW115947   3.316   1.143  10.950 -0.4536  0.0455 -0.2616
 1438SOL    HW215948   3.457   1.104  10.943  0.0695  2.8388 -0.2660
 1439SOL     OW15949   0.226   0.928   7.431  0.1198 -0.2713 -0.3712
 1439SOL    HW115950   0.302   0.986   7.425  0.7958 -1.0137  0.9757
 1439SOL    HW215951   0.236   0.917   7.526  2.6258  0.1521 -0.5817
 1440SOL     OW15952   2.023   3.125   7.401  0.2900 -0.1579  0.3158
 1440SOL    HW115953   2.027   3.034   7.372 -0.9424  0.2556 -1.2039
 1440SOL    HW215954   1.941   3.152   7.359  1.1775  0.9011 -0.7265
 1441SOL     OW15955   2.062   1.687   1.475  0.2846 -0.2584  0.1782
 1441SOL    HW115956   2.011   1.654   1.401 -0.1439  0.0286  0.3461
 1441SOL    HW215957   1.996   1.711   1.540  0.2316 -1.0986  0.4325
 1442SOL     OW15958   1.907   3.001   3.722 -0.5174  0.1485  0.1726
 1442SOL    HW115959   1.858   3.082   3.711  0.5777  0.8448  0.4323
 1442SOL    HW215960   1.944   2.980   3.636 -3.6873 -2.3625 -0.5570
 1443SOL     OW15961   2.632   4.441   6.171 -0.2116  0.1730  0.2802
 1443SOL    HW115962   2.546   4.482   6.167  1.0250  2.6206 -1.3788
 1443SOL    HW215963   2.635   4.406   6.260 -1.4464  1.2958  0.7651
 1444SOL     OW15964   1.650   4.670   7.005 -0.2285  0.0586  0.1571
 1444SOL    HW115965   1.574   4.616   7.028  0.7610 -1.8319 -0.9734
 1444SOL    HW215966   1.621   0.014   7.046  1.9796  0.9034  0.0044
 1445SOL     OW15967   3.371   0.878   6.376  0.1269 -0.4067  0.8432
 1445SOL    HW115968   3.392   0.915   6.461 -0.3393  2.1631 -0.1525
 1445SOL    HW215969   3.343   0.956   6.328  0.0549 -1.7019 -1.2229
 1446SOL     OW15970   2.062   4.118   7.083 -0.0513  0.4931  0.1521
 1446SOL    HW115971   2.046   4.132   7.176  0.8045  1.8473  0.0896
 1446SOL    HW215972   2.140   4.064   7.070 -0.2055  0.1885  0.4825
 1447SOL     OW15973   4.556   1.930   5.295 -0.2039  0.6930 -0.4154
 1447SOL    HW115974   4.482   1.955   5.239 -3.1874  0.5566  3.4543
 1447SOL    HW215975   4.567   2.010   5.345 -1.4255  0.7476 -0.2152
 1448SOL     OW15976   2.329   3.085   8.219  0.0248 -0.0221  0.1885
 1448SOL    HW115977   2.347   3.122   8.305  0.3803  2.0400 -0.7821
 1448SOL    HW215978   2.307   3.157   8.159  1.4239 -0.7759 -1.2185
 1449SOL     OW15979   0.234   2.374   3.214  0.6121 -0.7703  0.1753
 1449SOL    HW115980   0.168   2.337   3.274 -1.2225 -0.2027 -1.4910
 1449SOL    HW215981   0.182   2.404   3.139  2.0614  1.2361 -0.0163
 1450SOL     OW15982   0.263   3.576   4.317 -0.5970 -0.5425  0.6391
 1450SOL    HW115983   0.348   3.561   4.277  0.0395  1.5757  1.2104
 1450SOL    HW215984   0.286   3.598   4.407  0.9804 -1.6272  0.4966
 1451SOL     OW15985   3.150   3.770   9.873 -0.2232 -0.2126  0.2056
 1451SOL    HW115986   3.196   3.696   9.912 -2.2531 -0.7279  1.6307
 1451SOL    HW215987   3.076   3.787   9.931 -0.9595 -1.7714 -0.2940
 1452SOL     OW15988   1.875   1.349   4.986  0.0898  0.2556  0.0443
 1452SOL    HW115989   1.899   1.431   4.944  0.3918  0.2800  0.2676
 1452SOL    HW215990   1.939   1.350   5.057 -1.3061  1.8696  1.2724
 1453SOL     OW15991   2.064   0.139  16.391  0.7114 -0.1773  0.4831
 1453SOL    HW115992   2.138   0.113  16.336  1.8477  1.9330  1.0346
 1453SOL    HW215993   2.013   0.195  16.333 -0.6958 -1.9728 -0.0271
 1454SOL     OW15994   3.538   0.665   9.474 -0.2130  0.2118 -0.4920
 1454SOL    HW115995   3.462   0.623   9.432 -0.1725 -0.4456  0.0858
 1454SOL    HW215996   3.491   0.719   9.537  1.9527  0.5384  0.8222
 1455SOL     OW15997   2.881   1.071  14.260  0.7699  0.5155  0.4131
 1455SOL    HW115998   2.830   1.093  14.337  0.3853 -1.1615  0.6415
 1455SOL    HW215999   2.930   0.999  14.300  1.8127  0.9695 -0.0571
 1456SOL     OW16000   0.871   0.387  14.830 -0.6670  0.1507 -0.5098
 1456SOL    HW116001   0.806   0.447  14.868 -1.1760 -1.8890  1.8005
 1456SOL    HW216002   0.830   0.304  14.851 -0.5886  0.4925  1.0182
 1457SOL     OW16003   0.771   0.141   2.804 -0.0557  0.1184  0.2729
 1457SOL    HW116004   0.723   0.061   2.781  1.4195 -0.9472  0.9718
 1457SOL    HW216005   0.750   0.136   2.897  0.7681  0.4522  0.4780
 1458SOL     OW16006   2.375   3.808  16.009 -0.2759  0.1593 -0.0981
 1458SOL    HW116007   2.289   3.843  15.986 -0.7009  0.8384  2.4962
 1458SOL    HW216008   2.403   3.872  16.074 -2.0297  0.9246 -0.0834
 1459SOL     OW16009   0.999   3.712   9.581  0.2099  0.0036  0.1524
 1459SOL    HW116010   0.998   3.624   9.544 -0.2630  0.3544 -0.6587
 1459SOL    HW216011   0.915   3.739   9.545  1.2623 -0.9829 -3.0981
 1460SOL     OW16012   3.978   0.235  10.726  0.0868  0.4372 -0.5441
 1460SOL    HW116013   3.954   0.208  10.815  0.6404  0.9598 -0.2334
 1460SOL    HW216014   4.027   0.316  10.738  1.5433 -0.4567 -0.4207
 1461SOL     OW16015   3.316   0.292   5.126  0.0947  0.0833 -0.0102
 1461SOL    HW116016   3.405   0.257   5.134 -1.3220 -3.0232  1.8501
 1461SOL    HW216017   3.335   0.377   5.166  1.4653 -0.4673  0.5303
 1462SOL     OW16018   1.435   3.647  13.130  0.0757  0.2800 -0.3823
 1462SOL    HW116019   1.462   3.736  13.152  1.4256 -0.6826  1.8565
 1462SOL    HW216020   1.502   3.633  13.063 -0.7824 -0.4992 -1.0787
 1463SOL     OW16021   1.702   3.622   5.019 -0.0441 -0.3216  0.3020
 1463SOL    HW116022   1.765   3.570   4.970  2.5728  0.5702  2.7027
 1463SOL    HW216023   1.753   3.700   5.043 -1.7145  0.0986  2.5271
 1464SOL     OW16024   1.983   1.787   2.911  0.4543  0.7834  0.1378
 1464SOL    HW116025   2.067   1.830   2.897  1.9394 -2.6055 -1.5356
 1464SOL    HW216026   1.996   1.712   2.852  1.1835  0.7404  0.3524
 1465SOL     OW16027   2.462   1.859  15.886  0.6029  0.4892  0.0913
 1465SOL    HW116028   2.491   1.772  15.859  1.1551  0.6691  0.1021
 1465SOL    HW216029   2.404   1.880  15.812  1.5434  1.9869 -0.2293
 1466SOL     OW16030   1.605   1.953   3.372 -0.4080  0.3975 -0.1412
 1466SOL    HW116031   1.651   1.869   3.379 -2.5291 -0.7127  0.7369
 1466SOL    HW216032   1.669   2.023   3.376  0.4428 -0.2562 -2.3345
 1467SOL     OW16033   3.675   2.910   8.534 -0.0475 -0.1040 -0.0016
 1467SOL    HW116034   3.746   2.900   8.471  1.1094  2.4571  0.8865
 1467SOL    HW216035   3.645   3.000   8.521  1.5611  0.1947 -1.6393
 1468SOL     OW16036   3.335   3.560   9.452  0.6348  0.5939  0.8882
 1468SOL    HW116037   3.392   3.619   9.402  1.0245  0.6890  1.4475
 1468SOL    HW216038   3.365   3.568   9.542 -1.5936 -0.5409  1.7404
 1469SOL     OW16039   3.082   1.275   3.767 -0.0284  0.2871  0.3063
 1469SOL    HW116040   3.149   1.316   3.712 -1.4228  1.8312 -0.2403
 1469SOL    HW216041   3.136   1.203   3.798 -1.0819  0.0480  1.5688
 1470SOL     OW16042   1.270   1.115  13.960 -0.4799 -0.1625  0.3321
 1470SOL    HW116043   1.306   1.089  14.045 -0.0380 -0.1473  0.1524
 1470SOL    HW216044   1.314   1.048  13.907 -1.0124 -0.7076  0.5791
 1471SOL     OW16045   3.163   1.616   1.671  0.3855 -0.1113 -0.3216
 1471SOL    HW116046   3.157   1.650   1.582 -0.6031 -0.0270 -0.2189
 1471SOL    HW216047   3.094   1.550   1.663  0.4270 -0.0540 -1.0805
 1472SOL     OW16048   4.518   3.855  15.550 -0.4608 -0.0321 -0.2739
 1472SOL    HW116049   4.478   3.794  15.612 -0.1199 -0.2933 -0.3118
 1472SOL    HW216050   4.546   3.790  15.485  1.6200  0.3375  0.2385
 1473SOL     OW16051   1.014   2.632   4.473 -0.9292 -0.1014 -0.2630
 1473SOL    HW116052   1.057   2.583   4.402  0.8865  2.0422 -0.6465
 1473SOL    HW216053   1.090   2.643   4.530 -0.3502  0.0455 -1.0546
 1474SOL     OW16054   0.724   3.614   7.775  0.6412  0.3108 -0.8166
 1474SOL    HW116055   0.648   3.671   7.786  0.4952 -0.6729  3.1751
 1474SOL    HW216056   0.761   3.613   7.863  3.2643 -0.3793 -1.9266
 1475SOL     OW16057   2.076   0.612  10.045  0.5116  0.0676 -0.1807
 1475SOL    HW116058   1.997   0.667  10.043 -1.1446 -2.2623  0.2652
 1475SOL    HW216059   2.134   0.685  10.065 -0.3404  0.3902  1.0997
 1476SOL     OW16060   3.252   1.910  10.055 -0.2010  0.2366 -0.0211
 1476SOL    HW116061   3.278   1.864   9.975  2.9873  0.5863  0.8179
 1476SOL    HW216062   3.261   1.838  10.117  0.0341  0.1983 -0.0985
 1477SOL     OW16063   1.354   1.516   9.082  0.1116  0.5059  0.2323
 1477SOL    HW116064   1.356   1.422   9.065  1.0975 -0.0766  3.5453
 1477SOL    HW216065   1.321   1.543   8.996 -0.6929  0.1781  0.4344
 1478SOL     OW16066   1.015   0.963   3.671  0.0968 -0.3531 -0.2891
 1478SOL    HW116067   1.020   1.055   3.698  1.1376 -1.3276  2.9079
 1478SOL    HW216068   1.021   0.976   3.577  1.6315  2.2680  0.1625
 1479SOL     OW16069   4.180   3.135   8.749 -0.1450  0.1831  0.1388
 1479SOL    HW116070   4.088   3.131   8.723 -0.2751  0.6172  0.5259
 1479SOL    HW216071   4.172   3.159   8.842  1.5912  2.9843 -0.4423
 1480SOL     OW16072   1.900   3.476  15.539 -0.4290 -0.4348  0.7501
 1480SOL    HW116073   1.887   3.404  15.601  1.4581 -2.4269 -1.1907
 1480SOL    HW216074   1.945   3.428  15.470  0.0406 -0.7171  1.2567
 1481SOL     OW16075   3.738   0.901   6.972  0.2213 -0.3574  0.4587
 1481SOL    HW116076   3.758   0.824   7.025 -1.3084 -0.6398  0.6096
 1481SOL    HW216077   3.788   0.961   7.028 -0.8199  1.5327 -0.6142
 1482SOL     OW16078   4.274   2.129   6.795 -0.1917 -0.8916 -0.0054
 1482SOL    HW116079   4.232   2.120   6.710  0.1083  3.3831 -0.5982
 1482SOL    HW216080   4.321   2.210   6.778 -0.4536 -0.4396  1.4291
 1483SOL     OW16081   3.122   0.528   0.422  0.3634 -0.0608 -0.2784
 1483SOL    HW116082   3.126   0.479   0.340 -2.2328  0.5817 -0.8106
 1483SOL    HW216083   3.099   0.453   0.477  1.8799  1.0218  1.8262
 1484SOL     OW16084   2.460   2.328   4.693  0.5092  0.6868 -0.1101
 1484SOL    HW116085   2.495   2.282   4.616  1.8042  0.6737  0.4746
 1484SOL    HW216086   2.523   2.315   4.765 -2.9276  2.6211  3.2595
 1485SOL     OW16087   0.893   4.629   1.934 -0.5472 -0.5292 -0.2964
 1485SOL    HW116088   0.928   4.657   1.850 -0.3940  1.3151  0.3691
 1485SOL    HW216089   0.964   4.611   1.996  0.5903  1.1644 -1.0953
 1486SOL     OW16090   3.457   2.646   2.605  0.1609 -0.3768  0.8151
 1486SOL    HW116091   3.503   2.701   2.668  1.3394  1.3733 -1.5760
 1486SOL    HW216092   3.480   2.689   2.523  1.7200 -2.9703 -0.1036
 1487SOL     OW16093   0.459   4.367   7.618 -0.4242 -0.1786  0.0288
 1487SOL    HW116094   0.415   4.370   7.533  1.7799  1.1982 -1.0497
 1487SOL    HW216095   0.391   4.390   7.682  1.2596  1.8209  1.0718
 1488SOL     OW16096   2.465   3.255  12.020 -0.3502 -0.2060  0.1887
 1488SOL    HW116097   2.379   3.268  11.979  0.8350 -0.0297 -2.1878
 1488SOL    HW216098   2.518   3.226  11.946  0.5341 -0.5167  0.9568
 1489SOL     OW16099   1.769   2.622   8.610  0.5457  0.3031 -0.2468
 1489SOL    HW116100   1.774   2.718   8.605 -0.2405  0.3710  0.2986
 1489SOL    HW216101   1.846   2.607   8.555  2.1244  0.3874  1.9445
 1490SOL     OW16102   3.064   1.952   8.124 -0.4496 -0.3528 -0.1439
 1490SOL    HW116103   3.044   1.993   8.040 -0.8985  1.5924  0.9386
 1490SOL    HW216104   3.004   1.880   8.103  1.3279 -2.6948  2.6859
 1491SOL     OW16105   3.779   4.179   6.939 -0.0455 -0.4350  0.0438
 1491SOL    HW116106   3.690   4.203   6.964 -0.3995 -0.8647 -0.8055
 1491SOL    HW216107   3.823   4.204   7.020  1.7917 -0.0698 -1.0692
 1492SOL     OW16108   2.538   0.640   2.576  0.0133 -0.1318  0.4685
 1492SOL    HW116109   2.532   0.572   2.642  0.9553  0.1156  0.8146
 1492SOL    HW216110   2.559   0.593   2.495  2.9991  1.0642  0.5317
 1493SOL     OW16111   0.973   4.002   7.434  0.4346  0.1650 -0.3350
 1493SOL    HW116112   0.984   4.004   7.529 -0.0029  0.1803 -0.2834
 1493SOL    HW216113   0.913   3.928   7.428 -0.2253  0.6475  0.3672
 1494SOL     OW16114   0.488   1.328   9.044 -0.2715 -0.3210  0.0361
 1494SOL    HW116115   0.413   1.361   9.092  0.1096  1.3026 -0.4702
 1494SOL    HW216116   0.453   1.330   8.955 -1.2308 -0.9621  0.4018
 1495SOL     OW16117   2.116   2.908  17.685  0.2543 -0.2779  0.6965
 1495SOL    HW116118   2.164   2.894   0.019  1.7289  1.3830  0.1038
 1495SOL    HW216119   2.186   2.935  17.625  0.1907 -1.0954  0.2579
 1496SOL     OW16120   2.770   3.284   7.677 -0.1621 -1.0346 -0.2336
 1496SOL    HW116121   2.685   3.324   7.696  0.0871  1.5185 -4.3621
 1496SOL    HW216122   2.811   3.353   7.625  1.2016 -3.0062 -1.7639
 1497SOL     OW16123   2.758   1.795   8.417 -0.3759  0.2889 -0.0421
 1497SOL    HW116124   2.687   1.803   8.481  0.6614 -0.0382  1.1673
 1497SOL    HW216125   2.741   1.883   8.384 -1.0854 -0.0318 -0.5267
 1498SOL     OW16126   3.530   3.779   2.606 -0.2878 -0.3653 -0.1153
 1498SOL    HW116127   3.480   3.850   2.644  0.6699  1.3266 -2.0369
 1498SOL    HW216128   3.492   3.705   2.653 -1.2987 -1.3185 -2.4489
 1499SOL     OW16129   0.207   2.201  15.146 -0.2498 -0.1335  0.0416
 1499SOL    HW116130   0.174   2.258  15.077  0.4902  1.9426  1.4253
 1499SOL    HW216131   0.233   2.260  15.216  1.8682 -1.0169 -0.0037
 1500SOL     OW16132   3.935   1.644  15.489  0.2127 -0.2339  0.4727
 1500SOL    HW116133   3.933   1.702  15.413 -2.6140  0.3590  1.0122
 1500SOL    HW216134   3.892   1.703  15.551 -0.4743  1.9913 -2.1327
 1501SOL     OW16135   1.752   1.527   3.466  0.0080  0.0530  0.0743
 1501SOL    HW116136   1.720   1.603   3.514 -0.7789  1.3458 -2.4589
 1501SOL    HW216137   1.702   1.457   3.506  1.4777 -0.4192  1.0688
 1502SOL     OW16138   2.308   0.388   2.125 -0.2437 -0.1442 -0.3172
 1502SOL    HW116139   2.382   0.329   2.135 -0.9849 -0.6679  2.0671
 1502SOL    HW216140   2.235   0.333   2.155 -3.1008  2.1998 -2.9347
 1503SOL     OW16141   4.019   0.396   4.253  0.2825 -0.3955 -0.0965
 1503SOL    HW116142   4.090   0.345   4.293 -0.6767  0.1150  2.2571
 1503SOL    HW216143   3.962   0.329   4.216  0.8984 -1.4871  0.9451
 1504SOL     OW16144   0.102   3.495   1.961  0.6988  0.2484 -0.0549
 1504SOL    HW116145   0.024   3.525   2.008  1.6779 -0.6933  2.1674
 1504SOL    HW216146   0.168   3.481   2.030  1.4132 -1.6022 -1.1032
 1505SOL     OW16147   1.564   0.724   9.182 -0.1588  0.1192  0.3501
 1505SOL    HW116148   1.485   0.765   9.216  0.2798  0.8623  0.4555
 1505SOL    HW216149   1.524   0.670   9.113 -1.0210  2.5870 -1.0926
 1506SOL     OW16150   4.316   1.635   7.032 -0.0382  0.2111  0.1304
 1506SOL    HW116151   4.246   1.701   7.027 -0.9027 -0.8240 -1.1467
 1506SOL    HW216152   4.294   1.586   7.111 -0.5093  2.6341  1.4959
 1507SOL     OW16153   1.697   1.756   2.688 -0.0540  0.7993  0.1320
 1507SOL    HW116154   1.669   1.697   2.617 -0.1008  0.9409  0.0318
 1507SOL    HW216155   1.616   1.799   2.715 -1.9387 -2.6786  0.0539
 1508SOL     OW16156   0.497   1.613  17.561 -0.2797 -0.3242  0.2454
 1508SOL    HW116157   0.448   1.595  17.641 -0.7454 -0.6479 -0.1094
 1508SOL    HW216158   0.455   1.694  17.531  2.2768  0.4283 -1.3020
 1509SOL     OW16159   4.098   0.724   2.107 -0.4483  0.1754 -0.0969
 1509SOL    HW116160   4.173   0.673   2.138 -0.2131  0.5205 -0.0986
 1509SOL    HW216161   4.077   0.671   2.030  1.2548 -0.9376  0.2108
 1510SOL     OW16162   0.013   4.537   3.705 -0.0934  0.0681  0.4371
 1510SOL    HW116163   0.103   4.507   3.695  0.4519  1.1197  2.2266
 1510SOL    HW216164   4.718   4.535   3.615 -1.0775  1.1304  0.7593
 1511SOL     OW16165   3.365   4.213   4.700  0.3260  0.3100  0.5739
 1511SOL    HW116166   3.401   4.197   4.787 -1.0992  0.4478  1.1871
 1511SOL    HW216167   3.274   4.234   4.720  0.9497  3.7663 -0.1849
 1512SOL     OW16168   0.686   1.996   4.191 -0.3996 -0.7741 -0.0170
 1512SOL    HW116169   0.656   2.079   4.228 -1.4124 -0.9527 -0.4354
 1512SOL    HW216170   0.671   1.942   4.268 -0.4755 -2.6039 -1.3251
 1513SOL     OW16171   1.100   0.416  17.231  0.3883 -0.4456 -0.0784
 1513SOL    HW116172   1.070   0.444  17.317 -1.1384 -0.2931 -0.6448
 1513SOL    HW216173   1.124   0.500  17.191 -0.7050 -1.5334 -3.0188
 1514SOL     OW16174   0.606   0.140   9.362 -0.0399 -0.0075 -0.4402
 1514SOL    HW116175   0.552   0.219   9.360 -0.8356 -0.5214  1.1934
 1514SOL    HW216176   0.682   0.182   9.321  1.2375 -1.1590  0.8074
 1515SOL     OW16177   3.567   1.868  16.612  0.3280 -0.2087  0.1329
 1515SOL    HW116178   3.605   1.922  16.543 -3.9874  3.0312  0.2394
 1515SOL    HW216179   3.638   1.805  16.620  2.7789  2.6491  1.0708
 1516SOL     OW16180   1.901   0.929  10.394 -0.0557 -0.5160 -0.3014
 1516SOL    HW116181   1.908   1.012  10.441 -0.2319  0.9313 -2.8534
 1516SOL    HW216182   1.849   0.950  10.317 -1.3067  2.1932  1.2838
 1517SOL     OW16183   4.700   2.170   5.415 -0.1009 -0.0969  0.6593
 1517SOL    HW116184   0.011   2.240   5.372 -0.3954 -0.1172  0.2896
 1517SOL    HW216185   4.613   2.209   5.428  0.7755  1.9196  0.4091
 1518SOL     OW16186   1.117   2.636   2.390  0.9520 -0.0473  0.5907
 1518SOL    HW116187   1.147   2.553   2.353  0.8928  1.3920 -2.6928
 1518SOL    HW216188   1.029   2.626   2.427  0.6436  0.4115 -0.0103
 1519SOL     OW16189   0.691   4.484  15.448 -0.1397 -1.2544 -0.2731
 1519SOL    HW116190   0.641   4.428  15.507 -0.0947  1.4590  2.3501
 1519SOL    HW216191   0.692   4.562  15.504  0.1242 -1.7582  0.4212
 1520SOL     OW16192   4.455   3.572   4.752  0.2450 -0.4687 -0.0064
 1520SOL    HW116193   4.530   3.537   4.703 -1.7899 -0.1470 -3.3140
 1520SOL    HW216194   4.486   3.660   4.777 -0.7153 -0.3691  0.7910
 1521SOL     OW16195   0.668   4.315   5.896 -0.3490 -0.3470  0.1272
 1521SOL    HW116196   0.592   4.358   5.935  1.1476 -0.2883  2.9809
 1521SOL    HW216197   0.708   4.269   5.970 -0.1785  0.3847  0.4922
 1522SOL     OW16198   2.499   1.011   4.348 -0.3112  0.0328 -1.1236
 1522SOL    HW116199   2.452   1.058   4.279  2.5615  1.1403 -2.3159
 1522SOL    HW216200   2.521   0.929   4.306  0.3537 -1.1876  1.6017
 1523SOL     OW16201   0.904   3.400   7.221 -0.3393  0.0462  0.0066
 1523SOL    HW116202   0.829   3.458   7.209 -0.5370 -0.2743 -0.2996
 1523SOL    HW216203   0.856   3.333   7.269 -0.7656  0.7283  0.5426
 1524SOL     OW16204   0.043   4.547   8.462 -0.1277  0.3914 -0.5645
 1524SOL    HW116205   0.076   4.478   8.519 -0.1658  1.9283  1.3316
 1524SOL    HW216206   0.008   4.503   8.386 -0.9005 -0.1951  0.1318
 1525SOL     OW16207   0.678   0.354   7.339 -0.2154 -0.3803 -1.1921
 1525SOL    HW116208   0.601   0.409   7.329  0.2689  0.5474  0.2832
 1525SOL    HW216209   0.679   0.321   7.249 -0.2253 -1.2349 -0.8801
 1526SOL     OW16210   3.214   1.073   0.247  0.1413 -0.0611  0.6042
 1526SOL    HW116211   3.216   1.155   0.198 -0.8659 -0.7730 -0.6401
 1526SOL    HW216212   3.200   1.020   0.169  2.8816  0.3709 -0.1565
 1527SOL     OW16213   2.638   2.750  13.744 -0.7972  0.3904  0.3438
 1527SOL    HW116214   2.616   2.839  13.770 -1.2671  0.3390  0.1152
 1527SOL    HW216215   2.552   2.710  13.744 -0.6353  0.0511  1.7896
 1528SOL     OW16216   3.387   1.014   2.931 -0.1098 -0.2724 -0.4985
 1528SOL    HW116217   3.416   0.922   2.931 -1.3671 -0.6685 -0.4445
 1528SOL    HW216218   3.374   1.027   3.025 -2.8114 -2.6284 -0.5315
 1529SOL     OW16219   0.252   0.139   9.367  0.0961  0.5546  0.2800
 1529SOL    HW116220   0.291   0.196   9.434  2.9947  1.2665 -2.0222
 1529SOL    HW216221   0.290   0.172   9.286 -1.1521  0.5111 -0.3206
 1530SOL     OW16222   0.663   0.555   4.037  0.2649  0.1175 -0.5405
 1530SOL    HW116223   0.567   0.549   4.030  0.0927  1.8287  0.4978
 1530SOL    HW216224   0.695   0.476   3.994 -0.8106  0.0701 -1.2581
 1531SOL     OW16225   3.179   2.132   1.200 -0.1824 -0.0177  0.5126
 1531SOL    HW116226   3.087   2.156   1.192 -0.0415 -0.4058 -2.5433
 1531SOL    HW216227   3.170   2.077   1.277  1.6248 -2.8912 -1.3138
 1532SOL     OW16228   4.243   0.387  16.017  0.3949 -0.1126 -0.0354
 1532SOL    HW116229   4.302   0.408  16.089  0.7359  0.8274 -0.5860
 1532SOL    HW216230   4.174   0.329  16.051 -0.6174  1.6230  0.8537
 1533SOL     OW16231   3.249   1.530   2.678 -0.1076  0.6853 -0.7006
 1533SOL    HW116232   3.298   1.460   2.720  0.2428  0.6838 -1.1161
 1533SOL    HW216233   3.269   1.519   2.585  0.9477  0.7178 -0.4762
 1534SOL     OW16234   2.582   1.416   2.083 -0.4166 -0.0859 -0.1900
 1534SOL    HW116235   2.651   1.454   2.029  0.2208 -0.7637  0.1472
 1534SOL    HW216236   2.592   1.324   2.057  2.2265  0.8702 -2.4964
 1535SOL     OW16237   2.548   4.504   1.863  0.1413 -0.3658 -0.0304
 1535SOL    HW116238   2.484   4.544   1.805 -0.1288 -0.7509 -0.0011
 1535SOL    HW216239   2.557   4.568   1.933 -1.5109 -0.7850  0.5769
 1536SOL     OW16240   4.451   0.623   4.359  0.6946  0.8757 -0.0599
 1536SOL    HW116241   4.468   0.706   4.314 -2.2101  1.2773 -0.4330
 1536SOL    HW216242   4.410   0.640   4.443 -2.8292 -1.6054 -1.2767
 1537SOL     OW16243   2.623   0.375  14.709  0.7782 -0.4725 -0.3090
 1537SOL    HW116244   2.703   0.415  14.676  1.1787  0.8453  2.2649
 1537SOL    HW216245   2.605   0.305  14.646 -1.0636  0.6212 -0.9943
 1538SOL     OW16246   4.246   2.740   8.715  0.1709 -0.1320 -0.0323
 1538SOL    HW116247   4.160   2.708   8.743  0.1617 -0.9182 -0.9873
 1538SOL    HW216248   4.221   2.806   8.651  0.5258  1.0811  1.0827
 1539SOL     OW16249   0.507   4.174  13.608 -0.2490  0.2817 -0.2407
 1539SOL    HW116250   0.455   4.094  13.616  1.4766 -0.7175  1.1002
 1539SOL    HW216251   0.563   4.154  13.533  0.9015 -0.9939  0.9700
 1540SOL     OW16252   4.241   0.776   0.056 -0.8123 -0.1434  0.4252
 1540SOL    HW116253   4.180   0.740  17.740  1.1837 -0.8759 -1.0646
 1540SOL    HW216254   4.256   0.699   0.112 -3.4027 -0.8203  0.1625
 1541SOL     OW16255   3.150   0.975   5.599 -0.2429  0.2318 -0.0881
 1541SOL    HW116256   3.112   1.058   5.626 -1.0458  0.2127 -1.1458
 1541SOL    HW216257   3.079   0.915   5.623  1.0261 -0.7660  1.1911
 1542SOL     OW16258   2.814   4.718   9.195 -0.1221 -0.1748  0.1801
 1542SOL    HW116259   2.789   4.663   9.121 -0.1102  0.2037 -0.1088
 1542SOL    HW216260   2.810   0.069   9.158  2.0615 -0.7110 -1.3300
 1543SOL     OW16261   4.244   0.228   4.472  0.0433 -0.0733 -0.0230
 1543SOL    HW116262   4.245   0.291   4.544 -0.2079 -0.5830  0.4295
 1543SOL    HW216263   4.321   0.250   4.421  0.7116  0.0471  1.0316
 1544SOL     OW16264   0.262   4.092   4.977  0.1572  0.0932 -0.7422
 1544SOL    HW116265   0.337   4.088   5.037 -1.9425 -2.0616  1.7701
 1544SOL    HW216266   0.256   4.188   4.980  0.7794  0.1664 -1.8875
 1545SOL     OW16267   0.161   1.416   9.502 -0.2120 -0.7709 -0.1606
 1545SOL    HW116268   0.120   1.463   9.429  0.1714 -1.0400 -0.5501
 1545SOL    HW216269   0.175   1.486   9.565  0.3365 -0.8102 -0.2344
 1546SOL     OW16270   0.166   2.758   9.221 -0.1077  0.1393  0.3273
 1546SOL    HW116271   0.087   2.769   9.167  0.2641  0.8358 -0.0715
 1546SOL    HW216272   0.131   2.709   9.296  1.3127 -0.7893  0.3691
 1547SOL     OW16273   0.627   0.730   5.079 -0.7518  0.3341  0.9738
 1547SOL    HW116274   0.689   0.761   5.014 -2.0990  2.4013  0.6814
 1547SOL    HW216275   0.673   0.741   5.162  2.2286 -1.5291 -0.4278
 1548SOL     OW16276   0.525   0.417   0.911 -0.1000 -0.2302  0.4862
 1548SOL    HW116277   0.604   0.434   0.962  0.2015  1.6894 -0.6238
 1548SOL    HW216278   0.537   0.323   0.895 -0.7001 -0.3838  0.9389
 1549SOL     OW16279   0.383   1.336   3.026  0.1161 -0.0864 -0.2619
 1549SOL    HW116280   0.435   1.282   3.086  2.1790  0.4293 -1.5628
 1549SOL    HW216281   0.453   1.370   2.969 -0.5819  0.4101 -0.8187
 1550SOL     OW16282   0.363   3.421   6.110 -0.2156 -0.1533  0.4882
 1550SOL    HW116283   0.417   3.346   6.084 -1.3935 -1.3210  1.3844
 1550SOL    HW216284   0.320   3.439   6.027  0.8897 -0.3661 -0.1291
 1551SOL     OW16285   1.043   2.869  10.784 -0.0136  0.4407  0.2594
 1551SOL    HW116286   1.069   2.940  10.842 -3.2377  1.4523  0.4365
 1551SOL    HW216287   1.130   2.837  10.757  1.1549  2.7105  1.3627
 1552SOL     OW16288   3.551   2.797   2.811 -0.2312 -0.5490  0.2661
 1552SOL    HW116289   3.495   2.863   2.852  0.0736  0.3311 -0.7320
 1552SOL    HW216290   3.550   2.735   2.884 -0.3651 -2.7388 -1.5842
 1553SOL     OW16291   3.755   1.217   4.213  0.7607  0.0479 -0.5672
 1553SOL    HW116292   3.669   1.191   4.179  0.4797  0.5961 -0.2678
 1553SOL    HW216293   3.733   1.246   4.301  0.3492  0.6747 -0.8741
 1554SOL     OW16294   1.262   2.541   9.466  0.0855  0.4737 -0.9605
 1554SOL    HW116295   1.285   2.593   9.542 -2.0582 -0.6700  0.4715
 1554SOL    HW216296   1.167   2.549   9.459 -0.0819 -0.2330  0.6174
 1555SOL     OW16297   2.103   3.924   3.518  0.0129 -0.6067 -0.0452
 1555SOL    HW116298   2.183   3.975   3.507  0.2105 -0.6593  1.1435
 1555SOL    HW216299   2.126   3.835   3.542 -0.5683 -0.7562 -0.0367
 1556SOL     OW16300   4.450   0.558   9.076 -0.4243  0.1449  0.6743
 1556SOL    HW116301   4.391   0.631   9.057 -0.8849  0.1962  2.3394
 1556SOL    HW216302   4.411   0.518   9.153  1.0770  1.3156  2.0541
 1557SOL     OW16303   4.274   0.628   4.588 -0.0027  0.1035 -0.3592
 1557SOL    HW116304   4.197   0.683   4.577  0.4293  0.8192  0.1812
 1557SOL    HW216305   4.228   0.550   4.556  2.2820 -1.4098 -0.0124
 1558SOL     OW16306   3.119   0.707   2.233  0.6781 -0.2903  0.9370
 1558SOL    HW116307   3.031   0.742   2.223  1.4626  1.2557 -0.5617
 1558SOL    HW216308   3.138   0.727   2.324  4.2948 -0.0403  0.1455
 1559SOL     OW16309   4.438   3.775   7.856  0.5764 -0.7543  0.0411
 1559SOL    HW116310   4.363   3.753   7.801 -0.1257  0.5827  0.4690
 1559SOL    HW216311   4.509   3.808   7.801 -0.3663  1.2182  0.0087
 1560SOL     OW16312   1.729   2.315   5.281  0.3408 -0.0262 -0.5050
 1560SOL    HW116313   1.711   2.281   5.193  5.7775 -2.8496 -0.5760
 1560SOL    HW216314   1.687   2.400   5.274  1.9457  0.5547 -3.1982
 1561SOL     OW16315   3.427   2.248   1.475  0.2844 -0.6892 -0.5202
 1561SOL    HW116316   3.432   2.158   1.444 -0.3413 -0.9389  0.1006
 1561SOL    HW216317   3.348   2.242   1.528 -0.8491  1.6344 -1.9431
 1562SOL     OW16318   1.728   3.128   4.052 -0.1598 -0.7115  0.8336
 1562SOL    HW116319   1.762   3.153   4.138 -0.7851 -0.9282  1.1451
 1562SOL    HW216320   1.753   3.205   4.001 -1.4628  0.1759  1.5206
 1563SOL     OW16321   2.244   0.047  16.209 -0.1351  0.4538  0.5604
 1563SOL    HW116322   2.331   0.085  16.207 -1.0103  2.4095  0.2747
 1563SOL    HW216323   2.255   4.726  16.134  0.0339  2.3736 -0.8925
 1564SOL     OW16324   3.388   4.010   1.451  0.3124 -0.1457  0.8590
 1564SOL    HW116325   3.318   4.055   1.403  0.0753  1.3847  2.6297
 1564SOL    HW216326   3.367   3.922   1.421 -2.1759  1.5520 -2.3966
 1565SOL     OW16327   0.210   1.069   8.639 -0.1194 -0.4910  0.0933
 1565SOL    HW116328   0.137   1.009   8.651  0.2382 -1.0160 -0.3409
 1565SOL    HW216329   0.223   1.090   8.732 -0.1358  0.3627 -0.0929
 1566SOL     OW16330   3.214   4.451   3.379 -0.0661  0.7306 -0.3156
 1566SOL    HW116331   3.293   4.418   3.422 -1.4683  2.5254  3.6048
 1566SOL    HW216332   3.145   4.393   3.410  1.4422 -1.0219 -0.2189
 1567SOL     OW16333   0.016   0.425   2.856  0.2636  0.0014  0.0121
 1567SOL    HW116334   4.661   0.420   2.833  0.0771 -1.8521  1.2031
 1567SOL    HW216335   0.054   0.347   2.815  2.5788  0.2556  1.6680
 1568SOL     OW16336   2.827   1.246   3.718  0.0751 -0.1215  0.2229
 1568SOL    HW116337   2.912   1.269   3.755  0.2310  1.1339 -0.8753
 1568SOL    HW216338   2.770   1.320   3.740 -1.0534 -0.9327  0.0564
 1569SOL     OW16339   1.563   0.616   7.086 -0.2742 -0.3049  0.0214
 1569SOL    HW116340   1.556   0.701   7.043 -3.2486 -0.1834  0.7673
 1569SOL    HW216341   1.620   0.644   7.157  0.8782 -0.0027 -1.0198
 1570SOL     OW16342   3.237   2.607   5.316  0.5619  0.0145 -0.2983
 1570SOL    HW116343   3.304   2.559   5.266  0.9108  0.9502 -0.7257
 1570SOL    HW216344   3.277   2.612   5.403 -0.8162  0.5268  0.2997
 1571SOL     OW16345   0.854   0.699   5.864 -0.3947 -0.2385 -0.4350
 1571SOL    HW116346   0.875   0.770   5.925  1.7839  1.0546 -2.7032
 1571SOL    HW216347   0.856   0.631   5.931 -1.4058 -0.7890 -0.9658
 1572SOL     OW16348   4.045   3.242  11.684 -0.0292  0.4423  0.5587
 1572SOL    HW116349   4.103   3.180  11.639 -0.0463 -0.5293  1.8848
 1572SOL    HW216350   3.984   3.189  11.736 -1.2226  0.9692 -0.3107
 1573SOL     OW16351   2.127   0.287   6.718  0.6333  0.5421  0.2062
 1573SOL    HW116352   2.034   0.276   6.737  1.1361 -2.1807  1.1530
 1573SOL    HW216353   2.147   0.226   6.647 -1.5419  0.5645 -0.4265
 1574SOL     OW16354   2.584   3.733   2.778 -0.4071  0.1023 -0.1347
 1574SOL    HW116355   2.616   3.688   2.700  0.0928  1.6673 -0.8414
 1574SOL    HW216356   2.496   3.702   2.760  0.3578 -0.5988 -2.7460
 1575SOL     OW16357   3.600   2.592   7.985  0.1148 -0.2559 -0.2329
 1575SOL    HW116358   3.618   2.644   7.907  1.0462 -0.8133 -0.3897
 1575SOL    HW216359   3.643   2.508   7.968  0.3650  0.1553 -1.6396
 1576SOL     OW16360   2.520   1.281   7.735 -0.1408 -0.8271 -0.8084
 1576SOL    HW116361   2.500   1.214   7.801  0.6622  0.2624  0.5340
 1576SOL    HW216362   2.503   1.352   7.797 -1.8086  1.2484 -3.6547
 1577SOL     OW16363   2.497   3.780   4.022  0.3239 -0.0070  0.0034
 1577SOL    HW116364   2.493   3.869   3.987  2.0440  0.5406  1.1406
 1577SOL    HW216365   2.584   3.756   3.990 -0.0550  0.4674 -1.3501
 1578SOL     OW16366   1.500   3.425   6.365  0.2705  0.4059 -0.0969
 1578SOL    HW116367   1.408   3.443   6.344 -0.0386 -1.1334 -0.0546
 1578SOL    HW216368   1.509   3.338   6.325 -2.3938  0.1414 -0.1248
 1579SOL     OW16369   2.369   1.130   1.856  0.2086 -0.2581  0.5308
 1579SOL    HW116370   2.413   1.214   1.840  0.7057 -0.3136  1.6099
 1579SOL    HW216371   2.434   1.095   1.917  1.2007 -0.3950 -0.5841
 1580SOL     OW16372   3.936   1.407  17.663 -0.1957  0.1130  0.0654
 1580SOL    HW116373   3.957   1.410   0.009  0.2961  0.9689 -0.0715
 1580SOL    HW216374   3.932   1.502  17.650 -2.1864  0.0692  0.3021
 1581SOL     OW16375   0.498   0.019   7.926  0.0568 -0.0368  0.8607
 1581SOL    HW116376   0.550   4.678   7.908 -2.0952 -1.4218  0.6249
 1581SOL    HW216377   0.562   0.074   7.971  2.5508 -0.4825 -2.1637
 1582SOL     OW16378   3.214   2.784   4.946 -0.8031 -0.4961  0.2304
 1582SOL    HW116379   3.296   2.734   4.954  0.6233  2.0029  1.3662
 1582SOL    HW216380   3.201   2.813   5.036  0.7958  1.2454 -0.0959
 1583SOL     OW16381   1.968   1.568   2.768 -0.7069 -0.4356 -0.1631
 1583SOL    HW116382   1.959   1.537   2.678 -0.0029 -2.2309  0.3729
 1583SOL    HW216383   1.950   1.483   2.810  0.1020  0.0398  1.1555
 1584SOL     OW16384   3.831   3.317   5.847 -0.4276 -0.0146 -0.3241
 1584SOL    HW116385   3.835   3.412   5.857 -0.4209 -0.1831  1.3106
 1584SOL    HW216386   3.856   3.288   5.935 -1.5990 -0.1874 -0.0444
 1585SOL     OW16387   3.252   3.195   2.052  0.5350  0.1698 -0.2070
 1585SOL    HW116388   3.160   3.172   2.038  0.1383 -0.6050  3.8421
 1585SOL    HW216389   3.290   3.194   1.964  1.0441  0.0615  0.0129
 1586SOL     OW16390   1.848   4.728   5.841  0.0146  0.3440  0.1079
 1586SOL    HW116391   1.861   4.645   5.795 -1.8408 -0.9632  1.9335
 1586SOL    HW216392   1.758   0.022   5.834  0.7813  2.2495 -1.3493
 1587SOL     OW16393   1.803   1.464   6.082 -0.1165 -0.0746  0.5266
 1587SOL    HW116394   1.813   1.490   5.991 -0.6729  2.0728  1.0951
 1587SOL    HW216395   1.775   1.546   6.123 -1.3756 -0.2864  0.1193
 1588SOL     OW16396   2.736   2.514   9.587  0.5372 -0.7095  0.8406
 1588SOL    HW116397   2.707   2.422   9.592 -2.3037 -0.0222 -3.5692
 1588SOL    HW216398   2.741   2.533   9.681 -1.1932  0.7185  0.6226
 1589SOL     OW16399   0.783   2.914  16.560 -0.7047 -0.0661 -0.0450
 1589SOL    HW116400   0.806   2.983  16.622  0.1191 -0.0779 -0.3421
 1589SOL    HW216401   0.687   2.917  16.567 -0.7607 -2.3538  0.3744
 1590SOL     OW16402   1.359   3.043  10.603  0.1668 -0.4379  0.4411
 1590SOL    HW116403   1.300   3.086  10.665  0.6071  0.4041  0.2742
 1590SOL    HW216404   1.338   2.950  10.616  2.7926 -1.1567 -0.5520
 1591SOL     OW16405   1.479   3.342  16.913  0.2579  0.3894 -0.0955
 1591SOL    HW116406   1.526   3.417  16.875 -0.1483  0.8040  0.2161
 1591SOL    HW216407   1.511   3.348  17.003 -0.7657 -1.2232  0.3572
 1592SOL     OW16408   3.545   3.126   3.626 -0.4047 -0.2306 -0.5454
 1592SOL    HW116409   3.475   3.177   3.584 -0.1696 -0.8531 -1.6847
 1592SOL    HW216410   3.605   3.124   3.552  1.9518  1.6556  1.3180
 1593SOL     OW16411   0.108   0.458   3.477 -0.1390  0.2940 -0.6539
 1593SOL    HW116412   0.135   0.516   3.549 -1.4230  2.0227 -1.5472
 1593SOL    HW216413   0.146   0.500   3.400 -1.2652  0.7883 -0.9490
 1594SOL     OW16414   0.846   1.866  16.446 -0.0692  0.3315  0.2763
 1594SOL    HW116415   0.917   1.873  16.510 -1.6216  3.8951  1.5935
 1594SOL    HW216416   0.804   1.786  16.478  1.0123 -0.8688 -1.3204
 1595SOL     OW16417   1.231   0.487   0.198 -0.0522  0.0594  0.2406
 1595SOL    HW116418   1.251   0.434   0.276 -2.3884 -0.5212  0.4598
 1595SOL    HW216419   1.167   0.550   0.232  1.0860  1.2196  0.2079
 1596SOL     OW16420   0.409   2.390   5.802 -0.6269 -0.0404  0.1258
 1596SOL    HW116421   0.420   2.367   5.710 -2.3900 -1.0176  0.1621
 1596SOL    HW216422   0.466   2.467   5.803 -0.4865 -0.1619  1.0734
 1597SOL     OW16423   1.101   1.676  13.748  0.3907 -0.3893  0.2529
 1597SOL    HW116424   1.117   1.600  13.692  0.2151 -0.3817  0.1927
 1597SOL    HW216425   1.027   1.718  13.706 -0.8220 -2.2713  0.5227
 1598SOL     OW16426   2.726   2.750   6.175  0.4352  0.2273  0.1832
 1598SOL    HW116427   2.723   2.786   6.263  2.1181 -1.6517  1.0215
 1598SOL    HW216428   2.633   2.744   6.155  0.7098  0.0394 -1.0561
 1599SOL     OW16429   2.901   4.283   2.013  0.1984 -0.0083  0.2288
 1599SOL    HW116430   2.807   4.301   2.014  0.0223 -0.9398 -0.4134
 1599SOL    HW216431   2.902   4.193   2.044  0.3523  0.4031  1.4279
 1600SOL     OW16432   0.416   1.217  15.233  0.6780 -0.2795 -0.2248
 1600SOL    HW116433   0.468   1.172  15.299 -1.3071 -0.9125  0.9273
 1600SOL    HW216434   0.486   1.267  15.193  2.2798 -0.5654  2.1850
 1601SOL     OW16435   0.211   3.791   2.448 -0.7460  0.1454  0.0280
 1601SOL    HW116436   0.161   3.747   2.379 -2.5979  2.0479  0.1613
 1601SOL    HW216437   0.144   3.797   2.516 -1.0494 -0.1966 -0.2372
 1602SOL     OW16438   0.260   3.502   2.165 -0.5643  0.4010  0.0823
 1602SOL    HW116439   0.327   3.451   2.210 -1.2233 -2.1236 -1.8776
 1602SOL    HW216440   0.191   3.512   2.232  0.5241 -0.7481  1.3715
 1603SOL     OW16441   1.226   0.861  10.379 -0.3939 -0.0269 -0.0897
 1603SOL    HW116442   1.285   0.868  10.454 -2.3454  1.1945  1.2990
 1603SOL    HW216443   1.183   0.780  10.407 -1.1181  0.5117  0.3451
 1604SOL     OW16444   3.195   0.808   9.428  0.5203 -0.1239 -0.3333
 1604SOL    HW116445   3.291   0.808   9.431  0.5391 -0.7264 -1.1636
 1604SOL    HW216446   3.170   0.863   9.503  1.6102  0.1860 -0.2017
 1605SOL     OW16447   2.090   2.551   6.102  0.1286  0.1249 -0.3004
 1605SOL    HW116448   2.142   2.593   6.171  0.9406 -0.9094 -0.2936
 1605SOL    HW216449   2.090   2.460   6.129  1.7681 -0.0786 -0.9728
 1606SOL     OW16450   3.289   3.929   9.301 -0.4332  0.5205 -0.7337
 1606SOL    HW116451   3.264   3.863   9.367 -0.3002  1.1264 -0.0815
 1606SOL    HW216452   3.209   3.940   9.249 -0.1316 -0.2063 -1.3581
 1607SOL     OW16453   1.061   0.066   3.600  0.2787  0.2089 -0.2252
 1607SOL    HW116454   1.010   0.107   3.670  0.7366 -0.1518  0.3162
 1607SOL    HW216455   1.075   0.146   3.550  0.4388 -0.9678 -2.0611
 1608SOL     OW16456   3.235   1.907   4.808  0.0100 -0.1326 -0.1426
 1608SOL    HW116457   3.195   1.993   4.803  2.1645  0.8155 -0.9387
 1608SOL    HW216458   3.193   1.870   4.730  3.2992 -0.6058 -1.7200
 1609SOL     OW16459   3.040   3.706   9.050 -0.2573  0.1647 -0.2656
 1609SOL    HW116460   3.001   3.619   9.054  1.5319 -0.5225  2.3613
 1609SOL    HW216461   3.128   3.682   9.022 -0.7722 -1.5349 -0.4449
 1610SOL     OW16462   4.270   2.571   4.635  0.1461 -0.5851 -0.2294
 1610SOL    HW116463   4.271   2.476   4.629 -1.4353 -0.4409 -2.8255
 1610SOL    HW216464   4.186   2.578   4.589  0.6904  2.6567 -0.7215
 1611SOL     OW16465   0.779   3.067  12.695  0.3162 -0.2501  0.1424
 1611SOL    HW116466   0.804   2.975  12.709 -2.0890 -0.8852  0.3017
 1611SOL    HW216467   0.839   3.083  12.623 -1.3556 -1.7047 -1.5547
 1612SOL     OW16468   2.440   1.466   3.632  0.5588 -0.6054  0.4126
 1612SOL    HW116469   2.496   1.429   3.701 -0.2652  0.9499  1.8990
 1612SOL    HW216470   2.498   1.447   3.558 -0.5367 -0.4878 -0.4736
 1613SOL     OW16471   2.429   3.236   8.517 -0.4262  0.3581 -0.4459
 1613SOL    HW116472   2.480   3.253   8.438 -0.4436 -1.7182 -0.8976
 1613SOL    HW216473   2.505   3.223   8.575  0.0902  0.5865 -1.0677
 1614SOL     OW16474   0.547   2.549   9.285 -0.4852  0.1881  0.1354
 1614SOL    HW116475   0.488   2.591   9.348  0.5568  0.7560  0.7373
 1614SOL    HW216476   0.588   2.627   9.248 -3.4336  1.8716  0.3890
 1615SOL     OW16477   3.432   3.151   2.686 -0.1077 -0.0633 -0.0438
 1615SOL    HW116478   3.430   3.099   2.606 -0.9926 -1.0235  0.5933
 1615SOL    HW216479   3.525   3.139   2.707  0.1646 -0.0706 -1.2911
 1616SOL     OW16480   4.592   2.490   8.705 -0.0684 -0.5523  0.0393
 1616SOL    HW116481   4.524   2.442   8.753  0.1758 -0.1993  0.7420
 1616SOL    HW216482   4.529   2.546   8.661  1.7296  1.8364  0.5028
 1617SOL     OW16483   3.316   1.215   7.086  0.0509  0.5794 -0.0551
 1617SOL    HW116484   3.376   1.232   7.013  2.0191 -0.0204  1.3995
 1617SOL    HW216485   3.361   1.261   7.156  0.3564 -3.6372  2.5135
 1618SOL     OW16486   1.122   2.399   6.391  0.1707 -0.0162 -0.3769
 1618SOL    HW116487   1.167   2.430   6.470 -3.0835 -0.3482  1.6043
 1618SOL    HW216488   1.194   2.351   6.350  1.8652 -0.7136  3.3950
 1619SOL     OW16489   3.576   4.175   1.565 -0.0823  0.0729 -0.3311
 1619SOL    HW116490   3.517   4.206   1.633  0.9467 -0.4262  0.7917
 1619SOL    HW216491   3.522   4.102   1.536 -0.0210 -0.2189  0.2889
 1620SOL     OW16492   1.409   2.767   5.398 -0.2220  0.1947 -0.2688
 1620SOL    HW116493   1.318   2.749   5.424  0.0130 -1.8747 -0.8468
 1620SOL    HW216494   1.462   2.745   5.474 -1.4534  0.4903  0.6667
 1621SOL     OW16495   4.569   4.429   7.725  0.5133 -0.9165 -0.1513
 1621SOL    HW116496   4.564   4.365   7.795  1.2765 -1.0916 -0.2565
 1621SOL    HW216497   4.585   4.369   7.652  2.6360 -0.8655  0.2633
 1622SOL     OW16498   1.406   2.257   3.020  0.1612  0.1041 -0.0155
 1622SOL    HW116499   1.474   2.246   3.087 -0.6606  0.6294  0.9049
 1622SOL    HW216500   1.392   2.351   3.026 -0.1209 -0.0077  1.0944
 1623SOL     OW16501   1.776   3.333  13.093  0.2759  0.0003 -0.6868
 1623SOL    HW116502   1.749   3.378  13.014 -1.0567  1.7160  0.7531
 1623SOL    HW216503   1.696   3.292  13.124  0.1335 -0.8535 -2.1780
 1624SOL     OW16504   4.616   0.357   5.308  0.6256 -0.4335  0.1100
 1624SOL    HW116505   4.575   0.360   5.395  0.7775  1.1727  0.1343
 1624SOL    HW216506   4.568   0.291   5.258 -1.5533  0.9388  0.3963
 1625SOL     OW16507   1.374   4.325  13.683  0.6760 -0.2075 -0.0630
 1625SOL    HW116508   1.318   4.255  13.716 -1.0525  0.7602 -0.9659
 1625SOL    HW216509   1.426   4.358  13.757 -1.8233 -0.2635  1.6932
 1626SOL     OW16510   4.508   1.996   5.635 -0.0132  0.1959  0.3416
 1626SOL    HW116511   4.517   1.935   5.708 -2.9584  0.8302  1.2480
 1626SOL    HW216512   4.590   1.984   5.588  1.2740 -1.0618  2.9525
 1627SOL     OW16513   1.541   3.430   9.335 -0.2622 -0.2091 -0.5443
 1627SOL    HW116514   1.543   3.490   9.260  2.6644  1.2689  0.6978
 1627SOL    HW216515   1.617   3.461   9.385 -0.7593  0.2509 -0.0791
 1628SOL     OW16516   3.664   0.708   7.446  0.5771 -0.2353 -0.4825
 1628SOL    HW116517   3.743   0.724   7.394  0.0675  1.8242 -0.6170
 1628SOL    HW216518   3.695   0.688   7.534 -0.0467  1.9735  0.2359
 1629SOL     OW16519   0.421   1.483   7.554 -0.0250 -0.6915  0.3359
 1629SOL    HW116520   0.389   1.395   7.533  0.4261 -0.7225 -0.1985
 1629SOL    HW216521   0.488   1.505   7.490 -0.2258  0.7896  0.6250
 1630SOL     OW16522   3.792   0.948   1.968  0.1345  0.8513 -0.3411
 1630SOL    HW116523   3.700   0.946   1.996  0.5006 -2.1794  0.6370
 1630SOL    HW216524   3.806   0.854   1.962  0.6558  1.0360 -2.3261
 1631SOL     OW16525   2.206   0.331   4.021 -0.0257 -0.3427 -0.3020
 1631SOL    HW116526   2.295   0.358   4.044 -0.9920  3.1121 -0.6964
 1631SOL    HW216527   2.197   0.243   4.058 -1.6312  0.0820  0.3029
 1632SOL     OW16528   0.361   4.405   2.223  0.2862  0.1920  0.0687
 1632SOL    HW116529   0.316   4.454   2.154  0.6119  2.0878  1.2027
 1632SOL    HW216530   0.281   4.361   2.251 -0.9782  1.8447 -0.9166
 1633SOL     OW16531   3.880   4.081   3.235 -0.3572 -0.3824  0.0240
 1633SOL    HW116532   3.788   4.109   3.228 -0.4063 -1.0356 -2.0245
 1633SOL    HW216533   3.869   3.998   3.282  2.0942  0.7677  2.6377
 1634SOL     OW16534   0.530   1.233   7.977 -0.6533  0.3622 -0.1228
 1634SOL    HW116535   0.517   1.327   7.983 -1.0323  0.2700  0.5656
 1634SOL    HW216536   0.544   1.218   7.884 -2.3864  0.3964 -0.3895
 1635SOL     OW16537   2.881   3.487   7.519 -0.3076 -0.1561 -0.5755
 1635SOL    HW116538   2.831   3.567   7.501  1.1888  1.2541  1.6552
 1635SOL    HW216539   2.924   3.479   7.433  0.5450 -0.1263 -0.1473
 1636SOL     OW16540   0.565   1.918  10.916  0.2791  0.0525 -0.3642
 1636SOL    HW116541   0.559   1.851  10.984  0.0287 -1.6208 -2.0271
 1636SOL    HW216542   0.637   1.973  10.948 -1.1421  1.1929  0.9089
 1637SOL     OW16543   1.700   3.570   7.189 -0.2976  0.2167  0.0811
 1637SOL    HW116544   1.737   3.645   7.141  1.2044  1.0008  2.4444
 1637SOL    HW216545   1.735   3.493   7.144 -0.8761 -0.7959  1.3808
 1638SOL     OW16546   0.838   1.076   1.730  0.2054 -0.6872  0.2732
 1638SOL    HW116547   0.862   0.995   1.776 -1.8916 -1.0555  0.6996
 1638SOL    HW216548   0.926   1.113   1.716  0.6628 -1.6752  0.5019
 1639SOL     OW16549   3.622   4.315  13.401 -0.1225 -0.7438 -0.0763
 1639SOL    HW116550   3.530   4.298  13.379 -0.7469  1.0077  1.1263
 1639SOL    HW216551   3.643   4.368  13.324  0.3637  1.9793  1.9377
 1640SOL     OW16552   3.975   3.280   6.074 -0.0128 -0.2383  0.4529
 1640SOL    HW116553   4.025   3.330   6.139 -0.7631  0.5673  0.4076
 1640SOL    HW216554   3.973   3.189   6.103 -0.3284 -0.2783  0.2945
 1641SOL     OW16555   2.372   2.100  13.781 -0.1625  0.0204  0.1189
 1641SOL    HW116556   2.427   2.049  13.841 -0.7244 -1.6793 -0.8023
 1641SOL    HW216557   2.413   2.186  13.792  1.5721 -0.4252 -2.8141
 1642SOL     OW16558   1.377   4.588  10.025  0.0365  0.5059 -0.2657
 1642SOL    HW116559   1.326   4.507  10.025  1.8807 -0.6688  0.2401
 1642SOL    HW216560   1.312   4.656  10.044  1.2699  0.9553  2.4032
 1643SOL     OW16561   2.350   0.697   9.097  0.4226  0.9017 -0.0741
 1643SOL    HW116562   2.349   0.601   9.101  0.9718  0.7741 -2.5680
 1643SOL    HW216563   2.437   0.732   9.115  2.0176 -1.7795 -2.5512
 1644SOL     OW16564   4.598   2.992   8.097 -0.1684  0.7154 -0.7464
 1644SOL    HW116565   4.575   2.930   8.166 -1.3430  2.8459  0.7528
 1644SOL    HW216566   4.619   2.934   8.024  0.6188  0.2906 -0.1833
 1645SOL     OW16567   0.962   4.186   3.557  0.0744 -0.1002 -0.5928
 1645SOL    HW116568   0.976   4.275   3.588  0.2319 -0.3386  0.0353
 1645SOL    HW216569   0.951   4.210   3.466 -2.1435 -1.8088 -0.7837
 1646SOL     OW16570   1.294   3.175   8.890  0.9031 -0.9113  0.3348
 1646SOL    HW116571   1.355   3.248   8.882 -1.8773  1.0277 -2.9646
 1646SOL    HW216572   1.332   3.114   8.827 -2.2434 -0.7235 -1.7274
 1647SOL     OW16573   2.279   4.667   9.213  0.2581 -0.0877  0.2661
 1647SOL    HW116574   2.320   4.675   9.299  1.2663  1.3798 -0.3628
 1647SOL    HW216575   2.187   4.656   9.237  0.8364 -2.3180  1.4611
 1648SOL     OW16576   3.800   2.305   4.516 -0.0168  0.2351  0.1556
 1648SOL    HW116577   3.739   2.270   4.452  1.0185 -0.6778 -0.3371
 1648SOL    HW216578   3.870   2.240   4.528 -0.5177  0.0305  1.9785
 1649SOL     OW16579   0.762   4.585  16.151  0.2039  0.1163  0.1977
 1649SOL    HW116580   0.770   4.675  16.120  1.1946 -0.4973 -1.3361
 1649SOL    HW216581   0.678   4.554  16.119 -0.3278  0.3106  1.4217
 1650SOL     OW16582   1.830   3.597   4.348 -0.3242 -0.1989  0.7463
 1650SOL    HW116583   1.916   3.638   4.349 -1.3116  1.8440  0.3656
 1650SOL    HW216584   1.779   3.677   4.352 -0.7949 -0.4440 -0.3271
 1651SOL     OW16585   1.999   1.145  15.028 -0.3382  0.0348 -0.7420
 1651SOL    HW116586   2.043   1.123  14.946 -0.9935 -0.7349 -0.8940
 1651SOL    HW216587   1.966   1.233  15.011 -1.2009  0.0476  1.0152
 1652SOL     OW16588   2.592   2.843  11.005 -0.1077 -0.3782 -0.0892
 1652SOL    HW116589   2.511   2.800  11.034 -0.1237 -0.9768 -1.0201
 1652SOL    HW216590   2.567   2.875  10.919 -2.7604  2.3713  1.6922
 1653SOL     OW16591   0.383   0.746   0.478 -0.9444 -0.2663  0.3936
 1653SOL    HW116592   0.307   0.723   0.425 -0.8138  1.1030 -0.3964
 1653SOL    HW216593   0.397   0.670   0.534 -2.8528 -1.6232 -0.9976
 1654SOL     OW16594   2.843   3.781  10.063 -0.0965 -0.3448 -0.5044
 1654SOL    HW116595   2.818   3.783   9.970  0.7369  0.5050 -0.7017
 1654SOL    HW216596   2.907   3.710  10.066 -1.1479 -1.1227  2.8366
 1655SOL     OW16597   3.356   3.803   7.057  0.3652 -0.2842  0.0024
 1655SOL    HW116598   3.379   3.733   7.118 -1.0227 -0.4918  0.2769
 1655SOL    HW216599   3.438   3.815   7.009 -0.3278 -0.0745 -1.1333
 1656SOL     OW16600   0.812   2.525   5.055  0.1354 -0.5172  0.3853
 1656SOL    HW116601   0.889   2.483   5.017  0.8023  0.5961  0.5058
 1656SOL    HW216602   0.752   2.525   4.981  0.9493  2.6549 -0.2568
 1657SOL     OW16603   1.115   2.784   5.143 -0.4262  0.7368  0.0040
 1657SOL    HW116604   1.127   2.874   5.175  1.6778  0.7236 -0.7501
 1657SOL    HW216605   1.081   2.740   5.221 -0.9226  0.2538 -0.4793
 1658SOL     OW16606   1.354   0.035   8.011  0.8065  0.5874  0.3141
 1658SOL    HW116607   1.300   0.087   8.070  0.5290  0.7009 -0.0443
 1658SOL    HW216608   1.418   0.101   7.985  1.1441 -0.5370 -1.6987
 1659SOL     OW16609   1.444   0.886   7.994 -0.2405 -0.1213 -0.7296
 1659SOL    HW116610   1.406   0.962   8.039  0.7579  0.6877 -1.2530
 1659SOL    HW216611   1.537   0.910   7.996 -0.9213  2.4448  0.4413
 1660SOL     OW16612   1.169   3.528  14.557  0.1092  0.3242  0.2766
 1660SOL    HW116613   1.167   3.531  14.653  1.7779 -1.7552  0.3829
 1660SOL    HW216614   1.101   3.464  14.533 -0.0700  0.5770  0.1107
 1661SOL     OW16615   4.059   3.106   9.629 -0.3809  0.3462 -0.4123
 1661SOL    HW116616   4.095   3.119   9.716 -0.7768 -2.2408  0.1462
 1661SOL    HW216617   3.977   3.070   9.663  0.4288 -1.0673  0.0182
 1662SOL     OW16618   0.054   0.634   1.321 -0.3132  0.4793  0.2940
 1662SOL    HW116619   0.099   0.575   1.260  0.2518  1.1778  0.0312
 1662SOL    HW216620   0.133   0.669   1.364  1.8146 -3.6433 -0.2459
 1663SOL     OW16621   2.616   2.017   3.256  0.0207 -0.6330 -0.1960
 1663SOL    HW116622   2.543   1.967   3.291 -0.8040 -0.5079 -1.7284
 1663SOL    HW216623   2.659   2.044   3.337  0.9492  0.2609 -0.9821
 1664SOL     OW16624   2.527   4.453   4.926 -0.6418 -0.3230  0.4670
 1664SOL    HW116625   2.545   4.360   4.916 -1.0837 -0.3904  0.2827
 1664SOL    HW216626   2.458   4.446   4.993 -0.4675 -2.0934  0.4423
 1665SOL     OW16627   2.386   1.523   5.184  0.5149  0.6289 -0.4110
 1665SOL    HW116628   2.452   1.484   5.127  0.0790 -0.4066 -0.2077
 1665SOL    HW216629   2.421   1.608   5.211 -1.3171  1.2310  0.0989
 1666SOL     OW16630   0.648   2.939   1.540 -0.0774 -0.7070 -0.6902
 1666SOL    HW116631   0.588   2.911   1.609  0.4723 -1.2616 -0.4430
 1666SOL    HW216632   0.722   2.880   1.543  0.8553  0.6681  3.1785
 1667SOL     OW16633   2.130   1.342  17.510 -0.6740  0.5271  0.9729
 1667SOL    HW116634   2.063   1.407  17.531  0.9913  2.3758  0.5984
 1667SOL    HW216635   2.081   1.296  17.442  2.4969  0.1827 -1.0924
 1668SOL     OW16636   4.446   3.473   1.551  0.2665  0.0342 -0.4715
 1668SOL    HW116637   4.446   3.384   1.514 -2.5189 -1.0264  2.1340
 1668SOL    HW216638   4.357   3.502   1.567  0.8608  1.6589 -0.1314
 1669SOL     OW16639   0.129   3.751  17.494 -0.2024  0.4696 -0.1229
 1669SOL    HW116640   0.049   3.713  17.458  0.2572 -1.0401  0.4818
 1669SOL    HW216641   0.192   3.680  17.503 -0.6184  0.2821  1.1891
 1670SOL     OW16642   0.654   3.026  10.522  0.0463 -0.1762 -0.2349
 1670SOL    HW116643   0.747   3.029  10.502  1.1584 -1.2823  4.7494
 1670SOL    HW216644   0.616   3.015  10.435  0.0067  0.6182 -0.3222
 1671SOL     OW16645   2.483   0.441   9.108 -0.0938  0.0524 -0.2402
 1671SOL    HW116646   2.566   0.478   9.079 -0.6268  1.0674 -0.4680
 1671SOL    HW216647   2.512   0.406   9.192 -3.2362  0.3150  0.9904
 1672SOL     OW16648   3.323   1.867   5.423  0.1530  0.0337  0.3893
 1672SOL    HW116649   3.333   1.800   5.356 -0.7893  2.8906 -2.6568
 1672SOL    HW216650   3.399   1.853   5.479  1.8718 -0.9927 -2.1935
 1673SOL     OW16651   2.222   3.646   8.953  0.0936  0.2395  0.0955
 1673SOL    HW116652   2.202   3.691   8.871 -1.1404 -0.3885  0.0495
 1673SOL    HW216653   2.154   3.578   8.945  0.0504  0.2909  0.0185
 1674SOL     OW16654   2.168   0.409   5.744  0.1924 -0.0850 -0.1662
 1674SOL    HW116655   2.079   0.442   5.761  1.2298  1.3618  2.4878
 1674SOL    HW216656   2.152   0.349   5.671 -0.0975  0.9739 -0.9711
 1675SOL     OW16657   4.113   4.067   6.727 -0.0609 -0.3154 -0.8954
 1675SOL    HW116658   4.019   4.055   6.716  0.0634 -1.1546 -1.0293
 1675SOL    HW216659   4.130   3.985   6.774  1.2263  2.3279  3.1985
 1676SOL     OW16660   4.448   1.868  17.492  0.6302 -0.0108  0.7157
 1676SOL    HW116661   4.409   1.815  17.562  2.0289 -0.1722  1.3773
 1676SOL    HW216662   4.541   1.871  17.517  0.9230 -1.3009 -0.2463
 1677SOL     OW16663   4.706   3.674   6.140 -0.5761  0.4200 -0.1267
 1677SOL    HW116664   0.033   3.700   6.074 -0.8818  1.4818 -0.0074
 1677SOL    HW216665   0.009   3.628   6.214 -1.4016 -3.4769 -2.1339
 1678SOL     OW16666   3.661   0.041   8.601 -0.1036 -0.6041 -0.1469
 1678SOL    HW116667   3.720   0.058   8.675 -0.7033  2.2525 -0.3100
 1678SOL    HW216668   3.715   4.717   8.552  1.6714  0.3484  0.5836
 1679SOL     OW16669   3.552   2.298   8.827  0.0150 -0.4359  0.0292
 1679SOL    HW116670   3.515   2.386   8.819 -0.2694 -0.3668  2.0623
 1679SOL    HW216671   3.519   2.279   8.915  1.6270 -0.5281  0.6066
 1680SOL     OW16672   3.214   1.893  10.963  0.6624 -0.0807  0.9609
 1680SOL    HW116673   3.248   1.981  10.980  2.7316 -0.8786  0.9908
 1680SOL    HW216674   3.291   1.852  11.002  1.0457  0.0366  0.3275
 1681SOL     OW16675   0.838   3.730  13.201  0.1805 -0.3402  0.1012
 1681SOL    HW116676   0.771   3.764  13.142  1.5192  0.6674 -0.8514
 1681SOL    HW216677   0.898   3.803  13.188  0.7432 -0.0464  4.4869
 1682SOL     OW16678   2.242   2.900   4.206 -0.2746 -0.3849  0.0632
 1682SOL    HW116679   2.229   2.877   4.114  1.4809  0.1407 -0.3111
 1682SOL    HW216680   2.161   2.947   4.227  0.5234  0.5497  1.0869
 1683SOL     OW16681   2.092   3.548   5.847  0.2231 -0.4658  0.2525
 1683SOL    HW116682   2.064   3.498   5.923 -2.2414  0.1264 -0.2666
 1683SOL    HW216683   2.041   3.524   5.770  2.0201 -2.6823 -0.2686
 1684SOL     OW16684   3.912   2.819   3.457  0.3217  0.3040  0.3700
 1684SOL    HW116685   3.947   2.865   3.534  2.2009  2.5328 -1.8129
 1684SOL    HW216686   3.989   2.804   3.402  0.1621 -0.5481  0.3793
 1685SOL     OW16687   0.623   0.692  17.515  0.2875  0.1017  0.4529
 1685SOL    HW116688   0.538   0.647  17.511  1.7567 -2.7290  0.6148
 1685SOL    HW216689   0.685   0.624  17.487  0.7109  0.5731  0.2485
 1686SOL     OW16690   4.704   2.166   8.813 -0.3151 -0.2550  0.5340
 1686SOL    HW116691   4.648   2.089   8.804 -0.1379 -0.6040  2.3982
 1686SOL    HW216692   0.042   2.118   8.779 -1.5428 -1.4512 -0.5402
 1687SOL     OW16693   4.207   0.228  10.504 -0.3540 -0.0865 -0.0823
 1687SOL    HW116694   4.164   0.297  10.554  0.7116  0.9504 -0.5892
 1687SOL    HW216695   4.208   0.157  10.568 -0.8859  0.3892  0.4502
 1688SOL     OW16696   4.486   0.405   5.569 -0.2743  0.0458 -0.3234
 1688SOL    HW116697   4.491   0.310   5.576 -3.2171 -0.2916 -2.7474
 1688SOL    HW216698   4.392   0.417   5.584 -0.1219  3.5222 -2.2275
 1689SOL     OW16699   3.390   0.156   8.133  0.4392  0.3891 -0.1272
 1689SOL    HW116700   3.356   0.081   8.183 -0.8996  0.2179 -1.2922
 1689SOL    HW216701   3.343   0.138   8.052 -0.1897 -1.0545  0.5470
 1690SOL     OW16702   3.533   1.766   6.240  0.2278 -0.0405 -0.2289
 1690SOL    HW116703   3.504   1.726   6.322  0.8338  0.3654  0.1909
 1690SOL    HW216704   3.623   1.791   6.261 -0.0855  0.3638  0.6180
 1691SOL     OW16705   3.404   4.572   0.818  0.4343 -0.0857  0.2805
 1691SOL    HW116706   3.489   4.615   0.819  0.1106  0.5383  1.4659
 1691SOL    HW216707   3.402   4.538   0.908 -0.2781 -1.1209 -0.1351
 1692SOL     OW16708   0.547   4.661   1.206 -0.3087  0.3669 -0.1095
 1692SOL    HW116709   0.503   4.637   1.287  0.3777 -0.5445 -0.0078
 1692SOL    HW216710   0.624   4.709   1.235 -1.0250  1.0248  0.6972
 1693SOL     OW16711   3.444   2.097  17.131  0.1350 -0.5150 -0.1494
 1693SOL    HW116712   3.494   2.113  17.211  0.9824 -3.3170 -0.0963
 1693SOL    HW216713   3.509   2.130  17.069 -1.1775  0.9912 -0.6984
 1694SOL     OW16714   2.965   1.644   4.146 -0.4108  0.2390 -0.9036
 1694SOL    HW116715   2.871   1.638   4.160 -0.1021 -3.1023 -0.3885
 1694SOL    HW216716   2.975   1.592   4.066  1.1284 -2.5302  1.1046
 1695SOL     OW16717   2.217   2.776  13.122  0.0982 -0.0845  0.7545
 1695SOL    HW116718   2.209   2.848  13.185  1.1026  0.2183  0.5397
 1695SOL    HW216719   2.273   2.709  13.161 -1.3676 -1.1944  0.9475
 1696SOL     OW16720   0.568   0.395   8.090  0.0441  0.0017 -0.0493
 1696SOL    HW116721   0.516   0.329   8.136  0.4385 -0.2541  0.0306
 1696SOL    HW216722   0.520   0.398   8.007  1.1879 -0.1139 -0.7022
 1697SOL     OW16723   0.904   2.361  17.664  0.3630  0.1950 -0.4445
 1697SOL    HW116724   0.956   2.390  17.738 -1.9542 -0.0940  1.2844
 1697SOL    HW216725   0.936   2.407  17.586  2.2839  0.1099  0.3067
 1698SOL     OW16726   0.282   0.805   5.518 -0.2880  0.0658  0.0867
 1698SOL    HW116727   0.248   0.780   5.432 -2.0761  4.5199 -0.4822
 1698SOL    HW216728   0.366   0.760   5.525  0.4030  1.0928 -1.9162
 1699SOL     OW16729   3.206   0.153   9.118  0.3379 -0.9958 -0.2355
 1699SOL    HW116730   3.165   0.229   9.076 -2.2701 -0.7704  2.6703
 1699SOL    HW216731   3.300   0.167   9.110  0.6802 -2.8300  0.5352
 1700SOL     OW16732   2.773   3.497   0.652 -0.0340 -0.3773  0.2639
 1700SOL    HW116733   2.822   3.457   0.724  1.6166 -1.3101 -1.3737
 1700SOL    HW216734   2.823   3.461   0.579  0.2504  0.5617 -0.0058
 1701SOL     OW16735   1.486   4.659   4.293 -0.1482 -0.7538 -0.5966
 1701SOL    HW116736   1.527   4.668   4.206  0.0433 -0.2909 -0.4560
 1701SOL    HW216737   1.446   4.572   4.301  1.0180 -1.1228  1.0388
 1702SOL     OW16738   2.381   2.877   6.953  0.0167  0.0118  0.1427
 1702SOL    HW116739   2.470   2.880   6.917  0.9526 -1.1275  2.4029
 1702SOL    HW216740   2.364   2.786   6.979  2.1561 -0.6641 -0.8646
 1703SOL     OW16741   2.442   4.541   5.892  0.0768  0.1619 -0.4560
 1703SOL    HW116742   2.418   4.485   5.966 -0.6895  0.3336 -0.5779
 1703SOL    HW216743   2.403   4.491   5.820  1.2463  1.8790 -2.2917
 1704SOL     OW16744   1.610   0.596  13.775 -0.5108 -0.3458 -0.2307
 1704SOL    HW116745   1.566   0.558  13.699 -0.3085  0.5921 -0.8245
 1704SOL    HW216746   1.573   0.543  13.845 -2.6650  0.0084 -1.0972
 1705SOL     OW16747   2.052   1.436   1.965 -0.1876  0.2070  0.1898
 1705SOL    HW116748   2.042   1.351   1.923 -0.0968  0.0291  0.5281
 1705SOL    HW216749   2.146   1.450   1.972 -0.2170  1.0585 -1.1840
 1706SOL     OW16750   4.508   4.197   5.461  0.2670  0.4483 -0.4958
 1706SOL    HW116751   4.434   4.211   5.402 -0.3911  0.7382  0.3913
 1706SOL    HW216752   4.544   4.286   5.457 -0.2479  0.6652 -0.2499
 1707SOL     OW16753   0.291   4.714   3.289  0.4372 -0.3115  0.0610
 1707SOL    HW116754   0.308   4.632   3.334 -3.1895 -0.9574  0.2619
 1707SOL    HW216755   0.379   0.005   3.264  0.6131 -1.6116 -0.8016
 1708SOL     OW16756   4.161   3.295   1.844  0.0152 -0.1823  0.4211
 1708SOL    HW116757   4.161   3.307   1.749 -0.8687 -1.3649  0.2649
 1708SOL    HW216758   4.073   3.298   1.882 -0.3095 -2.7175 -0.1541
 1709SOL     OW16759   1.882   2.854   2.232 -0.3925 -0.3644 -0.2693
 1709SOL    HW116760   1.971   2.889   2.226 -0.0952 -1.3538 -1.6358
 1709SOL    HW216761   1.881   2.840   2.326  0.0615 -0.7828 -0.3273
 1710SOL     OW16762   1.017   4.433   2.778 -0.2893  0.0760  0.3888
 1710SOL    HW116763   0.959   4.371   2.823  2.2497 -1.2983  1.7863
 1710SOL    HW216764   1.066   4.365   2.733  0.2776 -0.5926  2.0024
 1711SOL     OW16765   1.280   1.836   9.042 -0.3557  0.0502 -0.3064
 1711SOL    HW116766   1.196   1.854   8.999 -0.5476 -1.2061 -0.4579
 1711SOL    HW216767   1.261   1.753   9.085 -0.3795 -0.0794 -0.5694
 1712SOL     OW16768   1.166   0.433   9.232 -0.6673  0.6238 -0.0617
 1712SOL    HW116769   1.180   0.516   9.278  1.9874  0.6317 -0.8689
 1712SOL    HW216770   1.079   0.449   9.196 -1.3250 -2.6774  0.0254
 1713SOL     OW16771   4.448   0.029   4.803  0.0854  0.1504  0.5271
 1713SOL    HW116772   4.514   0.097   4.816 -0.4712  1.0603 -1.4026
 1713SOL    HW216773   4.357   0.060   4.814 -0.2174 -0.9216  1.0510
 1714SOL     OW16774   3.479   1.523   7.380 -0.1105 -0.4686 -0.3463
 1714SOL    HW116775   3.550   1.508   7.442  2.0496  2.4166 -2.1221
 1714SOL    HW216776   3.453   1.433   7.358  2.0631 -0.8703 -1.2571
 1715SOL     OW16777   0.802   3.066  10.921  0.5747 -0.5795  0.3959
 1715SOL    HW116778   0.805   3.141  10.861  2.4439 -1.6393 -0.8535
 1715SOL    HW216779   0.885   3.073  10.968  2.7832 -1.4920 -3.3498
 1716SOL     OW16780   1.012   0.644  13.411 -0.1317  0.6814 -0.1857
 1716SOL    HW116781   0.922   0.649  13.441  0.5272  0.1853  1.8725
 1716SOL    HW216782   1.042   0.735  13.410  0.0975  0.6484  3.3550
 1717SOL     OW16783   2.054   1.317   6.110 -0.0111  0.2085 -0.2519
 1717SOL    HW116784   1.981   1.360   6.065 -1.8798 -2.8517 -0.1485
 1717SOL    HW216785   2.125   1.372   6.078 -0.1711  1.6122  1.7438
 1718SOL     OW16786   1.569   2.667  12.072  0.6106  0.6310  0.6437
 1718SOL    HW116787   1.592   2.628  11.987  1.0137  0.6735  0.7324
 1718SOL    HW216788   1.621   2.747  12.071 -1.0909  1.7413  1.9293
 1719SOL     OW16789   2.443   0.894   9.515 -0.1310 -0.7452 -0.1791
 1719SOL    HW116790   2.417   0.807   9.487 -0.6572  0.3243 -3.0920
 1719SOL    HW216791   2.538   0.882   9.521 -0.1674 -1.2120 -0.5529
 1720SOL     OW16792   3.731   4.666   2.463  0.6891 -0.1777 -0.2440
 1720SOL    HW116793   3.738   4.710   2.548  0.6021 -0.0477 -0.3046
 1720SOL    HW216794   3.640   4.638   2.467  1.2409 -2.3478 -2.6037
 1721SOL     OW16795   4.312   0.640   7.507 -0.4680 -0.5068  0.2864
 1721SOL    HW116796   4.271   0.700   7.569 -0.9381 -2.2807  1.6876
 1721SOL    HW216797   4.320   0.562   7.561  0.7781 -2.7716 -3.2186
 1722SOL     OW16798   3.102   4.526   5.454 -0.4612  0.6367 -0.6675
 1722SOL    HW116799   3.048   4.580   5.512 -0.6058  0.0278 -0.2412
 1722SOL    HW216800   3.114   4.601   5.395 -2.7129  0.7021 -1.0538
 1723SOL     OW16801   4.310   4.028   9.173  0.3110 -0.2623  0.7835
 1723SOL    HW116802   4.239   4.010   9.111 -0.4623  0.4478  1.4498
 1723SOL    HW216803   4.378   3.972   9.135 -0.8473 -2.2779  1.6490
 1724SOL     OW16804   2.179   1.876   8.939  0.1809  0.2763  0.0633
 1724SOL    HW116805   2.230   1.825   8.877 -0.6046  0.1504 -0.4844
 1724SOL    HW216806   2.235   1.948   8.969  1.5760 -0.5409 -0.6107
 1725SOL     OW16807   4.134   4.507   1.004  0.4008 -0.8128  0.3635
 1725SOL    HW116808   4.176   4.423   0.987 -0.9009 -1.4621  0.3130
 1725SOL    HW216809   4.154   4.521   1.096 -2.2182  2.5292  0.4297
 1726SOL     OW16810   1.860   3.731   0.918  0.0749  0.2857  0.7504
 1726SOL    HW116811   1.946   3.715   0.955  0.1896 -0.8031  0.0094
 1726SOL    HW216812   1.803   3.659   0.946 -1.1908  0.3881 -1.5332
 1727SOL     OW16813   3.843   2.092   2.386  0.5049  0.4449 -0.4532
 1727SOL    HW116814   3.868   2.063   2.474 -0.8596  1.4033  0.2549
 1727SOL    HW216815   3.765   2.041   2.367  0.0761  0.6591  0.7538
 1728SOL     OW16816   4.137   1.325   3.569  0.0329  0.6474  0.0705
 1728SOL    HW116817   4.202   1.333   3.638 -1.7817 -1.2283  2.0045
 1728SOL    HW216818   4.068   1.289   3.625 -0.7913 -0.5057 -1.6854
 1729SOL     OW16819   3.449   1.192   3.648  0.1662  0.6834  0.0543
 1729SOL    HW116820   3.435   1.185   3.554 -1.9741  1.9572  0.2629
 1729SOL    HW216821   3.516   1.259   3.662  1.4327 -0.4480 -0.5998
 1730SOL     OW16822   1.684   1.954   6.946 -0.3275 -0.6160 -0.4072
 1730SOL    HW116823   1.742   1.940   6.871  0.7840  0.4224  0.2586
 1730SOL    HW216824   1.749   1.945   7.016 -2.5153  0.0281  1.7045
 1731SOL     OW16825   1.847   0.860   3.794  0.2904 -0.0862  0.0968
 1731SOL    HW116826   1.916   0.842   3.730  0.9012  3.0962 -0.1080
 1731SOL    HW216827   1.789   0.785   3.778  0.4797 -0.1741 -0.1776
 1732SOL     OW16828   1.746   2.439   4.499  0.0599  0.0198  0.4104
 1732SOL    HW116829   1.717   2.473   4.414 -0.5912 -1.7892 -0.0840
 1732SOL    HW216830   1.751   2.527   4.536  2.0398  0.1228 -0.1253
 1733SOL     OW16831   3.228   3.779  16.352 -0.4270 -0.0926 -0.0594
 1733SOL    HW116832   3.153   3.733  16.314  0.1329  1.1661 -2.6526
 1733SOL    HW216833   3.208   3.870  16.333 -0.1011  0.1242  0.6133
 1734SOL     OW16834   3.500   3.908   7.992  0.2803 -0.1697 -0.3568
 1734SOL    HW116835   3.447   3.988   7.985 -0.4343 -0.6333 -0.2531
 1734SOL    HW216836   3.554   3.927   7.915  0.7070  0.2297  0.0413
 1735SOL     OW16837   2.704   4.092   1.507 -0.0808 -0.2089 -0.3023
 1735SOL    HW116838   2.701   4.179   1.467  0.9866 -0.7825 -1.6118
 1735SOL    HW216839   2.701   4.129   1.595 -3.0158 -1.9390  0.3164
 1736SOL     OW16840   1.984   1.141   7.314 -0.9084 -0.7251 -0.6844
 1736SOL    HW116841   1.909   1.081   7.312 -0.2726 -1.5409  0.1173
 1736SOL    HW216842   1.940   1.212   7.362 -0.8680 -1.6132  0.6558
 1737SOL     OW16843   3.076   2.457   6.108 -0.0559  0.7756  0.6322
 1737SOL    HW116844   3.095   2.365   6.093  0.7601  1.1560 -0.6955
 1737SOL    HW216845   3.110   2.511   6.037 -0.3977 -0.1004 -0.1920
 1738SOL     OW16846   4.241   4.223   4.158 -0.0098 -0.9651  0.1716
 1738SOL    HW116847   4.299   4.293   4.187  0.2048 -2.0312  2.2592
 1738SOL    HW216848   4.242   4.159   4.229 -1.8249  1.1975  2.1278
 1739SOL     OW16849   1.822   4.441   7.124  0.0461  0.5783 -0.1437
 1739SOL    HW116850   1.766   4.380   7.076 -1.6250  0.4309  1.9875
 1739SOL    HW216851   1.761   4.511   7.144 -0.8565  0.0994 -1.2379
 1740SOL     OW16852   1.330   4.707   9.746  0.1394 -0.0268 -0.2924
 1740SOL    HW116853   1.415   4.674   9.718  0.2682 -0.8944  1.1501
 1740SOL    HW216854   1.321   4.690   9.840  0.3759 -0.3844 -0.3387
 1741SOL     OW16855   0.957   4.451  14.944 -0.0345 -0.3280 -0.1521
 1741SOL    HW116856   0.955   4.501  14.863 -0.4052 -4.1464 -2.5180
 1741SOL    HW216857   0.934   4.363  14.912 -0.7422 -0.6108  1.1326
 1742SOL     OW16858   2.235   3.758  12.166  0.2136 -0.3696  0.1578
 1742SOL    HW116859   2.165   3.703  12.131 -0.5009 -0.4142  1.6616
 1742SOL    HW216860   2.221   3.725  12.255 -0.4733  1.9227  0.8892
 1743SOL     OW16861   4.493   0.721  14.845  0.0097  0.3645 -0.3919
 1743SOL    HW116862   4.490   0.625  14.844  0.7552  0.3241  0.9545
 1743SOL    HW216863   4.456   0.738  14.759  0.0709 -1.2475 -0.7307
 1744SOL     OW16864   2.428   2.879   0.936  0.4377 -0.7912 -0.2145
 1744SOL    HW116865   2.437   2.883   1.031 -2.3811 -1.6374  0.0979
 1744SOL    HW216866   2.414   2.788   0.911  2.6103 -0.7414 -1.6049
 1745SOL     OW16867   0.957   2.205   7.489 -0.5979 -0.4201 -0.0561
 1745SOL    HW116868   0.948   2.230   7.581 -1.4172 -2.5611  0.4630
 1745SOL    HW216869   0.893   2.261   7.446 -1.5944 -1.4427  0.0768
 1746SOL     OW16870   1.416   1.521   9.456  0.3911 -0.3314 -0.0310
 1746SOL    HW116871   1.477   1.454   9.426 -1.5889 -2.6592  1.1884
 1746SOL    HW216872   1.328   1.486   9.444  0.5707 -0.8044  0.0581
 1747SOL     OW16873   3.971   4.379  10.341  0.2436  0.3693 -0.2615
 1747SOL    HW116874   4.029   4.432  10.396  0.8790  1.5894 -2.0922
 1747SOL    HW216875   3.899   4.442  10.341  1.4163  1.7200  0.9679
 1748SOL     OW16876   1.301   2.654  12.168 -0.1810 -0.0162 -0.3393
 1748SOL    HW116877   1.392   2.663  12.140 -0.8818 -1.0229 -2.8852
 1748SOL    HW216878   1.308   2.596  12.244  1.1785  1.1377  0.3980
 1749SOL     OW16879   1.202   0.590   8.260 -0.1033 -0.3059  0.8788
 1749SOL    HW116880   1.140   0.641   8.208 -0.3302 -0.6556  0.8050
 1749SOL    HW216881   1.153   0.567   8.339 -0.5190  0.2670  0.7880
 1750SOL     OW16882   0.371   0.945   5.744 -0.7726  0.1210 -0.0586
 1750SOL    HW116883   0.348   0.871   5.688 -1.7794 -1.2255  2.1416
 1750SOL    HW216884   0.285   0.963   5.782 -0.7328  0.5974 -0.1960
 1751SOL     OW16885   1.405   0.533   7.452 -0.5253  0.0544  0.0374
 1751SOL    HW116886   1.329   0.475   7.448  0.6210 -1.3526 -1.1825
 1751SOL    HW216887   1.460   0.483   7.392  0.5497  0.4951  0.6537
 1752SOL     OW16888   2.331   1.438  16.695 -0.3771 -0.0247  0.5485
 1752SOL    HW116889   2.327   1.360  16.749  2.0681  0.2353  1.1127
 1752SOL    HW216890   2.281   1.398  16.625 -1.7469  0.5275  1.2151
 1753SOL     OW16891   3.117   2.472   4.017  0.4020  0.6509 -0.2387
 1753SOL    HW116892   3.132   2.444   3.927  0.2873  1.0555 -0.3820
 1753SOL    HW216893   3.151   2.397   4.066  0.8496  0.8404 -0.2632
 1754SOL     OW16894   2.105   0.692   7.711 -0.3482 -0.0841 -0.1378
 1754SOL    HW116895   2.197   0.693   7.685 -0.7968 -1.5191 -1.7666
 1754SOL    HW216896   2.070   0.730   7.630 -1.3995  0.7151  0.6972
 1755SOL     OW16897   0.702   1.717  13.957  0.2403  0.0263 -0.4997
 1755SOL    HW116898   0.790   1.754  13.960 -0.3541  1.4291 -0.2882
 1755SOL    HW216899   0.694   1.692  14.049  0.4718  1.2621 -0.1514
 1756SOL     OW16900   0.601   4.132  12.347  0.3911  0.1545  0.2560
 1756SOL    HW116901   0.683   4.096  12.383  1.4625  2.7536  0.4437
 1756SOL    HW216902   0.535   4.063  12.356  4.1776 -3.9653 -3.3550
 1757SOL     OW16903   3.517   3.124  10.642  0.3524 -0.6479 -0.1090
 1757SOL    HW116904   3.528   3.038  10.601  0.9991 -1.3744  1.5642
 1757SOL    HW216905   3.500   3.100  10.733  0.5160  1.7184  0.5551
 1758SOL     OW16906   0.732   1.378   2.157  0.3852 -0.5161  0.3859
 1758SOL    HW116907   0.789   1.447   2.190 -0.7822  0.7849 -0.3470
 1758SOL    HW216908   0.797   1.310   2.137  0.1988  0.1861 -2.5946
 1759SOL     OW16909   3.835   0.238   4.483  0.5328  0.1122 -0.0449
 1759SOL    HW116910   3.765   0.292   4.520 -1.3432 -1.8262 -0.7346
 1759SOL    HW216911   3.893   0.303   4.445 -0.9669  1.1412 -0.5782
 1760SOL     OW16912   4.068   2.621   5.103  0.0041 -0.8082 -0.1767
 1760SOL    HW116913   3.984   2.608   5.061 -0.6839 -1.2902  1.3593
 1760SOL    HW216914   4.120   2.640   5.024  0.1730  0.1475  0.1598
 1761SOL     OW16915   0.601   0.770   6.210 -0.2242 -0.6482  0.3660
 1761SOL    HW116916   0.650   0.789   6.290  0.2654 -0.4072  0.0140
 1761SOL    HW216917   0.628   0.682   6.183 -2.6836 -0.9055 -1.2590
 1762SOL     OW16918   3.558   0.056  14.273  0.4450 -0.0897 -0.2026
 1762SOL    HW116919   3.544   0.051  14.178  2.7519 -2.2923 -0.4166
 1762SOL    HW216920   3.573   0.150  14.270  1.5542 -0.3095 -1.5443
 1763SOL     OW16921   3.391   0.462   0.303  0.2699 -0.1788 -0.6181
 1763SOL    HW116922   3.366   0.370   0.313  1.3614 -0.2368  1.6438
 1763SOL    HW216923   3.324   0.500   0.247 -1.5838  0.1071  1.7547
 1764SOL     OW16924   0.644   0.162   0.924 -0.3266  0.5842  0.3493
 1764SOL    HW116925   0.728   0.125   0.899 -0.8448 -0.4388  0.1472
 1764SOL    HW216926   0.608   0.147   0.837  0.0635  1.0005  0.1164
 1765SOL     OW16927   3.583   4.390  17.464 -0.1115 -0.2420  0.2553
 1765SOL    HW116928   3.519   4.447  17.505 -1.1690 -0.9067 -0.4818
 1765SOL    HW216929   3.620   4.450  17.400  0.8611 -2.0400 -0.8724
 1766SOL     OW16930   3.094   3.614  11.741 -0.4159  0.0735  0.1443
 1766SOL    HW116931   3.182   3.648  11.725 -0.3882  0.3349  0.8720
 1766SOL    HW216932   3.091   3.537  11.684 -0.3073 -1.3579  2.0855
 1767SOL     OW16933   2.959   1.200   5.554 -0.1977 -0.5236  0.2534
 1767SOL    HW116934   2.942   1.294   5.550  2.8553  0.0875  1.7575
 1767SOL    HW216935   3.033   1.193   5.494 -0.3463 -1.9324  0.2409
 1768SOL     OW16936   2.029   3.771   7.236  0.3274 -0.6905  0.2218
 1768SOL    HW116937   2.090   3.814   7.296  1.6164 -2.3039  0.0706
 1768SOL    HW216938   2.061   3.682   7.222  0.6594 -0.8944  2.2474
 1769SOL     OW16939   0.659   3.223   5.263 -0.3473 -0.2656  0.3206
 1769SOL    HW116940   0.703   3.197   5.344  0.4114  0.3688  0.1107
 1769SOL    HW216941   0.716   3.167   5.209 -0.2110 -0.2140  0.4106
 1770SOL     OW16942   1.330   4.632   5.832  0.2524  0.2294 -0.2595
 1770SOL    HW116943   1.408   4.684   5.851  0.6078 -1.1471  2.0344
 1770SOL    HW216944   1.275   4.709   5.815  2.1467  1.5233 -0.5705
 1771SOL     OW16945   1.181   3.780  13.312  0.5102  1.1955  0.3137
 1771SOL    HW116946   1.112   3.846  13.302  0.4718  1.1309  0.1599
 1771SOL    HW216947   1.165   3.741  13.227  0.0952 -0.5388  1.1865
 1772SOL     OW16948   2.688   1.028   7.790  0.1158  0.6409 -0.0233
 1772SOL    HW116949   2.676   1.021   7.695  0.7256 -1.6766  0.0689
 1772SOL    HW216950   2.657   0.944   7.824 -0.3857  1.0860  0.6286
 1773SOL     OW16951   3.843   0.733  12.371  0.4683 -0.2381 -0.1885
 1773SOL    HW116952   3.779   0.784  12.321 -1.6086  0.4226  3.0684
 1773SOL    HW216953   3.781   0.686  12.427  0.5134 -0.4627 -0.3313
 1774SOL     OW16954   0.900   1.124  13.501 -0.1186  0.1876 -0.1158
 1774SOL    HW116955   0.923   1.150  13.590 -0.7774 -0.3592  0.2122
 1774SOL    HW216956   0.877   1.208  13.459 -1.3929 -0.2788 -0.3399
 1775SOL     OW16957   1.565   4.091   2.353  0.6649 -0.6368  0.4905
 1775SOL    HW116958   1.657   4.097   2.327  0.2860 -0.5751 -0.8369
 1775SOL    HW216959   1.541   4.181   2.329 -0.8821 -1.6345 -1.6379
 1776SOL     OW16960   3.185   3.159  11.714 -0.5296  0.8670 -0.0636
 1776SOL    HW116961   3.228   3.128  11.635 -1.7375  1.1201 -0.8248
 1776SOL    HW216962   3.215   3.087  11.770 -0.0110 -0.0746 -1.5388
 1777SOL     OW16963   3.069   3.242   3.413 -0.2661  0.5228  0.2812
 1777SOL    HW116964   3.084   3.277   3.325  0.7167  2.4800  1.2324
 1777SOL    HW216965   3.030   3.320   3.451  0.6271  0.3987  1.4385
 1778SOL     OW16966   4.654   1.411   8.891 -0.3973  0.2578  0.9008
 1778SOL    HW116967   4.693   1.492   8.923 -0.8241  0.4765  0.8743
 1778SOL    HW216968   4.612   1.444   8.811  2.4983 -0.9971 -1.1052
 1779SOL     OW16969   0.328   2.093  14.133  0.2778  0.0137  0.3112
 1779SOL    HW116970   0.329   1.997  14.141 -0.3394  0.0012  0.2267
 1779SOL    HW216971   0.291   2.100  14.045 -0.2333 -1.0000  0.4402
 1780SOL     OW16972   3.436   1.576   6.433 -0.2523  0.0768  0.0038
 1780SOL    HW116973   3.526   1.546   6.420 -0.3918 -0.7605  0.9380
 1780SOL    HW216974   3.447   1.613   6.521  1.1453 -1.2756  0.3985
 1781SOL     OW16975   0.315   3.973   5.841  0.0328 -0.2169  0.5761
 1781SOL    HW116976   0.330   3.983   5.935 -0.6117 -0.1856  0.6780
 1781SOL    HW216977   0.238   4.028   5.831  1.5855  1.7362 -0.6696
 1782SOL     OW16978   4.140   3.157   2.541 -0.0141 -0.0214  0.4013
 1782SOL    HW116979   4.200   3.226   2.512 -0.0360 -0.2476 -0.1848
 1782SOL    HW216980   4.158   3.091   2.474 -2.4880 -0.0979 -0.2038
 1783SOL     OW16981   2.491   0.025   6.362  0.6083  0.2221  0.2017
 1783SOL    HW116982   2.474   0.068   6.277 -0.2067  0.4447  0.4712
 1783SOL    HW216983   2.585   0.042   6.365  0.1672  2.4857  1.1151
 1784SOL     OW16984   2.294   1.645  16.217  0.2016 -0.1771 -0.1204
 1784SOL    HW116985   2.254   1.642  16.304 -0.6480  1.4457 -0.4619
 1784SOL    HW216986   2.354   1.719  16.222 -0.4634  0.4858 -1.9750
 1785SOL     OW16987   2.073   2.983   6.019  0.3424  0.3650  0.4104
 1785SOL    HW116988   2.114   3.001   5.935  0.4647  0.5167  0.5019
 1785SOL    HW216989   2.033   2.896   6.009 -0.6625  1.0029 -1.0032
 1786SOL     OW16990   2.267   0.408   4.438  0.0648 -0.0226 -0.2995
 1786SOL    HW116991   2.249   0.320   4.405  1.7315 -0.8038  0.9129
 1786SOL    HW216992   2.227   0.399   4.525  1.0567  0.0239  0.1539
 1787SOL     OW16993   3.155   0.468   7.612  0.7933  0.3742  0.4143
 1787SOL    HW116994   3.213   0.394   7.629  1.9643  1.4558  1.0791
 1787SOL    HW216995   3.089   0.471   7.682  3.3492  0.2324  2.8448
 1788SOL     OW16996   3.150   2.827   2.759 -0.1541  0.2492 -0.6821
 1788SOL    HW116997   3.176   2.746   2.714  1.4032  0.6049 -0.3982
 1788SOL    HW216998   3.069   2.848   2.713 -1.0652  1.1839  1.3493
 1789SOL     OW16999   1.433   0.504   9.595 -0.2235 -0.3282  0.1412
 1789SOL    HW117000   1.408   0.445   9.524  1.3069 -1.5176  0.5897
 1789SOL    HW217001   1.377   0.471   9.664 -1.5166 -0.5972 -1.0424
 1790SOL     OW17002   3.031   4.054  14.280 -0.3235 -0.1083  0.3811
 1790SOL    HW117003   3.022   4.110  14.203  0.3562  0.9539  1.0732
 1790SOL    HW217004   3.060   3.976  14.234  1.2703  1.1665 -0.7978
 1791SOL     OW17005   0.317   3.888  13.259  0.0697 -0.1269  0.1440
 1791SOL    HW117006   0.318   3.964  13.200 -1.0914  0.0043  0.2934
 1791SOL    HW217007   0.410   3.896  13.278 -0.4505  0.9376  2.2188
 1792SOL     OW17008   4.585   1.403   2.956  0.1876 -0.8849 -0.5010
 1792SOL    HW117009   4.635   1.322   2.966  0.2075 -0.3076  4.0221
 1792SOL    HW217010   4.536   1.393   3.037 -0.0655 -1.2590 -0.6996
 1793SOL     OW17011   4.019   2.279  11.543  0.3028  0.4951 -0.3265
 1793SOL    HW117012   4.106   2.312  11.520  0.4579 -0.3534 -0.9297
 1793SOL    HW217013   4.035   2.206  11.603  1.9225  0.1775 -1.1496
 1794SOL     OW17014   0.173   2.314   9.594  0.1910 -0.3480  0.6464
 1794SOL    HW117015   0.107   2.332   9.661  0.1133 -1.3132  0.8315
 1794SOL    HW217016   0.253   2.286   9.639 -0.5814 -0.6569  1.8469
 1795SOL     OW17017   2.909   0.293  16.668 -0.0859 -0.1668  0.6286
 1795SOL    HW117018   2.995   0.336  16.662 -0.8329  1.6674  3.5159
 1795SOL    HW217019   2.864   0.352  16.607 -1.4989 -0.2496  1.5961
 1796SOL     OW17020   1.443   0.566   8.505 -0.3425 -0.4742  0.3310
 1796SOL    HW117021   1.524   0.608   8.537 -0.9370 -1.7636  3.4946
 1796SOL    HW217022   1.477   0.479   8.485  1.8963  0.6638 -0.8985
 1797SOL     OW17023   2.438   0.851  16.307  0.3974  0.0330  0.3313
 1797SOL    HW117024   2.371   0.834  16.374 -0.0920 -1.4062 -0.5328
 1797SOL    HW217025   2.426   0.946  16.302 -1.9917 -0.1985  1.5394
 1798SOL     OW17026   2.144   0.379   4.700 -0.3411  0.1594  0.3248
 1798SOL    HW117027   2.050   0.399   4.711 -0.1727  1.3782 -0.3901
 1798SOL    HW217028   2.155   0.289   4.730  0.3421  0.4146  0.8493
 1799SOL     OW17029   1.710   1.304  12.887  0.3690  0.5126  0.2323
 1799SOL    HW117030   1.800   1.282  12.911 -0.5177 -1.8685  1.4052
 1799SOL    HW217031   1.702   1.258  12.804 -0.4729  0.0686  0.5512
 1800SOL     OW17032   3.710   0.649  16.148  0.3649  0.1126 -0.1417
 1800SOL    HW117033   3.675   0.684  16.066 -0.2634  1.3247  0.6326
 1800SOL    HW217034   3.801   0.677  16.143  0.8151 -1.2892  0.2906
 1801SOL     OW17035   2.551   1.025   5.901  0.1637  0.4691 -0.2858
 1801SOL    HW117036   2.601   1.032   5.982 -1.0337  3.0758  0.2225
 1801SOL    HW217037   2.603   1.096   5.864  0.8647  0.4913  0.7454
 1802SOL     OW17038   3.514   0.797  14.870 -0.5496 -0.5579 -0.0480
 1802SOL    HW117039   3.465   0.775  14.949 -1.6107 -0.7024 -0.7499
 1802SOL    HW217040   3.450   0.824  14.804  0.4207 -0.3082 -0.9030
 1803SOL     OW17041   2.652   1.797   8.704  0.0058  0.0979  0.0196
 1803SOL    HW117042   2.700   1.809   8.785 -1.6600 -0.9591  1.1775
 1803SOL    HW217043   2.667   1.704   8.687  0.0360 -0.2129  1.7648
 1804SOL     OW17044   1.234   1.360   3.228 -0.1915 -0.1456 -0.3964
 1804SOL    HW117045   1.318   1.403   3.239 -0.4649  0.5942 -1.1906
 1804SOL    HW217046   1.176   1.436   3.222  0.6247  0.5072  0.0853
 1805SOL     OW17047   3.179   0.306   9.614  0.8477 -0.5348  0.2002
 1805SOL    HW117048   3.099   0.269   9.651 -0.8456  1.3087 -1.7015
 1805SOL    HW217049   3.162   0.302   9.520 -0.2578 -0.0640  0.3845
 1806SOL     OW17050   3.480   3.826  12.424 -0.5356  0.0899  0.1533
 1806SOL    HW117051   3.554   3.885  12.440 -1.9166  1.6416  0.7123
 1806SOL    HW217052   3.407   3.886  12.436 -1.4968 -1.3910  1.7216
 1807SOL     OW17053   1.948   2.262   4.579  0.3155  0.5443 -0.0253
 1807SOL    HW117054   1.873   2.319   4.567  0.6837  0.8242 -1.0299
 1807SOL    HW217055   1.948   2.225   4.491  3.4379 -0.3251  0.3393
 1808SOL     OW17056   4.115   3.333   8.268 -0.2079 -0.0639  0.0426
 1808SOL    HW117057   4.111   3.424   8.239 -0.5850 -0.5848 -1.5607
 1808SOL    HW217058   4.118   3.341   8.363 -3.9045 -0.4443  0.1894
 1809SOL     OW17059   0.609   3.721   5.404  0.0152  0.4571  0.0817
 1809SOL    HW117060   0.531   3.776   5.406  1.1304  2.0476 -0.6903
 1809SOL    HW217061   0.629   3.697   5.494 -2.6110  1.4549  0.9394
 1810SOL     OW17062   0.998   3.349  14.471  0.2736  0.3535  0.0007
 1810SOL    HW117063   0.904   3.365  14.482  0.0761  1.1953 -3.0260
 1810SOL    HW217064   0.986   3.258  14.442 -0.2003  0.2810  0.4139
 1811SOL     OW17065   1.515   0.774   7.437  0.1171  0.2703  1.3421
 1811SOL    HW117066   1.466   0.692   7.447  0.0501  0.1712  0.1866
 1811SOL    HW217067   1.483   0.828   7.509 -0.8943 -0.7643  1.6850
 1812SOL     OW17068   0.350   1.698   8.122  0.4977  0.1549 -0.4177
 1812SOL    HW117069   0.329   1.634   8.054 -0.6860  2.3000 -2.0780
 1812SOL    HW217070   0.261   1.707   8.156  0.0776  0.4916 -1.6046
 1813SOL     OW17071   0.652   0.793   7.478 -0.6812 -0.1059 -0.3025
 1813SOL    HW117072   0.580   0.845   7.512  0.0577  0.8704 -0.2118
 1813SOL    HW217073   0.664   0.742   7.558  3.1415  1.9917  0.4945
 1814SOL     OW17074   0.447   0.544   5.010 -0.0123 -0.3674 -0.5568
 1814SOL    HW117075   0.425   0.518   5.100  0.0390 -1.3761 -0.8454
 1814SOL    HW217076   0.526   0.596   5.023  1.0192 -2.4106  1.1989
 1815SOL     OW17077   1.131   1.593   7.928 -0.1119  0.0594 -0.1010
 1815SOL    HW117078   1.061   1.533   7.904  0.6839 -0.9442  0.0617
 1815SOL    HW217079   1.103   1.682   7.907 -0.1628  0.2649  0.8328
 1816SOL     OW17080   4.456   2.574   4.421 -0.0284  0.6042  0.6329
 1816SOL    HW117081   4.545   2.567   4.458  0.9590  0.2962 -1.8128
 1816SOL    HW217082   4.401   2.580   4.500 -2.9018 -1.7645 -1.1875
 1817SOL     OW17083   4.086   3.127   5.807 -0.1268 -0.0909  0.2283
 1817SOL    HW117084   3.999   3.089   5.815  0.0718  0.1960  3.7226
 1817SOL    HW217085   4.069   3.220   5.790  0.1676 -0.2840 -1.1448
 1818SOL     OW17086   0.056   1.965  17.388 -0.2542 -0.5204  0.3299
 1818SOL    HW117087   0.048   1.930  17.299  1.2766  0.0257 -0.0342
 1818SOL    HW217088   0.028   1.885  17.431  1.1830 -0.8597  0.6442
 1819SOL     OW17089   2.220   0.615   2.696 -0.5864 -0.2352 -0.3590
 1819SOL    HW117090   2.271   0.694   2.680 -2.8165  1.4217  0.7106
 1819SOL    HW217091   2.178   0.599   2.612 -2.0835  1.0624  0.1342
 1820SOL     OW17092   2.860   4.160   0.569  0.6485 -0.0778 -0.6883
 1820SOL    HW117093   2.921   4.217   0.522  1.2665 -0.8869 -0.8803
 1820SOL    HW217094   2.785   4.220   0.571  0.6566 -0.1207  1.1171
 1821SOL     OW17095   1.099   0.350   4.640  0.2094 -0.3047  0.6521
 1821SOL    HW117096   1.057   0.294   4.706  1.3308 -1.5081  0.3553
 1821SOL    HW217097   1.066   0.435   4.667 -0.2668 -0.0222 -0.7997
 1822SOL     OW17098   1.896   0.209   0.126  0.0562 -0.0226 -0.0141
 1822SOL    HW117099   1.932   0.255   0.202 -0.8537 -1.7086  1.4070
 1822SOL    HW217100   1.955   0.134   0.129 -2.1313 -1.6175  2.9753
 1823SOL     OW17101   4.468   1.067   9.419 -0.7026 -0.0427 -0.3103
 1823SOL    HW117102   4.557   1.101   9.411  0.4068 -2.7378  0.9245
 1823SOL    HW217103   4.446   1.092   9.509  1.3997  0.1698  0.1382
 1824SOL     OW17104   3.689   4.705   1.714  0.1814 -0.0404  0.3707
 1824SOL    HW117105   3.639   4.676   1.791 -0.6403  3.0443  0.9953
 1824SOL    HW217106   3.774   4.710   1.758  0.7996  1.8535 -1.0399
 1825SOL     OW17107   3.021   3.775   5.004 -0.3087  0.5257 -0.6349
 1825SOL    HW117108   3.031   3.837   5.076  1.7861  1.1811 -1.4946
 1825SOL    HW217109   3.067   3.830   4.940 -0.8325  0.9978 -0.6134
 1826SOL     OW17110   2.683   0.242   2.387  0.3427  0.0716  0.0915
 1826SOL    HW117111   2.731   0.324   2.394  0.3411  0.0722  0.0955
 1826SOL    HW217112   2.634   0.244   2.469 -0.9899  0.6823 -0.7288
 1827SOL     OW17113   0.788   1.774   8.464 -0.2263 -0.3686 -0.1027
 1827SOL    HW117114   0.715   1.822   8.424 -1.6241 -2.9909 -0.6747
 1827SOL    HW217115   0.800   1.807   8.553 -0.7801  0.9805 -0.5369
 1828SOL     OW17116   3.425   1.859   2.101 -0.1219 -0.3757 -0.1224
 1828SOL    HW117117   3.507   1.809   2.111 -0.2408 -0.5793 -0.1550
 1828SOL    HW217118   3.362   1.801   2.144  0.5102 -1.6713 -0.9105
 1829SOL     OW17119   0.329   2.528   4.753  0.3099 -0.2863 -0.0779
 1829SOL    HW117120   0.299   2.579   4.678  1.0686  0.4272  0.1082
 1829SOL    HW217121   0.413   2.502   4.717  0.8114  0.2291  0.7394
 1830SOL     OW17122   2.079   0.947   2.421  0.3816 -0.1415 -0.0617
 1830SOL    HW117123   2.064   0.938   2.515 -1.5799  0.0374 -0.3671
 1830SOL    HW217124   2.072   1.042   2.413 -0.4986 -0.0971  1.1925
 1831SOL     OW17125   3.040   4.577   6.756  0.2809  0.1234 -0.7572
 1831SOL    HW117126   3.122   4.568   6.708 -0.4646  1.2506 -2.2298
 1831SOL    HW217127   3.052   4.510   6.824  1.5496 -0.9834 -2.0798
 1832SOL     OW17128   0.710   3.827  16.820 -0.2458  0.2094 -0.0347
 1832SOL    HW117129   0.796   3.855  16.790 -1.6967  0.2802 -4.1601
 1832SOL    HW217130   0.667   3.912  16.828 -1.4392 -0.4466  0.6377
 1833SOL     OW17131   0.028   1.785   6.723 -0.0340  0.0262 -0.1787
 1833SOL    HW117132   4.677   1.821   6.722  0.0646  0.1437 -3.0234
 1833SOL    HW217133   0.039   1.759   6.632  2.7295 -0.0646  0.1654
 1834SOL     OW17134   0.741   0.624   2.314  0.5368 -0.0320 -0.7850
 1834SOL    HW117135   0.743   0.568   2.237  2.9307 -0.6901 -0.2507
 1834SOL    HW217136   0.712   0.708   2.279  0.4183  0.0901 -0.3966
 1835SOL     OW17137   0.187   0.699   5.984 -0.1780  0.6746  0.0866
 1835SOL    HW117138   0.150   0.721   6.069 -0.9858 -0.5485  0.0406
 1835SOL    HW217139   0.280   0.723   5.991 -0.3589  1.3075  0.3330
 1836SOL     OW17140   4.138   0.110   3.484 -0.0313 -0.7903 -0.0219
 1836SOL    HW117141   4.058   0.059   3.496  0.3504 -0.8382  2.3103
 1836SOL    HW217142   4.199   0.039   3.463  2.0820  1.2508 -0.7519
 1837SOL     OW17143   3.714   4.466  11.059 -0.3977  0.2029 -0.0250
 1837SOL    HW117144   3.795   4.416  11.050 -1.5409 -1.2976 -2.1557
 1837SOL    HW217145   3.745   4.555  11.043 -0.5724  0.2540 -0.0814
 1838SOL     OW17146   2.838   1.779   0.820  0.1705 -0.2034 -0.0829
 1838SOL    HW117147   2.928   1.769   0.789  0.5554  0.3415  0.8400
 1838SOL    HW217148   2.861   1.760   0.911  1.8858  0.3996 -0.3915
 1839SOL     OW17149   3.716   4.678   7.597  0.0359 -0.1325 -0.9521
 1839SOL    HW117150   3.788   4.643   7.651 -1.6856 -2.7706 -0.3391
 1839SOL    HW217151   3.741   4.654   7.508  0.1513  0.7885 -1.1642
 1840SOL     OW17152   3.468   4.629   2.458 -0.1104 -1.1842 -0.6848
 1840SOL    HW117153   3.433   4.654   2.544 -1.8273  1.3574 -2.1265
 1840SOL    HW217154   3.441   4.538   2.446 -1.0335 -1.1460  1.0779
 1841SOL     OW17155   1.468   0.303   3.438 -0.0353 -0.0946 -0.2866
 1841SOL    HW117156   1.519   0.383   3.454  1.3163 -0.6454 -1.9635
 1841SOL    HW217157   1.533   0.263   3.381 -0.7624  0.5164 -1.5470
 1842SOL     OW17158   0.617   2.231   4.307  0.0827 -0.2837 -0.3165
 1842SOL    HW117159   0.534   2.271   4.331 -0.2790 -0.2732 -1.5790
 1842SOL    HW217160   0.665   2.309   4.279  1.1055 -0.7896 -0.0096
 1843SOL     OW17161   2.448   0.014   5.112  0.1992  0.0048  0.5162
 1843SOL    HW117162   2.373   4.711   5.156 -1.1973  0.1250 -1.7517
 1843SOL    HW217163   2.499   4.671   5.106  0.6420  0.4217 -1.4738
 1844SOL     OW17164   2.988   2.683   5.222  0.1433 -0.4185 -0.8415
 1844SOL    HW117165   3.081   2.675   5.245  0.1080 -0.3674 -0.6836
 1844SOL    HW217166   2.951   2.665   5.308  0.5157  0.4830 -0.4911
 1845SOL     OW17167   0.182   4.207  13.730  0.4197 -0.1378 -0.2892
 1845SOL    HW117168   0.195   4.118  13.762 -2.3814  0.3501  2.1586
 1845SOL    HW217169   0.271   4.244  13.735 -0.1285  1.0162  0.8596
 1846SOL     OW17170   2.713   0.158   8.068 -0.1380  0.1729  0.3237
 1846SOL    HW117171   2.688   0.232   8.122  1.6620  0.0710  1.3030
 1846SOL    HW217172   2.800   0.144   8.104  1.5234  3.7027 -2.3024
 1847SOL     OW17173   4.322   4.150  13.039  0.4614  0.2383  0.3516
 1847SOL    HW117174   4.330   4.221  12.975  0.4766 -0.5189 -0.4831
 1847SOL    HW217175   4.399   4.098  13.016  0.6439  0.5214  0.3268
 1848SOL     OW17176   4.237   1.117  17.434 -0.2363  0.3532 -0.4032
 1848SOL    HW117177   4.312   1.062  17.412  1.3283  2.4425 -0.2435
 1848SOL    HW217178   4.275   1.204  17.427  1.4478 -0.2761  0.7999
 1849SOL     OW17179   0.708   0.533   2.063  0.3013  0.2496  0.0305
 1849SOL    HW117180   0.628   0.484   2.080  1.1656 -1.9144 -2.0682
 1849SOL    HW217181   0.716   0.518   1.968  2.1885  1.1602  0.0502
 1850SOL     OW17182   2.344   0.739   3.668 -0.3694 -0.5858 -0.0728
 1850SOL    HW117183   2.297   0.820   3.686 -0.5165 -0.0541 -2.7614
 1850SOL    HW217184   2.412   0.744   3.735 -0.4811  0.3944 -0.0293
 1851SOL     OW17185   1.878   4.338  17.113 -0.2369  0.1185 -0.0696
 1851SOL    HW117186   1.863   4.346  17.019  2.4991  1.8538 -0.3431
 1851SOL    HW217187   1.900   4.430  17.127  1.0776 -0.5155  2.0683
 1852SOL     OW17188   3.339   2.612  15.119 -0.6501 -0.2029  0.3675
 1852SOL    HW117189   3.354   2.532  15.068 -0.2027 -1.2961  2.1877
 1852SOL    HW217190   3.320   2.678  15.053  1.2705  0.1690  0.1966
 1853SOL     OW17191   3.923   0.516  14.073 -0.0062 -0.2166 -0.7910
 1853SOL    HW117192   3.904   0.606  14.099 -0.2714 -0.3664 -0.4568
 1853SOL    HW217193   3.947   0.531  13.982 -1.0141  0.8398 -0.8937
 1854SOL     OW17194   2.890   3.422  14.114  0.1335 -0.7704  0.3293
 1854SOL    HW117195   2.928   3.496  14.066 -0.6580 -0.3167  0.4008
 1854SOL    HW217196   2.844   3.457  14.191 -0.8547  0.1325 -0.6621
 1855SOL     OW17197   2.520   0.641   9.450  0.0057 -0.0499 -0.0797
 1855SOL    HW117198   2.595   0.687   9.487  0.5044 -1.7278  1.0242
 1855SOL    HW217199   2.534   0.560   9.499 -0.1766 -0.8154 -1.2916
 1856SOL     OW17200   0.140   1.065   5.511  0.0924  0.2635 -0.0384
 1856SOL    HW117201   0.189   0.983   5.504 -1.0712 -0.4080 -0.2435
 1856SOL    HW217202   0.056   1.024   5.491  0.4027 -1.3819  2.1558
 1857SOL     OW17203   4.722   4.428   4.284 -0.3140  0.1222  0.6817
 1857SOL    HW117204   4.734   4.520   4.310 -2.3601  0.8197 -0.8263
 1857SOL    HW217205   0.023   4.422   4.197 -2.8191  0.0484 -0.4198
 1858SOL     OW17206   2.155   4.396  10.757 -0.0436  0.4671 -0.8269
 1858SOL    HW117207   2.119   4.482  10.774 -2.0122 -0.1322 -1.9347
 1858SOL    HW217208   2.122   4.392  10.667 -1.1092 -2.5227 -0.3221
 1859SOL     OW17209   2.770   1.167   9.683 -0.2526 -0.0465 -0.0143
 1859SOL    HW117210   2.779   1.262   9.681  0.8006 -0.1309  0.5112
 1859SOL    HW217211   2.676   1.153   9.700 -0.1134 -1.6317 -0.5442
 1860SOL     OW17212   1.119   1.079  12.766 -0.7493 -0.0932  0.0059
 1860SOL    HW117213   1.108   1.173  12.773  1.1817  0.1485 -0.3155
 1860SOL    HW217214   1.203   1.060  12.808 -1.0966 -0.3638  0.5745
 1861SOL     OW17215   3.791   1.369   3.980 -0.6344  0.0421 -0.0405
 1861SOL    HW117216   3.782   1.458   4.013 -3.1699  0.0892 -0.8936
 1861SOL    HW217217   3.792   1.323   4.064 -3.7959  0.5562  0.2750
 1862SOL     OW17218   4.469   2.634  16.348 -0.0573  0.0375  0.0041
 1862SOL    HW117219   4.537   2.701  16.339 -1.0875  1.4703  3.0689
 1862SOL    HW217220   4.409   2.675  16.410  0.4613 -1.0648  1.2120
 1863SOL     OW17221   2.195   4.166   3.124 -0.2515  0.8096 -0.6126
 1863SOL    HW117222   2.175   4.256   3.152 -1.2518 -0.0490  1.4388
 1863SOL    HW217223   2.138   4.164   3.048  1.3853 -0.2649 -1.8117
 1864SOL     OW17224   3.568   3.441   5.007  0.0984  0.0163  0.3691
 1864SOL    HW117225   3.566   3.454   4.912  0.0084  2.4791  0.6829
 1864SOL    HW217226   3.627   3.367   5.002 -0.4526 -0.5667  2.4650
 1865SOL     OW17227   2.074   0.209   7.356  0.3906 -0.0942 -0.2288
 1865SOL    HW117228   2.155   0.207   7.406 -0.6670  0.5977  1.5381
 1865SOL    HW217229   2.051   0.121   7.385 -2.0291  0.1336 -1.4202
 1866SOL     OW17230   0.691   1.755   6.259  0.4228 -0.3503 -0.0308
 1866SOL    HW117231   0.783   1.755   6.286 -0.6966  1.0373  3.6996
 1866SOL    HW217232   0.651   1.839   6.282 -2.5710 -1.8238  0.1505
 1867SOL     OW17233   0.624   0.452   5.393  0.2950  0.0152  0.5010
 1867SOL    HW117234   0.533   0.438   5.367  0.4693 -1.7207  0.8514
 1867SOL    HW217235   0.672   0.414   5.319  1.1150  2.2208 -0.1120
 1868SOL     OW17236   3.736   4.361  10.671 -0.6422  0.2386 -0.5421
 1868SOL    HW117237   3.728   4.422  10.744  2.7052 -0.0670  0.0718
 1868SOL    HW217238   3.756   4.407  10.590  2.9017 -1.2014 -0.4788
 1869SOL     OW17239   3.711   2.677  12.180  0.0559 -0.0164 -0.4179
 1869SOL    HW117240   3.788   2.692  12.125  0.1946  1.4073  0.1774
 1869SOL    HW217241   3.634   2.678  12.123 -1.4405 -0.7412  1.5807
 1870SOL     OW17242   4.018   0.239  16.061  0.0798  0.5823  0.1426
 1870SOL    HW117243   3.937   0.230  16.011  0.5097  1.5042 -0.7249
 1870SOL    HW217244   4.030   0.150  16.093  1.9407  0.2651 -1.4345
 1871SOL     OW17245   0.965   4.253   3.170  0.3183 -0.3234  0.1907
 1871SOL    HW117246   0.925   4.293   3.093 -0.3540 -1.0652  0.1536
 1871SOL    HW217247   0.905   4.277   3.241  0.4411 -0.6374  0.4028
 1872SOL     OW17248   1.990   4.056   4.332  0.8790 -0.0030  0.8681
 1872SOL    HW117249   1.943   4.039   4.250  1.5603  2.9169 -0.1220
 1872SOL    HW217250   2.023   3.973   4.366  1.8097  0.0268  0.0077
 1873SOL     OW17251   1.817   3.786   5.618 -0.2455 -0.5723  0.6180
 1873SOL    HW117252   1.824   3.720   5.548 -0.5748  1.2693 -1.1459
 1873SOL    HW217253   1.900   3.781   5.666 -1.2450  0.5907  2.4567
 1874SOL     OW17254   0.637   4.043   3.314 -0.0472 -0.2734  0.0339
 1874SOL    HW117255   0.584   4.020   3.390  1.6713 -1.1482  0.9652
 1874SOL    HW217256   0.719   4.002   3.340 -0.2144  0.6889  2.0914
 1875SOL     OW17257   3.055   1.000   3.026  0.5275 -0.1803  0.4236
 1875SOL    HW117258   2.965   1.026   3.009  0.4052 -0.9088 -0.0629
 1875SOL    HW217259   3.104   1.076   2.995  0.0193  0.1712  0.4898
 1876SOL     OW17260   4.461   4.367   1.393  0.1807 -0.0261  0.2290
 1876SOL    HW117261   4.407   4.301   1.349 -0.4937  0.1372  0.8152
 1876SOL    HW217262   4.549   4.338   1.367  1.2486  2.1822  1.4656
 1877SOL     OW17263   0.986   3.526   4.386 -0.3199  0.4076 -0.2773
 1877SOL    HW117264   0.993   3.536   4.291  0.1494 -1.8753 -0.4981
 1877SOL    HW217265   0.958   3.434   4.390  0.3067  0.1482 -1.8532
 1878SOL     OW17266   0.591   4.429  13.399  0.2551  0.2387 -0.3865
 1878SOL    HW117267   0.510   4.379  13.386  0.6519 -0.4106 -0.3393
 1878SOL    HW217268   0.566   4.496  13.463  0.4245 -1.9277  1.9600
 1879SOL     OW17269   0.782   1.770   5.379 -0.1732  0.8669  0.8621
 1879SOL    HW117270   0.831   1.687   5.378  1.7615  2.0228 -0.6500
 1879SOL    HW217271   0.753   1.777   5.470 -1.8326 -3.3225  0.6762
 1880SOL     OW17272   3.205   1.029   5.859  0.2023 -0.0686 -0.1101
 1880SOL    HW117273   3.191   0.940   5.892  0.3207  1.4055  3.8615
 1880SOL    HW217274   3.213   1.011   5.765  0.4776 -0.6998  0.0331
 1881SOL     OW17275   1.436   3.104   7.854 -0.3630 -0.9858 -0.1619
 1881SOL    HW117276   1.351   3.090   7.812 -0.8823  1.5176  0.0383
 1881SOL    HW217277   1.435   3.195   7.883  0.4409 -1.0815  0.1620
 1882SOL     OW17278   1.466   0.386   4.349  0.5268 -0.5619 -0.0114
 1882SOL    HW117279   1.512   0.336   4.281 -0.2198 -0.7203 -0.3993
 1882SOL    HW217280   1.541   0.442   4.370  1.1860 -1.3306 -0.2675
 1883SOL     OW17281   1.515   2.350  11.773  0.4038  0.3892  0.1843
 1883SOL    HW117282   1.440   2.340  11.715  0.9581 -0.5756 -0.3637
 1883SOL    HW217283   1.541   2.258  11.781  0.2485  0.2658 -0.7615
 1884SOL     OW17284   3.716   1.111   3.901 -0.2397 -0.3952  0.2544
 1884SOL    HW117285   3.747   1.200   3.915  0.4771 -0.4224 -1.1480
 1884SOL    HW217286   3.624   1.125   3.925 -0.6878 -1.5298 -0.8414
 1885SOL     OW17287   3.235   0.526   8.135 -0.2734 -0.3366  0.7154
 1885SOL    HW117288   3.178   0.465   8.088  1.5148 -0.6547 -1.0597
 1885SOL    HW217289   3.278   0.565   8.059 -1.6777  0.9682  0.5927
 1886SOL     OW17290   1.220   4.093  17.263 -0.2054  0.1596 -0.0524
 1886SOL    HW117291   1.295   4.149  17.282  0.0109 -0.1717  0.0678
 1886SOL    HW217292   1.212   4.049  17.348 -1.7291 -0.7422 -0.6633
 1887SOL     OW17293   1.070   2.097   2.583 -0.2521 -0.3218 -0.5592
 1887SOL    HW117294   1.152   2.053   2.603 -0.1930 -0.1680 -0.4612
 1887SOL    HW217295   1.084   2.187   2.612  0.0201  0.2693 -2.5639
 1888SOL     OW17296   1.289   1.951   3.967 -0.0210  0.2096 -0.3865
 1888SOL    HW117297   1.251   1.991   4.045 -0.1047 -0.6795  0.0157
 1888SOL    HW217298   1.230   1.986   3.900 -0.2888 -1.1588 -0.8606
 1889SOL     OW17299   1.978   0.424   9.518  0.1946  0.2158 -0.3448
 1889SOL    HW117300   1.949   0.344   9.474  0.6714 -0.1353 -0.0300
 1889SOL    HW217301   2.020   0.484   9.457 -1.3376  1.8661  0.2415
 1890SOL     OW17302   2.934   1.133   6.050  0.0200 -0.0737  0.0392
 1890SOL    HW117303   3.028   1.152   6.049  0.0277 -0.2395 -1.7490
 1890SOL    HW217304   2.902   1.209   6.099  1.8394  0.7527 -0.0398
 1891SOL     OW17305   2.705   3.783  13.209  0.0392  0.0395  0.1779
 1891SOL    HW117306   2.648   3.792  13.133 -1.1786  1.0199  1.2274
 1891SOL    HW217307   2.791   3.785  13.166 -0.0208 -3.3213 -0.1067
 1892SOL     OW17308   0.618   2.923  12.330 -0.2283 -0.1247 -0.3216
 1892SOL    HW117309   0.675   2.942  12.256  0.5894  0.0219  0.3489
 1892SOL    HW217310   0.567   2.855  12.287  0.6117  1.3338 -3.5929
 1893SOL     OW17311   3.469   1.034  16.537 -0.6689 -0.0894  0.4752
 1893SOL    HW117312   3.388   1.047  16.489 -2.1977 -0.6616  2.9305
 1893SOL    HW217313   3.525   1.007  16.463  1.6955  0.5275  2.0291
 1894SOL     OW17314   0.971   2.639  16.117  0.2199  0.1506 -0.1255
 1894SOL    HW117315   0.983   2.574  16.048 -0.5107  0.2294 -0.3274
 1894SOL    HW217316   0.943   2.577  16.185  1.4704 -2.9865 -2.4529
 1895SOL     OW17317   0.614   0.872   1.865 -0.0915  0.1675  0.6629
 1895SOL    HW117318   0.547   0.873   1.934  0.1510 -0.0548  0.9008
 1895SOL    HW217319   0.653   0.787   1.883 -0.7888 -0.3274 -0.1257
 1896SOL     OW17320   1.512   0.768   3.210 -0.0594  0.4625  0.0096
 1896SOL    HW117321   1.496   0.676   3.231 -0.2779  0.6923  0.8358
 1896SOL    HW217322   1.452   0.775   3.135 -1.0751  2.9793  1.0644
 1897SOL     OW17323   1.408   3.791   6.428 -0.4455  0.7481  0.0190
 1897SOL    HW117324   1.344   3.780   6.358 -0.6652 -0.2088  0.3721
 1897SOL    HW217325   1.484   3.830   6.385 -0.4267  0.0955 -0.5460
 1898SOL     OW17326   4.725   0.900  12.550  0.3073 -0.5057 -0.0785
 1898SOL    HW117327   0.037   0.920  12.629  0.5588 -2.9215  0.3809
 1898SOL    HW217328   0.050   0.911  12.478  1.1234  0.2374  0.7613
 1899SOL     OW17329   3.291   2.348   3.183  0.2165 -0.1796 -0.0250
 1899SOL    HW117330   3.196   2.339   3.176 -0.0065  0.2597  2.2776
 1899SOL    HW217331   3.312   2.426   3.235 -0.6376 -0.8868  1.3979
 1900SOL     OW17332   3.403   3.435   6.201  0.0901  0.1858  0.2067
 1900SOL    HW117333   3.414   3.527   6.223  0.3886 -0.0742  1.1446
 1900SOL    HW217334   3.322   3.413   6.248 -0.1299 -1.2181 -0.8149
 1901SOL     OW17335   0.050   3.150   2.033 -0.0414  0.4956  0.1894
 1901SOL    HW117336   0.110   3.186   1.968 -0.4326  2.1730  0.7699
 1901SOL    HW217337   4.699   3.184   2.018 -0.2075  0.5670  1.3600
 1902SOL     OW17338   4.443   1.206   3.923 -0.0882  0.6329 -0.3231
 1902SOL    HW117339   4.399   1.178   3.843  1.0272  2.9619 -1.7571
 1902SOL    HW217340   4.484   1.123   3.945  0.5686  1.2093  0.6613
 1903SOL     OW17341   1.107   2.207  17.477 -0.0647  0.4667  0.1812
 1903SOL    HW117342   1.026   2.200  17.528 -1.1746  0.7681 -1.5234
 1903SOL    HW217343   1.105   2.301  17.463  2.2948  0.6588  1.1301
 1904SOL     OW17344   4.165   2.577   3.500  0.0696 -0.6754 -0.1105
 1904SOL    HW117345   4.179   2.485   3.478  1.7834 -0.5131  0.3226
 1904SOL    HW217346   4.132   2.617   3.419  2.0116 -1.7041 -1.4156
 1905SOL     OW17347   3.774   4.471   9.571 -0.2946 -0.1590 -0.0453
 1905SOL    HW117348   3.748   4.402   9.631  0.6990 -0.6694 -0.2065
 1905SOL    HW217349   3.706   4.455   9.506 -0.1066 -1.5175  0.0968
 1906SOL     OW17350   4.152   3.428   6.256 -0.3666 -0.4250 -0.2491
 1906SOL    HW117351   4.133   3.472   6.339 -0.5043  0.6257 -0.8432
 1906SOL    HW217352   4.197   3.491   6.201 -2.6095  1.4836  0.1128
 1907SOL     OW17353   1.524   1.125  17.747 -0.5890  0.1495  0.2960
 1907SOL    HW117354   1.488   1.061  17.686 -0.1406 -1.8817  2.1925
 1907SOL    HW217355   1.616   1.133  17.724 -0.5946  0.6309  0.4322
 1908SOL     OW17356   3.789   2.324   1.928 -0.1625  0.8028 -0.2916
 1908SOL    HW117357   3.773   2.364   2.014 -1.3450  1.2935 -0.7390
 1908SOL    HW217358   3.712   2.270   1.908  1.4193 -1.3609 -0.5657
 1909SOL     OW17359   3.215   0.572   9.632  0.1971  0.0514  0.6458
 1909SOL    HW117360   3.229   0.586   9.538 -2.9289  1.4723  0.3976
 1909SOL    HW217361   3.218   0.477   9.645 -0.0572  0.2714  2.2644
 1910SOL     OW17362   0.549   3.149  10.769 -0.1710  0.0255 -0.2692
 1910SOL    HW117363   0.570   3.070  10.819  2.0517  1.0539  0.4079
 1910SOL    HW217364   0.554   3.109  10.682 -0.0571 -0.9389  0.1709
 1911SOL     OW17365   2.425   2.819   7.316  0.1646  0.2049  0.0026
 1911SOL    HW117366   2.401   2.895   7.263 -1.2426  0.1935  0.6390
 1911SOL    HW217367   2.413   2.748   7.253 -1.4649  0.6349 -0.1739
 1912SOL     OW17368   3.610   4.344   8.379 -0.1179  0.0428 -0.5900
 1912SOL    HW117369   3.694   4.353   8.423  0.7711 -1.3736 -2.0347
 1912SOL    HW217370   3.599   4.438   8.363  1.5217  0.5121  0.9815
 1913SOL     OW17371   1.554   2.921   1.958 -0.1469 -0.1110  0.4273
 1913SOL    HW117372   1.594   2.992   2.007  1.7463 -0.7914 -0.1224
 1913SOL    HW217373   1.488   2.885   2.018  0.3989 -1.1672  0.4084
 1914SOL     OW17374   1.423   1.961   6.209  0.9499 -0.3695  0.5609
 1914SOL    HW117375   1.461   1.936   6.293  0.8385 -1.0376  0.4150
 1914SOL    HW217376   1.421   1.874   6.169  1.3976  0.8800 -2.1481
 1915SOL     OW17377   0.408   1.978  10.712  0.3652 -0.1272  0.0081
 1915SOL    HW117378   0.328   1.949  10.755  1.7690 -1.2003  1.9163
 1915SOL    HW217379   0.477   1.933  10.761  0.7339 -0.3142 -0.6848
 1916SOL     OW17380   2.824   4.129  16.510  0.5550  0.0697  0.0988
 1916SOL    HW117381   2.773   4.141  16.591 -0.0593 -1.5450 -0.0644
 1916SOL    HW217382   2.910   4.134  16.552  0.5067  0.9831  0.0922
 1917SOL     OW17383   1.683   1.698  15.905  0.6985 -0.7631 -0.4039
 1917SOL    HW117384   1.588   1.691  15.906  0.5303  1.7172 -0.1401
 1917SOL    HW217385   1.704   1.781  15.863 -2.3678 -0.3210 -1.0242
 1918SOL     OW17386   2.992   0.060  16.132 -0.4879 -0.2165  0.0728
 1918SOL    HW117387   2.952   0.079  16.217  1.9586  2.3054  0.6344
 1918SOL    HW217388   3.083   0.051  16.161 -0.9004 -0.8134  1.2077
 1919SOL     OW17389   1.311   0.564   7.011  0.5756  0.1317 -0.4270
 1919SOL    HW117390   1.333   0.615   6.933  0.1339 -0.4280 -0.9243
 1919SOL    HW217391   1.396   0.562   7.055 -0.6704 -2.2392  1.8430
 1920SOL     OW17392   4.019   2.589   0.102  0.2919  0.4562  0.7080
 1920SOL    HW117393   4.013   2.493   0.099  0.8294  0.4517 -0.1852
 1920SOL    HW217394   3.930   2.609   0.070  0.4351 -0.8927 -0.5742
 1921SOL     OW17395   4.696   4.718   2.965 -0.1080 -0.0417  0.2093
 1921SOL    HW117396   4.640   0.043   2.918 -0.9491  0.3238  1.6842
 1921SOL    HW217397   4.724   0.047   3.028 -1.2730  1.4289 -0.8267
 1922SOL     OW17398   1.283   0.129  17.136  0.6090 -0.1292  0.5847
 1922SOL    HW117399   1.336   0.052  17.157 -0.3822 -0.7233  0.8869
 1922SOL    HW217400   1.238   0.114  17.054  0.7387  1.7091  0.1704
 1923SOL     OW17401   1.467   1.837   7.917  0.1922  0.0439 -0.0416
 1923SOL    HW117402   1.453   1.849   8.011  0.2846  1.5879 -0.2151
 1923SOL    HW217403   1.514   1.754   7.913  0.4143  0.2139 -0.8595
 1924SOL     OW17404   2.789   2.448   8.603 -0.0977 -0.0987  0.5590
 1924SOL    HW117405   2.769   2.364   8.645 -1.6295 -0.2060 -0.3879
 1924SOL    HW217406   2.721   2.451   8.536  1.0819  1.4596 -0.5648
 1925SOL     OW17407   0.233   2.086  16.714  0.3627  0.2015  0.1727
 1925SOL    HW117408   0.142   2.058  16.728 -0.3358  0.4916 -3.6952
 1925SOL    HW217409   0.216   2.155  16.650  3.6165  0.1170 -0.7934
 1926SOL     OW17410   2.248   1.856   6.739 -0.0349  0.5225 -0.1574
 1926SOL    HW117411   2.335   1.831   6.707  0.4090  0.8229  0.7926
 1926SOL    HW217412   2.229   1.925   6.676 -0.9669 -0.2874 -0.7499
 1927SOL     OW17413   0.766   3.149  16.766 -0.2179  0.2762  0.2812
 1927SOL    HW117414   0.814   3.146  16.849 -1.4017  0.6976  0.9752
 1927SOL    HW217415   0.693   3.092  16.791 -1.4779  2.1517  0.8508
 1928SOL     OW17416   4.682   2.425   4.841 -0.2112 -0.1059  0.0619
 1928SOL    HW117417   4.600   2.392   4.804 -1.0136  0.5064  1.2861
 1928SOL    HW217418   4.657   2.411   4.932 -3.1146  1.9560 -0.4022
 1929SOL     OW17419   2.044   1.688  13.658 -0.0707  0.0920  0.1071
 1929SOL    HW117420   2.032   1.712  13.750 -4.6595  0.5293 -0.6309
 1929SOL    HW217421   1.954   1.667  13.635  0.2025  0.2365 -1.0976
 1930SOL     OW17422   1.080   4.234   1.963 -0.1241 -0.1739  0.1433
 1930SOL    HW117423   1.024   4.262   1.891 -2.2807 -1.7642  1.2043
 1930SOL    HW217424   1.152   4.242   1.900 -0.4255  1.0678 -0.0399
 1931SOL     OW17425   2.655   1.628   9.276  0.5762  0.2460  0.0786
 1931SOL    HW117426   2.713   1.561   9.314  0.1431 -0.8650 -1.2162
 1931SOL    HW217427   2.583   1.641   9.338  0.2237 -0.2121 -0.2312
 1932SOL     OW17428   0.402   3.720  17.715  0.7164 -0.1734 -0.7181
 1932SOL    HW117429   0.493   3.690  17.717  0.1504 -1.8749 -0.7876
 1932SOL    HW217430   0.370   3.663  17.646 -1.3815 -1.3644  1.2264
 1933SOL     OW17431   0.408   0.672  14.534 -0.1346 -0.1204  0.4436
 1933SOL    HW117432   0.393   0.595  14.589  0.6799  0.5364  1.5724
 1933SOL    HW217433   0.503   0.682  14.536 -0.1434 -0.4118  2.1588
 1934SOL     OW17434   3.397   4.169   5.589  0.0183 -0.4082 -0.2354
 1934SOL    HW117435   3.345   4.231   5.537  0.2847  1.4142  1.6585
 1934SOL    HW217436   3.476   4.218   5.608 -2.0278  1.3605  3.8754
 1935SOL     OW17437   4.430   3.872   6.856 -0.3699  0.3645  0.1999
 1935SOL    HW117438   4.407   3.868   6.764  0.0675  2.1215  0.0127
 1935SOL    HW217439   4.479   3.790   6.866  0.1487  0.5556 -0.8620
 1936SOL     OW17440   2.535   2.187  12.668  0.0320  0.2449  0.7637
 1936SOL    HW117441   2.548   2.262  12.611 -0.0940  0.9526  1.6669
 1936SOL    HW217442   2.525   2.118  12.602 -0.9935 -0.1815  1.3770
 1937SOL     OW17443   3.374   0.649   2.013 -0.3412  0.0034 -0.6822
 1937SOL    HW117444   3.330   0.732   2.029 -0.3321 -0.4903  1.8928
 1937SOL    HW217445   3.311   0.590   2.055  0.0748  3.1219  4.3287
 1938SOL     OW17446   0.396   1.664   2.313  0.4935 -0.1957 -0.4836
 1938SOL    HW117447   0.432   1.633   2.230 -0.9355  0.3714 -1.3074
 1938SOL    HW217448   0.309   1.624   2.312  0.4859 -0.1217 -3.2401
 1939SOL     OW17449   2.921   3.505   1.826 -0.4669  0.7555  0.2260
 1939SOL    HW117450   2.974   3.483   1.902 -2.3640 -5.0420 -0.1554
 1939SOL    HW217451   2.895   3.420   1.789 -0.7472  1.7307 -1.8489
 1940SOL     OW17452   1.531   2.453   6.225  0.0453 -0.4788  0.2590
 1940SOL    HW117453   1.620   2.426   6.203 -0.8096 -2.3964 -0.8956
 1940SOL    HW217454   1.489   2.372   6.254 -0.3180 -0.6649 -0.7649
 1941SOL     OW17455   3.159   0.610   4.817 -0.3424  0.3666 -0.0953
 1941SOL    HW117456   3.114   0.591   4.734  0.6134  1.8149 -0.9218
 1941SOL    HW217457   3.083   0.640   4.868 -0.2309 -1.9163  1.4557
 1942SOL     OW17458   1.984   4.298   5.311 -0.4351  0.3351  0.5718
 1942SOL    HW117459   2.042   4.337   5.246  0.1460 -1.1020  0.2400
 1942SOL    HW217460   1.956   4.220   5.264 -0.1631  0.8606 -0.4726
 1943SOL     OW17461   3.338   3.286   9.481  0.5194 -0.1108  0.1579
 1943SOL    HW117462   3.288   3.267   9.401 -0.2473 -1.9930  1.1117
 1943SOL    HW217463   3.360   3.379   9.473 -0.8122 -0.0532 -2.8612
 1944SOL     OW17464   4.659   0.969   0.238 -0.3537  0.1907  0.0524
 1944SOL    HW117465   4.614   0.932   0.162  2.6778  0.5350 -1.8672
 1944SOL    HW217466   4.619   0.909   0.302 -0.2469  0.9803  0.8603
 1945SOL     OW17467   4.245   1.297   7.939  0.4504 -0.2227 -0.3970
 1945SOL    HW117468   4.207   1.382   7.961  2.9784  0.3565  1.7512
 1945SOL    HW217469   4.286   1.265   8.020 -1.2071 -1.3531  0.0099
 1946SOL     OW17470   3.605   2.489   2.098  0.6822 -0.1457 -0.0987
 1946SOL    HW117471   3.589   2.574   2.056  1.3192 -1.0241 -2.1063
 1946SOL    HW217472   3.579   2.506   2.188 -1.9343  1.0571 -1.0840
 1947SOL     OW17473   1.776   2.992   8.302  0.5528  0.1507  0.1627
 1947SOL    HW117474   1.687   2.962   8.320  0.8751 -0.7349  0.2741
 1947SOL    HW217475   1.826   2.939   8.364  0.1207  1.7570  1.8944
 1948SOL     OW17476   0.984   0.639   6.367  0.0594 -0.3971 -0.4758
 1948SOL    HW117477   0.898   0.602   6.345  0.2201 -0.2631 -1.3248
 1948SOL    HW217478   1.041   0.579   6.318  0.3434 -0.2761 -0.2934
 1949SOL     OW17479   3.348   2.432   6.507  0.6251 -0.5174 -0.3135
 1949SOL    HW117480   3.382   2.381   6.581 -0.6501  1.7616  1.8507
 1949SOL    HW217481   3.346   2.361   6.443  1.2294 -1.1348  0.3557
 1950SOL     OW17482   1.079   1.237   6.663 -0.6548  0.0402  0.1418
 1950SOL    HW117483   1.169   1.262   6.682  0.1814 -0.8114 -2.7963
 1950SOL    HW217484   1.092   1.155   6.617 -0.8563 -0.5003  1.0427
 1951SOL     OW17485   1.205   0.001   4.213  0.1723  0.1038 -0.0182
 1951SOL    HW117486   1.288   0.045   4.228 -0.3116  0.0704  2.6292
 1951SOL    HW217487   1.186   0.024   4.122  1.9997 -1.4684 -0.8000
 1952SOL     OW17488   1.739   4.563   8.396 -0.2471 -0.0849 -0.3482
 1952SOL    HW117489   1.724   4.500   8.325  0.7335 -0.3197 -0.3499
 1952SOL    HW217490   1.721   4.643   8.347  1.9199  0.0694 -0.8956
 1953SOL     OW17491   3.804   3.553   1.940  0.5764  0.0403 -0.1644
 1953SOL    HW117492   3.761   3.611   1.876  0.6732  0.7728  0.4329
 1953SOL    HW217493   3.758   3.576   2.020  0.0608  2.0086 -1.0126
 1954SOL     OW17494   0.511   3.433   7.399 -0.1129 -0.7041  0.6142
 1954SOL    HW117495   0.574   3.466   7.335  2.6588 -2.3657  2.5010
 1954SOL    HW217496   0.570   3.409   7.470 -1.6329 -1.0882  1.7425
 1955SOL     OW17497   3.921   3.534  10.332 -0.9138 -0.5001 -0.3901
 1955SOL    HW117498   3.937   3.581  10.414 -0.3497  2.3437 -2.1136
 1955SOL    HW217499   3.971   3.588  10.271 -0.8940 -1.2209 -1.0083
 1956SOL     OW17500   2.480   4.027   3.934 -0.2686  0.6298 -0.0792
 1956SOL    HW117501   2.485   3.993   3.845  0.0746 -1.2132  0.6522
 1956SOL    HW217502   2.447   4.111   3.902  0.3559  0.1834 -1.9214
 1957SOL     OW17503   4.563   1.404  15.683  0.0776 -0.5810  0.0967
 1957SOL    HW117504   4.631   1.462  15.647 -0.0578 -0.7210 -0.3863
 1957SOL    HW217505   4.562   1.340  15.612  0.5024 -0.7460  0.2430
 1958SOL     OW17506   3.609   0.629   2.420  0.5652 -0.4112 -0.8955
 1958SOL    HW117507   3.541   0.568   2.449 -0.7338  1.3954 -0.1120
 1958SOL    HW217508   3.559   0.705   2.391 -0.1317 -0.6163 -0.2304
 1959SOL     OW17509   4.089   2.971   4.915 -0.4801 -0.0918 -0.1168
 1959SOL    HW117510   3.997   2.948   4.901 -0.4218 -0.2340 -0.2661
 1959SOL    HW217511   4.127   2.903   4.860 -0.1683 -0.2577  0.3001
 1960SOL     OW17512   1.691   2.729  17.544  0.0417  0.1855 -0.1117
 1960SOL    HW117513   1.610   2.695  17.504  0.6113 -0.2104 -0.9201
 1960SOL    HW217514   1.741   2.755  17.467  0.7197 -1.7800 -0.3320
 1961SOL     OW17515   4.316   2.716  13.954 -0.2495 -0.5645  1.1282
 1961SOL    HW117516   4.360   2.667  14.024  0.7872 -0.5012  0.5267
 1961SOL    HW217517   4.258   2.649  13.917 -1.3557 -0.1589  2.1557
 1962SOL     OW17518   1.064   2.661   5.387 -0.0163  0.1326  0.0799
 1962SOL    HW117519   1.057   2.569   5.364  1.1873 -0.7129  3.0542
 1962SOL    HW217520   1.036   2.650   5.478 -0.2938  1.4029  0.1496
 1963SOL     OW17521   3.654   3.135   8.288  0.2770  0.1838 -0.4654
 1963SOL    HW117522   3.732   3.143   8.234  0.8149 -0.6201  0.1997
 1963SOL    HW217523   3.596   3.095   8.223  1.0808 -1.5713 -0.0705
 1964SOL     OW17524   4.315   4.237   0.164 -0.3853  0.5696 -0.4702
 1964SOL    HW117525   4.263   4.310   0.197  0.0647  0.2546  0.9113
 1964SOL    HW217526   4.304   4.260   0.072  1.1923 -0.7179 -0.9783
 1965SOL     OW17527   4.543   0.999   8.249 -0.1148 -0.1432 -0.3343
 1965SOL    HW117528   4.630   0.960   8.235  0.9808  1.7283  1.1685
 1965SOL    HW217529   4.553   1.066   8.317  0.8139 -0.7690  0.1584
 1966SOL     OW17530   4.325   3.098   8.335  0.0178  0.0329  0.0659
 1966SOL    HW117531   4.367   3.062   8.257  1.2474 -0.3493  0.9035
 1966SOL    HW217532   4.263   3.160   8.298  0.3337  0.4684  0.2586
 1967SOL     OW17533   4.680   1.174  15.028 -0.0859  0.4134 -0.4469
 1967SOL    HW117534   4.655   1.220  14.948  1.6362 -1.2585 -1.9474
 1967SOL    HW217535   4.651   1.233  15.097 -0.5440 -0.8080  0.4229
 1968SOL     OW17536   4.626   0.994   1.000  0.3597 -0.3652 -0.1104
 1968SOL    HW117537   4.610   1.080   0.962  0.2885 -1.3684 -2.3526
 1968SOL    HW217538   4.713   1.000   1.040  0.4065 -2.3265  0.0884
 1969SOL     OW17539   3.085   0.983   0.467 -0.3177  0.6583  0.4127
 1969SOL    HW117540   3.046   0.906   0.425  2.5788 -1.8010  2.2471
 1969SOL    HW217541   3.139   1.020   0.398  0.5001 -0.4764  0.4513
 1970SOL     OW17542   2.030   2.714  16.363  0.0718  0.4618 -0.0285
 1970SOL    HW117543   2.000   2.629  16.331 -0.4695  1.3967 -1.9983
 1970SOL    HW217544   2.038   2.697  16.457 -1.3018 -3.5199 -0.6167
 1971SOL     OW17545   3.119   1.378   8.830  0.0003  0.1738  0.6393
 1971SOL    HW117546   3.158   1.331   8.756 -0.7130  0.7167 -0.0692
 1971SOL    HW217547   3.194   1.360   8.887  0.6098  0.7731  0.0320
 1972SOL     OW17548   2.023   0.424   7.782 -0.0139  0.6305  0.1799
 1972SOL    HW117549   2.064   0.510   7.771  0.6197  0.2123 -0.6729
 1972SOL    HW217550   2.085   0.385   7.843  0.6215 -0.0811 -0.9323
 1973SOL     OW17551   4.139   3.671   9.330 -0.3078 -0.2685 -0.4719
 1973SOL    HW117552   4.212   3.665   9.392 -0.6603 -1.6309 -0.1948
 1973SOL    HW217553   4.119   3.765   9.326 -0.0497 -0.1766  0.3897
 1974SOL     OW17554   3.211   1.194  11.106 -0.4975  0.1844  0.5207
 1974SOL    HW117555   3.246   1.242  11.181 -1.0435 -0.4566  1.1823
 1974SOL    HW217556   3.218   1.103  11.135 -2.0702 -0.9832 -2.7133
 1975SOL     OW17557   0.771   3.129  14.413  0.2171  0.5123 -0.3534
 1975SOL    HW117558   0.757   3.083  14.496 -0.0940 -2.0576 -1.8195
 1975SOL    HW217559   0.695   3.091  14.369  0.5396  1.4370 -1.6954
 1976SOL     OW17560   1.830   3.095   7.131 -0.5952  0.2967 -0.4895
 1976SOL    HW117561   1.824   3.055   7.218 -0.8349 -1.8347 -1.4684
 1976SOL    HW217562   1.883   3.033   7.081 -1.0088 -0.0327 -0.5202
 1977SOL     OW17563   0.244   3.964   7.131 -0.3263 -0.6392 -0.0338
 1977SOL    HW117564   0.314   3.916   7.087  0.0242 -0.3930  0.2593
 1977SOL    HW217565   0.296   4.016   7.192 -2.1278  1.3909 -0.2153
 1978SOL     OW17566   3.720   1.147   9.128 -0.0449 -0.4273 -0.0036
 1978SOL    HW117567   3.647   1.091   9.101  0.5086 -1.3903  0.4995
 1978SOL    HW217568   3.729   1.205   9.053  2.0083 -0.3709  0.2664
 1979SOL     OW17569   4.414   0.394   7.314  0.2010  0.5580  0.2829
 1979SOL    HW117570   4.466   0.431   7.243 -0.7677  1.2777 -0.0519
 1979SOL    HW217571   4.477   0.355   7.374  0.0757 -0.3323 -0.1547
 1980SOL     OW17572   2.389   3.988   5.556  0.2031  0.1285  0.0327
 1980SOL    HW117573   2.470   4.026   5.522  0.2262  0.6830  0.7081
 1980SOL    HW217574   2.429   3.942   5.630  1.2917  3.4535  1.4937
 1981SOL     OW17575   3.196   3.235   8.747  0.8873  0.6510 -0.3723
 1981SOL    HW117576   3.199   3.329   8.728 -2.3521  0.1500 -3.3665
 1981SOL    HW217577   3.291   3.228   8.751  0.9064  1.7871  1.2741
 1982SOL     OW17578   1.352   0.765  15.995 -0.1617 -0.3209 -0.2917
 1982SOL    HW117579   1.296   0.756  15.918  2.3677  1.1340 -2.2639
 1982SOL    HW217580   1.288   0.762  16.067  0.9983  0.7456  0.7751
 1983SOL     OW17581   0.275   0.915  17.440  0.2848  0.3912 -0.2032
 1983SOL    HW117582   0.362   0.928  17.479  0.6922  0.5844 -1.1674
 1983SOL    HW217583   0.259   1.002  17.403 -3.7998 -0.4253 -0.3213
 1984SOL     OW17584   4.378   0.437  12.978  0.3081  0.2299 -0.0690
 1984SOL    HW117585   4.340   0.489  13.048 -0.7637 -1.0573  0.3017
 1984SOL    HW217586   4.413   0.499  12.913 -3.0038  1.9055 -0.2880
 1985SOL     OW17587   4.412   2.408   7.371  0.2756 -0.6057  0.0255
 1985SOL    HW117588   4.496   2.370   7.346  0.0083 -1.0431 -0.2113
 1985SOL    HW217589   4.350   2.340   7.344  1.0793 -0.6995 -1.5891
 1986SOL     OW17590   0.715   0.186   9.606 -0.0076 -0.0745 -0.7323
 1986SOL    HW117591   0.732   0.093   9.589  0.9618  0.0550 -0.4452
 1986SOL    HW217592   0.697   0.229   9.522 -1.8713  1.0707  0.2737
 1987SOL     OW17593   0.332   1.195  11.769 -0.3138 -0.6049 -0.4016
 1987SOL    HW117594   0.425   1.208  11.748 -0.4281  1.0018  0.0441
 1987SOL    HW217595   0.288   1.251  11.704  0.1048 -0.4574 -0.5616
 1988SOL     OW17596   2.354   1.290   5.364  0.9274 -0.2703  0.2766
 1988SOL    HW117597   2.419   1.235   5.321  2.2090  2.1244 -0.8805
 1988SOL    HW217598   2.350   1.371   5.313 -2.1892  0.6294  1.9264
 1989SOL     OW17599   3.954   2.621   6.336  0.0476 -0.2035 -0.4807
 1989SOL    HW117600   3.994   2.675   6.405  2.2737 -0.0290 -1.9201
 1989SOL    HW217601   3.941   2.681   6.262  0.2011  0.0761 -0.2809
 1990SOL     OW17602   3.011   2.316   3.228 -0.5017 -0.2237 -0.1121
 1990SOL    HW117603   2.934   2.368   3.248  0.9260  2.2431 -1.0338
 1990SOL    HW217604   2.996   2.238   3.281  1.4430 -1.9926 -2.1222
 1991SOL     OW17605   4.641   3.382  16.324 -0.7090  0.3099 -0.0872
 1991SOL    HW117606   4.705   3.451  16.342 -0.0022  0.1927 -2.1361
 1991SOL    HW217607   4.570   3.407  16.383 -1.0428 -1.0170  0.0630
 1992SOL     OW17608   4.675   2.554  14.036 -0.1936  0.6464  0.0432
 1992SOL    HW117609   4.651   2.521  13.950  0.5154  0.3097 -0.0233
 1992SOL    HW217610   4.682   2.473  14.086  1.1016 -0.1065 -1.3587
 1993SOL     OW17611   4.208   4.679   2.897  0.2703  0.1498 -0.4490
 1993SOL    HW117612   4.214   4.601   2.842 -0.6903  0.2206 -0.6645
 1993SOL    HW217613   4.199   4.634   2.981 -1.8865  1.3012 -0.0462
 1994SOL     OW17614   1.452   1.403  15.456 -0.2283  0.4153 -0.1956
 1994SOL    HW117615   1.372   1.423  15.408 -0.4428 -1.3944 -0.5996
 1994SOL    HW217616   1.408   1.351  15.523 -1.2819  0.3046 -0.9722
 1995SOL     OW17617   0.354   2.419   8.012 -0.1755  0.1499  0.0385
 1995SOL    HW117618   0.442   2.437   7.978 -0.5833  0.5449 -0.8180
 1995SOL    HW217619   0.375   2.372   8.093  0.9856  2.3580  1.0272
 1996SOL     OW17620   2.241   0.122   9.497  0.4131 -0.1475 -0.4001
 1996SOL    HW117621   2.176   0.117   9.567  0.7397 -0.7478 -0.1369
 1996SOL    HW217622   2.312   0.077   9.542  0.8128 -0.9640 -1.8462
 1997SOL     OW17623   0.454   0.094   6.656  0.4900 -0.4653  0.4077
 1997SOL    HW117624   0.376   0.056   6.697 -0.0686 -0.9378 -1.1117
 1997SOL    HW217625   0.460   0.182   6.693  1.4390  1.1639 -3.6528
 1998SOL     OW17626   2.273   1.222  16.872 -0.0270 -0.4533  0.1958
 1998SOL    HW117627   2.259   1.156  16.940 -1.7644 -2.2802 -1.9078
 1998SOL    HW217628   2.345   1.267  16.914 -2.3267  2.6873  0.8101
 1999SOL     OW17629   4.690   0.015  13.840 -0.5425 -0.2410  0.0056
 1999SOL    HW117630   0.042   4.719  13.840 -0.5515 -0.3075 -2.8234
 1999SOL    HW217631   4.664   0.008  13.748  0.1531 -4.0413  0.1162
 2000SOL     OW17632   1.918   1.063  16.822 -0.8631 -0.3836 -0.1571
 2000SOL    HW117633   1.838   1.081  16.773 -1.4651 -1.5741  0.3684
 2000SOL    HW217634   1.912   0.968  16.833  2.3927 -0.5217  0.4116
 2001SOL     OW17635   1.568   3.580   1.188  0.0528  0.5848 -0.1386
 2001SOL    HW117636   1.647   3.527   1.176 -2.7493 -3.1518 -2.1041
 2001SOL    HW217637   1.602   3.670   1.188  1.2418  0.1312  0.5159
 2002SOL     OW17638   2.609   2.806   8.845  0.7698 -0.2614  0.3429
 2002SOL    HW117639   2.549   2.732   8.859 -1.2247  0.9941 -1.6667
 2002SOL    HW217640   2.549   2.849   8.784 -0.9473 -3.0149  0.0922
 2003SOL     OW17641   0.108   2.382   5.300  0.3766 -0.0838  0.2595
 2003SOL    HW117642   0.185   2.374   5.355 -0.3324  2.2584  1.6187
 2003SOL    HW217643   0.135   2.415   5.214 -1.9185  2.3624  0.4627
 2004SOL     OW17644   3.062   3.970   9.153 -0.1620  0.3965  0.8423
 2004SOL    HW117645   3.056   3.885   9.108 -2.7093 -0.3229  2.5750
 2004SOL    HW217646   2.998   3.958   9.222  0.2843  0.7318  1.3165
 2005SOL     OW17647   4.647   3.653  17.366 -0.5421  0.5240  0.0101
 2005SOL    HW117648   4.591   3.694  17.301  1.0686  1.3834 -0.8467
 2005SOL    HW217649   4.621   3.561  17.368  1.0524  0.0706  0.3270
 2006SOL     OW17650   3.463   2.715   2.003  0.5405 -0.2122  0.1654
 2006SOL    HW117651   3.380   2.760   2.017  1.8365  2.2684 -0.1128
 2006SOL    HW217652   3.465   2.715   1.907  1.5209 -0.0735  0.1856
 2007SOL     OW17653   4.724   4.423  13.109  0.3302  0.2159 -0.0977
 2007SOL    HW117654   4.634   4.441  13.081  0.6144 -0.6577 -1.5500
 2007SOL    HW217655   4.705   4.371  13.187 -2.4780  2.2214  0.5650
 2008SOL     OW17656   2.282   0.623   4.773 -0.3712 -0.2391  0.0394
 2008SOL    HW117657   2.335   0.654   4.699  0.5001  1.2391  1.2860
 2008SOL    HW217658   2.250   0.536   4.749  1.5761 -0.9187 -0.1653
 2009SOL     OW17659   1.579   0.750   5.794 -0.0414  0.1293  0.0144
 2009SOL    HW117660   1.674   0.758   5.786  0.0155 -1.7611 -1.2062
 2009SOL    HW217661   1.571   0.787   5.882  0.7134  0.5198 -0.0841
 2010SOL     OW17662   4.600   2.490  16.552 -0.3222  0.1187  0.0015
 2010SOL    HW117663   4.603   2.581  16.584 -3.5300 -0.3711  1.6908
 2010SOL    HW217664   4.567   2.510  16.465  0.5707 -0.9682 -0.5761
 2011SOL     OW17665   3.401   0.124  16.949  0.2148  0.6520 -0.0169
 2011SOL    HW117666   3.493   0.147  16.962  1.2819 -2.8210 -1.2629
 2011SOL    HW217667   3.399   0.030  16.966 -0.0428  0.8164  0.8598
 2012SOL     OW17668   3.800   0.332   0.839  0.0994  0.1377 -0.0431
 2012SOL    HW117669   3.791   0.398   0.769  1.7062 -1.1983 -1.5023
 2012SOL    HW217670   3.782   0.387   0.915 -3.5906 -0.0132 -0.7990
 2013SOL     OW17671   3.963   0.268   2.474 -0.2522  0.3568  0.0445
 2013SOL    HW117672   4.023   0.206   2.515 -0.4595 -1.2717 -2.1361
 2013SOL    HW217673   3.913   0.309   2.545 -0.3483  0.4212 -0.0602
 2014SOL     OW17674   4.396   2.934  15.272  0.0589  0.4748  0.5658
 2014SOL    HW117675   4.483   2.948  15.310  0.5698 -1.2052 -0.0069
 2014SOL    HW217676   4.407   2.966  15.183  1.6264  0.4821  0.7608
 2015SOL     OW17677   3.639   0.881   6.079  0.5975 -0.5619 -0.7286
 2015SOL    HW117678   3.701   0.895   6.007  0.2890 -1.5273 -1.1857
 2015SOL    HW217679   3.687   0.831   6.145 -1.8558 -1.5428  0.3233
 2016SOL     OW17680   2.570   3.139   2.542 -0.3574  0.4266  0.1160
 2016SOL    HW117681   2.662   3.118   2.556 -0.2662  1.0020  0.3894
 2016SOL    HW217682   2.561   3.107   2.453 -0.9531 -1.1123  0.7298
 2017SOL     OW17683   3.110   0.934  11.296 -0.1532  0.0496  0.3869
 2017SOL    HW117684   3.193   0.918  11.251  0.0226  0.8536  0.4153
 2017SOL    HW217685   3.137   0.949  11.387 -3.2637  1.9301  0.9770
 2018SOL     OW17686   1.857   0.178   6.778  0.1091  0.5308  0.1667
 2018SOL    HW117687   1.842   0.114   6.708 -0.6049  0.1588  0.6553
 2018SOL    HW217688   1.840   0.124   6.856 -0.9049 -1.0460 -1.1526
 2019SOL     OW17689   1.194   2.767  16.082 -0.2496  0.1872 -0.0645
 2019SOL    HW117690   1.147   2.830  16.028 -1.2691 -0.0590  0.5299
 2019SOL    HW217691   1.118   2.717  16.111 -0.5354  0.3171 -0.6001
 2020SOL     OW17692   4.605   4.555   3.466 -0.1576 -0.3643 -0.5113
 2020SOL    HW117693   4.526   4.503   3.484  0.5583 -1.5653 -0.8485
 2020SOL    HW217694   4.630   4.522   3.380 -0.2568  0.9972 -1.0644
 2021SOL     OW17695   4.341   1.645   8.198  0.2646 -0.1843 -0.8018
 2021SOL    HW117696   4.254   1.661   8.163  0.7305  2.4496 -0.7452
 2021SOL    HW217697   4.341   1.555   8.232 -0.1999 -0.6727 -2.1202
 2022SOL     OW17698   1.497   3.624   0.498 -0.0944 -0.2649  0.1188
 2022SOL    HW117699   1.498   3.544   0.446 -1.6009  0.6288 -1.2708
 2022SOL    HW217700   1.581   3.662   0.472 -0.1652  0.4640  0.9606
 2023SOL     OW17701   4.288   0.568   6.627 -0.1098  0.3734  0.2153
 2023SOL    HW117702   4.345   0.635   6.665  1.0453  0.4588 -1.6699
 2023SOL    HW217703   4.314   0.483   6.663 -2.1564 -0.9414 -1.4278
 2024SOL     OW17704   1.491   2.106   7.845 -0.7495 -0.3558 -0.0645
 2024SOL    HW117705   1.524   2.120   7.935 -0.2145 -1.5844 -0.0728
 2024SOL    HW217706   1.441   2.026   7.858 -0.0855 -0.7444  0.1440
 2025SOL     OW17707   4.455   2.866   5.559  0.7001  1.1318  0.3957
 2025SOL    HW117708   4.361   2.858   5.576  0.9793 -0.8667  1.0016
 2025SOL    HW217709   4.466   2.941   5.500  1.2752  0.1087 -0.8074
 2026SOL     OW17710   4.629   1.223   4.318  0.5255  0.1486  0.5836
 2026SOL    HW117711   4.647   1.187   4.405 -0.0194 -1.0359  0.1959
 2026SOL    HW217712   4.536   1.243   4.327  0.4838 -0.2979  1.1555
 2027SOL     OW17713   1.419   3.350   8.737 -0.0874 -0.0789 -0.2445
 2027SOL    HW117714   1.388   3.439   8.718  1.4541  0.0435 -2.1596
 2027SOL    HW217715   1.500   3.351   8.685  0.2874  0.3673  0.3528
 2028SOL     OW17716   3.519   2.503   2.340 -0.3680  0.6142  0.4628
 2028SOL    HW117717   3.437   2.531   2.381 -1.4268 -2.0056  0.1745
 2028SOL    HW217718   3.566   2.441   2.395 -2.5717  0.4885  2.2235
 2029SOL     OW17719   4.251   1.931   5.555 -0.0046 -0.2253  0.1260
 2029SOL    HW117720   4.342   1.957   5.572 -0.3786  1.5029 -0.5438
 2029SOL    HW217721   4.235   1.970   5.469  1.7819 -0.1206 -0.1593
 2030SOL     OW17722   0.923   3.784  12.902 -0.4548  0.0090 -0.2296
 2030SOL    HW117723   0.907   3.811  12.811 -1.0671  0.2355 -0.0502
 2030SOL    HW217724   0.977   3.861  12.919 -0.1912 -0.0627 -0.7221
 2031SOL     OW17725   2.838   1.416   4.589  0.2706 -0.5180 -0.1086
 2031SOL    HW117726   2.775   1.344   4.591 -1.0251  0.6928  2.5505
 2031SOL    HW217727   2.844   1.418   4.685  0.2538 -0.1091 -0.1161
 2032SOL     OW17728   3.590   4.722   6.028 -0.3009  0.0955 -0.4131
 2032SOL    HW117729   3.567   0.067   5.986  0.2596  0.3191 -0.2962
 2032SOL    HW217730   3.541   4.653   5.984  2.3277 -0.2835 -2.7264
 2033SOL     OW17731   2.999   0.292   3.186 -0.1446 -0.4398  0.1540
 2033SOL    HW117732   3.019   0.200   3.174  0.1286  0.0866 -3.4331
 2033SOL    HW217733   3.080   0.328   3.222 -0.0280  0.8428 -1.3723
 2034SOL     OW17734   2.161   0.864  10.133  0.0572  0.0854  0.1134
 2034SOL    HW117735   2.082   0.890  10.086  0.9043  0.8676 -0.9014
 2034SOL    HW217736   2.226   0.909  10.078 -1.9114  0.6720 -1.7087
 2035SOL     OW17737   4.160   0.546  12.019  0.3658  0.7408  0.2073
 2035SOL    HW117738   4.198   0.623  12.062  0.6088 -0.1628  1.6102
 2035SOL    HW217739   4.082   0.542  12.075 -1.0477 -0.6149 -1.8913
 2036SOL     OW17740   3.269   2.474   2.010  0.0231 -0.0475  0.1065
 2036SOL    HW117741   3.192   2.475   2.067  0.2615  0.1636  0.4320
 2036SOL    HW217742   3.330   2.420   2.061 -1.7743  0.0204  2.3162
 2037SOL     OW17743   0.718   1.632  16.504 -0.0355 -0.3298  0.0760
 2037SOL    HW117744   0.653   1.624  16.574 -0.9646 -0.6623 -0.8205
 2037SOL    HW217745   0.690   1.577  16.431  0.6327  0.7263 -0.9789
 2038SOL     OW17746   1.915   0.372   8.524  0.0148 -0.0342  0.3795
 2038SOL    HW117747   1.922   0.356   8.430 -0.0527 -2.5196  0.7895
 2038SOL    HW217748   1.951   0.291   8.560 -0.0657 -0.4231 -0.3991
 2039SOL     OW17749   0.457   3.491  11.667 -0.5360 -0.6302  0.1221
 2039SOL    HW117750   0.509   3.537  11.732  0.6349  0.3538 -1.5191
 2039SOL    HW217751   0.385   3.553  11.670 -0.5784 -0.5702 -1.7315
 2040SOL     OW17752   1.919   0.232  11.757  0.4654  0.1127 -0.2923
 2040SOL    HW117753   1.871   0.310  11.727  0.6791  0.0334 -0.8530
 2040SOL    HW217754   1.969   0.212  11.678 -0.7879  0.6195 -1.2165
 2041SOL     OW17755   0.824   3.852   2.215 -0.5066 -0.3622 -0.2578
 2041SOL    HW117756   0.895   3.850   2.280  0.7558  1.9418 -1.5684
 2041SOL    HW217757   0.776   3.775   2.243  0.5587 -0.8636  0.2047
 2042SOL     OW17758   4.150   0.276  13.957 -0.7017 -0.5313  0.0286
 2042SOL    HW117759   4.166   0.222  13.879 -1.3449 -0.2724 -0.2880
 2042SOL    HW217760   4.114   0.346  13.903 -3.2204 -2.1840 -0.4439
 2043SOL     OW17761   0.355   0.360  13.454  0.1848 -0.6759 -0.8360
 2043SOL    HW117762   0.273   0.315  13.470 -0.5300  0.7765 -0.3690
 2043SOL    HW217763   0.396   0.306  13.387  2.5601 -0.5500  0.5254
 2044SOL     OW17764   1.751   2.705  14.606 -0.0331 -0.3123 -0.7844
 2044SOL    HW117765   1.678   2.643  14.603  1.0205 -1.6929  1.8385
 2044SOL    HW217766   1.830   2.652  14.613  0.5957  1.2085  3.4861
 2045SOL     OW17767   0.793   2.373  13.409 -0.1719 -0.0949  0.2790
 2045SOL    HW117768   0.778   2.279  13.417  0.0753 -0.1947 -0.4032
 2045SOL    HW217769   0.705   2.404  13.431  0.2158  0.5504  0.9273
 2046SOL     OW17770   0.345   3.356   8.949 -0.3373 -0.1317 -0.0165
 2046SOL    HW117771   0.396   3.410   8.888  1.1788 -1.0226  0.4760
 2046SOL    HW217772   0.399   3.278   8.956 -1.6562 -0.9303  1.3635
 2047SOL     OW17773   1.736   2.073   8.003  0.5019  0.3455  0.1277
 2047SOL    HW117774   1.730   2.013   8.078 -0.7900  0.8912  0.4742
 2047SOL    HW217775   1.758   2.150   8.057  1.0863  0.8403 -0.8248
 2048SOL     OW17776   2.910   2.171   6.997  0.8126 -0.1741  0.1874
 2048SOL    HW117777   2.960   2.101   6.957 -0.0456  0.8001 -2.5993
 2048SOL    HW217778   2.961   2.183   7.077 -1.5783  0.1316  1.6924
 2049SOL     OW17779   2.531   2.757   5.400  0.5798 -0.3566  0.1053
 2049SOL    HW117780   2.552   2.754   5.307  0.6810  1.4923  0.0710
 2049SOL    HW217781   2.618   2.774   5.438  0.3646 -0.0643  0.4640
 2050SOL     OW17782   0.250   0.720   9.148 -0.1913 -0.1801  0.2367
 2050SOL    HW117783   0.200   0.733   9.067  1.3140  2.1797 -0.2854
 2050SOL    HW217784   0.300   0.801   9.149  1.4515 -1.1861 -0.3669
 2051SOL     OW17785   2.384   3.295   2.618 -0.0763  0.1410 -0.3893
 2051SOL    HW117786   2.460   3.246   2.587  0.5818  1.1161 -0.3202
 2051SOL    HW217787   2.325   3.289   2.543 -1.4878  0.6924  0.6689
 2052SOL     OW17788   4.691   3.101  16.301  0.4803 -0.2482 -0.3933
 2052SOL    HW117789   4.695   3.195  16.283 -0.3388  0.2253  1.9121
 2052SOL    HW217790   4.687   3.090  16.396  0.9750  1.6852 -0.1481
 2053SOL     OW17791   1.254   1.134   6.273 -0.6268 -0.0294 -0.2281
 2053SOL    HW117792   1.234   1.082   6.195 -1.8524 -0.3071  0.2627
 2053SOL    HW217793   1.196   1.082   6.329  1.8253  0.5609  2.8566
 2054SOL     OW17794   1.823   0.735   5.676 -0.8256 -0.2854  0.4691
 2054SOL    HW117795   1.785   0.792   5.609 -1.0468  0.7750  1.5013
 2054SOL    HW217796   1.917   0.744   5.662 -0.6502 -0.5317  1.5019
 2055SOL     OW17797   1.426   2.812   8.048  0.2540 -0.1397  0.2594
 2055SOL    HW117798   1.369   2.805   7.972  1.6203 -0.7027 -0.7105
 2055SOL    HW217799   1.491   2.876   8.019 -1.2711  1.3489  0.1508
 2056SOL     OW17800   1.084   1.839   7.848  0.0699 -0.2882 -0.0898
 2056SOL    HW117801   1.100   1.892   7.926 -1.2195 -0.1793  0.1095
 2056SOL    HW217802   1.016   1.894   7.808  2.9038  1.8186 -1.9663
 2057SOL     OW17803   2.764   2.261  13.777  0.2477 -0.1543 -0.0517
 2057SOL    HW117804   2.856   2.242  13.761  0.8991  2.7745  0.3410
 2057SOL    HW217805   2.740   2.176  13.815 -1.9601  0.1099 -0.8758
 2058SOL     OW17806   0.304   1.578   7.153  0.3897  0.2667 -0.4688
 2058SOL    HW117807   0.292   1.670   7.126  0.6176  0.9686  1.8792
 2058SOL    HW217808   0.281   1.535   7.070  1.8387 -1.9077  0.2528
 2059SOL     OW17809   1.908   3.217   5.286 -0.6872  0.2738 -0.8058
 2059SOL    HW117810   1.854   3.296   5.284 -1.7641 -0.4177  1.5697
 2059SOL    HW217811   1.909   3.201   5.380  0.2043  2.3066 -0.4682
 2060SOL     OW17812   2.276   0.723   9.863 -0.1652  0.1262  0.4967
 2060SOL    HW117813   2.229   0.776   9.799 -0.8641 -0.4776  0.4959
 2060SOL    HW217814   2.237   0.637   9.845  1.4246 -0.8087  1.5195
 2061SOL     OW17815   1.602   1.817   4.561  0.2188 -0.2447 -0.1581
 2061SOL    HW117816   1.626   1.863   4.481 -2.2628 -0.1412 -0.8458
 2061SOL    HW217817   1.632   1.869   4.636 -2.0265  0.5545  0.1895
 2062SOL     OW17818   3.313   0.549   9.369 -0.1283  0.2971  0.3251
 2062SOL    HW117819   3.278   0.567   9.282  2.0378 -1.2683 -0.8569
 2062SOL    HW217820   3.279   0.460   9.381 -0.7628  0.1642 -2.5049
 2063SOL     OW17821   1.036   1.013   5.497 -0.3796  0.1625  0.0210
 2063SOL    HW117822   1.062   0.926   5.466 -0.3713  0.1824 -0.0279
 2063SOL    HW217823   0.943   1.013   5.477 -0.2270  0.1284 -0.7130
 2064SOL     OW17824   3.798   1.869  17.318 -0.2434  0.0705 -0.6486
 2064SOL    HW117825   3.855   1.793  17.328 -1.1759 -0.3245  1.6276
 2064SOL    HW217826   3.711   1.830  17.316 -0.4745  0.4584  1.5608
 2065SOL     OW17827   4.253   2.727  11.740 -0.1065  0.0403 -0.1964
 2065SOL    HW117828   4.224   2.808  11.781 -1.6266  0.5455 -2.3233
 2065SOL    HW217829   4.346   2.731  11.765 -0.1612  2.0227 -0.3331
 2066SOL     OW17830   1.677   0.041   9.072  0.0427 -0.1627 -0.2141
 2066SOL    HW117831   1.639   4.733   9.147 -3.0768  2.4230 -0.2138
 2066SOL    HW217832   1.648   0.132   9.080 -0.0141 -0.0295 -1.9584
 2067SOL     OW17833   1.397   0.915   7.239 -0.2577 -0.4729  0.5612
 2067SOL    HW117834   1.309   0.886   7.265 -0.2506 -2.1373 -1.2433
 2067SOL    HW217835   1.445   0.867   7.306  1.0684 -1.9554 -1.4695
 2068SOL     OW17836   2.272   0.216   6.951 -0.7357 -0.6484 -0.3550
 2068SOL    HW117837   2.351   0.182   6.910  0.4570 -0.4584  1.8050
 2068SOL    HW217838   2.249   0.284   6.887  0.5982  0.0981 -0.0324
 2069SOL     OW17839   4.089   4.496   2.449 -0.7223 -0.1111 -0.2094
 2069SOL    HW117840   4.144   4.458   2.517  0.5125  0.4453 -0.9014
 2069SOL    HW217841   4.158   4.549   2.408 -0.0096 -1.3441 -0.5721
 2070SOL     OW17842   1.915   0.473   5.798 -0.0774 -0.4283 -0.1134
 2070SOL    HW117843   1.867   0.453   5.878  0.9238 -0.1554  0.5545
 2070SOL    HW217844   1.871   0.554   5.770 -0.7774 -1.4708 -2.0085
 2071SOL     OW17845   3.779   2.394   7.258  0.6030  0.3256 -0.4879
 2071SOL    HW117846   3.733   2.334   7.316 -3.1489  0.4848 -3.2333
 2071SOL    HW217847   3.827   2.330   7.206  1.1105 -3.0284  4.1724
 2072SOL     OW17848   1.249   1.612   8.805  1.0621 -0.5575 -0.3671
 2072SOL    HW117849   1.322   1.554   8.781  0.1813 -0.4809 -3.2333
 2072SOL    HW217850   1.280   1.695   8.768  0.1892  0.4992  1.2651
 2073SOL     OW17851   3.668   4.366   3.766  0.2080 -0.2539 -0.0552
 2073SOL    HW117852   3.720   4.289   3.789 -0.6927 -0.6515  0.6377
 2073SOL    HW217853   3.699   4.433   3.826 -2.2890 -0.7540  1.8002
 2074SOL     OW17854   2.525   1.673   1.284 -0.3314  0.1423 -0.5504
 2074SOL    HW117855   2.451   1.639   1.334 -0.7216 -1.0295 -1.9442
 2074SOL    HW217856   2.471   1.719   1.219  1.3894  0.1455 -1.9553
 2075SOL     OW17857   2.664   0.513   7.533 -0.3473  0.2149  0.3201
 2075SOL    HW117858   2.603   0.448   7.498  0.2865 -0.7590  1.0202
 2075SOL    HW217859   2.744   0.475   7.497 -1.4518 -0.6558 -1.2417
 2076SOL     OW17860   3.067   3.196   7.858 -0.3472 -0.2552 -0.0497
 2076SOL    HW117861   3.059   3.279   7.810  1.7573 -0.3870 -0.6502
 2076SOL    HW217862   3.120   3.160   7.787 -0.9978 -0.4914 -0.4133
 2077SOL     OW17863   2.394   2.096   4.054  0.5074 -0.0274 -0.3944
 2077SOL    HW117864   2.435   2.176   4.021  1.2032 -0.3385 -0.2921
 2077SOL    HW217865   2.401   2.100   4.149  0.2903 -1.8956 -0.2884
 2078SOL     OW17866   0.728   1.338  16.780 -0.1024 -0.0847  0.1242
 2078SOL    HW117867   0.810   1.354  16.733  0.8201 -2.5997  0.9115
 2078SOL    HW217868   0.691   1.269  16.726  2.1513 -0.4464 -0.9751
 2079SOL     OW17869   3.679   0.471   2.209  0.4019  0.1345 -0.4099
 2079SOL    HW117870   3.734   0.399   2.240 -2.2263 -3.1287 -3.5633
 2079SOL    HW217871   3.661   0.533   2.281 -2.7822 -0.5924 -0.5907
 2080SOL     OW17872   1.294   1.015  13.604 -0.1811 -0.2983 -0.7097
 2080SOL    HW117873   1.341   0.976  13.677  0.1936  0.0103 -0.7901
 2080SOL    HW217874   1.348   1.092  13.588  0.8969 -0.9780 -0.2626
 2081SOL     OW17875   4.539   2.792   8.252 -0.3910  0.2368 -0.2170
 2081SOL    HW117876   4.603   2.721   8.262  0.9068  1.3147 -0.8176
 2081SOL    HW217877   4.530   2.842   8.333  1.8098  0.8041 -0.3315
 2082SOL     OW17878   0.214   4.314  13.064  0.6502  0.2398  0.0759
 2082SOL    HW117879   0.121   4.335  13.060  0.7098  0.3647 -0.8046
 2082SOL    HW217880   0.250   4.393  13.103 -1.1986  0.8391  0.5678
 2083SOL     OW17881   3.599   3.223   6.231  0.0398  0.3389 -0.4648
 2083SOL    HW117882   3.527   3.252   6.287 -0.2509  1.1853 -1.2939
 2083SOL    HW217883   3.640   3.307   6.213  0.5969  0.6269  2.1392
 2084SOL     OW17884   4.682   4.053   4.390 -0.1816  0.2094  0.4453
 2084SOL    HW117885   4.684   4.055   4.486 -1.2893 -0.1711  0.4708
 2084SOL    HW217886   4.592   4.078   4.371  0.8509  2.7274 -1.1765
 2085SOL     OW17887   2.264   0.536   3.485  0.0439  0.1313 -0.2324
 2085SOL    HW117888   2.267   0.608   3.547 -2.1777  0.0758 -0.0748
 2085SOL    HW217889   2.270   0.580   3.400  2.2544  3.0254  1.4594
 2086SOL     OW17890   0.210   0.606   4.454 -0.8971 -0.5103 -0.6268
 2086SOL    HW117891   0.250   0.523   4.482  2.4915  1.0438 -0.8347
 2086SOL    HW217892   0.266   0.672   4.495 -0.3007 -2.2642  1.4452
 2087SOL     OW17893   4.351   0.145   1.652  0.0737 -0.6666  0.0798
 2087SOL    HW117894   4.311   0.115   1.570  0.6732 -0.1894 -0.3846
 2087SOL    HW217895   4.438   0.116   1.624 -0.6714 -0.8740 -2.0618
 2088SOL     OW17896   2.185   2.745   1.752 -0.3755 -0.8011 -0.6717
 2088SOL    HW117897   2.201   2.837   1.728  1.0124 -0.6075  0.9810
 2088SOL    HW217898   2.158   2.714   1.665 -1.4284 -0.6285 -0.3997
 2089SOL     OW17899   0.048   3.878  15.295  0.5515 -0.7250  0.4725
 2089SOL    HW117900   4.727   3.841  15.229 -0.2285  2.5847 -0.7156
 2089SOL    HW217901   4.719   3.901  15.360 -1.2721 -0.8054 -1.3579
 2090SOL     OW17902   3.589   3.439   8.929  0.2822  0.4663  0.5295
 2090SOL    HW117903   3.512   3.435   8.987 -0.2495  1.2296 -0.1217
 2090SOL    HW217904   3.586   3.534   8.916  0.2802  0.5419  1.0603
 2091SOL     OW17905   3.654   1.115   9.658  0.1833 -0.1309 -0.3908
 2091SOL    HW117906   3.561   1.114   9.682  0.0403  0.5636 -0.9210
 2091SOL    HW217907   3.660   1.112   9.562 -0.0072 -0.3054 -0.3975
 2092SOL     OW17908   3.575   3.504   4.738  0.4552  0.4337 -0.6957
 2092SOL    HW117909   3.590   3.478   4.647 -1.1649  0.1915 -0.9032
 2092SOL    HW217910   3.488   3.543   4.727 -0.5142 -2.2071 -2.5445
 2093SOL     OW17911   3.364   4.402   7.294  0.4293 -0.3703 -0.3698
 2093SOL    HW117912   3.284   4.424   7.247  0.7412 -3.2655 -2.2512
 2093SOL    HW217913   3.362   4.463   7.368 -1.7681  0.0736 -0.8097
 2094SOL     OW17914   2.606   0.042   3.234 -0.0788 -0.2063  0.1869
 2094SOL    HW117915   2.614   0.009   3.144 -0.5234  0.3012 -0.0368
 2094SOL    HW217916   2.561   0.125   3.219  1.9011  0.5217 -1.7563
 2095SOL     OW17917   4.005   3.886   5.255  0.2372 -0.4297  0.2455
 2095SOL    HW117918   3.991   3.981   5.256  0.8811 -0.3129 -1.4699
 2095SOL    HW217919   3.971   3.858   5.340  0.7899  1.4015  1.0837
 2096SOL     OW17920   0.995   3.966  13.187  0.0906 -0.5821 -0.1589
 2096SOL    HW117921   1.018   3.958  13.094  3.3059 -0.7599  0.6319
 2096SOL    HW217922   1.006   4.061  13.199  1.4530 -0.6954 -0.4137
 2097SOL     OW17923   3.703   3.970  12.412 -0.1679  0.1878  0.4367
 2097SOL    HW117924   3.743   4.029  12.348 -1.7686  0.9655  0.1427
 2097SOL    HW217925   3.737   3.997  12.497  0.8210 -1.4107  0.5553
 2098SOL     OW17926   2.208   0.371  16.078 -0.3745 -0.5550 -0.3404
 2098SOL    HW117927   2.257   0.326  16.009  1.7107  0.8177  0.2321
 2098SOL    HW217928   2.224   0.463  16.055  1.3364 -0.6097  0.6506
 2099SOL     OW17929   3.081   4.094  16.930 -0.0574  0.5358 -0.2431
 2099SOL    HW117930   3.004   4.087  16.986 -0.2576  0.3563 -0.5396
 2099SOL    HW217931   3.150   4.140  16.978  1.1813 -0.6281 -0.9092
 2100SOL     OW17932   3.095   3.854   4.631  0.6714 -0.6747 -0.4361
 2100SOL    HW117933   3.073   3.938   4.591  0.3750  0.3165  1.8520
 2100SOL    HW217934   3.132   3.868   4.718  0.6510 -0.3182 -0.4846
 2101SOL     OW17935   2.492   3.235   4.818  0.3910  0.4763 -0.3135
 2101SOL    HW117936   2.465   3.152   4.858  3.4063  0.3332  1.4637
 2101SOL    HW217937   2.560   3.203   4.759 -2.1420 -1.4360 -2.1964
 2102SOL     OW17938   1.099   1.130   1.755 -0.1087 -0.0909 -0.0618
 2102SOL    HW117939   1.151   1.059   1.791  2.8791  1.9694 -0.2954
 2102SOL    HW217940   1.145   1.199   1.802 -1.6369  0.5302  0.5220
 2103SOL     OW17941   3.577   2.801   8.159  0.0645  0.4934 -0.7648
 2103SOL    HW117942   3.588   2.718   8.112  0.5832 -0.3015  0.7969
 2103SOL    HW217943   3.670   2.823   8.166 -0.1148  0.5379  1.2656
 2104SOL     OW17944   2.556   2.514   3.692  0.3422 -0.0025 -0.4962
 2104SOL    HW117945   2.525   2.571   3.621 -1.1806 -0.9019 -0.5538
 2104SOL    HW217946   2.627   2.572   3.719  0.6795 -1.5777  2.0067
 2105SOL     OW17947   1.089   1.176  13.727 -0.0180  0.1651 -0.6844
 2105SOL    HW117948   1.136   1.111  13.674 -1.6744 -0.9928 -0.7571
 2105SOL    HW217949   1.153   1.176  13.798 -0.8003 -1.8591  0.0264
 2106SOL     OW17950   2.777   1.756   7.106 -0.7491  0.1210  0.0186
 2106SOL    HW117951   2.802   1.811   7.180 -1.2833  0.1995  0.1379
 2106SOL    HW217952   2.719   1.694   7.149  0.4813  0.8019  2.6202
 2107SOL     OW17953   0.951   3.696  16.361  0.0075  0.6332  0.3904
 2107SOL    HW117954   0.950   3.790  16.375  0.4155  0.4743  1.4857
 2107SOL    HW217955   0.896   3.662  16.431  0.4018 -0.1299  0.3357
 2108SOL     OW17956   4.528   0.228  13.874  0.1674  0.4191  0.0582
 2108SOL    HW117957   4.575   0.145  13.886  2.0950  1.2291 -1.7179
 2108SOL    HW217958   4.459   0.195  13.816 -1.3352  0.0388  2.0718
 2109SOL     OW17959   3.218   1.143   9.423  0.2477  0.3478  0.1316
 2109SOL    HW117960   3.281   1.165   9.491 -1.6671 -2.6926  2.9443
 2109SOL    HW217961   3.268   1.072   9.384  0.3333  1.4928 -1.7925
 2110SOL     OW17962   3.545   0.309   3.658  0.7413  0.7640 -0.2494
 2110SOL    HW117963   3.457   0.344   3.674  0.3910 -1.3835  2.4482
 2110SOL    HW217964   3.545   0.320   3.563 -1.2771 -2.9195 -0.6931
 2111SOL     OW17965   4.208   0.014   9.088  0.0337  0.4876  0.5500
 2111SOL    HW117966   4.285   0.065   9.062 -0.7398  0.5694 -1.5766
 2111SOL    HW217967   4.175   4.726   9.002  1.1908  0.8784 -0.0166
 2112SOL     OW17968   0.917   1.207   2.627 -0.1013  0.8129  0.1860
 2112SOL    HW117969   0.877   1.215   2.541 -0.4068 -0.7192  0.1931
 2112SOL    HW217970   1.004   1.184   2.594 -0.4201 -1.0844  0.6744
 2113SOL     OW17971   1.195   4.626  10.472  0.2487  0.7323  0.4545
 2113SOL    HW117972   1.206   4.621  10.567 -1.9391 -0.3026  0.6534
 2113SOL    HW217973   1.225   4.717  10.467  1.9160  0.0527 -1.5949
 2114SOL     OW17974   1.666   3.416   8.577 -0.0169  0.5098 -0.1525
 2114SOL    HW117975   1.718   3.338   8.595  0.4523  1.4203  2.4466
 2114SOL    HW217976   1.728   3.489   8.570 -0.0728  0.6392  0.7835
 2115SOL     OW17977   3.055   1.846   7.340  0.3091 -0.0365 -0.9042
 2115SOL    HW117978   2.971   1.889   7.325  0.0692  0.6307  2.2630
 2115SOL    HW217979   3.030   1.757   7.316 -0.1160  0.4128 -2.1660
 2116SOL     OW17980   1.816   0.371  16.819  0.2437 -0.1007 -0.4066
 2116SOL    HW117981   1.836   0.282  16.791 -0.1977 -0.0541 -0.8705
 2116SOL    HW217982   1.770   0.344  16.898 -1.3954  2.1661 -0.5748
 2117SOL     OW17983   2.067   0.958   2.698  0.6275  0.3325 -0.1813
 2117SOL    HW117984   1.994   0.927   2.751  0.4173  3.2071  1.2082
 2117SOL    HW217985   2.142   0.927   2.750 -0.1412  0.1587  0.8171
 2118SOL     OW17986   1.896   1.223   5.655  0.0847 -1.0184  0.3922
 2118SOL    HW117987   1.853   1.298   5.615 -0.7708 -2.2850 -1.0388
 2118SOL    HW217988   1.839   1.184   5.722 -1.5364 -0.4700 -0.6838
 2119SOL     OW17989   2.647   0.259   7.800 -0.2826  0.5074 -0.7846
 2119SOL    HW117990   2.672   0.218   7.883  0.3176 -1.1236 -1.7834
 2119SOL    HW217991   2.715   0.241   7.736 -0.1340 -0.4557 -0.3577
 2120SOL     OW17992   1.940   4.033   7.981  0.2474 -0.3467  0.2407
 2120SOL    HW117993   1.949   3.959   7.922  0.5296  0.9614 -1.3769
 2120SOL    HW217994   1.849   4.053   7.959 -0.2990  0.5102  3.2051
 2121SOL     OW17995   2.424   4.117  15.873  0.1902  0.2524 -0.4259
 2121SOL    HW117996   2.377   4.087  15.795 -1.1569  0.9885  0.1046
 2121SOL    HW217997   2.425   4.032  15.915 -1.4267  1.4478  1.9980
 2122SOL     OW17998   3.482   1.127   8.751  0.0440 -0.2577  0.1392
 2122SOL    HW117999   3.499   1.082   8.834  0.0633  0.6651  0.6356
 2122SOL    HW218000   3.535   1.082   8.686 -0.4423 -1.4245  0.5514
 2123SOL     OW18001   0.911   3.259   7.571 -0.4627 -0.1614 -0.0686
 2123SOL    HW118002   0.882   3.169   7.555 -1.1592 -0.1770  1.2080
 2123SOL    HW218003   0.925   3.253   7.666 -1.2739 -0.0008  0.0618
 2124SOL     OW18004   4.482   1.130   6.943 -0.2184 -0.0815 -0.6401
 2124SOL    HW118005   4.555   1.125   6.881  0.6066 -0.3748  0.3549
 2124SOL    HW218006   4.465   1.037   6.955  1.0755 -0.2821 -0.3826
 2125SOL     OW18007   4.687   4.122   3.839  0.4931  0.1507  0.0909
 2125SOL    HW118008   4.648   4.135   3.925 -0.0559  0.8973 -0.2659
 2125SOL    HW218009   0.036   4.084   3.854  0.6325  1.2255  1.9591
 2126SOL     OW18010   0.449   0.239   3.170 -0.3806  0.2422  0.6090
 2126SOL    HW118011   0.427   0.256   3.262 -0.9577 -1.2190  0.7421
 2126SOL    HW218012   0.410   0.316   3.130  0.6020 -0.6085 -1.9997
 2127SOL     OW18013   1.769   1.768  14.087  0.6066 -0.5906 -0.5872
 2127SOL    HW118014   1.841   1.759  14.150 -0.0691  2.2015  0.5838
 2127SOL    HW218015   1.821   1.762  14.007  0.7293 -1.1375 -0.4661
 2128SOL     OW18016   3.733   1.714   1.827  0.2302 -0.3040  0.3515
 2128SOL    HW118017   3.708   1.634   1.781 -0.4869  1.2303 -1.9269
 2128SOL    HW218018   3.827   1.710   1.805  0.3486 -0.6215  0.9397
 2129SOL     OW18019   0.758   1.716   5.085  0.3525 -0.0660 -0.1499
 2129SOL    HW118020   0.752   1.682   5.174 -2.2983 -1.6909 -0.9564
 2129SOL    HW218021   0.666   1.737   5.068  0.4468  0.2317 -0.2906
 2130SOL     OW18022   2.686   1.018   6.128 -0.2490 -0.1987 -0.3660
 2130SOL    HW118023   2.775   1.047   6.113  0.1304  0.5220  3.1632
 2130SOL    HW218024   2.690   1.018   6.224 -0.8168  0.6114 -0.3443
 2131SOL     OW18025   1.760   2.325  15.607  0.9125 -0.5277 -0.2658
 2131SOL    HW118026   1.808   2.289  15.532  1.3006 -1.5750  0.4695
 2131SOL    HW218027   1.823   2.305  15.677  1.1921  3.3034  0.5869
 2132SOL     OW18028   1.719   3.348   3.034 -0.0352  0.0177  0.7166
 2132SOL    HW118029   1.653   3.401   2.989  0.7304  1.3292  1.1289
 2132SOL    HW218030   1.705   3.386   3.121 -1.8322  1.4805 -0.1993
 2133SOL     OW18031   4.331   1.787   8.802 -0.0291  0.0461 -0.7405
 2133SOL    HW118032   4.256   1.823   8.849  1.0378  2.1128 -0.6305
 2133SOL    HW218033   4.284   1.774   8.719 -0.8465  1.7227 -0.5420
 2134SOL     OW18034   2.037   1.015  16.572 -0.0361  0.4275 -0.1116
 2134SOL    HW118035   2.049   0.973  16.658  0.6876  1.7577  0.4391
 2134SOL    HW218036   2.038   1.109  16.589 -0.3981  0.0823  1.8460
 2135SOL     OW18037   3.448   4.290   1.751 -0.6351  0.1780 -0.0891
 2135SOL    HW118038   3.399   4.372   1.756  1.3304  1.2236  2.0839
 2135SOL    HW218039   3.416   4.258   1.835 -3.1231  0.9904 -0.7387
 2136SOL     OW18040   2.079   4.518   1.971 -0.3334 -0.0074 -0.5294
 2136SOL    HW118041   2.020   4.526   1.897 -0.1575  0.5571 -0.6102
 2136SOL    HW218042   2.102   4.611   1.979  0.2825 -0.2323  0.3642
 2137SOL     OW18043   2.099   4.549   6.299  0.3874 -0.2273 -0.0494
 2137SOL    HW118044   2.095   4.525   6.206 -0.6614 -0.8541  0.1528
 2137SOL    HW218045   2.074   4.640   6.287  0.5233 -0.2568 -0.5495
 2138SOL     OW18046   2.571   0.559  16.038  0.3179  0.2845 -0.2451
 2138SOL    HW118047   2.630   0.586  16.109  1.2661 -1.3478 -0.4068
 2138SOL    HW218048   2.589   0.639  15.989 -1.1180  0.6612 -0.1496
 2139SOL     OW18049   1.947   3.944   6.028  0.0200  0.2211 -0.0062
 2139SOL    HW118050   2.032   3.961   5.987  0.5613  0.3842  1.1847
 2139SOL    HW218051   1.991   3.914   6.108 -0.8873  1.8770  1.1369
 2140SOL     OW18052   2.366   0.788   4.540  0.2758 -0.1337  0.3156
 2140SOL    HW118053   2.440   0.749   4.492  0.1954 -0.3385  0.3587
 2140SOL    HW218054   2.418   0.855   4.585 -1.4528  2.2871 -1.2733
 2141SOL     OW18055   1.813   0.901   4.069  0.7931 -0.1710 -0.2905
 2141SOL    HW118056   1.823   0.896   3.974  4.3962 -0.0442  0.0473
 2141SOL    HW218057   1.891   0.953   4.090  1.4382 -1.6394  0.9281
 2142SOL     OW18058   3.318   3.694   8.214 -0.4942  0.1397 -0.0077
 2142SOL    HW118059   3.396   3.707   8.159 -0.1438  0.0810  0.4769
 2142SOL    HW218060   3.257   3.676   8.142  0.0765 -0.7490 -0.2717
 2143SOL     OW18061   3.155   0.402   2.410 -0.2822  0.4150 -0.2337
 2143SOL    HW118062   3.096   0.477   2.401  0.4259  1.2063  1.7105
 2143SOL    HW218063   3.158   0.366   2.321  0.2248 -0.0500 -0.0284
 2144SOL     OW18064   0.890   4.071   5.981  0.0997  0.0856 -0.2059
 2144SOL    HW118065   0.822   4.095   6.044 -0.6642 -0.2616 -0.9126
 2144SOL    HW218066   0.966   4.049   6.036  1.2003  0.6003 -1.5109
 2145SOL     OW18067   4.513   4.688   6.304 -0.2592  0.6781 -0.4705
 2145SOL    HW118068   4.527   4.687   6.209 -1.1157 -1.6719 -0.5483
 2145SOL    HW218069   4.597   4.728   6.329 -0.6020  2.2144 -1.7847
 2146SOL     OW18070   1.693   0.925   5.511 -0.1798  0.1757  0.1564
 2146SOL    HW118071   1.680   1.020   5.505 -2.4693 -0.0928  1.1156
 2146SOL    HW218072   1.612   0.905   5.465 -0.9111  0.0062  1.5402
 2147SOL     OW18073   4.733   4.092   4.675 -1.2319  0.0110  0.2180
 2147SOL    HW118074   4.686   4.100   4.758 -0.4007 -0.3940  0.7218
 2147SOL    HW218075   0.076   4.052   4.706 -0.1376  0.0043 -2.6686
 2148SOL     OW18076   0.318   0.937   4.776 -0.5079 -0.0122  0.0393
 2148SOL    HW118077   0.328   1.032   4.769  0.0466 -0.0142  0.8246
 2148SOL    HW218078   0.224   0.925   4.792 -0.3418 -0.8825  0.3567
 2149SOL     OW18079   3.076   3.751   1.441 -0.6346 -0.2639  0.3441
 2149SOL    HW118080   3.083   3.696   1.519  0.8046 -0.6634 -0.0623
 2149SOL    HW218081   3.017   3.820   1.468 -3.2629 -1.7814 -1.5276
 2150SOL     OW18082   1.472   4.429   3.711  0.2693  0.2746  0.1222
 2150SOL    HW118083   1.471   4.470   3.624 -1.5268 -0.0652 -0.0253
 2150SOL    HW218084   1.459   4.336   3.692  0.0030  0.1366  1.0055
 2151SOL     OW18085   4.264   3.092   9.445  0.0979  0.2751  0.4005
 2151SOL    HW118086   4.330   3.082   9.514  1.9011  0.2304 -1.3124
 2151SOL    HW218087   4.186   3.102   9.500  0.1505  3.4229 -0.0792
 2152SOL     OW18088   2.526   2.378   1.784  0.1351 -0.8693 -0.5036
 2152SOL    HW118089   2.563   2.384   1.696  0.9806 -1.1574 -0.1575
 2152SOL    HW218090   2.528   2.283   1.797 -0.2360 -0.4428  2.6321
 2153SOL     OW18091   1.913   2.009  12.650 -0.0309 -0.0336  0.2781
 2153SOL    HW118092   1.960   1.928  12.669  0.0571  0.2886  1.4304
 2153SOL    HW218093   1.989   2.066  12.642 -0.3066  0.0134 -2.0290
 2154SOL     OW18094   1.257   1.950   2.963  0.3036 -0.8205  0.1443
 2154SOL    HW118095   1.263   1.970   3.057  1.4001 -0.4735 -0.0029
 2154SOL    HW218096   1.220   1.862   2.954 -0.9436 -0.4479  1.6171
 2155SOL     OW18097   3.229   3.366  15.355 -0.1734  0.2228  0.1916
 2155SOL    HW118098   3.213   3.326  15.270  0.0936 -1.0792  0.7412
 2155SOL    HW218099   3.260   3.290  15.405  1.0893  0.3570 -0.4025
 2156SOL     OW18100   3.669   3.401  14.054  0.0340 -0.1900  0.2697
 2156SOL    HW118101   3.579   3.369  14.064  0.8022 -2.4740 -0.1177
 2156SOL    HW218102   3.652   3.479  14.001 -1.5096  0.2261  1.3918
 2157SOL     OW18103   0.995   0.460   2.855  0.0659 -0.1438  1.2046
 2157SOL    HW118104   1.030   0.449   2.767  0.4897  0.2072  1.3271
 2157SOL    HW218105   0.931   0.525   2.827 -0.8606 -0.8789  1.6558
 2158SOL     OW18106   0.314   4.547   1.829 -0.0340 -0.6743 -0.0524
 2158SOL    HW118107   0.282   4.482   1.767  0.6415  0.1950 -1.3216
 2158SOL    HW218108   0.360   4.489   1.890 -1.3100 -3.0205 -1.3186
 2159SOL     OW18109   1.964   2.725   5.224 -0.0341  0.0509  0.1974
 2159SOL    HW118110   2.033   2.776   5.265 -1.3096  1.1442  0.9435
 2159SOL    HW218111   2.019   2.675   5.163 -1.2806 -2.0822  0.8225
 2160SOL     OW18112   1.882   0.304   8.156  0.0219  0.0133 -0.2846
 2160SOL    HW118113   1.971   0.308   8.191 -0.2738  2.9344  0.1209
 2160SOL    HW218114   1.844   0.387   8.183 -1.2875 -0.0649 -1.8761
 2161SOL     OW18115   4.552   0.608   3.637  0.1494 -0.7538  0.8488
 2161SOL    HW118116   4.589   0.639   3.554 -2.3177 -1.9980 -0.7136
 2161SOL    HW218117   4.462   0.628   3.611  1.1435  2.1003 -0.4483
 2162SOL     OW18118   4.107   0.707  12.460 -0.2434  0.1296 -0.5705
 2162SOL    HW118119   4.012   0.717  12.467 -0.1303  0.6653  0.2222
 2162SOL    HW218120   4.142   0.715  12.549 -0.1468 -0.5635 -0.5424
 2163SOL     OW18121   1.204   0.377   4.349 -0.6949  0.7917  0.0640
 2163SOL    HW118122   1.296   0.367   4.375 -0.9949  0.4546  1.0059
 2163SOL    HW218123   1.171   0.441   4.413  1.0280  2.8680 -1.1124
 2164SOL     OW18124   2.887   2.998   6.254  0.7725  0.4197 -0.2824
 2164SOL    HW118125   2.942   2.940   6.308  0.1918 -0.1472 -0.2971
 2164SOL    HW218126   2.894   2.959   6.167  1.1151  2.4952 -1.1670
 2165SOL     OW18127   1.166   0.290  14.883  0.1440  0.2314  0.2502
 2165SOL    HW118128   1.174   0.225  14.813 -0.0812  2.1498 -1.5401
 2165SOL    HW218129   1.111   0.245  14.947 -1.3396 -1.2980 -2.0921
 2166SOL     OW18130   0.252   4.234   8.189  0.1940 -0.0460  0.2423
 2166SOL    HW118131   0.295   4.284   8.119 -2.1520  2.0247  0.2817
 2166SOL    HW218132   0.316   4.215   8.257  0.9285 -0.2016 -0.4780
 2167SOL     OW18133   3.919   4.101  17.745  0.3819  0.3734  0.7561
 2167SOL    HW118134   3.996   4.149  17.715 -0.2115 -0.4209 -2.0310
 2167SOL    HW218135   3.856   4.140  17.684 -1.1986 -1.4529  1.2056
 2168SOL     OW18136   1.758   2.809  14.014  0.1079  0.0511  0.4663
 2168SOL    HW118137   1.738   2.854  14.096 -2.1868  2.6963 -1.5055
 2168SOL    HW218138   1.777   2.885  13.960  0.8168 -1.1556 -0.9902
 2169SOL     OW18139   3.461   3.210   4.623 -0.2834  0.5176  0.0488
 2169SOL    HW118140   3.515   3.172   4.554 -1.6893 -0.7202 -0.3918
 2169SOL    HW218141   3.458   3.133   4.680  0.2384 -0.3929 -1.1626
 2170SOL     OW18142   1.131   2.227  11.389  0.1950  0.8156 -0.0569
 2170SOL    HW118143   1.120   2.155  11.326  2.4596  0.8728 -0.5312
 2170SOL    HW218144   1.068   2.294  11.360  0.1781  0.5452 -0.6516
 2171SOL     OW18145   3.254   3.329   6.968 -0.0433 -0.0340 -0.3234
 2171SOL    HW118146   3.314   3.271   7.016  0.3206  2.8939  2.7487
 2171SOL    HW218147   3.244   3.404   7.026  0.6266  0.2735 -0.6146
 2172SOL     OW18148   2.342   3.664  13.436  0.7824  0.2431  0.0537
 2172SOL    HW118149   2.343   3.758  13.414 -0.8542 -0.1620 -1.8287
 2172SOL    HW218150   2.269   3.625  13.388 -0.8663  0.7815  2.1170
 2173SOL     OW18151   0.948   1.550   8.475  0.3879 -0.4284 -0.3132
 2173SOL    HW118152   0.898   1.631   8.468  2.1286  0.7351  0.5766
 2173SOL    HW218153   0.968   1.558   8.568 -1.2527 -0.5714  0.0495
 2174SOL     OW18154   4.108   0.164   6.872 -0.2116 -0.3803 -0.4054
 2174SOL    HW118155   4.108   0.259   6.880 -1.7237 -0.5252  1.2086
 2174SOL    HW218156   4.017   0.133   6.872  0.2726 -1.8191 -1.1906
 2175SOL     OW18157   0.383   2.910   4.100 -0.0022 -0.2682 -0.0862
 2175SOL    HW118158   0.412   2.967   4.029  2.2222 -0.5149  0.6280
 2175SOL    HW218159   0.423   2.955   4.175 -1.1790 -0.3919  0.6022
 2176SOL     OW18160   0.185   4.643  13.771  0.5897  0.0697 -0.0140
 2176SOL    HW118161   0.229   4.559  13.764  0.7372  0.1834 -0.4151
 2176SOL    HW218162   0.250   4.702  13.733 -0.3591  1.2238  0.1526
 2177SOL     OW18163   2.706   3.494   9.834 -0.0902  0.6686 -0.2059
 2177SOL    HW118164   2.630   3.545   9.862 -0.9711 -0.6344 -0.2239
 2177SOL    HW218165   2.740   3.536   9.754  0.0244  0.8197 -0.0776
 2178SOL     OW18166   1.795   2.491  11.387  0.0095 -0.2903 -0.6444
 2178SOL    HW118167   1.840   2.408  11.372  1.7795  0.4897  0.2226
 2178SOL    HW218168   1.877   2.540  11.398  0.5899 -1.4416  0.2114
 2179SOL     OW18169   3.060   0.891   6.617  1.4884  0.4192  0.7172
 2179SOL    HW118170   3.047   0.858   6.706  0.7028 -1.3594 -0.0673
 2179SOL    HW218171   3.068   0.983   6.643  0.5652  0.4916  0.7441
 2180SOL     OW18172   3.331   3.392  16.497  0.0841 -0.3104 -0.2578
 2180SOL    HW118173   3.408   3.343  16.525 -0.0125  1.1439  2.5319
 2180SOL    HW218174   3.261   3.330  16.517  0.1240 -0.1193  0.4675
 2181SOL     OW18175   4.422   3.545   8.942  0.0991 -0.1702 -1.0474
 2181SOL    HW118176   4.465   3.485   9.003  0.0427  0.9496  0.0835
 2181SOL    HW218177   4.416   3.615   9.007  0.9902  0.9522 -2.1817
 2182SOL     OW18178   3.536   1.369   3.871 -0.3775  0.1780  0.2204
 2182SOL    HW118179   3.499   1.457   3.881 -0.8047  0.2398 -1.7632
 2182SOL    HW218180   3.624   1.376   3.906  0.0000 -0.4693 -0.5821
 2183SOL     OW18181   3.481   1.981   1.161  0.5328  0.1392  0.8906
 2183SOL    HW118182   3.431   2.040   1.105  0.8178  0.7724  1.3145
 2183SOL    HW218183   3.566   1.992   1.117 -1.0339 -0.3890 -2.2837
 2184SOL     OW18184   2.876   0.200  14.985  0.4347 -0.1762 -0.3639
 2184SOL    HW118185   2.905   0.154  14.907  2.9468  0.2091  0.3463
 2184SOL    HW218186   2.806   0.258  14.953  0.0978 -1.1226 -1.3635
 2185SOL     OW18187   2.121   0.001   1.595  0.6336 -0.2584  0.4853
 2185SOL    HW118188   2.046   4.684   1.570  0.5606  0.6894 -1.3479
 2185SOL    HW218189   2.071   0.068   1.641 -1.0017 -0.5566 -0.8537
 2186SOL     OW18190   0.562   1.143   3.219  0.1677 -0.2949 -0.7670
 2186SOL    HW118191   0.603   1.063   3.253 -0.6782  0.1551  1.3611
 2186SOL    HW218192   0.526   1.185   3.297 -0.6144 -1.0833 -0.7016
 2187SOL     OW18193   2.131   1.246   2.422  0.1803  0.2197 -0.3817
 2187SOL    HW118194   2.117   1.276   2.512 -0.2302  0.3328 -0.4819
 2187SOL    HW218195   2.149   1.332   2.385 -2.3921  1.5641  1.5015
 2188SOL     OW18196   1.890   2.183   4.306  0.3630 -0.1771  0.6128
 2188SOL    HW118197   1.893   2.089   4.323  0.4487 -0.2221  0.3462
 2188SOL    HW218198   1.826   2.188   4.236  0.0555  1.2656  0.9953
 2189SOL     OW18199   2.663   2.191   3.825  0.2379  0.5886  0.0480
 2189SOL    HW118200   2.745   2.157   3.862  1.1156  2.6256 -0.0611
 2189SOL    HW218201   2.614   2.211   3.905  1.4576 -0.1552  0.9900
 2190SOL     OW18202   3.393   3.220   3.857 -0.5386  0.4446 -1.1250
 2190SOL    HW118203   3.467   3.198   3.801 -0.8645 -0.8786 -1.0488
 2190SOL    HW218204   3.341   3.139   3.861  0.6229 -0.2469 -0.0127
 2191SOL     OW18205   1.802   1.445   7.934  0.3257 -0.7522 -0.3257
 2191SOL    HW118206   1.883   1.473   7.892 -0.0530 -0.7545 -1.0535
 2191SOL    HW218207   1.783   1.358   7.897 -0.2870 -0.2172 -1.2521
 2192SOL     OW18208   0.168   2.972  13.472 -0.1411 -0.0852  0.0901
 2192SOL    HW118209   0.138   3.048  13.522  0.1595  0.4478 -0.5514
 2192SOL    HW218210   0.186   3.011  13.387 -0.5490  1.9453  0.9310
 2193SOL     OW18211   3.104   3.291   5.088 -0.5119  0.3775  0.7085
 2193SOL    HW118212   3.048   3.368   5.075 -0.2275  0.3511 -0.6252
 2193SOL    HW218213   3.069   3.237   5.017 -2.7714 -0.1572  2.2020
 2194SOL     OW18214   2.169   1.680   8.624  0.1098  0.4168  0.0120
 2194SOL    HW118215   2.243   1.620   8.618  0.6383  1.1519 -0.7276
 2194SOL    HW218216   2.215   1.749   8.671  1.9446  2.9114 -5.5384
 2195SOL     OW18217   4.052   3.074  10.619  0.3412 -0.1836  0.6334
 2195SOL    HW118218   4.079   3.089  10.529  1.3488  0.2307  0.9997
 2195SOL    HW218219   4.075   3.156  10.664  0.1631  0.2664 -0.0926
 2196SOL     OW18220   3.156   3.912  17.416  0.1901 -0.4030  0.1305
 2196SOL    HW118221   3.143   3.965  17.337  1.7831  0.1197  0.2104
 2196SOL    HW218222   3.243   3.872  17.414  0.9443  1.3464 -1.4615
 2197SOL     OW18223   4.313   0.465  11.811 -0.2285  0.5989 -0.1544
 2197SOL    HW118224   4.264   0.390  11.777  0.7366 -0.2244  0.2846
 2197SOL    HW218225   4.258   0.494  11.885 -0.0758 -0.2569  0.2881
 2198SOL     OW18226   2.873   3.217   5.804 -0.2052  0.3230  0.0765
 2198SOL    HW118227   2.814   3.283   5.839 -2.4967 -0.9052 -1.5089
 2198SOL    HW218228   2.942   3.274   5.768 -1.2556  0.2210 -2.0963
 2199SOL     OW18229   1.307   1.931   3.244  0.8609 -0.1710 -0.4425
 2199SOL    HW118230   1.372   1.917   3.312  0.9443 -2.1861 -0.9316
 2199SOL    HW218231   1.291   2.024   3.258 -2.1589 -0.9611  1.5419
 2200SOL     OW18232   1.993   4.659   3.158  0.4775  0.2487  0.4073
 2200SOL    HW118233   2.009   0.000   3.105 -0.8899  1.2923  1.5736
 2200SOL    HW218234   1.928   4.618   3.101  1.5786 -0.7156 -0.1724
 2201SOL     OW18235   3.993   3.487   8.817 -0.4962 -0.5604 -0.6106
 2201SOL    HW118236   3.946   3.415   8.775  0.5077 -1.3494 -0.3808
 2201SOL    HW218237   3.921   3.549   8.831  0.4852  0.2489  0.8247
 2202SOL     OW18238   2.595   2.299   6.964  0.7529  0.1154  0.0773
 2202SOL    HW118239   2.615   2.392   6.954 -0.1032  0.1392 -1.4269
 2202SOL    HW218240   2.669   2.258   7.007  0.7366  0.0836  0.0745
 2203SOL     OW18241   0.774   2.821   6.854  0.5179  0.1190 -0.0749
 2203SOL    HW118242   0.708   2.751   6.853 -0.3003  0.9096 -1.5784
 2203SOL    HW218243   0.820   2.797   6.773  1.2479  2.4937 -0.3548
 2204SOL     OW18244   4.293   2.573   9.992 -0.1942 -0.0054 -0.4170
 2204SOL    HW118245   4.237   2.507  10.032  1.3501 -0.1459  1.5391
 2204SOL    HW218246   4.374   2.554  10.040 -0.5112 -3.4707 -1.2395
 2205SOL     OW18247   0.784   1.344  17.035 -0.0253  0.0053 -0.2388
 2205SOL    HW118248   0.754   1.358  16.945 -0.9424 -0.3291  0.0171
 2205SOL    HW218249   0.744   1.419  17.080  2.0596  1.0663 -0.1477
 2206SOL     OW18250   3.974   4.625   1.284 -0.0251 -0.4531  0.1918
 2206SOL    HW118251   3.987   4.674   1.365  1.7386 -0.9878  0.2298
 2206SOL    HW218252   3.923   4.551   1.317 -1.1480  0.5706  0.7272
 2207SOL     OW18253   4.380   3.051   4.301 -0.1336  0.2219  0.2824
 2207SOL    HW118254   4.394   3.127   4.244  0.4571 -0.6283 -0.6880
 2207SOL    HW218255   4.317   2.996   4.255 -0.5858  2.3919 -1.6769
 2208SOL     OW18256   1.822   3.044   6.695  0.5079 -0.1004 -0.7380
 2208SOL    HW118257   1.754   3.043   6.628  1.2908  0.9928 -1.5508
 2208SOL    HW218258   1.791   3.120   6.746 -1.2930 -1.7210  0.5624
 2209SOL     OW18259   2.111   3.463  15.869  0.4340  0.6103  0.4544
 2209SOL    HW118260   2.048   3.404  15.829  0.7276 -0.3768  1.4718
 2209SOL    HW218261   2.121   3.421  15.954 -1.1684  1.6146  1.1356
 2210SOL     OW18262   1.060   1.602   7.103  0.2158 -0.0284 -0.2910
 2210SOL    HW118263   1.153   1.621   7.115 -0.0175  1.5364 -0.8925
 2210SOL    HW218264   1.051   1.533   7.038  2.0802  1.5565 -2.2173
 2211SOL     OW18265   1.020   0.167  17.286  0.0915 -0.3193  0.6519
 2211SOL    HW118266   1.085   0.100  17.268  1.0498  0.8420 -0.2406
 2211SOL    HW218267   1.055   0.253  17.261 -1.3011  0.4559  1.3909
 2212SOL     OW18268   2.493   0.471   4.327  0.4696  0.2889 -0.2597
 2212SOL    HW118269   2.481   0.441   4.237 -2.1647  0.1718  0.1366
 2212SOL    HW218270   2.404   0.467   4.362  0.4045 -0.3346 -0.5015
 2213SOL     OW18271   3.299   3.084   8.302  0.1018 -0.1681 -0.2254
 2213SOL    HW118272   3.216   3.117   8.268  0.2396  1.5210  1.0848
 2213SOL    HW218273   3.275   3.033   8.379  3.5636 -1.2744  0.1063
 2214SOL     OW18274   3.892   1.240   5.625  0.1416  0.2117  0.2645
 2214SOL    HW118275   3.863   1.277   5.542 -1.9140 -2.0797 -0.0448
 2214SOL    HW218276   3.969   1.187   5.604 -0.2616 -0.2303 -0.0771
 2215SOL     OW18277   1.700   0.347   5.229 -0.5414 -0.4990  0.5635
 2215SOL    HW118278   1.610   0.322   5.251 -0.3915 -0.5609  1.0968
 2215SOL    HW218279   1.748   0.267   5.248  0.0217 -0.5946 -1.2858
 2216SOL     OW18280   1.569   0.955   4.189 -0.0982 -0.3680 -0.6137
 2216SOL    HW118281   1.558   0.864   4.218 -2.1690 -1.1580 -3.9572
 2216SOL    HW218282   1.642   0.954   4.127 -0.4099 -0.1647 -0.9848
 2217SOL     OW18283   2.984   1.420   1.741 -0.5954 -0.3632  0.9488
 2217SOL    HW118284   2.923   1.447   1.809 -0.9990  3.2437 -0.8428
 2217SOL    HW218285   3.008   1.332   1.772 -0.1154 -0.5608  0.0170
 2218SOL     OW18286   1.624   0.735  13.531 -0.3502  0.3186  0.5658
 2218SOL    HW118287   1.591   0.824  13.542 -0.8723  0.1961 -0.0245
 2218SOL    HW218288   1.662   0.711  13.615 -2.0415  1.5978  1.6845
 2219SOL     OW18289   3.948   3.644   2.854  0.5256  0.3158  0.8939
 2219SOL    HW118290   3.896   3.687   2.786  0.2038 -1.9039 -0.2536
 2219SOL    HW218291   3.983   3.562   2.819  1.1523 -0.0302  2.3654
 2220SOL     OW18292   3.246   4.691   0.204  0.5181  0.1989  0.6444
 2220SOL    HW118293   3.216   4.633   0.134  1.1887  2.3637 -1.4643
 2220SOL    HW218294   3.311   0.005   0.155  1.7639 -1.2450  0.8040
 2221SOL     OW18295   2.015   1.540  10.340 -0.0668  0.2240 -0.9649
 2221SOL    HW118296   2.092   1.561  10.287  0.9177 -1.4815 -0.2065
 2221SOL    HW218297   1.999   1.447  10.322  0.3462 -0.3085  1.3857
 2222SOL     OW18298   4.136   4.698   4.986  0.2931  0.0066 -0.5687
 2222SOL    HW118299   4.120   4.735   4.899 -1.5158 -0.9023 -0.6323
 2222SOL    HW218300   4.182   4.617   4.964 -1.8665 -0.6124 -2.8317
 2223SOL     OW18301   4.543   0.457  16.506 -0.1941  0.8826  0.4560
 2223SOL    HW118302   4.554   0.521  16.575 -0.4622  0.1630  1.1599
 2223SOL    HW218303   4.594   0.497  16.435 -0.9800  1.1275  0.0296
 2224SOL     OW18304   4.532   4.735   9.322  0.3429  0.5249 -0.6586
 2224SOL    HW118305   4.508   4.650   9.358 -2.9668  1.8022  0.1207
 2224SOL    HW218306   4.584   0.034   9.394 -1.2346  2.5582 -0.5262
 2225SOL     OW18307   0.442   1.890   2.471 -0.1961  0.0945 -0.4689
 2225SOL    HW118308   0.434   1.802   2.434  0.9926  0.4797 -1.5977
 2225SOL    HW218309   0.352   1.885   2.505 -0.1355 -0.3645 -0.3672
 2226SOL     OW18310   2.218   2.639   6.323 -0.5825  0.1591 -0.1621
 2226SOL    HW118311   2.236   2.731   6.341  3.9089 -0.7482 -0.1082
 2226SOL    HW218312   2.234   2.589   6.403  1.1842  1.7511  0.4692
 2227SOL     OW18313   3.814   4.162   7.671 -0.0400 -0.0528 -0.0242
 2227SOL    HW118314   3.901   4.172   7.709 -0.0036  2.5352 -0.8339
 2227SOL    HW218315   3.763   4.196   7.745  2.3720  1.2229  1.0472
 2228SOL     OW18316   1.091   1.622   1.646 -0.1003 -0.3902  0.1611
 2228SOL    HW118317   1.172   1.575   1.666 -0.9034 -1.8159  0.0976
 2228SOL    HW218318   1.036   1.549   1.618  1.7492 -0.9454 -1.9926
 2229SOL     OW18319   0.940   0.269   3.774  0.4685  0.1105  0.4130
 2229SOL    HW118320   0.890   0.241   3.850 -1.5364 -0.8170 -1.2498
 2229SOL    HW218321   0.977   0.346   3.817  0.2376  1.2607 -1.4112
 2230SOL     OW18322   2.772   1.344  13.797  0.3643  0.4278  0.3519
 2230SOL    HW118323   2.682   1.313  13.807 -0.0622  1.1829 -1.1991
 2230SOL    HW218324   2.814   1.261  13.773  0.0957 -0.5598  3.3019
 2231SOL     OW18325   3.818   2.047   8.102  0.6604  0.4319  0.2592
 2231SOL    HW118326   3.816   2.142   8.113 -1.1206  0.7457 -2.7568
 2231SOL    HW218327   3.775   2.014   8.181 -0.0078 -1.3048 -0.8135
 2232SOL     OW18328   3.534   3.294   3.297 -0.2717  0.4567  0.4153
 2232SOL    HW118329   3.451   3.268   3.336 -0.4275 -0.1719 -0.3344
 2232SOL    HW218330   3.560   3.212   3.254 -1.0508  0.0392  0.7321
 2233SOL     OW18331   3.495   3.556   3.363  0.1424 -0.8730  0.4803
 2233SOL    HW118332   3.536   3.470   3.357  1.3106 -0.3191  0.5075
 2233SOL    HW218333   3.441   3.568   3.441  0.1933  0.5382  0.3056
 2234SOL     OW18334   0.194   1.430   2.831  0.0330 -0.1646  0.2021
 2234SOL    HW118335   0.268   1.404   2.887  1.2007  3.5636  0.4145
 2234SOL    HW218336   0.143   1.351   2.848  0.5754 -0.0749  2.3178
 2235SOL     OW18337   2.284   4.139  10.145 -0.0299 -0.0799  0.2800
 2235SOL    HW118338   2.225   4.104  10.211  1.1409 -0.3570  1.1695
 2235SOL    HW218339   2.221   4.205  10.116  2.0999  1.9340  0.1779
 2236SOL     OW18340   3.401   2.076   4.042  0.1397 -0.0070  0.1898
 2236SOL    HW118341   3.373   2.165   4.065  0.5349 -0.2454  1.6167
 2236SOL    HW218342   3.339   2.049   3.975 -1.2157  1.8399  0.7015
 2237SOL     OW18343   2.808   1.268   7.804 -0.0192  0.5521 -0.2820
 2237SOL    HW118344   2.785   1.304   7.718 -2.9232  1.3794  0.8279
 2237SOL    HW218345   2.757   1.187   7.807 -1.2989  1.3494 -0.1050
 2238SOL     OW18346   0.785   0.817   3.983 -0.2775  0.5917 -0.3424
 2238SOL    HW118347   0.846   0.747   4.007 -1.0045 -0.0372 -0.3304
 2238SOL    HW218348   0.750   0.777   3.904  0.3792 -2.1303  0.7555
 2239SOL     OW18349   1.651   0.872   8.300 -0.5044 -0.3556 -0.6420
 2239SOL    HW118350   1.623   0.822   8.223  1.4840 -0.0879 -1.5466
 2239SOL    HW218351   1.575   0.919   8.335  1.3103  0.9314  1.5619
 2240SOL     OW18352   2.476   2.780  12.592 -0.2295 -0.7130 -0.5643
 2240SOL    HW118353   2.431   2.808  12.672 -0.5072  1.2089 -1.4096
 2240SOL    HW218354   2.519   2.700  12.624  0.3596 -0.1208  0.1221
 2241SOL     OW18355   4.167   3.647   9.031 -0.4799 -0.2971  0.1772
 2241SOL    HW118356   4.180   3.552   9.036  1.4587 -0.1174 -1.6510
 2241SOL    HW218357   4.157   3.664   9.125  0.6395 -1.2017  0.4582
 2242SOL     OW18358   3.214   0.295   4.850  0.0445 -0.1394  0.6330
 2242SOL    HW118359   3.243   0.286   4.940 -0.6465  1.1321  0.9710
 2242SOL    HW218360   3.129   0.336   4.863  0.0625  0.1716 -0.1995
 2243SOL     OW18361   3.029   1.797   4.369 -1.0956 -0.5078 -0.3398
 2243SOL    HW118362   3.010   1.726   4.308  1.2696 -0.7110 -0.8364
 2243SOL    HW218363   3.088   1.857   4.323  0.4128 -3.0047 -1.6356
 2244SOL     OW18364   4.540   1.293   4.630 -0.1116  0.4857  0.5201
 2244SOL    HW118365   4.449   1.322   4.632 -0.5244 -0.7530 -0.1675
 2244SOL    HW218366   4.572   1.360   4.689 -0.9406  3.4479 -2.3774
 2245SOL     OW18367   0.608   1.545   5.778 -0.3825 -0.2159  0.0246
 2245SOL    HW118368   0.623   1.538   5.872 -0.0963  1.2752  0.0860
 2245SOL    HW218369   0.567   1.460   5.762 -4.4880  1.6884  0.5380
 2246SOL     OW18370   3.349   3.852   7.470  0.5249 -0.0935  0.0588
 2246SOL    HW118371   3.392   3.769   7.451 -0.5548 -0.7308  0.3980
 2246SOL    HW218372   3.343   3.863   7.564 -2.9461 -2.1416  0.0762
 2247SOL     OW18373   1.093   4.333   8.913  0.5323 -0.0116 -0.1064
 2247SOL    HW118374   1.067   4.266   8.977  0.2094 -2.0303 -2.3761
 2247SOL    HW218375   1.052   4.302   8.833  1.0166  0.6903 -0.6244
 2248SOL     OW18376   2.553   4.650  13.075  0.3267  0.4298 -0.0768
 2248SOL    HW118377   2.629   4.680  13.126  1.4987 -2.1949 -0.2675
 2248SOL    HW218378   2.482   4.705  13.107  0.7362  1.2038 -0.5000
 2249SOL     OW18379   4.308   1.231  16.841  0.2996  0.8805  0.1691
 2249SOL    HW118380   4.294   1.137  16.831  1.6140  0.3355  3.2854
 2249SOL    HW218381   4.376   1.250  16.776  0.2397  0.6315  0.0336
 2250SOL     OW18382   3.562   3.855   3.359  0.4389  0.5896  0.4623
 2250SOL    HW118383   3.585   3.766   3.388  1.5232  0.9310  0.6196
 2250SOL    HW218384   3.519   3.847   3.273 -0.4369 -1.3312  1.0664
 2251SOL     OW18385   0.048   1.965   5.645  0.1763  0.6211  0.0878
 2251SOL    HW118386   0.113   1.901   5.675  0.6832  0.6854 -0.8910
 2251SOL    HW218387   0.085   1.980   5.558  1.4548  0.7800  0.6501
 2252SOL     OW18388   1.007   1.058  16.715  0.2321  0.0780 -0.4498
 2252SOL    HW118389   0.936   1.098  16.665 -1.4149  1.5193  3.0610
 2252SOL    HW218390   0.969   1.020  16.793 -1.3254  2.5671 -0.0023
 2253SOL     OW18391   2.992   0.616   9.444 -0.0820  0.0115  0.5218
 2253SOL    HW118392   3.004   0.611   9.539 -1.7225 -0.8281  0.6755
 2253SOL    HW218393   3.060   0.665   9.398  1.5662 -1.6715  1.1630
 2254SOL     OW18394   0.628   2.505   9.747 -0.5329  0.1158 -0.1216
 2254SOL    HW118395   0.687   2.477   9.816 -1.3300  0.7399  0.8101
 2254SOL    HW218396   0.670   2.578   9.700  0.5048 -1.4442 -1.6041
 2255SOL     OW18397   3.595   3.858   6.619  0.0282 -0.6588  0.2426
 2255SOL    HW118398   3.531   3.793   6.649  2.0644 -2.5019  0.5584
 2255SOL    HW218399   3.597   3.839   6.525  0.3521  0.3501  0.0444
 2256SOL     OW18400   1.380   1.873  12.266  0.2720 -0.1570  0.2609
 2256SOL    HW118401   1.328   1.867  12.346  1.4960 -2.4835  0.8859
 2256SOL    HW218402   1.373   1.967  12.246 -2.0501  0.3723  3.6292
 2257SOL     OW18403   3.103   4.100   2.748  0.1993 -0.2136  0.2566
 2257SOL    HW118404   3.152   4.043   2.808  1.5137 -0.5896 -1.1566
 2257SOL    HW218405   3.091   4.184   2.792  2.3887 -0.7340  1.8519
 2258SOL     OW18406   1.003   4.238   0.349  0.8611 -0.1537  0.1939
 2258SOL    HW118407   1.094   4.265   0.366  1.2422 -1.0361 -0.4377
 2258SOL    HW218408   1.003   4.147   0.381  1.2384  0.1477  1.0725
 2259SOL     OW18409   0.425   1.918  14.414  0.0777  0.4473  0.0990
 2259SOL    HW118410   0.383   1.834  14.433  1.3176 -0.1716  0.1710
 2259SOL    HW218411   0.414   1.922  14.319 -1.0770  3.0636  0.3638
 2260SOL     OW18412   4.648   1.522   2.171  0.0374 -0.3671 -0.4261
 2260SOL    HW118413   4.569   1.575   2.183  0.2925 -0.2004  0.5114
 2260SOL    HW218414   4.613   1.471   2.098  2.1704 -0.4356 -1.3861
 2261SOL     OW18415   3.556   1.545   1.643  0.4587  0.4749  0.1105
 2261SOL    HW118416   3.566   1.609   1.572  0.9037  0.0348 -0.2230
 2261SOL    HW218417   3.605   1.467   1.616 -0.7469 -0.6442  1.1824
 2262SOL     OW18418   1.001   0.851   7.533 -0.5337 -0.4937  0.6813
 2262SOL    HW118419   0.923   0.809   7.497 -1.3473  2.9565 -1.6290
 2262SOL    HW218420   1.052   0.779   7.571 -1.4837 -0.2215  2.4541
 2263SOL     OW18421   1.527   3.938   7.711  0.0443  0.3032  0.3857
 2263SOL    HW118422   1.440   3.913   7.681 -0.0608  1.1762 -0.0239
 2263SOL    HW218423   1.579   3.857   7.719  1.5137  1.2876  0.7753
 2264SOL     OW18424   2.090   1.775   2.503 -0.0473 -0.1321  0.3952
 2264SOL    HW118425   2.000   1.780   2.533  0.0706 -2.0016  1.0857
 2264SOL    HW218426   2.077   1.693   2.455 -1.3980  0.9897 -1.1445
 2265SOL     OW18427   1.880   0.795   5.968  0.6142  0.5041 -0.3320
 2265SOL    HW118428   1.922   0.753   5.894  0.8178  2.0566 -1.1033
 2265SOL    HW218429   1.849   0.871   5.917 -1.1100  0.3761  0.5042
 2266SOL     OW18430   4.617   3.871   5.264  0.3689 -0.5851 -0.5700
 2266SOL    HW118431   4.703   3.904   5.289 -0.3138  0.5221  0.2927
 2266SOL    HW218432   4.587   3.815   5.335 -1.0055  0.8239 -0.0498
 2267SOL     OW18433   2.396   2.934  13.673 -0.2501 -0.1346  0.3459
 2267SOL    HW118434   2.373   3.023  13.646  0.4735 -0.5356 -1.6485
 2267SOL    HW218435   2.381   2.934  13.767  0.2689 -0.4995  0.4283
 2268SOL     OW18436   1.425   2.788   7.303  0.2215  0.4940 -0.3982
 2268SOL    HW118437   1.352   2.815   7.247  0.1876  0.1172 -0.5401
 2268SOL    HW218438   1.437   2.857   7.368  3.6633  1.1643 -1.7622
 2269SOL     OW18439   0.634   1.623   0.522  0.6143 -0.2265 -0.0282
 2269SOL    HW118440   0.705   1.680   0.491 -0.0266  0.3609 -0.4227
 2269SOL    HW218441   0.569   1.640   0.454 -0.7577 -0.7157  1.1580
 2270SOL     OW18442   0.089   0.684   2.694 -0.0271 -0.1359 -0.2009
 2270SOL    HW118443   0.154   0.742   2.653 -0.1195  0.3721  0.3609
 2270SOL    HW218444   0.143   0.606   2.683  0.5176  0.1599  0.3839
 2271SOL     OW18445   4.165   0.311   7.302 -0.0446  0.5953 -0.3510
 2271SOL    HW118446   4.144   0.405   7.306 -0.6569  0.4168  0.8384
 2271SOL    HW218447   4.258   0.308   7.283 -0.2905 -1.1028 -1.2461
 2272SOL     OW18448   2.786   0.318   3.861 -0.3223 -0.2315 -0.7188
 2272SOL    HW118449   2.715   0.279   3.810 -0.7386 -1.5738  0.9074
 2272SOL    HW218450   2.786   0.244   3.921 -1.8631  1.3305  1.1979
 2273SOL     OW18451   2.693   1.051   6.856 -0.1240  0.3986  0.0381
 2273SOL    HW118452   2.607   1.022   6.824 -0.2354  1.5398 -0.6804
 2273SOL    HW218453   2.658   1.121   6.911 -0.1152 -1.1381  1.9929
 2274SOL     OW18454   3.057   2.263  17.578  0.4004  0.2908 -0.1993
 2274SOL    HW118455   3.093   2.284  17.492  1.0384 -1.1368 -0.2891
 2274SOL    HW218456   2.969   2.299  17.566  0.0991 -0.9912 -1.9711
 2275SOL     OW18457   4.581   3.023   9.398  0.2621  0.4875  0.0664
 2275SOL    HW118458   4.512   3.059   9.454  0.4329  0.5592  0.2274
 2275SOL    HW218459   4.542   2.947   9.355 -2.8158  0.3715  3.1012
 2276SOL     OW18460   0.857   4.336  15.273  0.2915  0.0177 -0.4016
 2276SOL    HW118461   0.885   4.427  15.288  1.3402 -0.1801 -1.1669
 2276SOL    HW218462   0.780   4.338  15.329  0.5190 -1.6828 -0.0253
 2277SOL     OW18463   0.693   2.739   8.631 -0.5128 -0.2569 -0.2360
 2277SOL    HW118464   0.690   2.721   8.537 -2.0688  1.1310 -0.4652
 2277SOL    HW218465   0.657   2.828   8.628 -0.5107 -0.2893 -1.1483
 2278SOL     OW18466   4.480   4.512   9.685  0.6232 -0.1773  0.2769
 2278SOL    HW118467   4.527   4.596   9.693  1.5171 -0.6845  0.3740
 2278SOL    HW218468   4.391   4.546   9.695  0.3917  0.0833 -2.7881
 2279SOL     OW18469   3.833   0.608  11.013 -0.3706  0.3010 -0.2855
 2279SOL    HW118470   3.745   0.619  10.978 -0.4470  0.0426 -0.1733
 2279SOL    HW218471   3.819   0.600  11.108  0.0437  1.2846 -0.1424
 2280SOL     OW18472   1.257   0.293  12.395 -0.1147 -0.6205  0.2106
 2280SOL    HW118473   1.187   0.230  12.381  1.9689 -2.3996 -2.2362
 2280SOL    HW218474   1.263   0.286  12.490  0.4629  1.2619  0.3319
 2281SOL     OW18475   1.675   2.891   9.562  0.3549 -1.1779  0.7795
 2281SOL    HW118476   1.686   2.977   9.602  0.8025 -0.6685 -0.4198
 2281SOL    HW218477   1.580   2.894   9.548  0.7160 -1.3234 -1.8448
 2282SOL     OW18478   2.722   4.066   2.325 -0.4660 -0.1576 -0.1050
 2282SOL    HW118479   2.759   4.051   2.412 -0.6154 -0.0882 -0.0286
 2282SOL    HW218480   2.733   4.161   2.319 -2.7448  0.1858  1.0302
 2283SOL     OW18481   3.831   0.071   8.823  0.2359 -0.0537  0.2308
 2283SOL    HW118482   3.832   0.078   8.918  0.3823 -0.1295  0.2349
 2283SOL    HW218483   3.841   0.165   8.808 -0.3575 -0.0144  0.0759
 2284SOL     OW18484   0.817   4.477  10.112 -0.3722  0.0859 -0.6360
 2284SOL    HW118485   0.869   4.416  10.166 -0.7957  0.3142  0.0319
 2284SOL    HW218486   0.854   4.470  10.024  0.3044  0.4016 -0.3802
 2285SOL     OW18487   3.649   1.529   5.699  0.0874  0.3545  0.1286
 2285SOL    HW118488   3.662   1.542   5.605  0.8280  2.8402  0.5684
 2285SOL    HW218489   3.591   1.453   5.700  0.7704 -0.1933 -2.1208
 2286SOL     OW18490   0.360   0.306   3.426 -0.7671 -0.1914  0.3171
 2286SOL    HW118491   0.265   0.299   3.432 -0.8314 -0.9919 -1.5792
 2286SOL    HW218492   0.373   0.398   3.447 -0.5595 -0.6419  2.1439
 2287SOL     OW18493   4.569   2.689   3.704  0.2321 -0.1764 -0.7399
 2287SOL    HW118494   4.475   2.705   3.689  0.5305  0.6873 -1.7286
 2287SOL    HW218495   4.570   2.732   3.789 -0.0914  1.2834 -1.4708
 2288SOL     OW18496   3.634   2.107  14.841  0.4295 -0.5050 -0.4987
 2288SOL    HW118497   3.643   2.176  14.775 -0.7064 -1.8799 -2.0770
 2288SOL    HW218498   3.542   2.118  14.865  0.9588  2.5593  0.1863
 2289SOL     OW18499   3.001   1.482   3.583  0.0751  0.3015  0.3997
 2289SOL    HW118500   2.926   1.468   3.641 -1.7552 -0.3256 -2.1508
 2289SOL    HW218501   3.074   1.482   3.646  1.2949 -0.7437 -1.0310
 2290SOL     OW18502   2.485   2.698   3.486 -0.1630  0.0960 -0.0674
 2290SOL    HW118503   2.429   2.764   3.529 -0.6445  0.2584 -0.9431
 2290SOL    HW218504   2.424   2.659   3.424  1.0562 -2.2337  0.2257
 2291SOL     OW18505   1.333   2.134  12.227 -0.2135 -0.0638 -0.3777
 2291SOL    HW118506   1.399   2.157  12.292 -0.4937 -1.2748  0.3607
 2291SOL    HW218507   1.328   2.216  12.180  0.9816 -0.4423 -1.1521
 2292SOL     OW18508   0.892   1.349   4.724 -0.3821 -0.7000 -0.8002
 2292SOL    HW118509   0.894   1.317   4.634 -0.9953 -0.8094 -0.7739
 2292SOL    HW218510   0.984   1.339   4.749 -0.5338  3.2715  1.3187
 2293SOL     OW18511   2.218   2.316   7.638  0.4487 -0.7921 -0.0525
 2293SOL    HW118512   2.170   2.393   7.609  2.1177 -0.1002 -0.9801
 2293SOL    HW218513   2.297   2.328   7.585  0.2633  2.7989  0.4539
 2294SOL     OW18514   1.873   0.428  11.559  0.1284  0.3209 -0.3867
 2294SOL    HW118515   1.782   0.411  11.535 -0.4291  1.0236  1.2660
 2294SOL    HW218516   1.900   0.464  11.474  1.8498  0.0400  0.0287
 2295SOL     OW18517   1.081   3.048   4.608  0.0900 -0.1984 -0.2168
 2295SOL    HW118518   1.162   3.004   4.584  0.5272  1.7022 -2.2557
 2295SOL    HW218519   1.027   3.014   4.536  0.4604  1.5708 -1.3443
 2296SOL     OW18520   1.659   3.145   7.698  0.4616 -0.3499  0.0384
 2296SOL    HW118521   1.566   3.126   7.682 -0.0202  2.0819 -0.1417
 2296SOL    HW218522   1.676   3.126   7.790  1.0529 -0.0101 -0.0044
 2297SOL     OW18523   2.212   3.906   8.215 -0.6834  0.5552 -0.3882
 2297SOL    HW118524   2.178   3.833   8.268  0.6102  0.5935  0.4842
 2297SOL    HW218525   2.158   3.971   8.261  1.0735  1.4269  0.4429
 2298SOL     OW18526   0.361   2.208   2.324  0.2870  1.0488  0.2234
 2298SOL    HW118527   0.377   2.135   2.263  0.9636  0.2302  1.3845
 2298SOL    HW218528   0.266   2.201   2.313  0.1289  2.9211  0.5085
 2299SOL     OW18529   0.022   0.706   0.094  0.1310  0.2899 -0.6420
 2299SOL    HW118530   0.043   0.702   0.001 -0.5934  1.3970 -0.8523
 2299SOL    HW218531   4.678   0.756   0.087  0.9381  1.9235  1.5460
 2300SOL     OW18532   2.126   1.927  13.470  0.1200 -0.4114  0.6205
 2300SOL    HW118533   2.108   1.938  13.376  0.0868  0.5052  0.7347
 2300SOL    HW218534   2.037   1.901  13.493 -1.3855  3.1973 -1.0453
 2301SOL     OW18535   3.065   1.279   2.428 -0.0068  0.2586  0.1969
 2301SOL    HW118536   3.012   1.271   2.507 -1.6040  1.3840 -0.7615
 2301SOL    HW218537   2.998   1.291   2.360  1.6775  2.9867 -0.9518
 2302SOL     OW18538   1.732   1.419   8.394 -0.7963  0.1591 -0.0950
 2302SOL    HW118539   1.644   1.385   8.375 -0.9072  0.1895  0.3591
 2302SOL    HW218540   1.749   1.373   8.476  2.8415  1.4968 -0.1098
 2303SOL     OW18541   1.595   2.773   8.950  0.8134 -0.4010  0.3431
 2303SOL    HW118542   1.516   2.736   8.910 -0.1973  0.2135  1.7512
 2303SOL    HW218543   1.560   2.789   9.038 -1.7217  0.9703 -0.9014
 2304SOL     OW18544   3.407   3.256  16.827 -0.1421 -0.3211  0.0037
 2304SOL    HW118545   3.378   3.346  16.811 -0.1411 -0.4385 -0.6554
 2304SOL    HW218546   3.329   3.206  16.849  0.5216 -0.1755  2.6376
 2305SOL     OW18547   4.701   0.219  11.672 -0.9856 -0.1885  0.3421
 2305SOL    HW118548   4.690   0.313  11.680  2.4033  0.1558  1.1140
 2305SOL    HW218549   4.639   0.190  11.738 -1.6960  3.5096  1.2911
 2306SOL     OW18550   0.883   2.095   9.120  0.0475  0.3982  0.3495
 2306SOL    HW118551   0.801   2.134   9.090  0.0002 -0.5358 -0.6861
 2306SOL    HW218552   0.947   2.133   9.060  2.5341  0.1173  2.8281
 2307SOL     OW18553   1.383   0.305   9.397  0.0053 -0.0877  0.0136
 2307SOL    HW118554   1.329   0.234   9.433  1.2607 -1.7868 -1.4593
 2307SOL    HW218555   1.328   0.360   9.341 -1.0553  0.6514  1.7728
 2308SOL     OW18556   3.983   3.947  17.029 -0.4202  0.4458  0.9214
 2308SOL    HW118557   4.059   3.992  16.992 -0.3176 -1.9651 -1.8149
 2308SOL    HW218558   4.024   3.902  17.103  0.0090  1.6492  1.4217
 2309SOL     OW18559   3.978   3.974   4.681 -0.2747 -0.2113 -0.6406
 2309SOL    HW118560   4.006   4.057   4.642  1.8811 -0.7427 -0.2180
 2309SOL    HW218561   3.976   3.918   4.603  1.4867  1.7179 -2.0972
 2310SOL     OW18562   1.468   4.166   3.321  0.2206 -0.3581  0.2288
 2310SOL    HW118563   1.386   4.139   3.362  0.6337 -1.7115  0.1366
 2310SOL    HW218564   1.540   4.116   3.358 -0.9058 -1.0231  1.5442
 2311SOL     OW18565   1.233   2.541   4.638  0.3579  0.3528  0.3247
 2311SOL    HW118566   1.319   2.505   4.656 -0.1653 -1.5956 -1.0221
 2311SOL    HW218567   1.198   2.550   4.726 -1.4967 -0.1033 -0.3466
 2312SOL     OW18568   0.932   1.898   9.346  0.4021 -0.4633  0.4844
 2312SOL    HW118569   0.886   1.970   9.302  0.3930 -1.8857 -1.8201
 2312SOL    HW218570   0.990   1.935   9.413 -1.3520  0.7330  1.3376
 2313SOL     OW18571   3.954   4.697  17.031  0.1197  0.2985  0.0769
 2313SOL    HW118572   3.865   4.664  17.016  0.5097 -1.0749  0.7776
 2313SOL    HW218573   3.988   4.623  17.082 -2.5258 -0.4347  0.7654
 2314SOL     OW18574   3.955   1.325   9.331 -0.1502 -0.1554  0.8601
 2314SOL    HW118575   3.877   1.275   9.354 -1.7303  1.5903 -0.6943
 2314SOL    HW218576   3.938   1.344   9.239 -1.5517  2.2403  1.6155
 2315SOL     OW18577   0.715   0.165   7.812 -0.3856  0.1359  0.0511
 2315SOL    HW118578   0.754   0.108   7.746  0.3507  0.2049  0.4399
 2315SOL    HW218579   0.647   0.207   7.757 -0.9366 -2.0427 -0.9199
 2316SOL     OW18580   1.162   2.795   9.015  0.5857 -0.2942  0.1286
 2316SOL    HW118581   1.256   2.813   9.018  0.4005  0.6620  0.2910
 2316SOL    HW218582   1.155   2.722   8.953 -1.3595  0.8983 -1.0370
 2317SOL     OW18583   1.876   0.183   2.615  0.3898  0.1526 -0.4835
 2317SOL    HW118584   1.900   0.243   2.545  0.4632 -0.0598 -0.6402
 2317SOL    HW218585   1.873   0.244   2.688  0.6722 -2.5616  1.8235
 2318SOL     OW18586   1.717   3.491   2.604  0.0205 -0.2798 -0.0930
 2318SOL    HW118587   1.663   3.441   2.666 -1.4302  1.8281  0.3422
 2318SOL    HW218588   1.656   3.512   2.533 -0.0026 -0.1114 -0.0231
 2319SOL     OW18589   4.245   2.476  15.085 -0.0604 -0.0213  0.0874
 2319SOL    HW118590   4.237   2.549  15.147  0.1135 -1.8203  2.2503
 2319SOL    HW218591   4.245   2.398  15.141  1.5976 -0.7956 -0.9962
 2320SOL     OW18592   4.491   4.585   5.960 -0.6119  0.3112 -0.1732
 2320SOL    HW118593   4.515   4.677   5.972  2.3323 -0.0068 -3.4846
 2320SOL    HW218594   4.513   4.572   5.868  0.9874 -1.0419  0.4124
 2321SOL     OW18595   2.504   1.931  17.363  0.7044  0.1338  0.1136
 2321SOL    HW118596   2.421   1.901  17.324  1.1555 -1.5428  0.4407
 2321SOL    HW218597   2.548   1.935  17.278  0.6326  0.3446  0.0848
 2322SOL     OW18598   0.680   2.776  12.792 -0.0856  0.4049  0.0808
 2322SOL    HW118599   0.614   2.770  12.723 -0.0662 -0.8504  0.1684
 2322SOL    HW218600   0.742   2.708  12.765  0.9136  2.2923 -2.3511
 2323SOL     OW18601   2.642   4.193   3.410  0.0646  0.1152  0.0877
 2323SOL    HW118602   2.606   4.105   3.415 -0.6377  0.3429 -1.0565
 2323SOL    HW218603   2.720   4.178   3.356 -1.2658  0.3551 -1.9162
 2324SOL     OW18604   2.372   2.451   6.484 -0.4780 -0.8161  0.1053
 2324SOL    HW118605   2.403   2.489   6.402  2.6296  0.4887  1.8658
 2324SOL    HW218606   2.440   2.384   6.493 -0.8473 -1.1062  0.7076
 2325SOL     OW18607   1.316   3.835   7.068 -0.6331 -0.2556 -1.1636
 2325SOL    HW118608   1.233   3.840   7.116 -0.9961  1.3561 -1.9953
 2325SOL    HW218609   1.365   3.905   7.111 -1.7166 -0.5316  0.5307
 2326SOL     OW18610   4.528   2.367   9.510  0.3410 -0.4513 -0.3536
 2326SOL    HW118611   4.567   2.285   9.478  1.0318 -0.9621  1.8192
 2326SOL    HW218612   4.594   2.396   9.572  2.4150 -0.3430 -2.5980
 2327SOL     OW18613   3.322   3.239   3.521  0.5084 -0.3010  0.2558
 2327SOL    HW118614   3.226   3.236   3.517  0.5682 -2.5639  0.8365
 2327SOL    HW218615   3.329   3.332   3.542 -3.9581  0.5713 -2.0226
 2328SOL     OW18616   0.528   0.072  14.990 -0.7498 -0.1503  0.2967
 2328SOL    HW118617   0.499   0.001  14.933 -0.2449  0.0197 -0.1742
 2328SOL    HW218618   0.464   0.053  15.059  0.6901  1.2836  2.0317
 2329SOL     OW18619   0.097   3.832   6.744  0.0124  0.1118  0.1285
 2329SOL    HW118620   0.160   3.815   6.674 -0.5089 -0.7013 -0.1467
 2329SOL    HW218621   0.061   3.745   6.764 -3.4534  1.4541 -0.3235
 2330SOL     OW18622   1.169   0.321   3.293  0.4702 -0.1009 -0.6033
 2330SOL    HW118623   1.098   0.315   3.229  0.9893  1.8351 -1.3420
 2330SOL    HW218624   1.235   0.265   3.251  1.8123  0.6054  0.5766
 2331SOL     OW18625   1.107   1.755   5.065  0.0509 -0.5932 -0.3282
 2331SOL    HW118626   1.186   1.796   5.101  0.6120 -2.2939  0.3511
 2331SOL    HW218627   1.082   1.696   5.136  0.1376  0.0474  0.2352
 2332SOL     OW18628   1.620   1.113   3.745  0.1819 -0.2945  0.1728
 2332SOL    HW118629   1.603   1.028   3.786 -1.5065 -0.4262 -0.7866
 2332SOL    HW218630   1.538   1.144   3.707  0.3704  0.6753  0.5746
 2333SOL     OW18631   4.069   3.453  16.300 -0.3003  0.0612 -0.2465
 2333SOL    HW118632   4.106   3.377  16.256  0.4210  0.2305  0.0662
 2333SOL    HW218633   4.062   3.414  16.387 -0.9672 -1.0691 -0.8151
 2334SOL     OW18634   1.661   3.569  14.993 -0.1925  0.4542 -0.2845
 2334SOL    HW118635   1.720   3.503  15.030  1.9345  0.6610 -3.2641
 2334SOL    HW218636   1.613   3.590  15.073 -1.5115 -1.7130 -0.4853
 2335SOL     OW18637   3.310   4.364   5.395 -0.0500 -0.2554 -0.3445
 2335SOL    HW118638   3.244   4.423   5.428  0.8978  0.5083  0.1713
 2335SOL    HW218639   3.295   4.372   5.301  1.1977 -2.7465 -0.7792
 2336SOL     OW18640   2.685   1.394   4.259 -0.0886 -0.4691 -0.1869
 2336SOL    HW118641   2.643   1.344   4.330  2.8108  0.1789  1.9828
 2336SOL    HW218642   2.607   1.413   4.208  0.9246  2.3334 -0.6836
 2337SOL     OW18643   4.653   3.150  13.341  0.1445  0.2443  0.0610
 2337SOL    HW118644   4.632   3.059  13.360  1.6270  0.0842  0.9451
 2337SOL    HW218645   4.702   3.175  13.420  1.3168  0.3699 -0.7004
 2338SOL     OW18646   0.870   0.694   2.808 -0.5146 -0.1387 -0.0760
 2338SOL    HW118647   0.876   0.788   2.796  0.3417 -0.0708  0.9132
 2338SOL    HW218648   0.868   0.682   2.903 -0.3667 -1.2997 -0.2088
 2339SOL     OW18649   0.246   2.961   5.923  0.0973  0.0615  0.0622
 2339SOL    HW118650   0.197   2.879   5.930  2.0680 -0.8767  2.7470
 2339SOL    HW218651   0.286   2.967   6.010 -1.1507 -3.5747  0.9046
 2340SOL     OW18652   4.201   1.755   9.207 -0.0117 -0.1873 -0.5506
 2340SOL    HW118653   4.115   1.727   9.237  0.0198 -0.6910 -0.9162
 2340SOL    HW218654   4.235   1.668   9.185 -2.0984 -1.1635  0.1247
 2341SOL     OW18655   2.916   1.471   4.863 -0.3256 -0.1649 -0.1561
 2341SOL    HW118656   3.010   1.488   4.865 -0.0304 -1.6486 -0.9679
 2341SOL    HW218657   2.886   1.501   4.949  0.9580  0.4243  0.0899
 2342SOL     OW18658   0.630   0.917   2.319  0.4769 -0.0516  0.0211
 2342SOL    HW118659   0.580   0.944   2.242  0.6048  1.0706  0.3277
 2342SOL    HW218660   0.717   0.954   2.304  0.1485 -0.2300 -2.2730
 2343SOL     OW18661   4.587   1.950   8.755  0.3921  0.1632 -0.3129
 2343SOL    HW118662   4.595   1.899   8.675  1.8703 -0.2836  0.1279
 2343SOL    HW218663   4.491   1.943   8.761  0.6367 -0.0454  2.9829
 2344SOL     OW18664   1.175   1.096   4.213  0.4527 -0.0363 -0.0739
 2344SOL    HW118665   1.260   1.115   4.252 -0.1851  0.8281  0.9143
 2344SOL    HW218666   1.175   1.126   4.122 -0.1807  2.7871  0.8685
 2345SOL     OW18667   0.466   4.567   5.071 -0.3206  0.2419  0.0835
 2345SOL    HW118668   0.555   4.589   5.042  0.7239  0.0203  3.0487
 2345SOL    HW218669   0.471   4.588   5.165  1.8616 -1.8919  0.4411
 2346SOL     OW18670   4.142   3.729   8.611  0.3051  0.4310 -0.0044
 2346SOL    HW118671   4.094   3.748   8.692 -1.1792 -0.6157 -0.6253
 2346SOL    HW218672   4.200   3.659   8.641  0.9196  0.8792 -0.1423
 2347SOL     OW18673   2.851   0.214   8.572  0.5244 -0.1413  0.4428
 2347SOL    HW118674   2.912   0.141   8.583 -0.6493 -1.2760 -0.4644
 2347SOL    HW218675   2.776   0.192   8.627  1.5375 -0.0330  1.8875
 2348SOL     OW18676   2.203   3.286   9.191 -0.0730 -0.3931 -0.6676
 2348SOL    HW118677   2.232   3.327   9.110  0.5272  2.0203  0.7678
 2348SOL    HW218678   2.279   3.245   9.234 -1.0610 -1.5747 -0.0488
 2349SOL     OW18679   4.409   1.467  15.167  0.3185  0.0624  0.3147
 2349SOL    HW118680   4.495   1.436  15.194  0.3418 -1.0416 -1.0353
 2349SOL    HW218681   4.382   1.392  15.114  1.3215  0.3142 -0.5474
 2350SOL     OW18682   0.062   0.581   9.277  0.8361 -0.5851 -0.1118
 2350SOL    HW118683   0.091   0.507   9.224 -0.1305 -0.5802 -0.6557
 2350SOL    HW218684   0.141   0.635   9.277  0.1488  0.4368  0.3244
 2351SOL     OW18685   3.840   2.615   4.243  0.1457  0.3552  0.6675
 2351SOL    HW118686   3.881   2.550   4.186 -2.0603 -1.0647  0.7107
 2351SOL    HW218687   3.826   2.691   4.186  0.1189  1.7006  2.4451
 2352SOL     OW18688   0.028   0.515  11.403  0.1281  0.4936 -0.1074
 2352SOL    HW118689   4.681   0.539  11.440  0.9531  1.7425  0.9643
 2352SOL    HW218690   4.733   0.486  11.317 -2.0968 -0.5184  1.0817
 2353SOL     OW18691   0.042   0.099   7.864  0.0902 -0.3820  0.8282
 2353SOL    HW118692   4.686   0.115   7.879 -0.1780 -0.0664 -1.0704
 2353SOL    HW218693   0.043   0.085   7.769 -1.1919  0.1947  0.7212
 2354SOL     OW18694   2.476   4.100   2.704 -0.3890 -0.4933 -0.2427
 2354SOL    HW118695   2.443   4.103   2.793 -0.3299  1.9382 -0.2897
 2354SOL    HW218696   2.404   4.057   2.659  1.0025 -1.9981 -1.0307
 2355SOL     OW18697   1.980   1.549   6.640  0.2508 -0.1715  0.6060
 2355SOL    HW118698   1.930   1.578   6.564  2.4018 -0.5557 -0.9525
 2355SOL    HW218699   2.062   1.538   6.592  1.5682  0.7557  2.6156
 2356SOL     OW18700   4.483   4.299   2.279  0.1656  0.0923 -0.1876
 2356SOL    HW118701   4.511   4.261   2.195 -0.7126 -1.4132  0.1938
 2356SOL    HW218702   4.538   4.376   2.293  0.2385 -0.0614  0.3702
 2357SOL     OW18703   0.351   4.332  13.407 -0.5205  0.1766  0.7010
 2357SOL    HW118704   0.308   4.291  13.482 -0.5121  0.5692  0.9204
 2357SOL    HW218705   0.330   4.425  13.414  0.6106  0.2463  3.1897
 2358SOL     OW18706   3.316   1.089   6.219  0.3403 -0.3754 -0.1380
 2358SOL    HW118707   3.380   1.129   6.278 -0.1882 -1.3763  1.0967
 2358SOL    HW218708   3.380   1.079   6.148 -0.0880  0.1598 -0.6030
 2359SOL     OW18709   2.538   0.110  15.984  0.2286 -0.3732  0.0192
 2359SOL    HW118710   2.498   0.025  15.967  2.0956 -1.4058  0.8412
 2359SOL    HW218711   2.629   0.081  15.972  0.6099  0.6429  0.4693
 2360SOL     OW18712   0.557   2.748   5.153 -0.2306 -0.8648  0.0698
 2360SOL    HW118713   0.647   2.752   5.186  0.3216  0.7468 -1.6677
 2360SOL    HW218714   0.529   2.674   5.207  0.9171  0.5178  2.5979
 2361SOL     OW18715   4.562   0.700   2.767  0.4158 -0.2371 -0.3327
 2361SOL    HW118716   4.564   0.758   2.842 -1.9821 -1.8971  1.0083
 2361SOL    HW218717   4.656   0.684   2.753  0.6666  1.3533 -0.4176
 2362SOL     OW18718   0.125   3.693   8.390  0.0974  0.0095 -0.2919
 2362SOL    HW118719   0.140   3.708   8.296 -0.2126  0.1785 -0.3123
 2362SOL    HW218720   0.197   3.747   8.422 -0.8165  0.6751  0.6083
 2363SOL     OW18721   2.651   0.154   0.783  0.3665 -1.1231  0.3368
 2363SOL    HW118722   2.567   0.198   0.772  1.2572  1.2203  3.0514
 2363SOL    HW218723   2.687   0.212   0.849  1.3790  0.8564 -1.9510
 2364SOL     OW18724   4.422   3.933   4.090 -0.1702  0.1754  0.0758
 2364SOL    HW118725   4.350   3.926   4.028  2.0254 -0.5990 -2.3788
 2364SOL    HW218726   4.372   3.907   4.168  2.3713  0.7337  1.9156
 2365SOL     OW18727   0.383   1.096   2.395  0.3955 -0.0555  0.2553
 2365SOL    HW118728   0.389   1.138   2.309  1.6646  1.8060  1.2371
 2365SOL    HW218729   0.463   1.045   2.383 -0.6963 -1.4739 -1.0063
 2366SOL     OW18730   2.005   4.342   2.893 -0.0261 -0.4479 -0.5339
 2366SOL    HW118731   1.962   4.388   2.965 -1.4203 -2.6719  0.0571
 2366SOL    HW218732   2.004   4.251   2.923  2.4829 -0.5441 -0.6965
 2367SOL     OW18733   0.570   4.469   8.210 -0.4412 -0.3277 -0.2349
 2367SOL    HW118734   0.552   4.563   8.220  2.9313  0.2750 -0.0650
 2367SOL    HW218735   0.495   4.437   8.159 -0.0774 -1.2701 -0.1735
 2368SOL     OW18736   0.043   2.018   6.964 -0.1976 -0.3254  0.3172
 2368SOL    HW118737   0.011   1.990   6.878  2.9283  0.2476 -1.0442
 2368SOL    HW218738   0.001   1.956   7.023 -1.7648 -0.4297 -0.9097
 2369SOL     OW18739   0.092   4.671   2.305 -0.5867  0.5184  0.3671
 2369SOL    HW118740   0.070   0.026   2.303  0.1336  0.7055  1.2380
 2369SOL    HW218741   0.140   4.657   2.224 -0.5994  1.6044  0.1759
 2370SOL     OW18742   4.615   1.754   9.243  0.2622  0.6079  0.0336
 2370SOL    HW118743   4.543   1.691   9.244 -0.3010  1.2688  1.5030
 2370SOL    HW218744   4.581   1.789   9.161  1.0437  0.9755 -0.1335
 2371SOL     OW18745   1.173   0.723  10.010 -0.7420 -0.4919 -0.3344
 2371SOL    HW118746   1.144   0.811  10.032  0.5071  0.4786 -2.5540
 2371SOL    HW218747   1.151   0.723   9.916 -2.2614 -0.4095  0.0228
 2372SOL     OW18748   2.413   2.158  11.777 -0.3487 -0.3506 -0.8209
 2372SOL    HW118749   2.396   2.252  11.785  4.1338  0.3398  0.3645
 2372SOL    HW218750   2.474   2.156  11.850 -2.2261 -2.1359  0.6892
 2373SOL     OW18751   3.689   1.710   7.741  0.2052  0.4809 -0.0795
 2373SOL    HW118752   3.646   1.768   7.804 -0.5906 -1.0381  0.7593
 2373SOL    HW218753   3.640   1.629   7.751  0.0379  0.6629  0.6033
 2374SOL     OW18754   3.538   0.142   2.920 -0.3331 -0.1503 -0.7072
 2374SOL    HW118755   3.560   0.069   2.978  0.3053 -1.6468 -2.8615
 2374SOL    HW218756   3.443   0.133   2.914 -0.5133 -0.2108  1.9635
 2375SOL     OW18757   2.787   0.781   2.497 -0.2997 -0.3031 -0.0516
 2375SOL    HW118758   2.724   0.728   2.545 -1.0505 -0.6717 -1.4357
 2375SOL    HW218759   2.836   0.808   2.574 -0.4440 -1.8989  0.6128
 2376SOL     OW18760   1.066   2.003  14.656  0.3364 -0.3249 -0.9178
 2376SOL    HW118761   0.970   2.005  14.660  0.3353 -2.1295 -0.0430
 2376SOL    HW218762   1.084   1.937  14.723  0.5346 -0.4549 -1.0992
 2377SOL     OW18763   1.471   3.670  14.825  0.1705 -0.4385  0.6895
 2377SOL    HW118764   1.509   3.751  14.859 -0.9034  0.3617 -0.0398
 2377SOL    HW218765   1.526   3.605  14.869  0.4072 -0.3901  0.4614
 2378SOL     OW18766   4.109   2.047  11.724 -0.5581  0.1670 -0.5307
 2378SOL    HW118767   4.051   2.019  11.653 -1.8812 -0.6044  0.8453
 2378SOL    HW218768   4.086   1.979  11.788  5.4222 -0.7654  0.6375
 2379SOL     OW18769   3.826   4.132   4.368  0.7161 -0.1784  0.0011
 2379SOL    HW118770   3.885   4.150   4.440  1.2704  0.5595 -0.6352
 2379SOL    HW218771   3.788   4.050   4.398  2.6532 -1.1712 -0.2711
 2380SOL     OW18772   3.979   3.939   2.152  0.2085 -0.5905 -0.4450
 2380SOL    HW118773   3.911   3.968   2.091  0.9982  2.8800  0.2752
 2380SOL    HW218774   3.976   4.005   2.222 -0.9565 -0.3051 -0.7728
 2381SOL     OW18775   4.402   1.455   0.703 -0.0693  0.4387  0.4257
 2381SOL    HW118776   4.310   1.476   0.718 -0.0220  2.4730 -2.2129
 2381SOL    HW218777   4.443   1.533   0.741  0.7470  0.8956 -1.3768
 2382SOL     OW18778   1.534   2.327   9.695  0.1425 -0.5686 -0.3998
 2382SOL    HW118779   1.610   2.355   9.645  0.7517 -2.3183 -0.4597
 2382SOL    HW218780   1.570   2.353   9.780  0.9257  3.9450 -2.1217
 2383SOL     OW18781   3.953   2.276   2.227  0.6857  0.2774 -0.1624
 2383SOL    HW118782   3.948   2.219   2.151  0.2226  2.5786 -1.8443
 2383SOL    HW218783   3.914   2.226   2.299 -2.1110  0.4829 -1.5386
 2384SOL     OW18784   3.730   1.590   6.409 -0.6038 -0.1168  0.3272
 2384SOL    HW118785   3.763   1.670   6.368  1.3996 -0.8937  0.4083
 2384SOL    HW218786   3.781   1.581   6.490 -0.7715  0.3179  0.4799
 2385SOL     OW18787   2.620   2.079   5.183  0.1372 -0.3322 -0.2652
 2385SOL    HW118788   2.531   2.110   5.168  0.9580  1.0001 -2.4241
 2385SOL    HW218789   2.589   2.050   5.269 -0.7592 -1.3883 -0.9504
 2386SOL     OW18790   2.336   3.941   7.381 -0.3422  0.1122  0.5228
 2386SOL    HW118791   2.366   3.961   7.469  0.1848 -1.2956  0.6674
 2386SOL    HW218792   2.404   3.887   7.341 -1.5762 -1.4738  0.5336
 2387SOL     OW18793   3.211   3.179   6.159 -0.9250 -0.4320 -0.3955
 2387SOL    HW118794   3.176   3.108   6.105  1.4486 -2.8060  1.1200
 2387SOL    HW218795   3.290   3.199   6.108 -1.4654  0.2523 -0.9536
 2388SOL     OW18796   2.476   0.510   2.342  0.0836  0.7129  0.2950
 2388SOL    HW118797   2.464   0.426   2.385 -3.1230  0.2060 -1.5812
 2388SOL    HW218798   2.403   0.510   2.280 -0.3005 -0.6797  0.7544
 2389SOL     OW18799   2.470   1.425   4.913  0.2324  0.0298 -0.0741
 2389SOL    HW118800   2.423   1.504   4.886  1.3993  1.1431  1.1853
 2389SOL    HW218801   2.400   1.362   4.894  0.3168  0.0853 -0.5735
 2390SOL     OW18802   2.358   2.230   2.844  0.0203  0.6319 -0.0939
 2390SOL    HW118803   2.443   2.229   2.800 -0.2519 -1.2517 -0.6013
 2390SOL    HW218804   2.320   2.307   2.801 -0.0195  0.4888 -0.3173
 2391SOL     OW18805   4.259   0.017  10.703 -0.4107  0.0680  0.0150
 2391SOL    HW118806   4.234   0.029  10.794  2.6775  1.4660  0.6679
 2391SOL    HW218807   4.258   4.658  10.699  0.8671  0.0284  0.5123
 2392SOL     OW18808   3.206   0.665   6.253 -0.4124  0.1288  0.0082
 2392SOL    HW118809   3.275   0.698   6.311 -0.9785  1.8104 -0.2746
 2392SOL    HW218810   3.128   0.697   6.298 -0.2585  0.3787  0.0994
 2393SOL     OW18811   2.305   1.579   1.418 -0.1088 -0.7649 -0.5859
 2393SOL    HW118812   2.324   1.547   1.506 -2.3410 -1.7516 -0.4817
 2393SOL    HW218813   2.225   1.625   1.444  1.4512  1.9583 -0.5947
 2394SOL     OW18814   1.809   3.558   1.523  0.0246 -0.1114  0.2230
 2394SOL    HW118815   1.881   3.524   1.469 -0.3876 -1.7693  0.7227
 2394SOL    HW218816   1.826   3.651   1.512 -2.5444  0.0943 -1.8945
 2395SOL     OW18817   2.524   0.575  16.406  0.2049 -0.3677 -0.0848
 2395SOL    HW118818   2.504   0.657  16.360 -0.3923 -0.4554  0.0084
 2395SOL    HW218819   2.438   0.533  16.408  0.1090 -0.2525 -1.7525
 2396SOL     OW18820   2.007   1.304  16.591  0.5816  0.2089 -0.9478
 2396SOL    HW118821   2.037   1.394  16.583 -0.8900  0.7372 -0.5519
 2396SOL    HW218822   1.924   1.304  16.543  0.6464  0.1840 -1.0576
 2397SOL     OW18823   2.102   1.218  10.358 -0.0999  0.1652 -1.0492
 2397SOL    HW118824   2.013   1.208  10.394 -0.3248  2.4142 -0.9622
 2397SOL    HW218825   2.138   1.143  10.405  0.0788  1.2831  0.6138
 2398SOL     OW18826   0.734   1.901  11.901 -0.7263 -0.0870  0.3649
 2398SOL    HW118827   0.768   1.933  11.984 -2.8208  0.3878  1.0471
 2398SOL    HW218828   0.685   1.979  11.873 -1.2777  0.2506  2.2981
 2399SOL     OW18829   4.265   2.342   9.582 -0.0961  0.4335 -0.4369
 2399SOL    HW118830   4.265   2.414   9.645  0.7912  0.7564 -0.8061
 2399SOL    HW218831   4.356   2.322   9.563 -0.0645  0.0013  0.1545
 2400SOL     OW18832   1.637   0.162   2.154  0.5304 -0.2208 -0.1479
 2400SOL    HW118833   1.589   0.171   2.237 -1.2061  0.6373 -1.2597
 2400SOL    HW218834   1.564   0.140   2.097 -0.4487  1.1779  0.5843
 2401SOL     OW18835   0.210   4.053   3.122 -0.2615  0.0766 -0.6597
 2401SOL    HW118836   0.295   4.095   3.136 -1.1659  1.1257  1.7332
 2401SOL    HW218837   0.203   4.008   3.206 -1.1528 -0.4683 -1.0265
 2402SOL     OW18838   1.127   0.096   8.160 -0.0921  0.0331 -0.2385
 2402SOL    HW118839   1.122   0.001   8.151  1.5358  0.1578 -2.4603
 2402SOL    HW218840   1.111   0.116   8.252  0.9555  0.0155 -0.0560
 2403SOL     OW18841   1.065   4.711   7.332  0.5531  0.4545 -0.3866
 2403SOL    HW118842   0.981   4.676   7.364  2.2695 -0.7437  2.7705
 2403SOL    HW218843   1.072   0.063   7.366  0.7819  0.6601 -0.9837
 2404SOL     OW18844   4.345   2.251  10.630 -0.3117  0.2487  0.4060
 2404SOL    HW118845   4.386   2.335  10.650  0.7972 -1.0289  3.4990
 2404SOL    HW218846   4.263   2.293  10.602 -0.1044  1.0938  1.0678
 2405SOL     OW18847   3.220   4.162   4.224  0.0838  0.0473 -0.6372
 2405SOL    HW118848   3.264   4.162   4.139  1.0447 -0.6269 -0.1315
 2405SOL    HW218849   3.293   4.179   4.283  1.3617 -1.2515 -1.8538
 2406SOL     OW18850   3.309   2.987   1.379 -0.1960 -0.9021 -0.6347
 2406SOL    HW118851   3.233   3.037   1.409 -1.0019 -1.4758 -1.7467
 2406SOL    HW218852   3.313   2.915   1.441 -1.0010 -1.1354 -0.8608
 2407SOL     OW18853   1.962   3.361  17.497  0.5442  0.0689 -0.2681
 2407SOL    HW118854   1.985   3.276  17.459 -0.3515  0.2215 -1.1574
 2407SOL    HW218855   1.963   3.424  17.425 -2.1016 -1.3131 -1.5146
 2408SOL     OW18856   3.011   2.038  14.875 -0.0583 -0.0649 -0.0577
 2408SOL    HW118857   3.096   2.034  14.918  1.2330 -0.1252 -2.6133
 2408SOL    HW218858   2.981   2.127  14.896 -0.6169 -0.1304 -0.5492
 2409SOL     OW18859   4.090   0.441   6.173  0.0028 -0.2981  0.2416
 2409SOL    HW118860   4.015   0.497   6.153  0.3379 -0.4550 -1.4722
 2409SOL    HW218861   4.111   0.486   6.254  0.4956 -1.0010  0.5079
 2410SOL     OW18862   0.828   0.813   4.854 -0.1054 -0.1098 -0.2771
 2410SOL    HW118863   0.781   0.828   4.772  0.5181 -0.2547 -0.6668
 2410SOL    HW218864   0.863   0.901   4.868 -1.4972  0.1535  1.3869
 2411SOL     OW18865   4.732   3.046   9.017 -0.4317  0.2948  0.4764
 2411SOL    HW118866   4.640   3.058   9.041  0.2357 -0.2723  3.2395
 2411SOL    HW218867   0.015   2.965   9.063 -0.0645 -0.0997 -0.3699
 2412SOL     OW18868   2.009   4.266   2.599 -0.2554  0.4266  0.0089
 2412SOL    HW118869   1.938   4.328   2.617 -0.5824 -0.5770  2.1810
 2412SOL    HW218870   2.042   4.259   2.688  0.8557 -2.2281 -0.5915
 2413SOL     OW18871   2.022   3.747  17.485 -0.1750 -0.3382 -0.0251
 2413SOL    HW118872   2.003   3.839  17.472 -0.5420 -0.3318  0.5763
 2413SOL    HW218873   2.015   3.734  17.580 -0.9067 -0.4988 -0.1013
 2414SOL     OW18874   2.623   0.546   2.102  0.2365  0.1514  0.1613
 2414SOL    HW118875   2.600   0.617   2.043  1.3441  0.6981  0.3970
 2414SOL    HW218876   2.600   0.570   2.192 -0.5284 -0.4884  0.1331
 2415SOL     OW18877   2.185   3.041   9.463  0.6159  0.2965  0.3740
 2415SOL    HW118878   2.272   3.006   9.441  1.0192  0.6461  1.3991
 2415SOL    HW218879   2.141   3.015   9.382 -0.5464  0.2666  1.0143
 2416SOL     OW18880   1.292   0.002   2.502  0.3447 -0.2380 -0.3823
 2416SOL    HW118881   1.348   4.722   2.578 -0.4364 -0.8954  0.0321
 2416SOL    HW218882   1.206   4.711   2.531  0.5244  0.7723  1.1584
 2417SOL     OW18883   1.687   4.165   4.924  0.0421 -0.1636  0.2464
 2417SOL    HW118884   1.636   4.244   4.938 -1.9797 -0.8416 -3.2715
 2417SOL    HW218885   1.771   4.204   4.903  1.1777 -0.9187  3.4511
 2418SOL     OW18886   1.362   4.111   5.206 -0.2795  0.0935  0.8247
 2418SOL    HW118887   1.318   4.084   5.286  0.0148  1.6126  1.4949
 2418SOL    HW218888   1.281   4.106   5.156  0.4252 -0.2295 -0.3117
 2419SOL     OW18889   2.208   3.697  16.387 -0.7431 -0.5460  0.3099
 2419SOL    HW118890   2.116   3.674  16.402 -1.7540  1.7995 -2.3360
 2419SOL    HW218891   2.196   3.753  16.310  2.1153 -2.5297 -1.5990
 2420SOL     OW18892   4.207   1.723  17.265  0.0009 -0.0483 -0.4513
 2420SOL    HW118893   4.193   1.679  17.181  0.2601 -0.6406 -0.1853
 2420SOL    HW218894   4.221   1.814  17.239 -0.6532  0.4376  0.8904
 2421SOL     OW18895   3.128   1.172   4.277 -0.0347 -0.1524  0.2375
 2421SOL    HW118896   3.037   1.167   4.306  0.5972 -1.3906  2.0004
 2421SOL    HW218897   3.126   1.267   4.270  0.3025  0.0061  2.4138
 2422SOL     OW18898   3.296   1.463   3.710  0.0287  0.1270 -0.2770
 2422SOL    HW118899   3.385   1.476   3.679 -0.2575 -2.4648 -2.2557
 2422SOL    HW218900   3.305   1.438   3.802  1.7159  1.8951  0.0144
 2423SOL     OW18901   0.405   2.711   6.292  0.3547  0.1221 -0.5752
 2423SOL    HW118902   0.476   2.722   6.355 -0.0659  0.5112 -0.1703
 2423SOL    HW218903   0.458   2.700   6.213  0.0442  0.4039 -0.8177
 2424SOL     OW18904   1.787   2.412   2.567 -0.3121 -0.0344  0.3586
 2424SOL    HW118905   1.814   2.409   2.475 -2.0838 -0.7241 -0.1334
 2424SOL    HW218906   1.808   2.504   2.583 -1.0917 -0.0388  1.3656
 2425SOL     OW18907   0.335   1.956   7.635  0.0381 -0.2491  0.2422
 2425SOL    HW118908   0.391   1.879   7.624  1.4950  0.9274 -0.4851
 2425SOL    HW218909   0.382   1.997   7.708 -1.9419  0.8089  0.9122
 2426SOL     OW18910   2.585   4.555   2.272 -0.0855  0.1896  0.2980
 2426SOL    HW118911   2.512   4.598   2.227 -0.5235 -1.9209 -1.0064
 2426SOL    HW218912   2.652   4.623   2.279  1.2101 -1.1453  0.9050
 2427SOL     OW18913   2.913   2.102   2.165  0.0426 -0.3257 -0.4765
 2427SOL    HW118914   2.903   2.135   2.255  0.7480  1.4493 -1.0605
 2427SOL    HW218915   3.005   2.081   2.179  0.3795  1.2644 -0.3945
 2428SOL     OW18916   0.234   4.180  10.854  0.5795  0.7277  0.0302
 2428SOL    HW118917   0.178   4.118  10.806 -0.2912  1.0718  0.6006
 2428SOL    HW218918   0.267   4.130  10.929  1.1981  0.5397 -0.3660
 2429SOL     OW18919   0.709   2.985   6.090  0.2125  0.3724 -0.4326
 2429SOL    HW118920   0.715   3.074   6.055  0.1313  1.3659  2.0023
 2429SOL    HW218921   0.715   2.928   6.013 -2.8983 -0.4392 -0.0713
 2430SOL     OW18922   0.751   0.482   8.591 -0.1395  0.0718 -0.0565
 2430SOL    HW118923   0.826   0.508   8.645  0.3705 -0.8971 -0.3145
 2430SOL    HW218924   0.688   0.466   8.662  1.9245 -1.3277  1.4404
 2431SOL     OW18925   0.378   4.421   8.011  0.4782  0.3836 -0.1025
 2431SOL    HW118926   0.462   4.438   7.968 -0.2852 -1.3879 -2.3250
 2431SOL    HW218927   0.314   4.429   7.940  0.1920  0.2368  0.1381
 2432SOL     OW18928   1.114   0.841   4.315  0.3831  0.0412  0.3410
 2432SOL    HW118929   1.141   0.931   4.292 -2.4708  0.2419 -2.2244
 2432SOL    HW218930   1.188   0.813   4.368  0.5742  3.0541  1.6552
 2433SOL     OW18931   0.439   0.900  13.957 -0.2410 -0.1432 -0.2241
 2433SOL    HW118932   0.506   0.963  13.931 -1.3827  0.3096 -2.0220
 2433SOL    HW218933   0.479   0.850  14.029 -1.4102  0.4244  0.8327
 2434SOL     OW18934   3.922   3.319   1.961  0.1000 -0.1300 -0.2764
 2434SOL    HW118935   3.868   3.397   1.948  1.0256  0.4242 -0.8650
 2434SOL    HW218936   3.860   3.248   1.948  0.4145 -0.3072 -0.7995
 2435SOL     OW18937   2.774   0.590   8.707  0.3256  0.1708  0.2102
 2435SOL    HW118938   2.807   0.667   8.660  1.6427  0.3194  1.3880
 2435SOL    HW218939   2.817   0.520   8.659 -1.4815  0.0671 -1.2418
 2436SOL     OW18940   4.592   2.423  14.745 -0.0461 -0.1192  0.3376
 2436SOL    HW118941   4.575   2.371  14.824 -2.6286  0.1016 -0.0781
 2436SOL    HW218942   4.593   2.514  14.775 -2.2019 -0.2951  0.9959
 2437SOL     OW18943   0.065   1.206   8.814 -0.7826 -0.6712  0.3331
 2437SOL    HW118944   0.015   1.281   8.846 -1.1251 -0.2111 -1.2744
 2437SOL    HW218945   4.732   1.145   8.795 -1.5246  0.5479 -0.8129
 2438SOL     OW18946   1.835   0.056   4.529 -0.1476  0.1547  0.4281
 2438SOL    HW118947   1.805   4.703   4.530 -3.7512  1.3847  2.4382
 2438SOL    HW218948   1.762   0.092   4.579 -0.6880 -0.4306  0.0681
 2439SOL     OW18949   4.204   1.699  16.570  0.5028  0.4766 -0.3783
 2439SOL    HW118950   4.228   1.606  16.563 -0.6408  0.0806  1.1725
 2439SOL    HW218951   4.218   1.730  16.480  0.0420 -2.5298 -1.4891
 2440SOL     OW18952   3.511   1.324   5.096 -0.2325  0.7791  0.1200
 2440SOL    HW118953   3.530   1.239   5.056 -1.8356 -0.1578  1.3647
 2440SOL    HW218954   3.569   1.374   5.039 -1.6227  0.2101 -1.7761
 2441SOL     OW18955   2.080   3.611   2.985 -1.1287 -0.7877 -0.7765
 2441SOL    HW118956   2.012   3.646   3.044 -0.4667  0.5428 -0.8093
 2441SOL    HW218957   2.035   3.544   2.934 -3.5354  0.0845  0.1919
 2442SOL     OW18958   4.324   0.051   3.970  0.0625 -0.1280 -0.3635
 2442SOL    HW118959   4.253   0.049   4.035 -0.8764 -5.3272 -1.5679
 2442SOL    HW218960   4.275   0.074   3.891 -0.5199 -1.0499 -0.2711
 2443SOL     OW18961   2.887   4.343   1.690 -0.0930 -0.4152  0.0114
 2443SOL    HW118962   2.795   4.345   1.664 -0.5328  0.6639  1.6621
 2443SOL    HW218963   2.875   4.335   1.785  1.1355 -0.7618  0.1459
 2444SOL     OW18964   3.352   4.699  11.925 -0.1601  0.3098  0.0768
 2444SOL    HW118965   3.385   4.628  11.981  0.3525 -0.5446 -1.2917
 2444SOL    HW218966   3.408   4.690  11.847 -0.4951  0.4370 -0.1798
 2445SOL     OW18967   0.953   0.667   7.203  0.1036 -0.4466  0.4828
 2445SOL    HW118968   1.038   0.706   7.183 -1.0608  1.2399 -1.1357
 2445SOL    HW218969   0.893   0.741   7.211  1.3280  0.3106  2.7127
 2446SOL     OW18970   3.446   1.003   1.276 -0.4566 -0.1833 -0.2664
 2446SOL    HW118971   3.500   0.925   1.288  2.0984  1.6222 -0.1180
 2446SOL    HW218972   3.466   1.041   1.190  1.6871 -0.4016  0.1557
 2447SOL     OW18973   1.033   2.572   7.564  0.1243 -0.0133 -0.0493
 2447SOL    HW118974   1.015   2.562   7.471  1.0180  0.6599 -0.2999
 2447SOL    HW218975   0.952   2.618   7.586  0.2814  1.1041 -1.8204
 2448SOL     OW18976   2.255   2.441  10.967 -0.1428 -0.1832  0.4076
 2448SOL    HW118977   2.252   2.393  10.884 -2.1181  2.6362 -1.1436
 2448SOL    HW218978   2.160   2.447  10.978 -0.4862 -0.8325 -2.2698
 2449SOL     OW18979   4.678   2.961   3.162 -0.6854 -0.0078  0.2758
 2449SOL    HW118980   4.729   2.938   3.084  0.1425 -0.0961  0.8370
 2449SOL    HW218981   4.595   2.917   3.143 -1.3677  1.6275 -0.4941
 2450SOL     OW18982   0.562   2.193   7.685  0.0080 -0.6003 -0.0562
 2450SOL    HW118983   0.597   2.282   7.679  0.5526 -0.9528 -2.3711
 2450SOL    HW218984   0.541   2.175   7.593 -0.8631  2.0647 -0.3708
 2451SOL     OW18985   3.730   4.528  14.174  0.6060  0.0963  0.2087
 2451SOL    HW118986   3.650   4.477  14.162  0.9162 -0.4020  0.2433
 2451SOL    HW218987   3.737   4.551  14.082  0.4186  1.1006  0.4484
 2452SOL     OW18988   2.898   1.378   7.262  0.1013  0.0904 -0.1221
 2452SOL    HW118989   2.961   1.403   7.195  0.3767 -1.0916 -0.3000
 2452SOL    HW218990   2.879   1.285   7.251  1.7187  0.0211 -2.1349
 2453SOL     OW18991   1.460   1.684   3.038 -0.2988 -0.2406 -0.5033
 2453SOL    HW118992   1.526   1.751   3.054 -1.4953  0.1365  2.8787
 2453SOL    HW218993   1.385   1.740   3.060 -0.1580 -1.1168  2.2306
 2454SOL     OW18994   3.417   1.911   5.089  0.3660 -0.2577 -0.3665
 2454SOL    HW118995   3.504   1.910   5.128  0.2083  0.5371  0.0103
 2454SOL    HW218996   3.407   2.007   5.090  2.3244 -0.0685  2.0068
 2455SOL     OW18997   4.020   3.532  10.877  0.1981  0.2553  0.2817
 2455SOL    HW118998   3.953   3.555  10.941 -1.5744 -2.4258 -0.6082
 2455SOL    HW218999   3.991   3.443  10.859  3.3248 -1.0839  1.7835
 2456SOL     OW19000   2.049   1.941   8.464  0.2772 -0.2450  0.6306
 2456SOL    HW119001   1.985   1.976   8.526 -0.9708 -0.4917 -0.5272
 2456SOL    HW219002   2.118   2.007   8.454  0.6455 -0.2136  3.4881
 2457SOL     OW19003   1.313   2.855  11.425 -0.1198  0.5368 -0.4916
 2457SOL    HW119004   1.315   2.761  11.442  0.8821  0.5680 -0.4618
 2457SOL    HW219005   1.345   2.885  11.510  1.4874 -0.6297 -0.7026
 2458SOL     OW19006   1.693   2.103   2.849  0.4365 -0.2905 -0.1003
 2458SOL    HW119007   1.707   2.045   2.924  1.1858  3.2001  2.4887
 2458SOL    HW219008   1.600   2.121   2.862  0.5018  0.3599 -0.5093
 2459SOL     OW19009   4.479   3.123  16.104 -0.1637 -0.2970  0.2524
 2459SOL    HW119010   4.482   3.028  16.093  1.0252 -0.3332  0.8995
 2459SOL    HW219011   4.557   3.138  16.158  1.1248  0.2311 -1.7449
 2460SOL     OW19012   4.295   4.642   0.750  0.3822 -0.3764 -0.2615
 2460SOL    HW119013   4.354   4.598   0.688  2.1505 -0.7645  1.6921
 2460SOL    HW219014   4.209   4.605   0.730 -1.2889  1.6828  3.0375
 2461SOL     OW19015   2.962   0.139   2.903 -0.1190  0.0319 -0.4474
 2461SOL    HW119016   3.031   0.111   2.842 -1.2904 -2.2765 -0.7413
 2461SOL    HW219017   2.980   0.089   2.983 -0.0860 -1.1280 -1.1698
 2462SOL     OW19018   0.452   0.388   6.187 -0.1101  0.0438  0.2945
 2462SOL    HW119019   0.363   0.359   6.208 -0.2865  0.0485 -0.4502
 2462SOL    HW219020   0.507   0.323   6.231 -1.1821 -1.6077 -0.8233
 2463SOL     OW19021   4.432   1.143   4.964  0.5974  0.0754 -0.6396
 2463SOL    HW119022   4.379   1.124   4.887 -0.6791  1.9509 -0.2117
 2463SOL    HW219023   4.511   1.184   4.930  0.8286 -1.5384 -2.0164
 2464SOL     OW19024   0.464   2.464  10.523  0.3907 -0.3719  0.8229
 2464SOL    HW119025   0.542   2.409  10.520 -1.8247 -3.3914 -2.1610
 2464SOL    HW219026   0.504   2.531  10.468 -3.4172 -0.7103 -2.3960
 2465SOL     OW19027   2.292   4.182   4.138 -0.3817 -0.3897  0.1372
 2465SOL    HW119028   2.282   4.276   4.121  0.9534  0.0246  1.6477
 2465SOL    HW219029   2.289   4.152   4.048  0.5614  0.6024 -0.2286
 2466SOL     OW19030   1.294   2.116   9.000  0.4099  0.0613 -0.3319
 2466SOL    HW119031   1.385   2.144   9.010  0.9944 -1.8205 -0.4509
 2466SOL    HW219032   1.302   2.021   9.009 -3.0021 -0.1081  0.9768
 2467SOL     OW19033   0.259   1.925  13.824  0.0716  0.0575 -0.5740
 2467SOL    HW119034   0.213   2.004  13.852 -0.3454 -0.0202 -1.0487
 2467SOL    HW219035   0.335   1.964  13.780 -0.1129 -0.8527 -1.6971
 2468SOL     OW19036   1.106   1.097  15.823 -0.4319  0.1511  0.2897
 2468SOL    HW119037   1.063   1.026  15.872  1.4070 -0.9269  0.3465
 2468SOL    HW219038   1.162   1.114  15.899  1.5429 -1.1184 -0.9036
 2469SOL     OW19039   4.415   0.441  10.291  0.5398 -0.3200 -0.5425
 2469SOL    HW119040   4.398   0.413  10.381  0.0927  2.2572  0.1938
 2469SOL    HW219041   4.488   0.502  10.302  1.1877 -1.6469  2.6611
 2470SOL     OW19042   3.201   3.852   6.565 -0.1094 -0.0507  0.3194
 2470SOL    HW119043   3.268   3.784   6.574 -0.4820 -1.1323 -5.2302
 2470SOL    HW219044   3.183   3.872   6.657 -1.3633  0.9918 -0.1593
 2471SOL     OW19045   0.428   1.686  16.066 -0.2941  0.2143 -0.0514
 2471SOL    HW119046   0.518   1.670  16.095 -0.4371  1.1604  0.9010
 2471SOL    HW219047   0.424   1.779  16.090 -2.8007  0.6255 -2.0382
 2472SOL     OW19048   1.324   2.817  10.734  0.3470  0.0912 -0.0617
 2472SOL    HW119049   1.354   2.857  10.816  2.0971  1.0777 -1.1622
 2472SOL    HW219050   1.391   2.752  10.716  0.0746 -0.8345  2.3047
 2473SOL     OW19051   2.226   1.623   2.937  0.1592 -0.2598 -0.3748
 2473SOL    HW119052   2.176   1.703   2.950  2.6703  1.3802 -0.8143
 2473SOL    HW219053   2.160   1.554   2.941  0.5455 -0.4640  2.2034
 2474SOL     OW19054   2.986   4.663  15.737 -0.0888  0.4951  0.0212
 2474SOL    HW119055   2.957   4.712  15.660 -0.0274  0.9197  0.2678
 2474SOL    HW219056   2.914   4.692  15.793 -0.4814  0.7050 -0.5864
 2475SOL     OW19057   4.295   2.342   3.761 -0.2423  0.2955  0.4053
 2475SOL    HW119058   4.275   2.323   3.669 -1.3684  2.0380  0.2969
 2475SOL    HW219059   4.360   2.275   3.782  0.4397  0.3784 -1.4402
 2476SOL     OW19060   0.440   1.048   6.716  0.2285  0.0820 -0.3956
 2476SOL    HW119061   0.381   1.112   6.754 -1.8870 -1.3413 -1.2847
 2476SOL    HW219062   0.437   0.986   6.788 -0.9716  1.4730  0.7420
 2477SOL     OW19063   0.255   4.620  12.826  0.5995  0.0400 -0.1948
 2477SOL    HW119064   0.306   4.604  12.747  2.3782  1.6883  0.6184
 2477SOL    HW219065   0.321   4.649  12.889  2.1681 -1.9464 -0.9145
 2478SOL     OW19066   3.373   1.558   1.862 -0.1129  0.1364 -0.5583
 2478SOL    HW119067   3.453   1.532   1.816  0.5878  0.2199  0.5965
 2478SOL    HW219068   3.318   1.585   1.789 -2.1430 -0.2034  0.8593
 2479SOL     OW19069   2.510   3.226   5.405  0.0982  0.1089  0.4760
 2479SOL    HW119070   2.563   3.268   5.338 -2.0716  0.0920 -1.2721
 2479SOL    HW219071   2.548   3.255   5.488 -0.5000  0.1765  0.7288
 2480SOL     OW19072   2.238   3.818   3.804  0.1992  0.4293  0.6187
 2480SOL    HW119073   2.329   3.787   3.796 -0.1472 -0.3438 -0.3883
 2480SOL    HW219074   2.194   3.743   3.844 -0.3014 -0.0602 -0.8493
 2481SOL     OW19075   3.015   0.397   5.332  0.5008  0.0473 -0.6555
 2481SOL    HW119076   3.096   0.377   5.378  0.7439  0.4753 -0.8963
 2481SOL    HW219077   3.037   0.357   5.248 -1.0249  1.2096 -1.6220
 2482SOL     OW19078   1.344   0.694   1.089 -0.2430  0.5589 -0.0134
 2482SOL    HW119079   1.308   0.608   1.112 -2.5780  1.3387 -0.8202
 2482SOL    HW219080   1.357   0.676   0.996 -0.0638 -0.6769  0.2500
 2483SOL     OW19081   0.321   2.755   8.976  0.1822  0.0554 -0.2554
 2483SOL    HW119082   0.309   2.660   8.980 -3.1553  0.4646 -0.4196
 2483SOL    HW219083   0.259   2.787   9.042  1.4669 -0.3750  1.1779
 2484SOL     OW19084   1.961   3.164   0.688 -0.5328  0.1001  0.4639
 2484SOL    HW119085   1.985   3.195   0.601 -2.0455 -0.4948 -0.1609
 2484SOL    HW219086   1.990   3.075   0.674 -1.5120  0.2464 -2.4238
 2485SOL     OW19087   4.626   2.565   5.307  0.2732 -0.1154 -0.1798
 2485SOL    HW119088   4.678   2.502   5.358 -0.6837 -1.5246 -0.9323
 2485SOL    HW219089   4.556   2.556   5.371  0.2657 -0.9907 -0.3068
 2486SOL     OW19090   0.853   0.577   0.185 -0.5617 -0.1470  0.1670
 2486SOL    HW119091   0.926   0.593   0.245 -0.0148  0.9508 -0.7917
 2486SOL    HW219092   0.777   0.621   0.222 -1.1316 -0.3671 -0.7412
 2487SOL     OW19093   4.193   1.361   2.758 -0.0745  0.5150  0.0833
 2487SOL    HW119094   4.250   1.437   2.745  1.6482 -0.8469 -0.2917
 2487SOL    HW219095   4.165   1.364   2.849 -0.5354  0.0531 -0.0492
 2488SOL     OW19096   0.646   3.611  17.711  0.0405 -0.3430 -0.5915
 2488SOL    HW119097   0.678   3.564   0.040 -1.1001 -0.8928 -0.4562
 2488SOL    HW219098   0.673   3.550  17.642 -0.0413 -1.0301 -0.0086
 2489SOL     OW19099   0.976   3.318   3.665 -0.6537  0.1902 -0.0695
 2489SOL    HW119100   0.976   3.236   3.716  1.1951 -0.0541 -0.4372
 2489SOL    HW219101   0.933   3.299   3.582 -0.7484  2.4011 -0.5062
 2490SOL     OW19102   0.798   2.386   7.340 -0.3386  0.0981  0.0998
 2490SOL    HW119103   0.812   2.345   7.255 -1.5922 -0.2492  0.0640
 2490SOL    HW219104   0.865   2.454   7.332 -1.0030  0.8210  0.6217
 2491SOL     OW19105   1.717   0.554  12.844 -0.3944  0.7198 -0.4287
 2491SOL    HW119106   1.695   0.512  12.927 -3.5736 -0.1619 -1.7204
 2491SOL    HW219107   1.803   0.516  12.826 -0.7478  0.4064 -1.4825
 2492SOL     OW19108   3.215   1.953   3.858 -0.7471  0.7976 -0.0701
 2492SOL    HW119109   3.215   1.967   3.763 -0.6186 -0.3102 -0.2388
 2492SOL    HW219110   3.170   1.871   3.878  0.2530  0.7259  1.8424
 2493SOL     OW19111   2.232   4.686   3.662 -0.0176  0.0421 -0.3562
 2493SOL    HW119112   2.203   4.609   3.613 -1.2292  0.8946 -1.0006
 2493SOL    HW219113   2.164   0.016   3.652 -1.4070 -1.2273  0.6148
 2494SOL     OW19114   0.311   1.718   5.063 -0.0091 -0.1817  0.0410
 2494SOL    HW119115   0.255   1.748   4.993  0.9788  0.6984 -0.3801
 2494SOL    HW219116   0.374   1.790   5.070  0.2226 -0.3812  0.0171
 2495SOL     OW19117   3.066   3.337   5.499 -0.0615  0.1273 -0.0350
 2495SOL    HW119118   3.003   3.374   5.437 -1.2637 -1.3322  0.2965
 2495SOL    HW219119   3.048   3.380   5.582  0.1614 -1.5423  0.8972
 2496SOL     OW19120   3.287   3.182   4.209  0.1259  0.1284 -0.0841
 2496SOL    HW119121   3.224   3.184   4.138 -0.8546 -1.9361  0.7222
 2496SOL    HW219122   3.263   3.104   4.259 -0.3280  0.0305 -0.4522
 2497SOL     OW19123   0.725   2.014   7.853  0.2145  0.1490 -0.0492
 2497SOL    HW119124   0.722   2.078   7.782 -0.7895 -0.4753 -0.5728
 2497SOL    HW219125   0.811   2.018   7.896 -0.9195  1.9694  2.1003
 2498SOL     OW19126   1.426   1.987   1.608 -0.0746  0.6676 -0.0355
 2498SOL    HW119127   1.342   1.956   1.573 -0.9067 -0.0060  2.6163
 2498SOL    HW219128   1.392   2.066   1.648  0.4962  0.9131 -0.0459
 2499SOL     OW19129   2.780   0.704   3.115  0.4610  0.0932 -0.1219
 2499SOL    HW119130   2.761   0.755   3.036 -1.4412  0.6411  0.6819
 2499SOL    HW219131   2.829   0.629   3.082 -1.4990 -0.4746 -1.7008
 2500SOL     OW19132   3.988   2.738  16.022  0.0759  0.8716 -0.5874
 2500SOL    HW119133   3.957   2.748  15.932  0.3605  0.7969 -0.6931
 2500SOL    HW219134   4.082   2.724  16.009 -0.3187  0.5260 -2.9600
 2501SOL     OW19135   1.939   0.008   2.227 -0.5770  0.0005 -0.0996
 2501SOL    HW119136   1.880   4.680   2.265  0.4700 -1.2091 -0.5744
 2501SOL    HW219137   1.869   0.054   2.180 -0.2925  0.8078  0.2883
 2502SOL     OW19138   2.406   0.007   4.508 -1.0336  0.3072  0.1049
 2502SOL    HW119139   2.333   0.034   4.565 -2.1051 -0.0697 -1.0827
 2502SOL    HW219140   2.460   4.711   4.580 -0.0420 -1.3641 -1.4361
 2503SOL     OW19141   0.739   0.277   1.352 -0.0226  0.0624  0.0151
 2503SOL    HW119142   0.796   0.253   1.279  1.2718  0.8004  0.7750
 2503SOL    HW219143   0.705   0.192   1.379  0.8328  0.1913  1.5241
 2504SOL     OW19144   1.022   3.952  16.451 -0.0982 -0.1534  0.6522
 2504SOL    HW119145   1.111   3.919  16.460  0.1669  0.1795 -0.8760
 2504SOL    HW219146   0.987   3.930  16.538 -1.2942 -0.0565  0.1973
 2505SOL     OW19147   3.716   3.932  17.069 -0.8036  0.1631  0.1383
 2505SOL    HW119148   3.732   3.857  17.126 -0.0613  0.3158  0.1296
 2505SOL    HW219149   3.805   3.949  17.037 -1.2418  1.7172 -0.2610
 2506SOL     OW19150   4.658   2.704  12.319 -0.0858 -0.1096  0.8095
 2506SOL    HW119151   4.683   2.613  12.334  1.2402  0.1462  0.1134
 2506SOL    HW219152   4.678   2.706  12.225 -0.1435 -0.9194  0.7827
 2507SOL     OW19153   2.470   1.048   6.396  0.1593 -0.5703  0.3333
 2507SOL    HW119154   2.397   0.998   6.361  0.0778  0.4360 -0.9297
 2507SOL    HW219155   2.429   1.088   6.473  0.7853  0.5798  0.0669
 2508SOL     OW19156   1.193   3.027   3.564  0.0518 -0.4521  0.1331
 2508SOL    HW119157   1.184   3.023   3.659 -0.4970 -2.9978 -0.0285
 2508SOL    HW219158   1.149   2.946   3.541 -0.9241  0.1290 -0.0348
 2509SOL     OW19159   1.038   0.262   1.456  0.3595 -0.0499  0.1181
 2509SOL    HW119160   1.044   0.183   1.402 -1.0548 -0.3258  0.3758
 2509SOL    HW219161   0.950   0.285   1.428  0.4645 -0.3729 -0.4696
 2510SOL     OW19162   1.649   4.369  15.998  0.2250  0.5232 -0.5063
 2510SOL    HW119163   1.735   4.404  15.976  1.0641 -1.3749 -0.2637
 2510SOL    HW219164   1.669   4.278  16.020  0.7521  0.8127  0.1972
 2511SOL     OW19165   4.237   1.407  16.309  0.1468  0.1605 -0.3815
 2511SOL    HW119166   4.182   1.465  16.255 -3.0164 -2.8404 -0.4254
 2511SOL    HW219167   4.184   1.327  16.299 -2.2966  1.5606  1.3109
 2512SOL     OW19168   2.794   0.651   7.313  0.0888  0.0359  0.1729
 2512SOL    HW119169   2.756   0.585   7.254  0.7508 -0.3030  0.1299
 2512SOL    HW219170   2.864   0.596   7.347 -0.2047 -1.0704 -0.9794
 2513SOL     OW19171   1.764   2.612  15.421 -0.2092  0.1678  0.0061
 2513SOL    HW119172   1.808   2.680  15.471  2.8495  1.5042 -4.4600
 2513SOL    HW219173   1.762   2.545  15.489  1.4477  0.7040  0.5713
 2514SOL     OW19174   0.496   3.139   4.874 -0.0803  0.9379  0.3671
 2514SOL    HW119175   0.506   3.169   4.784  0.7055  0.2148  0.2080
 2514SOL    HW219176   0.402   3.124   4.864  0.0147  0.4946  0.1616
 2515SOL     OW19177   0.926   4.224   7.941 -0.0939  0.4374  0.1783
 2515SOL    HW119178   0.904   4.287   8.009 -0.3432  0.9771 -0.4062
 2515SOL    HW219179   0.978   4.283   7.886 -1.2073 -0.9858 -2.4194
 2516SOL     OW19180   1.137   3.011   0.502  0.4272 -1.0780 -0.1375
 2516SOL    HW119181   1.155   3.101   0.477  0.8865 -1.3881 -0.9353
 2516SOL    HW219182   1.042   3.007   0.488  0.5100 -1.3980 -0.6126
 2517SOL     OW19183   0.869   3.496  15.601 -0.4797  0.1329 -0.2263
 2517SOL    HW119184   0.823   3.452  15.672  1.0552  1.7040  1.7456
 2517SOL    HW219185   0.826   3.443  15.534  0.4277 -2.0424  0.9089
 2518SOL     OW19186   1.674   1.896  14.331  0.0757  0.6159 -0.0493
 2518SOL    HW119187   1.704   1.986  14.314 -0.4560  0.4271 -1.9448
 2518SOL    HW219188   1.700   1.853  14.249 -0.8538 -1.3109  0.6733
 2519SOL     OW19189   3.232   0.893   2.038 -0.1383  0.2135 -0.3751
 2519SOL    HW119190   3.179   0.971   2.025  0.3600  0.4349 -1.0757
 2519SOL    HW219191   3.166   0.834   2.074  0.4857 -0.4224 -0.2758
 2520SOL     OW19192   2.032   2.714   4.632 -0.5065  0.3364  0.0990
 2520SOL    HW119193   2.086   2.638   4.654 -0.9508  0.0235  0.1196
 2520SOL    HW219194   1.951   2.678   4.668 -0.1820 -0.0979  0.3946
 2521SOL     OW19195   3.806   1.934   4.602  0.4247  0.1990  0.2292
 2521SOL    HW119196   3.824   1.842   4.621 -0.7177  0.5407  2.9144
 2521SOL    HW219197   3.736   1.934   4.537  0.3906  0.4009  0.2646
 2522SOL     OW19198   2.755   2.175   4.371 -0.3936 -0.1188  0.4522
 2522SOL    HW119199   2.755   2.230   4.450 -0.1063 -1.7953  1.6197
 2522SOL    HW219200   2.819   2.111   4.401  0.2586  0.5324  0.4570
 2523SOL     OW19201   4.464   3.284   5.403  0.3523  0.5148  0.3131
 2523SOL    HW119202   4.455   3.279   5.499 -0.6662  0.1642  0.1976
 2523SOL    HW219203   4.390   3.339   5.378  1.6853  1.5199 -1.3479
 2524SOL     OW19204   3.941   3.725   4.831 -0.0165  0.1102 -0.2350
 2524SOL    HW119205   3.940   3.662   4.760  0.8395  1.2595 -1.2594
 2524SOL    HW219206   3.882   3.786   4.786  0.2467  0.6985  0.2146
 2525SOL     OW19207   4.270   0.770   8.782  1.0413 -0.1522 -0.4502
 2525SOL    HW119208   4.292   0.692   8.833 -2.5437 -1.2864 -0.6449
 2525SOL    HW219209   4.227   0.815   8.855  0.3230 -1.7992  0.1324
 2526SOL     OW19210   2.380   0.740  12.439 -0.2189 -0.1270 -0.6694
 2526SOL    HW119211   2.339   0.694  12.366 -2.0230 -2.1723  1.6600
 2526SOL    HW219212   2.309   0.794  12.473  1.4783  1.5439  0.2307
 2527SOL     OW19213   2.391   1.079   7.139  0.1763  0.1663 -0.7342
 2527SOL    HW119214   2.446   1.001   7.127 -0.6301 -0.3162 -1.2608
 2527SOL    HW219215   2.374   1.089   7.045 -0.8983  0.1646 -0.5332
 2528SOL     OW19216   0.630   1.944   4.789 -0.1114 -0.3008  0.1029
 2528SOL    HW119217   0.631   2.025   4.739 -2.1016  0.5743  1.5016
 2528SOL    HW219218   0.721   1.914   4.786 -0.3720 -1.0370 -0.4036
 2529SOL     OW19219   2.123   4.570   2.402  0.2317  0.1230  0.2650
 2529SOL    HW119220   2.134   4.629   2.477  0.1441 -1.8723  1.8393
 2529SOL    HW219221   2.072   4.625   2.343 -0.4641 -0.0557  0.6979
 2530SOL     OW19222   2.722   0.235   2.888 -0.1466  0.8227 -0.0218
 2530SOL    HW119223   2.725   0.287   2.968 -3.6060  3.8543 -1.8589
 2530SOL    HW219224   2.795   0.173   2.892 -1.0626 -0.2377  0.2566
 2531SOL     OW19225   1.315   2.795   3.257 -0.0547 -0.7357  0.5764
 2531SOL    HW119226   1.339   2.733   3.325  1.6921 -0.8785 -0.1753
 2531SOL    HW219227   1.318   2.737   3.180  2.4163  1.1201 -0.7225
 2532SOL     OW19228   1.979   0.082   7.786  0.0763 -0.0216 -0.0923
 2532SOL    HW119229   2.021   0.059   7.869 -0.5196  0.3206  0.3080
 2532SOL    HW219230   2.037   0.154   7.758 -0.3247  1.0824  1.8901
 2533SOL     OW19231   3.996   0.118   3.081  0.6522 -0.3823  0.3387
 2533SOL    HW119232   4.078   0.084   3.046  0.0859 -0.9495 -0.4360
 2533SOL    HW219233   3.976   0.179   3.010  1.7771 -0.6334 -0.1890
 2534SOL     OW19234   3.642   1.264  12.340 -0.2367  0.3604  0.1794
 2534SOL    HW119235   3.659   1.209  12.416  0.4808  1.6823  0.9609
 2534SOL    HW219236   3.590   1.195  12.299  0.2353  0.1620 -0.0835
 2535SOL     OW19237   0.662   3.166   1.362  0.2999 -0.4137  0.4624
 2535SOL    HW119238   0.730   3.203   1.419  0.6267 -2.1787  1.2118
 2535SOL    HW219239   0.628   3.092   1.413 -2.0204  0.2839 -0.0669
 2536SOL     OW19240   3.881   3.293   2.594  0.1999  0.1618  0.1823
 2536SOL    HW119241   3.917   3.376   2.625 -1.7936  1.3369 -0.7027
 2536SOL    HW219242   3.964   3.246   2.585  0.3597  0.9816 -2.6352
 2537SOL     OW19243   1.996   3.037  11.366  0.1175  0.4424  0.2523
 2537SOL    HW119244   2.054   3.104  11.402  1.4382 -0.7364  0.3396
 2537SOL    HW219245   1.919   3.085  11.338 -0.7509 -0.4762  1.0515
 2538SOL     OW19246   4.164   2.851   8.158  0.3598  0.1753  0.2303
 2538SOL    HW119247   4.237   2.797   8.126  0.3464  0.5658 -0.4567
 2538SOL    HW219248   4.183   2.944   8.146 -1.1774  0.4297 -0.2263
 2539SOL     OW19249   4.393   0.417  13.553 -0.6617 -0.4124  0.3798
 2539SOL    HW119250   4.315   0.366  13.573 -0.7007 -0.6116 -0.2602
 2539SOL    HW219251   4.398   0.466  13.635  0.5811 -1.8088  1.1195
 2540SOL     OW19252   2.983   1.045  15.820 -0.4330 -0.6691  0.3357
 2540SOL    HW119253   2.964   1.110  15.752 -2.1413 -2.0816 -0.5310
 2540SOL    HW219254   3.077   1.030  15.818 -0.1682  0.8164  1.2809
 2541SOL     OW19255   3.931   0.603   4.895 -0.0965  0.1362 -0.3310
 2541SOL    HW119256   3.914   0.693   4.866 -2.1254  0.1724  0.9209
 2541SOL    HW219257   3.855   0.567   4.849 -0.6736  1.8183 -0.7038
 2542SOL     OW19258   2.372   1.457  10.582  0.1283 -0.4698  0.4961
 2542SOL    HW119259   2.412   1.525  10.636  0.9382 -1.7744  1.5030
 2542SOL    HW219260   2.279   1.480  10.585  0.3832  0.4331  1.5900
 2543SOL     OW19261   0.916   0.254   6.387 -0.5183 -0.3622  0.4848
 2543SOL    HW119262   0.825   0.283   6.396  0.0587  0.6671  3.0150
 2543SOL    HW219263   0.936   0.246   6.480  1.6661 -1.3581 -0.0753
 2544SOL     OW19264   0.534   1.962  13.857 -0.0304 -0.3997 -0.1785
 2544SOL    HW119265   0.557   2.035  13.914 -0.9241  0.1240 -0.4939
 2544SOL    HW219266   0.570   1.885  13.900  0.1444  0.1510  0.6556
 2545SOL     OW19267   3.367   1.591   8.782 -0.0318 -0.3749  0.0448
 2545SOL    HW119268   3.450   1.554   8.811  0.7829 -1.2004 -3.2745
 2545SOL    HW219269   3.330   1.523   8.725  1.4757 -1.1432 -0.0027
 2546SOL     OW19270   0.105   3.594   3.652 -0.2906  0.0025  0.1508
 2546SOL    HW119271   0.038   3.658   3.627 -1.1759 -0.0474  2.4115
 2546SOL    HW219272   0.159   3.651   3.708 -0.3621 -0.2628  0.4900
 2547SOL     OW19273   1.909   1.598   8.733  0.0478 -0.1227 -1.0533
 2547SOL    HW119274   1.927   1.608   8.827 -1.1810 -0.4224 -0.7784
 2547SOL    HW219275   1.990   1.627   8.692 -0.3830 -0.2062 -1.9510
 2548SOL     OW19276   1.435   2.718  15.918  0.7448 -0.1145 -0.0535
 2548SOL    HW119277   1.348   2.712  15.958  0.8704 -2.9954 -0.1994
 2548SOL    HW219278   1.469   2.663  15.989 -0.3402 -2.7167 -1.5625
 2549SOL     OW19279   4.593   3.726   6.471  0.2629 -0.2992  0.4117
 2549SOL    HW119280   4.598   3.818   6.445  0.9986 -0.4124  0.1711
 2549SOL    HW219281   4.665   3.695   6.416 -0.3306  0.8352 -0.9876
 2550SOL     OW19282   0.470   1.585   8.397  0.0546 -0.0122 -0.0336
 2550SOL    HW119283   0.556   1.553   8.422 -0.7221 -1.3282  0.9625
 2550SOL    HW219284   0.481   1.678   8.415 -1.0946  0.4139 -1.4923
 2551SOL     OW19285   2.386   3.548   2.433 -0.0327  0.4223 -0.1629
 2551SOL    HW119286   2.387   3.575   2.341 -1.6692  1.2578  0.0674
 2551SOL    HW219287   2.315   3.485   2.435  1.5059 -1.3056  0.6012
 2552SOL     OW19288   2.517   3.494   3.232  0.4638 -0.6680  0.3351
 2552SOL    HW119289   2.536   3.403   3.207 -2.6849 -0.9369 -1.0438
 2552SOL    HW219290   2.579   3.541   3.177 -2.5238  0.7668 -1.8349
 2553SOL     OW19291   1.323   2.679   6.224 -0.5665 -0.0773 -0.2939
 2553SOL    HW119292   1.267   2.675   6.146  1.3510  0.7281 -1.6977
 2553SOL    HW219293   1.358   2.590   6.234  0.7904  0.6386  1.1818
 2554SOL     OW19294   3.435   4.451   5.802 -0.6801  0.0151 -0.1763
 2554SOL    HW119295   3.493   4.450   5.726  0.3297 -0.3127  0.6018
 2554SOL    HW219296   3.402   4.541   5.809  0.6368  0.2813  2.6273
 2555SOL     OW19297   0.805   4.052  12.505  0.5095 -0.4239  0.1416
 2555SOL    HW119298   0.854   4.124  12.546 -1.9914  1.1331  0.3559
 2555SOL    HW219299   0.862   3.980  12.534  0.2908 -0.6676 -0.0294
 2556SOL     OW19300   0.534   1.954  13.327 -0.2963  0.0647  0.2311
 2556SOL    HW119301   0.456   1.915  13.365  1.1444 -2.3379  0.7152
 2556SOL    HW219302   0.588   1.875  13.320 -0.4066 -0.0291  0.4329
 2557SOL     OW19303   1.976   1.164   4.000  0.1075  0.2341  0.7205
 2557SOL    HW119304   2.027   1.214   3.937 -1.4264 -1.0406 -1.5198
 2557SOL    HW219305   2.047   1.135   4.057  2.5292 -0.4266 -2.6533
 2558SOL     OW19306   0.979   0.862  15.957 -0.3475 -0.2634  0.4980
 2558SOL    HW119307   0.910   0.876  16.021 -1.8796  2.2242 -1.7264
 2558SOL    HW219308   0.919   0.851  15.884 -0.2469 -0.7268  0.4865
 2559SOL     OW19309   1.746   1.033  16.152 -0.5583 -0.2375 -0.4592
 2559SOL    HW119310   1.668   1.026  16.097  0.1247 -0.8268 -1.3537
 2559SOL    HW219311   1.708   1.033  16.240 -1.2215 -0.0907 -0.7441
 2560SOL     OW19312   2.176   0.843   4.041  0.3509 -0.3022 -0.2861
 2560SOL    HW119313   2.138   0.760   4.071 -1.6056  0.5083 -0.5300
 2560SOL    HW219314   2.248   0.808   3.989 -0.1732 -0.5987 -0.8255
 2561SOL     OW19315   1.892   3.218  12.232 -0.2715  0.6988  0.1920
 2561SOL    HW119316   1.946   3.269  12.171 -1.2991  1.3134 -0.2110
 2561SOL    HW219317   1.902   3.284  12.301  0.5129  0.7483  0.0268
 2562SOL     OW19318   1.547   1.191   7.543  0.2298 -0.1982 -0.6834
 2562SOL    HW119319   1.552   1.261   7.608  1.8587  2.4099 -3.6584
 2562SOL    HW219320   1.562   1.239   7.462 -0.1119  1.2573  0.1180
 2563SOL     OW19321   4.719   1.417   3.237  0.1699  0.4960  0.3725
 2563SOL    HW119322   0.059   1.438   3.184 -1.1257  1.2070 -1.2707
 2563SOL    HW219323   0.016   1.342   3.285 -0.6741  0.4441  0.8804
 2564SOL     OW19324   2.388   3.483   3.508  0.8982  0.4773  0.4712
 2564SOL    HW119325   2.434   3.488   3.425  0.6801 -0.7017  0.2797
 2564SOL    HW219326   2.365   3.575   3.524  0.0763  0.4415 -0.4847
 2565SOL     OW19327   4.071   0.780   7.654 -0.2526 -0.1212  0.0352
 2565SOL    HW119328   4.061   0.871   7.680 -1.8745 -0.8764  2.0365
 2565SOL    HW219329   4.097   0.740   7.737  1.2989 -3.5644 -2.1222
 2566SOL     OW19330   3.060   0.981   6.300  0.0826  0.4436 -1.3295
 2566SOL    HW119331   3.125   1.042   6.266  1.5295  0.1721  0.9356
 2566SOL    HW219332   3.109   0.913   6.346 -2.1102 -0.8082 -0.8316
 2567SOL     OW19333   2.745   2.255   9.551  0.4498  0.3922 -0.1340
 2567SOL    HW119334   2.790   2.201   9.485 -0.1249  0.8003 -0.8586
 2567SOL    HW219335   2.719   2.186   9.612  1.5432  0.9334  0.9525
 2568SOL     OW19336   0.628   2.237  13.054 -0.3520  0.6783  0.2362
 2568SOL    HW119337   0.679   2.263  12.978 -1.5879  1.4598 -0.3256
 2568SOL    HW219338   0.696   2.212  13.117 -0.5299 -1.3205 -0.3596
 2569SOL     OW19339   4.181   0.592   8.959 -0.3884  0.1334 -0.0299
 2569SOL    HW119340   4.195   0.505   8.995  0.8126  0.2988 -0.0888
 2569SOL    HW219341   4.172   0.625   9.049  0.1929 -0.4586  0.2438
 2570SOL     OW19342   0.449   1.396   0.895 -0.0835 -0.2263 -0.0207
 2570SOL    HW119343   0.463   1.490   0.906 -1.0938 -0.0105 -0.6283
 2570SOL    HW219344   0.484   1.384   0.807  1.1011  1.6788  0.2076
 2571SOL     OW19345   3.348   4.272   9.336  0.5728 -0.3984 -0.9417
 2571SOL    HW119346   3.257   4.297   9.322 -0.0862 -2.0496  0.3897
 2571SOL    HW219347   3.356   4.261   9.431  0.0276 -1.4086 -1.0119
 2572SOL     OW19348   4.065   0.095   7.430 -0.6289  0.0834  0.3034
 2572SOL    HW119349   4.094   0.167   7.374 -0.0422 -0.5337 -0.1844
 2572SOL    HW219350   4.023   0.034   7.369  0.5461  1.1364 -1.5545
 2573SOL     OW19351   3.195   0.330  16.957  0.6010  0.3094 -0.0703
 2573SOL    HW119352   3.176   0.353  16.866  0.9533 -1.1969 -0.5324
 2573SOL    HW219353   3.273   0.276  16.947  1.0679  0.9123  0.4011
 2574SOL     OW19354   0.070   1.023   3.525 -0.5706 -0.2054 -0.2030
 2574SOL    HW119355   0.130   1.080   3.477  0.2526  0.9868  2.2687
 2574SOL    HW219356   0.095   1.032   3.616 -1.5993  0.7144 -0.0060
 2575SOL     OW19357   3.635   3.380   6.938 -0.0856  0.1799  0.1171
 2575SOL    HW119358   3.626   3.285   6.939  0.7205  0.0897 -0.9241
 2575SOL    HW219359   3.627   3.399   7.031  0.5671 -1.6001  0.5324
 2576SOL     OW19360   4.374   3.117  14.537  0.0952  0.2196 -0.0210
 2576SOL    HW119361   4.403   3.027  14.522  2.1063  0.6449  1.2614
 2576SOL    HW219362   4.419   3.180  14.481  2.2189  0.6753  2.1967
 2577SOL     OW19363   4.488   1.787   9.020  0.0031  0.2822 -0.3457
 2577SOL    HW119364   4.461   1.756   8.934  0.3036  1.6489 -0.9340
 2577SOL    HW219365   4.443   1.871   9.028  0.5598  0.5036  0.4194
 2578SOL     OW19366   2.761   0.458  16.508  0.4682 -0.4402 -0.9687
 2578SOL    HW119367   2.672   0.465  16.473  0.3457 -0.6700 -0.6968
 2578SOL    HW219368   2.800   0.544  16.489  0.0022 -0.1183 -0.4474
 2579SOL     OW19369   2.206   4.048   8.827 -0.4249 -0.0656 -0.0461
 2579SOL    HW119370   2.150   4.108   8.777 -0.8503 -2.2958 -2.2713
 2579SOL    HW219371   2.191   4.079   8.916  2.3100  1.4596 -0.1408
 2580SOL     OW19372   1.385   2.840   6.953 -0.3573  0.1944 -0.2197
 2580SOL    HW119373   1.479   2.844   6.966 -0.3225 -1.4433  0.1020
 2580SOL    HW219374   1.367   2.916   7.008  1.4298  1.5238 -1.4795
 2581SOL     OW19375   2.187   4.604  14.814 -0.0666 -0.0770 -0.4557
 2581SOL    HW119376   2.227   4.563  14.892 -0.1948  0.5623 -0.0529
 2581SOL    HW219377   2.236   4.561  14.745  1.2885 -1.1435  1.1595
 2582SOL     OW19378   1.521   4.673   9.322  0.1942 -0.2459 -0.5784
 2582SOL    HW119379   1.505   4.661   9.415 -0.2254 -1.6474 -0.8293
 2582SOL    HW219380   1.442   4.710   9.282  0.3079 -1.5336 -1.9938
 2583SOL     OW19381   1.620   3.552  15.552 -0.0417  0.0262 -0.6674
 2583SOL    HW119382   1.714   3.540  15.548  0.2166  1.7619  0.2484
 2583SOL    HW219383   1.583   3.464  15.558  0.0257  0.1447  1.5888
 2584SOL     OW19384   4.295   0.143   2.379  0.3140 -0.4228  0.1596
 2584SOL    HW119385   4.285   0.048   2.375 -1.8547 -0.1040 -2.1838
 2584SOL    HW219386   4.383   0.152   2.343  0.5526  0.5659  0.9928
 2585SOL     OW19387   4.709   0.366   1.788 -0.0177 -0.7387  0.0316
 2585SOL    HW119388   4.705   0.271   1.788  0.3492 -0.7598  0.9890
 2585SOL    HW219389   0.064   0.390   1.786 -1.1684  3.4866 -1.6792
 2586SOL     OW19390   4.346   2.821  15.526 -0.0064  0.4386  0.7195
 2586SOL    HW119391   4.370   2.863  15.444  1.6813  0.6013  1.2936
 2586SOL    HW219392   4.251   2.814  15.524  0.0676 -0.5903  0.9890
 2587SOL     OW19393   0.810   1.432  15.038 -0.5833 -0.9976 -0.5765
 2587SOL    HW119394   0.800   1.509  15.093  0.9103  0.8926 -2.9806
 2587SOL    HW219395   0.903   1.431  15.015 -0.7679  0.4309 -1.3574
 2588SOL     OW19396   2.489   1.548   4.073  0.3445 -0.1503 -0.5330
 2588SOL    HW119397   2.406   1.593   4.059 -0.4584 -1.4802  0.0056
 2588SOL    HW219398   2.542   1.624   4.095  0.1997  0.0178 -0.7593
 2589SOL     OW19399   3.045   3.363   2.751  0.3411  0.2837 -0.3050
 2589SOL    HW119400   3.032   3.270   2.768  2.9257  0.1492  0.9591
 2589SOL    HW219401   3.115   3.355   2.686 -0.2087 -2.9504 -0.5240
 2590SOL     OW19402   1.339   0.040   4.494 -0.0125  0.2122  1.0214
 2590SOL    HW119403   1.297   4.699   4.531  1.0575 -0.6734  0.3707
 2590SOL    HW219404   1.398   4.737   4.431 -0.3863 -1.4947  1.7564
 2591SOL     OW19405   1.260   2.091   8.052 -0.3080  0.0813 -0.1957
 2591SOL    HW119406   1.304   2.177   8.054 -0.7923  0.2954  1.2825
 2591SOL    HW219407   1.261   2.055   8.140  3.2388  1.8260  0.4940
 2592SOL     OW19408   2.135   0.512   8.567 -0.4452 -0.2907 -0.2176
 2592SOL    HW119409   2.145   0.556   8.483  1.4115  0.5159  0.4176
 2592SOL    HW219410   2.061   0.457   8.542  1.1324 -1.1041 -3.0796
 2593SOL     OW19411   4.460   3.565   3.149  0.4992 -0.1120  0.2786
 2593SOL    HW119412   4.451   3.587   3.241  0.3896 -1.2213  0.5297
 2593SOL    HW219413   4.391   3.614   3.103  1.7284  1.7253  0.3727
 2594SOL     OW19414   3.107   4.189   3.296  0.6371  0.8155 -0.4788
 2594SOL    HW119415   3.070   4.251   3.358 -0.5805  0.0534 -0.4548
 2594SOL    HW219416   3.038   4.123   3.298  1.5341 -0.1170 -0.5157
 2595SOL     OW19417   2.805   4.286  14.246 -0.6557 -0.8055  0.0625
 2595SOL    HW119418   2.816   4.212  14.306 -0.1598 -2.5337 -2.1434
 2595SOL    HW219419   2.765   4.345  14.310 -0.8298 -0.6528 -0.1878
 2596SOL     OW19420   0.482   4.124   1.624  0.7996  0.1163 -0.1730
 2596SOL    HW119421   0.421   4.061   1.663  1.1797 -0.1036  0.0577
 2596SOL    HW219422   0.445   4.140   1.537  1.8256 -3.1082 -1.2020
 2597SOL     OW19423   0.972   4.249  17.145 -0.3180  0.0151 -0.1431
 2597SOL    HW119424   0.954   4.234  17.237  2.1100  0.2289  0.3525
 2597SOL    HW219425   0.950   4.161  17.115  1.3906 -0.2720 -0.5329
 2598SOL     OW19426   4.615   1.868   4.822 -0.4352  0.3338 -0.4275
 2598SOL    HW119427   4.543   1.872   4.759 -0.2716 -0.7585 -0.6820
 2598SOL    HW219428   4.585   1.930   4.888  2.9704  0.3116  1.1448
 2599SOL     OW19429   0.616   3.708  12.451 -0.1041 -0.3728  0.5041
 2599SOL    HW119430   0.605   3.757  12.369 -0.1017  2.8963  2.4443
 2599SOL    HW219431   0.527   3.678  12.469 -1.3050  2.3854 -0.8254
 2600SOL     OW19432   4.321   0.258  15.102  0.2657 -0.7555 -0.3726
 2600SOL    HW119433   4.229   0.280  15.087  0.1883  0.9182  2.6083
 2600SOL    HW219434   4.351   0.344  15.130  0.5027  0.1763 -3.5061
 2601SOL     OW19435   0.559   2.828   5.813  0.0308  0.1252  0.1709
 2601SOL    HW119436   0.497   2.813   5.743 -0.4974  0.5372  0.5488
 2601SOL    HW219437   0.603   2.907   5.781 -1.2655  0.3109 -1.1467
 2602SOL     OW19438   2.201   4.439   3.185 -0.6859 -0.5670  0.3210
 2602SOL    HW119439   2.266   4.468   3.249  1.1343 -1.9490 -0.9033
 2602SOL    HW219440   2.164   4.525   3.168 -0.7136 -0.0132  3.1965
 2603SOL     OW19441   0.465   1.513   2.100 -0.7804 -0.2360 -0.4522
 2603SOL    HW119442   0.541   1.497   2.157 -2.8669 -0.4745  2.2393
 2603SOL    HW219443   0.420   1.429   2.101  1.5604 -1.4893  1.0944
 2604SOL     OW19444   4.614   4.715   4.270  0.0071  0.3505  0.7957
 2604SOL    HW119445   4.535   0.030   4.255  0.5093  0.8010 -0.2636
 2604SOL    HW219446   4.675   4.730   4.198 -0.0503 -3.0199  0.0506
 2605SOL     OW19447   2.346   1.051  13.213  0.1991 -0.7510  0.2412
 2605SOL    HW119448   2.420   1.089  13.259  0.8411  0.5608 -1.8620
 2605SOL    HW219449   2.344   1.102  13.132 -1.2201  1.0390  1.3978
 2606SOL     OW19450   4.250   2.197   2.199 -0.2145 -0.0273 -0.1116
 2606SOL    HW119451   4.212   2.285   2.196 -1.9288 -0.7547  0.3924
 2606SOL    HW219452   4.307   2.204   2.275 -0.5316  2.1783 -0.0497
 2607SOL     OW19453   1.549   1.633   5.173 -0.1217 -0.5667  0.7131
 2607SOL    HW119454   1.494   1.561   5.141  2.4057 -1.8265 -0.7671
 2607SOL    HW219455   1.620   1.577   5.204 -0.1921 -1.6621 -1.0815
 2608SOL     OW19456   4.690   3.243   3.987  0.4292 -0.4564  0.2291
 2608SOL    HW119457   0.018   3.197   4.040  0.7998  1.6805  1.6253
 2608SOL    HW219458   4.716   3.218   3.898  0.2230 -0.1223  0.0742
 2609SOL     OW19459   3.803   3.246   4.662  0.3792 -0.1625  0.2973
 2609SOL    HW119460   3.881   3.301   4.673 -1.6143  3.1633 -2.0851
 2609SOL    HW219461   3.743   3.307   4.618 -2.2733 -2.8971  0.1730
 2610SOL     OW19462   3.316   0.481   4.351  0.1737  0.4285 -0.1964
 2610SOL    HW119463   3.254   0.492   4.279 -0.2064  0.3145  0.1130
 2610SOL    HW219464   3.268   0.419   4.406  2.0460  1.7011  2.8336
 2611SOL     OW19465   4.267   4.138   2.073  0.9940  0.0463 -0.0778
 2611SOL    HW119466   4.202   4.150   2.004  1.6781  1.4622 -0.4790
 2611SOL    HW219467   4.243   4.190   2.150  1.8839 -0.4213  0.5105
 2612SOL     OW19468   2.884   1.015   9.471 -0.6428 -0.9615 -0.0560
 2612SOL    HW119469   2.853   1.080   9.533 -2.4396 -2.3940  0.5358
 2612SOL    HW219470   2.977   1.033   9.483 -0.0829 -1.4153 -3.7835
 2613SOL     OW19471   4.251   2.055  10.771  0.2877 -0.1104  0.7054
 2613SOL    HW119472   4.279   2.128  10.716  1.5035  1.4428  3.4324
 2613SOL    HW219473   4.220   2.000  10.699  0.7058  0.1948  0.2938
 2614SOL     OW19474   1.294   4.507   1.961 -0.1955  0.7562  0.5924
 2614SOL    HW119475   1.297   4.424   1.912  0.8385  0.8249  0.5428
 2614SOL    HW219476   1.255   4.475   2.043  0.3459  3.8260  2.0292
 2615SOL     OW19477   4.623   0.041   3.813 -0.0045 -0.1385 -0.4803
 2615SOL    HW119478   4.550   0.001   3.862 -0.4271 -0.4517 -1.3708
 2615SOL    HW219479   4.656   4.700   3.769 -0.5254  0.3062 -1.6639
 2616SOL     OW19480   2.845   3.906   3.785 -0.2759 -0.5848  0.3901
 2616SOL    HW119481   2.935   3.901   3.753 -0.3995  1.2880 -0.2364
 2616SOL    HW219482   2.834   3.984   3.839 -1.6864 -0.1618 -0.5067
 2617SOL     OW19483   2.230   3.548   5.626 -0.0282  0.5032 -0.2550
 2617SOL    HW119484   2.211   3.628   5.576 -0.0886  1.3525  1.1344
 2617SOL    HW219485   2.189   3.563   5.711 -0.9638  0.1521 -0.6388
 2618SOL     OW19486   2.298   3.526   2.065 -0.1136  0.3674  0.1341
 2618SOL    HW119487   2.292   3.616   2.095  2.8273  0.1081  1.5495
 2618SOL    HW219488   2.387   3.502   2.091  0.2876  2.0229  0.2635
 2619SOL     OW19489   4.188   4.461   1.274 -0.6234 -0.4076 -0.0854
 2619SOL    HW119490   4.126   4.534   1.283 -0.5410 -0.3835  0.2805
 2619SOL    HW219491   4.165   4.396   1.341 -1.6165  0.8883  0.8225
 2620SOL     OW19492   3.323   2.163  10.297 -0.2319  0.1185 -0.2211
 2620SOL    HW119493   3.395   2.122  10.250 -0.1226 -1.4842  1.3016
 2620SOL    HW219494   3.306   2.093  10.361  0.8127 -0.3137 -0.4290
 2621SOL     OW19495   2.343   2.410   8.532 -0.2716  0.3402 -0.1042
 2621SOL    HW119496   2.389   2.474   8.479  0.6413  1.0879  1.5827
 2621SOL    HW219497   2.280   2.469   8.573 -0.3379  0.9417 -1.0909
 2622SOL     OW19498   2.727   0.342   4.399  0.5529 -0.2731 -0.3713
 2622SOL    HW119499   2.643   0.381   4.373 -0.0714 -1.2234  0.2306
 2622SOL    HW219500   2.704   0.323   4.490 -0.6297  0.7186 -0.4600
 2623SOL     OW19501   1.537   0.379   8.786 -0.2790  0.3906  0.6014
 2623SOL    HW119502   1.616   0.427   8.761  1.1377 -1.6368  1.2266
 2623SOL    HW219503   1.528   0.317   8.714  0.3104  0.4921  0.4389
 2624SOL     OW19504   1.501   1.577   6.422 -0.4100  0.5921 -0.2751
 2624SOL    HW119505   1.431   1.513   6.408  1.2721 -1.3421  0.0330
 2624SOL    HW219506   1.576   1.527   6.389 -0.1284 -0.8890  2.6477
 2625SOL     OW19507   3.758   0.250   3.801 -0.3179  0.0284  0.2484
 2625SOL    HW119508   3.712   0.315   3.748 -0.4710  0.4262  0.8562
 2625SOL    HW219509   3.759   0.294   3.886 -0.7910  0.8574 -0.1777
 2626SOL     OW19510   4.450   0.828   2.251 -0.6799  0.5084 -0.3255
 2626SOL    HW119511   4.412   0.873   2.327  0.9906  0.2339  0.6830
 2626SOL    HW219512   4.528   0.789   2.289 -1.6377 -0.9556  0.1427
 2627SOL     OW19513   2.878   3.255   1.745  0.1759  0.1075 -0.3487
 2627SOL    HW119514   2.945   3.208   1.696 -0.0031 -0.7930  0.2780
 2627SOL    HW219515   2.792   3.240   1.705  0.9293  0.7264 -2.2074
 2628SOL     OW19516   0.460   1.093   4.473  0.5789  0.1979 -0.1857
 2628SOL    HW119517   0.550   1.126   4.469 -0.3614  2.6123 -0.7064
 2628SOL    HW219518   0.437   1.091   4.566 -1.4852 -0.4227 -0.7059
 2629SOL     OW19519   0.464   0.699   7.799 -0.4448  0.1542 -0.1148
 2629SOL    HW119520   0.553   0.669   7.780 -0.9483  0.2616 -2.6368
 2629SOL    HW219521   0.485   0.750   7.877  1.1698 -1.6520  0.6379
 2630SOL     OW19522   0.808   3.283  12.858 -0.0801  0.6142  0.2333
 2630SOL    HW119523   0.900   3.277  12.834 -0.3764  1.2418 -1.0231
 2630SOL    HW219524   0.782   3.211  12.801  1.2817 -0.6813  1.2465
 2631SOL     OW19525   3.460   1.539   7.746  0.5642 -0.3913 -0.0590
 2631SOL    HW119526   3.389   1.593   7.713  0.0692 -1.5736 -0.9386
 2631SOL    HW219527   3.408   1.474   7.793 -0.6023 -0.0890 -0.9378
 2632SOL     OW19528   0.920   1.070   4.885 -0.1076  0.1282  0.5891
 2632SOL    HW119529   0.870   1.133   4.833 -0.5624  0.7983  1.8244
 2632SOL    HW219530   1.009   1.081   4.852 -1.1349  0.8870 -1.8744
 2633SOL     OW19531   4.406   3.431  12.369 -0.3673 -0.0556  0.4773
 2633SOL    HW119532   4.326   3.484  12.365  0.5025  1.0766 -2.2168
 2633SOL    HW219533   4.406   3.402  12.460  0.7525 -1.3726  0.0561
 2634SOL     OW19534   1.984   1.504  17.293  0.4508  0.3579  0.8894
 2634SOL    HW119535   1.917   1.450  17.336  0.5632  1.6994  2.7716
 2634SOL    HW219536   1.950   1.592  17.309  1.3245  0.7062  0.7977
 2635SOL     OW19537   1.211   0.277  15.718  0.8811 -0.4470  0.0156
 2635SOL    HW119538   1.246   0.349  15.665  0.9247 -0.5258 -0.0625
 2635SOL    HW219539   1.254   0.315  15.794 -0.0365 -0.1966  0.4108
 2636SOL     OW19540   0.251   2.840   3.417 -0.7397 -0.0046 -0.2583
 2636SOL    HW119541   0.216   2.755   3.443  3.2359 -1.8626 -0.9668
 2636SOL    HW219542   0.283   2.811   3.331  0.5915 -1.2077  0.6376
 2637SOL     OW19543   1.940   3.517   8.863 -0.2001  0.3152  0.3476
 2637SOL    HW119544   1.880   3.582   8.828 -0.0580 -0.5734 -1.5760
 2637SOL    HW219545   1.932   3.444   8.801  0.2595 -1.1650  2.0117
 2638SOL     OW19546   2.365   0.755   8.292 -0.0747 -0.2104 -0.6656
 2638SOL    HW119547   2.409   0.833   8.257  0.6605 -0.3043  0.0474
 2638SOL    HW219548   2.427   0.733   8.362 -0.6102 -1.8123 -0.7066
 2639SOL     OW19549   0.255   1.974   2.792 -0.0171  0.1697  0.4076
 2639SOL    HW119550   0.242   1.887   2.753 -0.5948  0.8497 -0.9280
 2639SOL    HW219551   0.288   1.953   2.879 -0.6881 -0.5147  0.4932
 2640SOL     OW19552   3.621   3.741   8.165 -0.4232 -0.2664  0.5375
 2640SOL    HW119553   3.637   3.789   8.246 -0.7570 -2.6553  2.0253
 2640SOL    HW219554   3.588   3.803   8.099  1.1585  0.9318  0.8825
 2641SOL     OW19555   4.118   0.092   5.975 -1.0607 -0.5296 -0.3086
 2641SOL    HW119556   4.147   0.070   6.064  2.4642  1.1944 -1.0343
 2641SOL    HW219557   4.134   0.006   5.936  0.9889 -0.0129 -0.5678
 2642SOL     OW19558   4.649   3.458   5.318  0.6780  0.6687  0.2913
 2642SOL    HW119559   4.726   3.412   5.350 -0.2487 -0.7742  0.4427
 2642SOL    HW219560   4.584   3.395   5.348 -0.5252 -0.2729 -4.2039
 2643SOL     OW19561   4.715   4.674   6.637  0.5424 -0.0455 -0.2683
 2643SOL    HW119562   4.666   0.016   6.659  0.7975 -0.4785  1.8739
 2643SOL    HW219563   4.645   4.640   6.581 -0.1572  1.5212 -0.3612
 2644SOL     OW19564   4.001   3.643   6.851  0.1065 -0.3259  0.4080
 2644SOL    HW119565   3.934   3.636   6.784 -1.5790 -1.0671  2.1597
 2644SOL    HW219566   3.942   3.706   6.893 -0.3392  0.4119 -1.3450
 2645SOL     OW19567   2.903   2.766  13.735  0.2029 -0.6307 -0.2584
 2645SOL    HW119568   2.927   2.687  13.784 -0.8187 -0.7120  0.1124
 2645SOL    HW219569   2.811   2.777  13.758  0.4281  0.7235  0.0023
 2646SOL     OW19570   4.238   3.386   2.374  0.0824  0.5259  0.7195
 2646SOL    HW119571   4.316   3.336   2.349 -1.5648 -1.7324  0.0773
 2646SOL    HW219572   4.179   3.386   2.299 -0.1742  0.4753  0.9214
 2647SOL     OW19573   1.523   0.181  11.631 -0.5690  0.0249 -0.1289
 2647SOL    HW119574   1.545   0.215  11.718  0.7168 -3.4083  0.8905
 2647SOL    HW219575   1.501   0.089  11.638 -1.4115  0.4860  3.0143
 2648SOL     OW19576   4.726   2.305   3.335 -0.1516 -0.3215  0.0633
 2648SOL    HW119577   4.668   2.378   3.359  0.8525  0.1708  0.9790
 2648SOL    HW219578   4.689   2.308   3.247 -0.9355  0.2376  0.4054
 2649SOL     OW19579   4.383   0.459  10.030 -0.3963  0.9147 -0.4123
 2649SOL    HW119580   4.378   0.456  10.125 -0.2013 -0.7758 -0.4517
 2649SOL    HW219581   4.317   0.527  10.015 -1.6133 -0.4060 -1.0543
 2650SOL     OW19582   2.190   0.647   9.415  0.0265  0.0318 -0.7180
 2650SOL    HW119583   2.170   0.633   9.322 -2.7038  1.1388 -0.2896
 2650SOL    HW219584   2.249   0.576   9.441  1.5992  1.2550 -0.9149
 2651SOL     OW19585   4.222   1.104   6.617  0.3892  0.3778 -0.0035
 2651SOL    HW119586   4.302   1.072   6.575  1.0542  0.3394  1.3116
 2651SOL    HW219587   4.237   1.198   6.614 -0.8771  0.5389 -1.1933
 2652SOL     OW19588   1.657   0.489   3.397  0.0515 -0.1345  0.2647
 2652SOL    HW119589   1.690   0.432   3.327 -1.2705 -2.9519  1.9558
 2652SOL    HW219590   1.740   0.528   3.425 -0.9231  0.0759  2.7567
 2653SOL     OW19591   3.482   3.002   1.859  0.4191 -0.1967 -0.4069
 2653SOL    HW119592   3.395   3.017   1.821  0.8873 -2.2753 -2.2703
 2653SOL    HW219593   3.528   2.978   1.779 -1.5730 -0.0194 -1.6168
 2654SOL     OW19594   2.011   1.442   2.253  0.0867  0.1239 -0.3119
 2654SOL    HW119595   2.005   1.525   2.205  1.8579 -0.3102 -1.2677
 2654SOL    HW219596   2.054   1.386   2.189  0.4928  0.8357 -0.6666
 2655SOL     OW19597   1.720   4.194   1.732 -0.4868  0.0348  0.3341
 2655SOL    HW119598   1.716   4.192   1.828 -1.2353  0.1400  0.3078
 2655SOL    HW219599   1.784   4.265   1.725 -3.0832  2.4227  0.7017
 2656SOL     OW19600   1.501   3.225  10.035  0.3379 -0.3307 -0.4910
 2656SOL    HW119601   1.431   3.223   9.971 -1.1558 -0.2098  1.1360
 2656SOL    HW219602   1.486   3.310  10.076  1.4544 -0.5571  0.4006
 2657SOL     OW19603   1.767   3.992  12.035  0.5952 -0.9091  0.3623
 2657SOL    HW119604   1.731   4.038  12.111 -0.0295  0.5202 -0.8118
 2657SOL    HW219605   1.739   3.902  12.050 -0.7502 -0.6996 -0.9912
 2658SOL     OW19606   2.118   3.804   7.558 -0.2809  0.2925  0.0960
 2658SOL    HW119607   2.174   3.728   7.570 -0.1455  0.3883  0.0748
 2658SOL    HW219608   2.180   3.873   7.582 -0.9528  0.8056  0.3706
 2659SOL     OW19609   1.127   0.149  10.911 -0.6535 -0.2597 -0.6300
 2659SOL    HW119610   1.079   0.183  10.986 -0.6529 -1.4819 -0.0647
 2659SOL    HW219611   1.209   0.118  10.950 -0.9287  1.5021  1.3083
 2660SOL     OW19612   4.336   1.566   3.193  0.5167  0.2543  0.2940
 2660SOL    HW119613   4.241   1.556   3.196  0.5821 -1.0392 -1.5171
 2660SOL    HW219614   4.363   1.476   3.172  0.8023  1.3238 -3.8943
 2661SOL     OW19615   3.957   3.097   2.212 -0.6291 -0.4870  0.1324
 2661SOL    HW119616   4.049   3.096   2.239 -0.8355 -0.5911  0.8515
 2661SOL    HW219617   3.957   3.124   2.120  1.4596  0.5852  0.4602
 2662SOL     OW19618   3.809   2.312   9.570  0.4216 -0.0474  0.3423
 2662SOL    HW119619   3.904   2.311   9.562  0.4390 -1.0756  0.7560
 2662SOL    HW219620   3.797   2.225   9.608 -2.1931 -0.5584 -1.6335
 2663SOL     OW19621   0.318   4.661   9.774  0.0904  0.2891 -0.0556
 2663SOL    HW119622   0.405   4.629   9.799 -0.1358  0.1525  0.5533
 2663SOL    HW219623   0.268   4.624   9.847  0.8883  0.5220  0.6087
 2664SOL     OW19624   2.244   0.477   7.173 -0.3285  0.0205  0.3234
 2664SOL    HW119625   2.196   0.450   7.095  0.0749 -1.8980  0.7467
 2664SOL    HW219626   2.212   0.411   7.235  1.3443  1.0683  2.3198
 2665SOL     OW19627   1.526   2.453   7.784  0.0299  0.3103  0.4920
 2665SOL    HW119628   1.600   2.472   7.727 -0.2952  3.8585  1.2303
 2665SOL    HW219629   1.480   2.397   7.721  1.6201  0.0192 -0.4094
 2666SOL     OW19630   2.980   4.079   4.516  0.7664 -0.3555 -0.1756
 2666SOL    HW119631   3.031   4.160   4.527 -1.0251  0.9330 -1.3068
 2666SOL    HW219632   2.978   4.069   4.420 -2.2795 -4.8277  0.3758
 2667SOL     OW19633   3.800   4.428  12.739  0.0867 -0.5923 -0.1625
 2667SOL    HW119634   3.880   4.455  12.784  1.0448 -1.1422 -1.5357
 2667SOL    HW219635   3.746   4.405  12.814  0.6955  1.4752  0.9272
 2668SOL     OW19636   2.684   0.674   4.069 -0.0062 -0.1809 -0.2402
 2668SOL    HW119637   2.640   0.706   3.991  0.7398  0.1516 -0.5264
 2668SOL    HW219638   2.714   0.752   4.116 -0.3521 -1.7782  2.6016
 2669SOL     OW19639   3.853   4.734   9.553 -0.2851 -0.2204  0.3620
 2669SOL    HW119640   3.776   0.050   9.573  1.2084  1.4299  1.7051
 2669SOL    HW219641   3.815   4.647   9.564  0.8459 -0.4473  2.5238
 2670SOL     OW19642   0.647   2.629  16.197  0.0166  0.5110 -0.2790
 2670SOL    HW119643   0.578   2.678  16.151  1.1548  0.9906 -1.4940
 2670SOL    HW219644   0.702   2.703  16.222  0.2453  0.9725 -2.0853
 2671SOL     OW19645   0.690   4.260   9.813 -0.2226 -0.8455 -0.0657
 2671SOL    HW119646   0.744   4.262   9.892 -1.2108 -1.6816  0.6295
 2671SOL    HW219647   0.712   4.168   9.798  0.1401 -0.6140 -0.9814
 2672SOL     OW19648   4.700   4.266   5.168  0.0579  0.2212  0.3995
 2672SOL    HW119649   0.018   4.344   5.164 -0.5558  0.6195 -0.2868
 2672SOL    HW219650   4.620   4.317   5.185 -0.4799 -0.0898 -1.2328
 2673SOL     OW19651   0.461   2.319   3.373  0.3669 -0.5380  0.2917
 2673SOL    HW119652   0.413   2.374   3.312  2.7554  1.4794  0.2321
 2673SOL    HW219653   0.415   2.338   3.455 -1.1210  0.8688 -0.8744
 2674SOL     OW19654   0.511   2.207   4.675  0.0289  0.4174 -0.3062
 2674SOL    HW119655   0.452   2.185   4.603  1.3446  2.9742 -2.1765
 2674SOL    HW219656   0.549   2.290   4.647 -1.7946  0.9316 -1.2160
 2675SOL     OW19657   3.671   1.665  17.674 -0.2151 -0.4534  0.6815
 2675SOL    HW119658   3.673   1.621   0.011 -2.3498 -0.0520  0.9315
 2675SOL    HW219659   3.765   1.677  17.657 -0.0241 -1.1198  1.2611
 2676SOL     OW19660   0.389   0.549   0.700  0.0646  0.3663  0.2943
 2676SOL    HW119661   0.437   0.506   0.770  0.7987 -0.0683 -0.4715
 2676SOL    HW219662   0.362   0.618   0.760 -1.5082  2.0383 -2.3097
 2677SOL     OW19663   0.555   4.199   5.339 -0.3248  0.2940 -0.2379
 2677SOL    HW119664   0.529   4.270   5.399  1.3180  0.7488 -0.0605
 2677SOL    HW219665   0.614   4.154   5.399 -1.0004 -0.1302  0.1041
 2678SOL     OW19666   4.322   2.560   9.730 -0.1011  0.1720  0.4238
 2678SOL    HW119667   4.320   2.572   9.825  0.5130 -0.7491  0.5612
 2678SOL    HW219668   4.413   2.589   9.720  0.4912 -1.3232  1.4505
 2679SOL     OW19669   3.168   1.878   6.801  1.0396 -0.3330  0.3953
 2679SOL    HW119670   3.249   1.869   6.852  0.0870  0.5570  2.0851
 2679SOL    HW219671   3.212   1.864   6.718 -1.4494 -0.8138 -0.8576
 2680SOL     OW19672   1.744   1.596   3.856  0.2784 -0.1667 -0.8104
 2680SOL    HW119673   1.788   1.512   3.842  1.2958 -0.2582  3.0046
 2680SOL    HW219674   1.814   1.649   3.895 -0.9604  0.2818  0.7612
 2681SOL     OW19675   2.622   1.725   3.522  0.3065  0.7703 -0.1852
 2681SOL    HW119676   2.678   1.800   3.544  0.5819  0.4743  0.1202
 2681SOL    HW219677   2.656   1.657   3.580  0.6840  1.1076 -0.0060
 2682SOL     OW19678   3.047   3.355  10.267 -0.0204  0.8384  0.0824
 2682SOL    HW119679   3.028   3.437  10.312 -0.8383 -0.2113  1.6641
 2682SOL    HW219680   3.005   3.370  10.182  0.3482  1.9766  0.1006
 2683SOL     OW19681   3.982   2.395   2.979  0.0696  0.0421 -0.2499
 2683SOL    HW119682   4.053   2.403   2.915 -0.0696 -1.0989 -0.5593
 2683SOL    HW219683   4.013   2.461   3.041  0.2513 -0.9352  0.7127
 2684SOL     OW19684   3.410   4.274   3.742  0.2595 -0.3839  0.3014
 2684SOL    HW119685   3.489   4.329   3.743 -1.6090  2.2317  1.7498
 2684SOL    HW219686   3.340   4.338   3.753  0.2919 -0.3477  0.2986
 2685SOL     OW19687   0.387   0.118   8.934  0.2599  0.0642  0.2458
 2685SOL    HW119688   0.437   0.040   8.958 -1.2551 -0.5248  1.4628
 2685SOL    HW219689   0.367   0.112   8.841  0.7425  3.8277 -0.0919
 2686SOL     OW19690   1.697   1.396  10.877 -0.0797  0.1187 -0.0666
 2686SOL    HW119691   1.601   1.394  10.875 -0.0593 -0.2119 -0.8463
 2686SOL    HW219692   1.724   1.382  10.968  2.3275 -2.5203 -1.1824
 2687SOL     OW19693   2.374   4.463  12.912 -0.4333 -0.0172  0.0130
 2687SOL    HW119694   2.429   4.520  12.966 -1.5886  0.0808  1.0747
 2687SOL    HW219695   2.289   4.498  12.939  0.5425  0.3609  2.6594
 2688SOL     OW19696   4.101   2.126   9.608  0.7251  0.8867  0.5299
 2688SOL    HW119697   4.166   2.194   9.592  0.2703  1.2890  0.3809
 2688SOL    HW219698   4.123   2.064   9.539 -2.7149 -2.3998  2.3443
 2689SOL     OW19699   1.856   2.448   5.773 -0.5393 -0.2539  0.5983
 2689SOL    HW119700   1.897   2.399   5.844  1.7581  1.4583  0.4682
 2689SOL    HW219701   1.924   2.440   5.707 -0.8272  0.9777  0.1466
 2690SOL     OW19702   1.831   2.833  15.574 -0.1341  0.2392 -0.3045
 2690SOL    HW119703   1.893   2.891  15.618 -0.7421  0.8132 -0.2005
 2690SOL    HW219704   1.763   2.837  15.642  0.3159  1.7162  0.0649
 2691SOL     OW19705   2.295   1.826  17.276  0.7463  0.2937 -0.2808
 2691SOL    HW119706   2.245   1.774  17.339  1.2331  2.0068  1.5410
 2691SOL    HW219707   2.260   1.790  17.195  0.8101  1.0207 -0.6250
 2692SOL     OW19708   0.203   0.007  10.959  0.1311 -0.1639  0.6353
 2692SOL    HW119709   0.296   4.735  10.937  0.4105  0.5410  1.5169
 2692SOL    HW219710   0.183   4.651  10.950  2.0953 -0.4504 -0.9351
 2693SOL     OW19711   1.669   1.097   9.567  0.0658  0.2546 -0.3803
 2693SOL    HW119712   1.746   1.089   9.623  1.2962 -0.2881 -2.1434
 2693SOL    HW219713   1.588   1.098   9.617 -0.2013  2.3915 -0.8482
 2694SOL     OW19714   2.935   2.764  12.592  0.5999 -0.2744  0.1686
 2694SOL    HW119715   2.852   2.802  12.562 -1.6446 -3.1018  2.7489
 2694SOL    HW219716   2.984   2.757  12.511  0.0288 -1.2247 -0.0970
 2695SOL     OW19717   3.446   0.842   4.117 -0.2560  0.3468 -0.2809
 2695SOL    HW119718   3.485   0.927   4.137 -1.7262  1.2891 -1.3660
 2695SOL    HW219719   3.364   0.846   4.166 -0.6951  0.7690 -1.0374
 2696SOL     OW19720   2.066   2.976   8.674  0.3277  0.2550 -0.0880
 2696SOL    HW119721   2.013   2.938   8.744 -0.1721 -0.8893 -1.0918
 2696SOL    HW219722   2.098   3.060   8.707  1.8595 -0.6520  0.7510
 2697SOL     OW19723   0.751   0.577   4.300  0.0200 -0.0987  0.8807
 2697SOL    HW119724   0.725   0.487   4.320 -0.2752 -0.3276 -0.5243
 2697SOL    HW219725   0.757   0.571   4.205 -0.5788  0.9060  0.7783
 2698SOL     OW19726   2.715   0.209  13.136  0.4374 -0.8174 -0.0398
 2698SOL    HW119727   2.697   0.242  13.048  1.0599 -1.6415 -0.4736
 2698SOL    HW219728   2.796   0.260  13.149  1.4191 -1.7462 -2.5307
 2699SOL     OW19729   1.865   4.461   9.395 -0.1743 -0.2286 -0.4140
 2699SOL    HW119730   1.952   4.436   9.364  0.7633  0.2665  1.7667
 2699SOL    HW219731   1.862   4.551   9.363  2.4609 -0.9558 -2.7056
 2700SOL     OW19732   2.619   1.383  16.760 -0.2324  0.6288 -0.3089
 2700SOL    HW119733   2.659   1.455  16.809 -0.4378 -0.7836  1.9472
 2700SOL    HW219734   2.530   1.381  16.794  0.8278  0.0545  2.3799
 2701SOL     OW19735   2.567   1.945   5.967  0.2065 -0.0910  0.3331
 2701SOL    HW119736   2.479   1.980   5.980 -0.0500  0.1293 -1.9366
 2701SOL    HW219737   2.593   2.006   5.898 -2.3482  0.1985 -0.3718
 2702SOL     OW19738   4.730   4.434   5.834  0.6939  0.1757  0.3052
 2702SOL    HW119739   4.649   4.393   5.804 -0.1764  2.6157 -0.6922
 2702SOL    HW219740   0.009   4.510   5.778  1.7462 -0.3895 -0.1457
 2703SOL     OW19741   3.935   0.784   7.407  0.3241 -0.0422 -0.0619
 2703SOL    HW119742   3.931   0.776   7.503  0.8157 -0.2696 -0.0648
 2703SOL    HW219743   4.012   0.839   7.396 -0.7563  1.1563 -1.6622
 2704SOL     OW19744   2.274   2.359   4.322 -0.3883  0.0363  0.3066
 2704SOL    HW119745   2.249   2.268   4.307 -1.5518  0.2038  1.2262
 2704SOL    HW219746   2.199   2.396   4.276 -0.4375 -0.9032 -0.3779
 2705SOL     OW19747   2.866   0.842   2.788 -0.2644 -0.3505  0.4383
 2705SOL    HW119748   2.952   0.809   2.763  0.1981  0.4773  0.9249
 2705SOL    HW219749   2.880   0.935   2.807 -2.3975  0.1824 -0.5896
 2706SOL     OW19750   4.170   2.844   9.016  0.4249  0.9274  0.1209
 2706SOL    HW119751   4.121   2.809   8.942  0.1902  1.4387  0.0309
 2706SOL    HW219752   4.146   2.785   9.088 -2.0332  0.3934 -1.1088
 2707SOL     OW19753   4.195   2.009  17.126 -0.5186  0.2903  0.2229
 2707SOL    HW119754   4.130   2.046  17.187  1.5416  0.9889  2.0353
 2707SOL    HW219755   4.130   1.990  17.059  0.7256  1.3095 -1.2575
 2708SOL     OW19756   2.772   2.779   5.517  0.2145  0.5094  0.3344
 2708SOL    HW119757   2.791   2.863   5.559  2.8000  0.1342 -0.0468
 2708SOL    HW219758   2.830   2.731   5.576 -0.0941  1.3826  1.3620
 2709SOL     OW19759   0.470   3.923   3.496 -0.4418 -0.5610 -0.2678
 2709SOL    HW119760   0.466   3.899   3.589  0.7686 -0.0799 -0.0910
 2709SOL    HW219761   0.470   3.836   3.455 -1.8174  0.7322 -2.9726
 2710SOL     OW19762   0.808   4.169  10.041  0.0920  0.2088 -0.6141
 2710SOL    HW119763   0.847   4.201  10.123  0.6461 -1.1583 -0.3521
 2710SOL    HW219764   0.736   4.110  10.066  0.6723 -0.2562 -0.0519
 2711SOL     OW19765   2.477   3.999   5.993 -0.2200  0.4364 -0.3045
 2711SOL    HW119766   2.472   3.972   5.901  0.6505 -0.1792 -0.1615
 2711SOL    HW219767   2.415   3.930   6.018 -0.2739  0.5079 -0.2389
 2712SOL     OW19768   4.593   4.283   9.182  1.0634  0.5745  1.0952
 2712SOL    HW119769   4.625   4.262   9.095  2.7190  0.4366  1.7285
 2712SOL    HW219770   4.677   4.317   9.214  2.0552 -0.8054 -0.0729
 2713SOL     OW19771   0.354   3.290   7.240 -0.1785  0.1546 -0.2366
 2713SOL    HW119772   0.405   3.317   7.164 -0.5398 -1.8405 -1.1940
 2713SOL    HW219773   0.398   3.342   7.307 -3.0428  0.9812  0.9654
 2714SOL     OW19774   2.902   4.318   4.929  0.2114 -0.2672  0.1021
 2714SOL    HW119775   2.847   4.394   4.908  0.7381  0.5634  1.7524
 2714SOL    HW219776   2.840   4.252   4.899 -0.0625 -0.1186  0.3408
 2715SOL     OW19777   0.800   3.075   3.150 -0.2046 -0.2961 -0.8119
 2715SOL    HW119778   0.817   2.994   3.103  0.8692 -0.8066  0.4303
 2715SOL    HW219779   0.714   3.058   3.189 -0.5679  1.8876 -0.6326
 2716SOL     OW19780   4.306   0.792   2.978 -0.2383  0.3560 -0.0242
 2716SOL    HW119781   4.351   0.734   3.040 -0.8686  0.5175  0.5822
 2716SOL    HW219782   4.331   0.880   3.008  0.3763  0.2193 -0.1250
 2717SOL     OW19783   4.732   4.252   8.968 -0.1597 -0.0419 -0.6761
 2717SOL    HW119784   4.693   4.239   8.882 -1.8830 -2.9672  0.5711
 2717SOL    HW219785   0.077   4.202   8.966  0.1283  0.4905 -2.3314
 2718SOL     OW19786   3.782   0.846   8.999  0.0616 -0.4715 -0.2715
 2718SOL    HW119787   3.701   0.895   8.984  0.5426  0.5452  0.4443
 2718SOL    HW219788   3.733   0.787   9.057 -0.9028  2.2940  1.7165
 2719SOL     OW19789   0.422   3.845   6.973  0.3355  0.3911  0.1358
 2719SOL    HW119790   0.373   3.766   6.950 -0.4811  0.9359  0.0176
 2719SOL    HW219791   0.514   3.818   6.984  0.6031  0.4403 -1.8118
 2720SOL     OW19792   2.562   2.341  12.917  0.0128 -0.0212 -0.3988
 2720SOL    HW119793   2.527   2.294  12.841  0.8687 -0.2601 -0.6500
 2720SOL    HW219794   2.479   2.381  12.941 -0.5419 -1.3000 -0.1614
 2721SOL     OW19795   3.745   1.028   6.689  0.0574 -0.4550 -0.2676
 2721SOL    HW119796   3.684   0.956   6.670 -2.2630  1.8915 -1.6514
 2721SOL    HW219797   3.745   1.022   6.785  1.0639  0.3437 -0.2228
 2722SOL     OW19798   2.567   1.122   8.942  0.0955 -0.1747 -0.2474
 2722SOL    HW119799   2.631   1.066   8.899 -0.5349 -1.1779  0.1261
 2722SOL    HW219800   2.496   1.066   8.972  0.6854 -0.9711 -0.3525
 2723SOL     OW19801   1.815   3.801  17.191  0.1531 -0.0359  0.0870
 2723SOL    HW119802   1.896   3.847  17.167  0.4768  0.1109  1.5017
 2723SOL    HW219803   1.812   3.824  17.284  1.5682 -1.4237  0.4649
 2724SOL     OW19804   0.303   0.485   8.666  0.1885  0.2123 -0.2088
 2724SOL    HW119805   0.326   0.535   8.589 -0.3472  0.4595 -0.2121
 2724SOL    HW219806   0.231   0.429   8.637 -1.3702  1.1715  1.7630
 2725SOL     OW19807   0.068   3.550   6.356  0.0235  0.7039  0.3097
 2725SOL    HW119808   0.076   3.473   6.301  0.4791 -0.3000  1.7910
 2725SOL    HW219809   0.104   3.527   6.442  1.3048  0.2943 -0.3362
 2726SOL     OW19810   1.359   3.513   8.230 -0.0732  0.0167 -0.0504
 2726SOL    HW119811   1.415   3.503   8.307 -2.4354  1.4011  1.8530
 2726SOL    HW219812   1.308   3.432   8.237  1.7648 -1.1981 -0.7724
 2727SOL     OW19813   0.335   3.194  10.088  0.2289  0.4356  0.6875
 2727SOL    HW119814   0.426   3.212  10.112  0.6775  0.2788 -0.8782
 2727SOL    HW219815   0.292   3.225  10.168 -1.0266 -0.5739  0.3990
 2728SOL     OW19816   4.519   4.261   5.758 -0.0656  0.3903  0.0884
 2728SOL    HW119817   4.436   4.277   5.711  0.8333  1.4385 -1.1345
 2728SOL    HW219818   4.576   4.219   5.693  0.4627  0.5411  0.4592
 2729SOL     OW19819   1.069   1.855   8.595 -0.0852  0.6193  0.4083
 2729SOL    HW119820   1.145   1.842   8.653  1.5746  0.1963 -1.8785
 2729SOL    HW219821   1.001   1.844   8.661 -0.4570  2.7127  0.3756
 2730SOL     OW19822   4.652   0.671   2.370 -0.0819 -0.3259 -0.2876
 2730SOL    HW119823   4.651   0.587   2.415 -0.2182 -1.3438 -2.2028
 2730SOL    HW219824   4.690   0.723   2.441  1.2921 -0.1836 -1.1259
 2731SOL     OW19825   4.581   3.122  11.173 -0.7595  0.3324 -0.1354
 2731SOL    HW119826   4.567   3.215  11.193  0.6376  0.6384 -0.6011
 2731SOL    HW219827   4.671   3.109  11.145 -1.1069  1.1702 -1.5954
 2732SOL     OW19828   0.877   3.030   6.500 -0.1511 -0.2874  0.0465
 2732SOL    HW119829   0.886   3.004   6.408  2.5709  1.1895 -0.1112
 2732SOL    HW219830   0.849   3.121   6.491  0.1207 -0.2260 -0.2047
 2733SOL     OW19831   2.409   3.084   2.065 -0.4880  0.0397 -0.6765
 2733SOL    HW119832   2.348   3.010   2.060 -1.0770  0.5478 -0.9904
 2733SOL    HW219833   2.351   3.158   2.080  0.2123  0.0000  2.1961
 2734SOL     OW19834   3.412   1.749   4.568  0.3950  0.0355 -0.1234
 2734SOL    HW119835   3.455   1.833   4.588 -1.7607  1.8101 -2.8539
 2734SOL    HW219836   3.321   1.773   4.581  0.1123 -1.7826  1.2383
 2735SOL     OW19837   1.801   4.100   9.887  0.1942 -0.3750 -0.2538
 2735SOL    HW119838   1.771   4.017   9.924 -1.7495 -0.2306 -1.4764
 2735SOL    HW219839   1.757   4.160   9.948 -0.8336 -1.5440  0.1480
 2736SOL     OW19840   1.718   0.966   2.563  0.2546  1.2573 -0.0144
 2736SOL    HW119841   1.736   0.953   2.470  0.1943 -1.0328  0.2876
 2736SOL    HW219842   1.636   1.014   2.560  0.1737  1.1205  0.0124
 2737SOL     OW19843   1.126   1.647  15.135  0.6020  0.5170  0.3153
 2737SOL    HW119844   1.099   1.590  15.064  1.5314 -0.9422  1.1315
 2737SOL    HW219845   1.079   1.727  15.111 -0.2780 -0.1484 -0.1436
 2738SOL     OW19846   0.468   3.357   2.609 -0.0648 -0.3974 -0.0466
 2738SOL    HW119847   0.517   3.286   2.649 -0.3169 -0.3696  0.3132
 2738SOL    HW219848   0.489   3.428   2.669  2.4240 -1.1890 -0.0144
 2739SOL     OW19849   2.858   0.909  11.128 -0.1217 -0.5841 -0.2030
 2739SOL    HW119850   2.929   0.934  11.188 -0.4229  2.2343 -1.0175
 2739SOL    HW219851   2.908   0.890  11.048  0.4967 -0.0544  0.0535
 2740SOL     OW19852   2.003   0.336   0.312 -1.0005  0.3246  0.0939
 2740SOL    HW119853   2.036   0.421   0.283 -0.9316 -0.1303 -1.1835
 2740SOL    HW219854   2.067   0.310   0.377 -0.1575 -0.8662 -1.1977
 2741SOL     OW19855   0.858   3.898  10.574 -0.9291  0.1642 -0.3080
 2741SOL    HW119856   0.899   3.882  10.489 -0.9128  0.4897 -0.3650
 2741SOL    HW219857   0.877   3.990  10.596  0.1162 -0.4978  1.5351
 2742SOL     OW19858   0.896   0.445  12.387  0.4879  0.1800 -0.0415
 2742SOL    HW119859   0.936   0.530  12.405  0.7885  0.0803 -0.2384
 2742SOL    HW219860   0.841   0.440  12.465  0.8304 -2.3106  0.0457
 2743SOL     OW19861   4.553   0.732   1.274  0.1078 -0.0553  0.2647
 2743SOL    HW119862   4.619   0.668   1.302  1.7575  1.3708 -0.3855
 2743SOL    HW219863   4.595   0.764   1.194  2.1410 -0.5753  1.1127
 2744SOL     OW19864   2.522   2.109   4.482 -0.5180  0.2742 -0.1727
 2744SOL    HW119865   2.572   2.155   4.415  0.3546  1.2477  1.1599
 2744SOL    HW219866   2.585   2.040   4.500 -0.2934 -0.2613 -3.0633
 2745SOL     OW19867   4.153   4.647   8.828 -0.0517  0.2496 -0.5761
 2745SOL    HW119868   4.162   4.581   8.760  0.6980  0.9427 -1.1513
 2745SOL    HW219869   4.126   4.726   8.781 -1.4297 -1.3921 -2.4783
 2746SOL     OW19870   3.752   1.653   0.919  0.0741  0.0073 -0.1528
 2746SOL    HW119871   3.663   1.652   0.953 -0.2424  0.6713 -0.9724
 2746SOL    HW219872   3.788   1.576   0.964  1.5282  0.2130 -0.9579
 2747SOL     OW19873   1.988   2.478  10.897 -0.2562 -0.2208  0.6308
 2747SOL    HW119874   1.969   2.392  10.935 -0.0771 -0.5531 -0.0427
 2747SOL    HW219875   1.950   2.517  10.976 -0.1025  2.2705 -0.5085
 2748SOL     OW19876   3.703   1.038   3.569  0.3726  0.0966 -0.1135
 2748SOL    HW119877   3.765   1.019   3.640  2.0460 -1.2733 -1.9122
 2748SOL    HW219878   3.649   1.102   3.614  2.0556  1.6480 -0.2784
 2749SOL     OW19879   3.516   2.424   8.520 -0.2813 -0.0891  0.1876
 2749SOL    HW119880   3.489   2.515   8.512  0.6063 -0.0081 -1.9888
 2749SOL    HW219881   3.510   2.408   8.615  2.4946  0.5864  0.4885
 2750SOL     OW19882   1.893   0.685   9.756 -0.4914  0.0677 -0.2510
 2750SOL    HW119883   1.911   0.596   9.784 -3.2830 -1.2880 -2.7706
 2750SOL    HW219884   1.804   0.671   9.724 -0.0341 -3.2840 -0.0191
 2751SOL     OW19885   2.238   3.184   4.430  0.1904 -0.6540 -0.1352
 2751SOL    HW119886   2.303   3.250   4.451 -0.3666 -0.3714  0.7054
 2751SOL    HW219887   2.298   3.112   4.408 -1.2171 -2.1500  0.8779
 2752SOL     OW19888   2.228   1.268   3.490  0.1182  0.2101 -0.7641
 2752SOL    HW119889   2.280   1.228   3.421 -1.8421 -2.1873 -0.8794
 2752SOL    HW219890   2.287   1.309   3.553 -0.8893 -0.0030  0.3411
 2753SOL     OW19891   0.881   3.294   4.075  0.3769  0.1246  0.0448
 2753SOL    HW119892   0.913   3.366   4.021  2.0915 -0.5136  0.2098
 2753SOL    HW219893   0.886   3.329   4.164 -1.2634 -0.3127  0.3069
 2754SOL     OW19894   0.213   1.979   5.442 -0.2475  0.6796 -0.5455
 2754SOL    HW119895   0.184   1.935   5.362  0.9307 -0.5626 -0.2884
 2754SOL    HW219896   0.201   2.067   5.408 -3.3628  0.9235  1.1466
 2755SOL     OW19897   2.138   1.886   7.490  0.5604  0.6660  0.0417
 2755SOL    HW119898   2.121   1.827   7.417  0.3473 -1.5669  1.8951
 2755SOL    HW219899   2.051   1.921   7.510  0.2561  0.1407 -0.3787
 2756SOL     OW19900   3.091   1.166   7.798 -0.2261 -0.0438 -0.1179
 2756SOL    HW119901   3.012   1.218   7.811  1.3489  1.5996  2.9880
 2756SOL    HW219902   3.094   1.140   7.706 -1.4101  0.5451 -0.3156
 2757SOL     OW19903   3.644   3.380   7.695 -0.1247 -0.0565 -0.7784
 2757SOL    HW119904   3.660   3.335   7.612  1.8111 -0.4772 -0.1703
 2757SOL    HW219905   3.585   3.321   7.743  1.6417 -2.2418 -1.2927
 2758SOL     OW19906   2.819   3.142   6.707  0.1847 -0.4619  0.7700
 2758SOL    HW119907   2.735   3.187   6.700  0.9125  0.6331 -1.0018
 2758SOL    HW219908   2.855   3.158   6.794  0.8990  2.6375 -0.0748
 2759SOL     OW19909   2.851   2.225   1.473  0.5660 -0.2852 -0.3037
 2759SOL    HW119910   2.909   2.157   1.439  2.5018  1.5566 -0.6992
 2759SOL    HW219911   2.909   2.298   1.452  1.9352 -2.0782 -2.7400
 2760SOL     OW19912   1.888   1.840   7.147 -0.7570 -0.1992 -0.3371
 2760SOL    HW119913   1.979   1.809   7.148 -0.4247  0.8028  0.9884
 2760SOL    HW219914   1.842   1.775   7.094  0.9650  0.3806 -2.5413
 2761SOL     OW19915   2.638   4.273   5.739  0.2439 -0.1885 -0.3895
 2761SOL    HW119916   2.698   4.201   5.720 -0.1500 -0.4655 -0.5886
 2761SOL    HW219917   2.627   4.263   5.834 -2.1540 -0.8271 -0.7367
 2762SOL     OW19918   3.474   3.625   7.764  0.2696 -0.2351  0.3904
 2762SOL    HW119919   3.529   3.572   7.822  0.4769  0.2207  0.6079
 2762SOL    HW219920   3.408   3.657   7.826 -1.7493  0.2106 -2.0137
 2763SOL     OW19921   0.425   1.176   0.655  0.3424  0.2340  0.2231
 2763SOL    HW119922   0.513   1.148   0.631 -0.5663 -1.7250 -0.9203
 2763SOL    HW219923   0.367   1.115   0.608 -0.3924 -1.0228  2.7934
 2764SOL     OW19924   3.929   1.939  16.897  0.4036  0.4370 -0.1088
 2764SOL    HW119925   3.895   1.852  16.878  0.5800  0.6170 -1.2482
 2764SOL    HW219926   4.000   1.939  16.832  0.3221 -1.3116 -0.1915
 2765SOL     OW19927   4.083   3.165  10.368 -0.0275 -0.1531 -0.6995
 2765SOL    HW119928   4.177   3.161  10.382 -0.0084 -2.3095 -1.4428
 2765SOL    HW219929   4.089   3.244  10.314  2.1614  0.3879  0.3263
 2766SOL     OW19930   3.300   3.962  13.310 -0.4622  0.0502  0.0476
 2766SOL    HW119931   3.392   3.986  13.307 -1.0664  2.3793  0.1103
 2766SOL    HW219932   3.270   4.036  13.362 -1.5276  1.4728 -2.6119
 2767SOL     OW19933   1.034   2.751   4.860 -0.0861 -0.2731 -0.3429
 2767SOL    HW119934   1.102   2.818   4.867 -0.4000 -0.4350  4.1192
 2767SOL    HW219935   0.975   2.776   4.930  1.9540  2.5947  0.3517
 2768SOL     OW19936   3.610   3.487   2.176 -0.2259  0.2449  0.9865
 2768SOL    HW119937   3.639   3.448   2.259 -0.1808 -1.0847  0.3487
 2768SOL    HW219938   3.533   3.435   2.151 -1.1622  1.4332  1.3885
 2769SOL     OW19939   1.217   0.494   1.253  0.6512 -0.2877 -0.3336
 2769SOL    HW119940   1.266   0.415   1.229 -0.3165 -0.7134 -0.8822
 2769SOL    HW219941   1.133   0.453   1.272 -0.0987  0.0125 -3.0795
 2770SOL     OW19942   3.866   2.948   7.000  0.3055 -0.1683  0.1624
 2770SOL    HW119943   3.874   2.931   6.906 -3.8650  0.0666 -0.2111
 2770SOL    HW219944   3.828   2.865   7.026 -0.3640 -0.2917 -1.2364
 2771SOL     OW19945   1.295   2.415  16.246 -0.4618  0.3868  0.4887
 2771SOL    HW119946   1.304   2.394  16.339 -3.0023  0.6753  0.8209
 2771SOL    HW219947   1.203   2.393  16.228 -0.6641  1.1293  0.6052
 2772SOL     OW19948   1.748   0.190  13.096 -0.5244 -0.0342 -0.1718
 2772SOL    HW119949   1.823   0.202  13.038  0.1159  1.1235  0.8787
 2772SOL    HW219950   1.699   0.271  13.081 -0.0759  0.0606 -1.1083
 2773SOL     OW19951   0.778   0.205  16.328 -0.2268 -0.6069 -0.5736
 2773SOL    HW119952   0.844   0.229  16.264  1.6372  3.2814  2.8437
 2773SOL    HW219953   0.819   0.141  16.387  2.5399  1.8016  0.0958
 2774SOL     OW19954   2.466   0.438   4.042  0.6211  0.3224  0.0483
 2774SOL    HW119955   2.499   0.415   3.955  1.2388  1.9998 -0.1730
 2774SOL    HW219956   2.520   0.513   4.066 -0.4993  1.7646 -1.9394
 2775SOL     OW19957   4.340   2.672  11.484  0.0097 -0.7412 -0.2241
 2775SOL    HW119958   4.395   2.747  11.505 -0.0170 -0.5934 -0.6854
 2775SOL    HW219959   4.266   2.686  11.542 -0.3841 -0.9203 -0.6822
 2776SOL     OW19960   3.789   4.013   7.313  0.5159 -0.1395 -0.3011
 2776SOL    HW119961   3.716   4.064   7.349 -0.2833 -1.3738 -0.1554
 2776SOL    HW219962   3.833   3.990   7.395 -2.2118  1.6052  1.6635
 2777SOL     OW19963   2.449   4.633  10.925 -0.3880 -0.0042 -0.7075
 2777SOL    HW119964   2.372   4.581  10.945 -0.3392  0.1460 -0.1107
 2777SOL    HW219965   2.516   4.583  10.973 -0.2750  0.6475 -0.1814
 2778SOL     OW19966   0.227   0.886   7.729 -0.7920  0.1803 -0.7769
 2778SOL    HW119967   0.235   0.977   7.756  0.0862  0.4296 -1.8754
 2778SOL    HW219968   0.305   0.841   7.761 -0.1262  1.4745 -0.5907
 2779SOL     OW19969   3.290   3.697   8.965 -0.0992  0.0211  0.6537
 2779SOL    HW119970   3.364   3.724   9.019  0.7492 -1.4907  0.2428
 2779SOL    HW219971   3.279   3.781   8.921 -1.7469  0.4947  1.9911
 2780SOL     OW19972   1.035   0.313   8.673 -0.0525 -0.0689  0.1222
 2780SOL    HW119973   0.980   0.241   8.706 -0.2342  1.3414  2.9339
 2780SOL    HW219974   1.114   0.312   8.727  0.5532 -1.1651 -0.7773
 2781SOL     OW19975   0.143   1.330   3.810  0.2860  0.0365  0.0210
 2781SOL    HW119976   0.158   1.380   3.730  0.1619  2.3242  1.4045
 2781SOL    HW219977   0.051   1.351   3.829  0.1341 -3.0854  2.7485
 2782SOL     OW19978   4.329   4.372  12.862  0.2244  0.2767 -0.6813
 2782SOL    HW119979   4.253   4.414  12.821 -0.8943 -1.8305 -0.7715
 2782SOL    HW219980   4.398   4.407  12.806 -0.5530  1.9355 -0.6183
 2783SOL     OW19981   0.619   2.889   4.909 -0.2015  0.1783 -0.6563
 2783SOL    HW119982   0.568   2.966   4.935  0.5730  1.1486 -2.0682
 2783SOL    HW219983   0.596   2.834   4.984  1.1021 -1.7461 -1.6580
 2784SOL     OW19984   0.827   1.155  15.923 -0.3563 -0.1355  0.4007
 2784SOL    HW119985   0.873   1.124  15.845 -0.1887 -1.4109  0.9967
 2784SOL    HW219986   0.789   1.072  15.955  0.5380 -0.9522 -0.6565
 2785SOL     OW19987   0.481   1.286   6.036  0.4464  0.0996 -0.2244
 2785SOL    HW119988   0.554   1.313   5.981  0.4627 -0.3512 -0.4258
 2785SOL    HW219989   0.519   1.263   6.121 -0.0000  1.2349  0.2769
 2786SOL     OW19990   3.857   2.810   8.171 -0.4411 -0.2521  0.0962
 2786SOL    HW119991   3.952   2.817   8.172 -0.3728 -0.8554 -2.3945
 2786SOL    HW219992   3.856   2.715   8.166  0.0231 -0.2087 -0.8069
 2787SOL     OW19993   0.629   0.282   9.836 -0.2621  0.2611  0.3241
 2787SOL    HW119994   0.657   0.363   9.879 -0.9399 -0.8562  2.8665
 2787SOL    HW219995   0.697   0.273   9.769 -1.0638 -2.2139 -0.1707
 2788SOL     OW19996   4.291   3.084   7.426 -0.8407  0.0321 -0.5382
 2788SOL    HW119997   4.295   3.145   7.499 -0.7328 -1.7536  0.9375
 2788SOL    HW219998   4.292   3.002   7.475  1.6656  0.0924 -0.4472
 2789SOL     OW19999   3.238   0.581  17.135 -0.4493 -0.1233  0.3130
 2789SOL    HW120000   3.227   0.496  17.093  2.1109 -0.2271 -0.1346
 2789SOL    HW220001   3.297   0.624  17.072  0.1548 -2.6682 -0.8326
 2790SOL     OW20002   0.654   3.896  13.057  0.6740 -0.8502 -0.2704
 2790SOL    HW120003   0.675   3.873  12.966 -2.0712 -0.7019 -0.9367
 2790SOL    HW220004   0.661   3.992  13.061 -0.5962 -0.7155 -1.2675
 2791SOL     OW20005   4.330   4.004   7.084  0.5195 -0.2251 -0.3471
 2791SOL    HW120006   4.236   3.988   7.071  0.2904 -0.2893  1.3812
 2791SOL    HW220007   4.354   3.967   6.999  3.7000 -2.0149  1.3210
 2792SOL     OW20008   1.751   2.899   3.919 -0.6500  0.2295 -0.0207
 2792SOL    HW120009   1.722   2.982   3.957  0.5204  0.1740  1.0165
 2792SOL    HW220010   1.827   2.913   3.863  0.0544  2.3082  1.4253
 2793SOL     OW20011   1.731   0.215   4.316 -0.3278  0.3398 -0.0039
 2793SOL    HW120012   1.762   0.141   4.369 -0.8102 -0.5789 -1.0065
 2793SOL    HW220013   1.640   0.186   4.316  0.7511 -3.1021 -1.8296
 2794SOL     OW20014   1.247   3.768   6.205  0.6446  0.3494 -0.6466
 2794SOL    HW120015   1.312   3.741   6.140 -2.0270 -2.5128 -2.1111
 2794SOL    HW220016   1.213   3.679   6.216 -0.2298  0.8244  0.4561
 2795SOL     OW20017   4.423   1.641   2.247 -0.0546 -0.3217  0.0664
 2795SOL    HW120018   4.372   1.566   2.278 -0.9235  0.5846  0.8370
 2795SOL    HW220019   4.354   1.703   2.220  0.6673 -0.4539 -2.0537
 2796SOL     OW20020   3.128   0.656   3.466  0.4403 -0.3861  0.2715
 2796SOL    HW120021   3.165   0.708   3.538  0.0419  0.5316 -0.2005
 2796SOL    HW220022   3.042   0.696   3.454 -0.3538 -2.6053 -1.3205
 2797SOL     OW20023   3.371   0.941  11.180 -0.5001  0.0433 -0.3183
 2797SOL    HW120024   3.411   0.984  11.255  0.5005  1.3578 -1.5941
 2797SOL    HW220025   3.447   0.911  11.129 -0.9269 -2.4887  0.5428
 2798SOL     OW20026   2.573   2.290  13.281  0.0888 -0.1229  0.4245
 2798SOL    HW120027   2.572   2.278  13.376  0.5926 -0.6627  0.3596
 2798SOL    HW220028   2.502   2.353  13.269  0.1832 -0.2765 -1.0223
 2799SOL     OW20029   3.079   3.387  12.216  0.4515 -0.0460 -0.0168
 2799SOL    HW120030   3.044   3.461  12.266  0.7745 -0.4745  0.8390
 2799SOL    HW220031   3.047   3.409  12.129  1.0224  1.1213  0.0693
 2800SOL     OW20032   0.094   4.239   2.975  0.1513 -0.0487  0.3308
 2800SOL    HW120033   0.134   4.225   2.889  2.0258 -1.5325  1.4339
 2800SOL    HW220034   0.152   4.179   3.022 -0.2665 -0.0755  0.8170
 2801SOL     OW20035   1.415   1.935   5.589 -0.2619  0.1902 -0.5581
 2801SOL    HW120036   1.369   1.988   5.654 -0.4094  0.4689 -0.8876
 2801SOL    HW220037   1.342   1.902   5.537  0.7070 -1.0585 -1.0994
 2802SOL     OW20038   2.966   0.211   4.390 -0.2174  0.2128 -0.5579
 2802SOL    HW120039   2.957   0.119   4.415 -0.7201  0.4088 -0.0060
 2802SOL    HW220040   2.876   0.240   4.372 -0.2110  0.7314  0.2376
 2803SOL     OW20041   0.098   0.201  13.543 -0.2584 -0.3506  0.1387
 2803SOL    HW120042   0.031   0.137  13.568  0.6048 -0.7507  1.3773
 2803SOL    HW220043   0.052   0.281  13.519 -0.5166 -0.0423  1.6666
 2804SOL     OW20044   2.542   1.055   2.808  0.0037  0.3962 -0.2274
 2804SOL    HW120045   2.588   1.123   2.760  0.6643  0.2150  0.1564
 2804SOL    HW220046   2.518   1.096   2.891 -0.0942 -2.5796  1.2149
 2805SOL     OW20047   3.488   1.954   6.683  0.0097 -0.8232  0.1553
 2805SOL    HW120048   3.463   1.871   6.643  0.8150  0.0395 -2.1518
 2805SOL    HW220049   3.582   1.937   6.679  0.3470  1.0288  0.0840
 2806SOL     OW20050   0.810   1.356   6.726  0.1938  0.3695  0.6166
 2806SOL    HW120051   0.887   1.337   6.673 -0.4748  2.2069 -1.0258
 2806SOL    HW220052   0.772   1.418   6.663 -0.2735  0.1251  0.6587
 2807SOL     OW20053   2.535   0.251   2.156 -0.1565  0.6294  0.2078
 2807SOL    HW120054   2.586   0.327   2.128 -1.5212  1.1274 -0.9338
 2807SOL    HW220055   2.563   0.246   2.247 -2.5229 -0.4659  0.8710
 2808SOL     OW20056   3.560   4.446   8.815 -0.0769  0.3819  0.1326
 2808SOL    HW120057   3.489   4.509   8.802 -0.6685 -0.8388 -2.5314
 2808SOL    HW220058   3.532   4.382   8.750  0.5520 -1.3541  1.5609
 2809SOL     OW20059   1.962   2.418  16.900  0.4624  0.1990 -0.0644
 2809SOL    HW120060   1.912   2.493  16.868 -0.0102 -0.0571  0.0801
 2809SOL    HW220061   1.915   2.345  16.860  2.1754 -1.0569  0.1694
 2810SOL     OW20062   4.352   1.307   8.803 -0.2881 -0.3824  0.7837
 2810SOL    HW120063   4.269   1.262   8.813 -0.8405  0.7460  1.2377
 2810SOL    HW220064   4.387   1.310   8.892 -1.7114 -0.6576  1.3510
 2811SOL     OW20065   2.360   0.359  16.329 -0.3059  0.2413 -0.4047
 2811SOL    HW120066   2.280   0.352  16.278  0.1662  0.5919 -1.1873
 2811SOL    HW220067   2.437   0.351  16.272 -1.9668 -0.0819 -2.6022
 2812SOL     OW20068   0.859   2.419   6.322 -0.0424  0.0751  0.0264
 2812SOL    HW120069   0.948   2.395   6.349 -0.1761  0.1391  0.5379
 2812SOL    HW220070   0.862   2.514   6.335  0.7196  0.2363 -1.3728
 2813SOL     OW20071   0.793   4.002   2.621  0.5709  0.0041 -0.2087
 2813SOL    HW120072   0.848   4.056   2.565  1.7314  1.0015  1.8749
 2813SOL    HW220073   0.725   4.067   2.639  0.3421 -0.7116  1.5203
 2814SOL     OW20074   4.415   2.228   5.393 -0.0080 -0.3992 -0.0488
 2814SOL    HW120075   4.351   2.162   5.367  1.3398 -1.8759  0.3779
 2814SOL    HW220076   4.381   2.302   5.342  1.0765 -0.9127 -1.5196
 2815SOL     OW20077   1.597   3.927  15.008 -0.1127  0.3882  0.4765
 2815SOL    HW120078   1.613   3.986  15.082  1.5814 -0.2508  0.6300
 2815SOL    HW220079   1.542   3.861  15.049 -1.7835  2.9901  2.4666
 2816SOL     OW20080   3.874   2.782   3.853 -0.0564 -0.3666 -0.6861
 2816SOL    HW120081   3.961   2.748   3.874  0.0481  0.5667  0.4198
 2816SOL    HW220082   3.895   2.859   3.801  1.4633 -0.6053 -0.4140
 2817SOL     OW20083   3.846   2.941   9.684  0.2289 -0.3516  0.5360
 2817SOL    HW120084   3.776   2.984   9.734  1.7923  2.4335  0.3517
 2817SOL    HW220085   3.805   2.859   9.659 -2.8766  1.0848  0.9215
 2818SOL     OW20086   1.579   3.730  10.179  0.0307  0.2186  0.1241
 2818SOL    HW120087   1.603   3.793  10.247 -3.2904  0.5572  0.9468
 2818SOL    HW220088   1.635   3.762  10.108  0.1942  2.0945  1.1128
 2819SOL     OW20089   1.369   1.080   9.096 -0.4580  0.2338 -0.4246
 2819SOL    HW120090   1.457   1.084   9.133  0.0558  0.4018 -1.6517
 2819SOL    HW220091   1.346   0.987   9.092 -1.1396  0.3445  1.0535
 2820SOL     OW20092   3.802   3.829  11.802 -0.7408 -0.4833 -0.4675
 2820SOL    HW120093   3.758   3.750  11.833  0.1811 -1.0560 -0.6270
 2820SOL    HW220094   3.867   3.801  11.738  2.5976  0.1207  2.6461
 2821SOL     OW20095   3.250   3.599   7.927 -0.0796 -0.0630  0.1700
 2821SOL    HW120096   3.261   3.507   7.905  2.7312 -0.2901  2.5053
 2821SOL    HW220097   3.168   3.604   7.975 -0.6116  1.3093 -0.8776
 2822SOL     OW20098   1.429   4.361  15.773 -0.2045  0.0935 -0.0054
 2822SOL    HW120099   1.505   4.404  15.811  0.0159  1.7900 -2.3610
 2822SOL    HW220100   1.415   4.288  15.833  1.2063 -1.0490 -1.0681
 2823SOL     OW20101   0.139   4.709   5.846  0.0084  0.4724 -0.0324
 2823SOL    HW120102   0.103   4.694   5.933  0.1235  0.2097 -0.0323
 2823SOL    HW220103   0.205   0.040   5.857  1.5253 -0.7556 -1.4880
 2824SOL     OW20104   0.888   0.692   8.335 -0.3927 -0.3012  0.0889
 2824SOL    HW120105   0.926   0.622   8.388 -0.0871  0.2823  0.6457
 2824SOL    HW220106   0.871   0.648   8.252 -2.9518 -0.5853  0.7589
 2825SOL     OW20107   4.512   2.539   9.157 -0.4135  0.4334 -0.1272
 2825SOL    HW120108   4.439   2.510   9.102  0.1356 -0.4551 -0.4063
 2825SOL    HW220109   4.588   2.496   9.117 -1.3302  0.1329 -1.5270
 2826SOL     OW20110   0.209   3.670  12.532  0.5275  0.2308  0.5316
 2826SOL    HW120111   0.269   3.638  12.465  1.1492 -1.6960  1.9857
 2826SOL    HW220112   0.274   3.690  12.600  2.0617  2.2846 -1.5515
 2827SOL     OW20113   1.664   0.027  16.999  0.0458 -0.3725  0.6516
 2827SOL    HW120114   1.701   4.737  16.915  0.4485 -1.8663  1.3043
 2827SOL    HW220115   1.640   4.676  17.027  0.8180 -1.4856 -2.1747
 2828SOL     OW20116   3.542   4.357   2.361 -0.4159  0.1070  0.7223
 2828SOL    HW120117   3.613   4.312   2.408 -0.5022 -1.6325 -0.8467
 2828SOL    HW220118   3.589   4.405   2.293 -0.7777 -1.4794 -0.6289
 2829SOL     OW20119   3.890   4.251   9.107 -0.1145  0.3189 -0.1059
 2829SOL    HW120120   3.936   4.246   9.190  1.7109  1.4417 -1.0565
 2829SOL    HW220121   3.820   4.186   9.117 -0.0689  0.3868  0.6914
 2830SOL     OW20122   4.098   1.372  11.318 -0.1393  0.6302  0.3196
 2830SOL    HW120123   4.138   1.454  11.347  0.3065  1.0113 -1.3939
 2830SOL    HW220124   4.129   1.307  11.381 -1.9689 -0.1409  0.4315
 2831SOL     OW20125   1.687   3.714   7.677 -0.7815 -0.4789  0.6770
 2831SOL    HW120126   1.742   3.708   7.599 -1.2051 -0.0698  0.3469
 2831SOL    HW220127   1.701   3.633   7.726  1.5484  0.2069  1.1466
 2832SOL     OW20128   1.029   3.405   3.303 -1.1586 -0.2563 -0.5634
 2832SOL    HW120129   0.968   3.336   3.328 -1.6474  0.3605 -0.0368
 2832SOL    HW220130   1.005   3.419   3.212 -1.4890  0.8369 -0.3124
 2833SOL     OW20131   3.919   0.992   1.606 -0.1063  0.3608  0.1906
 2833SOL    HW120132   3.830   0.959   1.605 -1.3066  3.6143  0.1436
 2833SOL    HW220133   3.953   0.918   1.656 -1.2871 -0.1272  0.2639
 2834SOL     OW20134   0.319   3.023  12.057 -0.0254 -0.4857  0.1716
 2834SOL    HW120135   0.285   3.032  12.146 -0.2618  2.0163 -0.1566
 2834SOL    HW220136   0.394   2.966  12.068 -0.7490 -1.5368 -0.3510
 2835SOL     OW20137   1.119   1.209  14.996  0.1636 -0.0908 -0.0839
 2835SOL    HW120138   1.117   1.168  14.910 -1.7055 -0.4243  0.1164
 2835SOL    HW220139   1.043   1.167  15.035  0.3064 -0.0714  0.2215
 2836SOL     OW20140   1.966   3.253  15.743  0.2548 -0.0486 -0.3298
 2836SOL    HW120141   1.875   3.252  15.775  0.9536 -2.4055  1.6340
 2836SOL    HW220142   1.975   3.168  15.700  2.1561  1.4023 -2.7725
 2837SOL     OW20143   1.131   2.370   4.365  0.1242  0.2727  0.6232
 2837SOL    HW120144   1.113   2.312   4.440  0.8638 -0.1971  0.4381
 2837SOL    HW220145   1.226   2.376   4.371  0.3959  0.8488 -4.8419
 2838SOL     OW20146   4.241   3.506   8.734 -0.0354 -0.0487 -0.1358
 2838SOL    HW120147   4.290   3.517   8.815  0.3115 -0.9464 -0.2123
 2838SOL    HW220148   4.151   3.505   8.765  0.3640  1.9053  1.0320
 2839SOL     OW20149   3.450   1.537   2.177 -0.2760 -0.2789 -0.0068
 2839SOL    HW120150   3.448   1.523   2.083 -0.7030 -2.8359  0.3892
 2839SOL    HW220151   3.541   1.565   2.185 -1.1055  2.7876 -1.2337
 2840SOL     OW20152   4.427   0.842   3.384 -0.1652 -0.0115  0.0513
 2840SOL    HW120153   4.514   0.803   3.386  0.7255  1.9066 -2.5923
 2840SOL    HW220154   4.379   0.759   3.385 -1.2201  0.5996  1.3238
 2841SOL     OW20155   3.467   1.675   6.683 -0.3348 -0.1705 -0.0478
 2841SOL    HW120156   3.453   1.592   6.729 -1.6719 -0.2926 -0.6859
 2841SOL    HW220157   3.467   1.732   6.761  1.4566 -0.4161  0.1382
 2842SOL     OW20158   2.515   2.113  12.385  0.4302 -0.4947  0.5869
 2842SOL    HW120159   2.578   2.129  12.314  1.1199  0.0492  1.3191
 2842SOL    HW220160   2.428   2.116  12.346  0.4076 -0.0749  0.6711
 2843SOL     OW20161   3.083   0.940   4.081  0.3806 -0.7038 -0.0293
 2843SOL    HW120162   3.040   0.857   4.060  0.7138 -0.9314  0.1762
 2843SOL    HW220163   3.127   0.933   4.166  0.0709 -0.1970  0.1727
 2844SOL     OW20164   3.392   1.220   2.054 -0.2813 -0.2648  0.0389
 2844SOL    HW120165   3.385   1.173   1.971  0.0709 -0.6878  0.2417
 2844SOL    HW220166   3.483   1.219   2.084 -0.3856 -3.5214  0.3112
 2845SOL     OW20167   4.452   2.069   9.057 -0.1516 -0.3153  0.3097
 2845SOL    HW120168   4.401   2.083   8.977  1.3516 -1.1128 -0.7635
 2845SOL    HW220169   4.538   2.086   9.018  0.2194  1.0917  1.7434
 2846SOL     OW20170   0.433   2.026   7.880 -0.2090  0.2552  0.3384
 2846SOL    HW120171   0.465   2.096   7.823  0.2140 -2.5304 -2.8047
 2846SOL    HW220172   0.509   2.003   7.933 -0.2992 -1.2773 -0.1943
 2847SOL     OW20173   2.550   0.719   6.845 -0.8424  0.2718 -0.4505
 2847SOL    HW120174   2.540   0.790   6.781 -0.5045  1.7572  1.1470
 2847SOL    HW220175   2.461   0.685   6.854 -0.5302 -0.1081  1.1389
 2848SOL     OW20176   0.964   3.667   3.428 -0.0465 -0.1475 -0.3613
 2848SOL    HW120177   1.020   3.594   3.400 -1.3843 -1.1798 -0.3331
 2848SOL    HW220178   0.881   3.626   3.405 -0.5492 -0.8511  2.7808
 2849SOL     OW20179   3.208   1.256   4.700 -0.4321  0.3988 -0.4631
 2849SOL    HW120180   3.224   1.213   4.784  1.7092  0.6772 -0.7357
 2849SOL    HW220181   3.290   1.228   4.660  0.6167 -0.8341  2.5823
 2850SOL     OW20182   2.887   4.635   5.624 -0.4675  0.0070  0.5994
 2850SOL    HW120183   2.951   4.680   5.679 -0.5091  2.0137 -1.0126
 2850SOL    HW220184   2.825   4.602   5.689  1.3258 -1.8456  1.3715
 2851SOL     OW20185   3.333   4.404   2.942 -0.2722  0.2437  0.0932
 2851SOL    HW120186   3.334   4.360   3.027 -1.7708  0.5785  0.2819
 2851SOL    HW220187   3.270   4.474   2.960 -2.2610 -1.8464  1.3135
 2852SOL     OW20188   3.859   1.011   6.421 -0.4180  0.2397  0.3484
 2852SOL    HW120189   3.895   1.092   6.384  2.6555 -1.5186 -0.5846
 2852SOL    HW220190   3.876   1.034   6.512  2.6757  1.3308 -0.4951
 2853SOL     OW20191   2.614   1.272   8.439 -0.5137 -0.1938 -0.0458
 2853SOL    HW120192   2.518   1.276   8.448 -0.7026 -1.3527 -1.4291
 2853SOL    HW220193   2.631   1.335   8.369  0.6042  0.0825  0.4971
 2854SOL     OW20194   0.566   1.330  14.905 -0.4086 -0.2543  0.4145
 2854SOL    HW120195   0.574   1.280  14.986  0.7373 -1.5560 -0.5077
 2854SOL    HW220196   0.650   1.337  14.860 -0.1595  0.1676  0.9403
 2855SOL     OW20197   0.605   2.365  16.255  0.2022  0.6697  0.3821
 2855SOL    HW120198   0.639   2.454  16.250 -1.8877  1.3918 -0.9264
 2855SOL    HW220199   0.542   2.380  16.185  0.4526  2.5492  0.5514
 2856SOL     OW20200   4.383   4.238   9.323  0.8705 -0.7636 -0.0097
 2856SOL    HW120201   4.347   4.169   9.267 -0.6221 -0.9214  1.1123
 2856SOL    HW220202   4.469   4.242   9.283  0.7597  0.5865 -0.1001
 2857SOL     OW20203   3.397   1.208  10.346 -0.1957 -0.1642 -0.2830
 2857SOL    HW120204   3.342   1.143  10.303  1.2117 -2.0471  0.7796
 2857SOL    HW220205   3.358   1.193  10.433 -0.2281 -0.8695 -0.4189
 2858SOL     OW20206   0.340   1.106  15.922 -0.3658  0.1498 -0.7021
 2858SOL    HW120207   0.314   1.159  15.846 -0.4413  0.4746 -0.4510
 2858SOL    HW220208   0.424   1.144  15.948 -1.3610  2.8762 -1.3681
 2859SOL     OW20209   3.701   4.370  14.593 -0.0461  0.2024  0.1162
 2859SOL    HW120210   3.702   4.341  14.502 -1.0048 -0.4661  0.3223
 2859SOL    HW220211   3.608   4.389  14.603  0.6539  3.3614  0.4771
 2860SOL     OW20212   2.972   3.607   3.283  0.2646  0.2547 -0.4007
 2860SOL    HW120213   2.957   3.675   3.218  0.7685  0.8650  0.1223
 2860SOL    HW220214   3.064   3.624   3.301  0.0283  0.2963  0.8056
 2861SOL     OW20215   4.092   2.091   9.891  0.1439  0.1486 -0.6003
 2861SOL    HW120216   4.063   2.155   9.956 -0.5820  0.7923 -1.5486
 2861SOL    HW220217   4.162   2.127   9.836  2.6579 -2.3463  1.0165
 2862SOL     OW20218   4.079   2.026   0.060 -0.7701  0.3149  0.4321
 2862SOL    HW120219   4.120   1.945   0.091 -0.2529  1.3424  2.3905
 2862SOL    HW220220   4.129   2.026  17.726  0.8063  1.0135  1.3932
 2863SOL     OW20221   3.365   3.764  12.879 -0.5958 -0.3942 -0.0198
 2863SOL    HW120222   3.348   3.781  12.971 -1.2959 -0.5448 -0.1202
 2863SOL    HW220223   3.456   3.735  12.885 -0.9182 -0.9561  2.1029
 2864SOL     OW20224   3.563   0.407   6.094 -0.1837  0.1385 -0.0338
 2864SOL    HW120225   3.552   0.500   6.071  1.2994  0.0547 -1.1100
 2864SOL    HW220226   3.559   0.368   6.006 -1.0671  1.8304 -0.7547
 2865SOL     OW20227   3.804   1.135   7.183  0.4664  0.4382 -0.6161
 2865SOL    HW120228   3.880   1.158   7.237  2.5693  1.0742 -3.8463
 2865SOL    HW220229   3.733   1.122   7.245 -0.3606  0.6814 -1.5155
 2866SOL     OW20230   4.271   4.658   9.731 -0.3514  0.2806 -0.1140
 2866SOL    HW120231   4.220   4.610   9.797  0.1536 -0.3493 -0.1812
 2866SOL    HW220232   4.325   4.714   9.787 -0.5893  0.2411  0.1597
 2867SOL     OW20233   1.154   2.403   8.528 -0.0509 -0.6702  0.1356
 2867SOL    HW120234   1.216   2.359   8.469 -0.2793 -0.3558 -0.3329
 2867SOL    HW220235   1.173   2.362   8.613  1.9626 -1.3950 -0.6608
 2868SOL     OW20236   3.434   3.577   8.500  0.3776  0.3202  0.6336
 2868SOL    HW120237   3.454   3.491   8.463 -1.0641  0.6961 -0.9934
 2868SOL    HW220238   3.388   3.626   8.432 -1.0443 -0.9831  0.6542
 2869SOL     OW20239   4.536   1.054   3.511  0.2370  0.1305 -0.2810
 2869SOL    HW120240   4.524   0.972   3.464 -0.2838 -1.1383  2.0931
 2869SOL    HW220241   4.631   1.042   3.519  0.1120 -0.0022  0.9426
 2870SOL     OW20242   2.792   1.562   3.759 -0.0810  0.4246  0.3296
 2870SOL    HW120243   2.819   1.648   3.792 -3.8994  1.5175  0.5438
 2870SOL    HW220244   2.795   1.514   3.842  0.5874  0.2178  0.1823
 2871SOL     OW20245   1.029   0.953   3.413  0.3360 -0.1668  0.3282
 2871SOL    HW120246   1.045   0.894   3.340 -2.5239 -0.5349 -0.0014
 2871SOL    HW220247   1.102   1.015   3.410 -0.8421  1.2337  0.3814
 2872SOL     OW20248   4.246   3.196  17.426 -0.6610  0.1933 -0.4503
 2872SOL    HW120249   4.309   3.221  17.495 -0.1164 -2.1763 -0.0903
 2872SOL    HW220250   4.297   3.167  17.350 -0.4785 -2.3240  0.6459
 2873SOL     OW20251   1.082   4.056   9.818  0.3556  0.1790  0.1675
 2873SOL    HW120252   1.120   3.968   9.826  1.6515  0.6937 -0.3522
 2873SOL    HW220253   1.124   4.069   9.733  2.1492  2.7933  1.4540
 2874SOL     OW20254   3.283   0.432  17.689  0.4923 -0.5943 -0.1019
 2874SOL    HW120255   3.367   0.470  17.717  1.9473 -2.0714 -2.4143
 2874SOL    HW220256   3.259   0.492  17.618  2.4809 -0.0437 -0.3312
 2875SOL     OW20257   0.620   0.670   1.522 -0.4559  0.1119 -0.0510
 2875SOL    HW120258   0.713   0.693   1.519 -0.0470 -1.3152  2.2801
 2875SOL    HW220259   0.560   0.741   1.544 -0.1245 -0.0310  1.2935
 2876SOL     OW20260   0.234   4.686   6.777  0.7229  0.5042  0.7577
 2876SOL    HW120261   0.194   4.694   6.864 -1.6167  0.2838 -0.2785
 2876SOL    HW220262   0.155   4.670   6.725  0.9991 -1.6516  0.9991
 2877SOL     OW20263   2.054   1.255  16.184  0.3993 -0.1952  0.3892
 2877SOL    HW120264   2.080   1.329  16.129 -1.2542  0.2831  0.2441
 2877SOL    HW220265   1.971   1.287  16.218  1.1736 -0.4385  2.4955
 2878SOL     OW20266   3.180   4.088   1.731 -0.7266  0.0715  0.2099
 2878SOL    HW120267   3.236   4.107   1.805  1.3715 -1.1048 -1.0968
 2878SOL    HW220268   3.177   4.161   1.668 -0.7686 -0.0887  0.0245
 2879SOL     OW20269   0.806   2.489  15.172 -0.1764  0.4588 -0.4141
 2879SOL    HW120270   0.779   2.428  15.241  1.9156 -0.7647 -0.6827
 2879SOL    HW220271   0.849   2.426  15.114 -2.1708 -0.4249 -0.9204
 2880SOL     OW20272   3.852   1.878   9.551 -0.4158  0.2750 -0.2785
 2880SOL    HW120273   3.904   1.801   9.528 -1.5366 -0.9557  1.3582
 2880SOL    HW220274   3.855   1.928   9.469  2.8704 -1.0225 -0.9509
 2881SOL     OW20275   1.735   2.066   4.677  0.1863  0.4917  0.0331
 2881SOL    HW120276   1.768   2.155   4.688  2.0470  0.0486 -2.0709
 2881SOL    HW220277   1.814   2.014   4.664 -2.0664 -2.5407 -1.5843
 2882SOL     OW20278   0.011   4.026   6.105 -0.0613  0.0410  0.3335
 2882SOL    HW120279   4.685   4.086   6.067 -0.6660 -0.3008  0.8023
 2882SOL    HW220280   0.009   3.949   6.048  3.4710 -0.8686  1.4355
 2883SOL     OW20281   1.661   1.387   4.605 -0.5380 -0.4092  0.2393
 2883SOL    HW120282   1.702   1.332   4.538 -1.5541  0.6449 -1.2675
 2883SOL    HW220283   1.745   1.423   4.635 -0.5454  0.4696 -0.7953
 2884SOL     OW20284   0.395   3.184   8.628  0.4397  0.1437  0.3216
 2884SOL    HW120285   0.386   3.116   8.695  0.6091  0.6780  0.8892
 2884SOL    HW220286   0.334   3.139   8.570  0.3120  0.8113 -0.0700
 2885SOL     OW20287   3.514   3.148   7.793  0.5247 -0.1171 -0.2445
 2885SOL    HW120288   3.501   3.101   7.875 -2.1987  1.6394  0.3261
 2885SOL    HW220289   3.526   3.068   7.742 -1.3623 -0.5950  0.0558
 2886SOL     OW20290   3.339   2.138   0.989 -0.7216 -0.2641 -0.6346
 2886SOL    HW120291   3.276   2.143   1.060  1.4106  0.4118  1.2191
 2886SOL    HW220292   3.355   2.231   0.977 -1.1860 -0.1582 -0.4302
 2887SOL     OW20293   1.316   1.520   5.808 -0.1187  0.5165  0.1226
 2887SOL    HW120294   1.350   1.609   5.806 -0.0452  0.4697 -0.8644
 2887SOL    HW220295   1.223   1.531   5.827 -0.4237 -2.2198  0.3153
 2888SOL     OW20296   0.334   4.231   3.869 -0.2775 -0.1608 -0.1141
 2888SOL    HW120297   0.429   4.233   3.878 -0.3598 -1.4860  1.0141
 2888SOL    HW220298   0.315   4.288   3.794 -3.0135  1.0375  1.4965
 2889SOL     OW20299   2.551   1.362   3.874  0.2273 -0.0836  0.2251
 2889SOL    HW120300   2.532   1.417   3.951  0.0030  0.5828 -0.3094
 2889SOL    HW220301   2.534   1.277   3.914  0.1950  0.4833  1.4280
 2890SOL     OW20302   1.353   3.966  13.388  0.1228 -0.2879 -0.5275
 2890SOL    HW120303   1.283   3.901  13.391 -0.8050  0.8633  2.8489
 2890SOL    HW220304   1.400   3.944  13.307  0.6955 -1.6117  0.1667
 2891SOL     OW20305   1.125   0.370   4.102  0.7189 -0.7160 -0.1124
 2891SOL    HW120306   1.130   0.366   4.197 -0.2947  1.0310  0.0181
 2891SOL    HW220307   1.218   0.367   4.076  1.3737  1.4666  1.9876
 2892SOL     OW20308   2.506   2.306  15.708 -0.4200 -0.2104 -0.8871
 2892SOL    HW120309   2.492   2.389  15.663 -1.6197 -0.7181 -1.4335
 2892SOL    HW220310   2.561   2.255  15.649 -1.9390 -1.5478 -1.1389
 2893SOL     OW20311   1.463   0.192   4.047  0.0488  0.4395 -0.2910
 2893SOL    HW120312   1.530   0.125   4.036  0.5895  1.0135 -0.5186
 2893SOL    HW220313   1.379   0.149   4.031 -1.0172  1.8851  1.4372
 2894SOL     OW20314   2.058   0.141   5.025  0.3840 -0.4031 -0.3228
 2894SOL    HW120315   2.104   0.085   5.088 -0.2689  0.6226  1.0523
 2894SOL    HW220316   2.060   0.223   5.075  1.7872 -0.7154  0.1337
 2895SOL     OW20317   4.081   3.229   4.600  0.0115  0.2768  0.1331
 2895SOL    HW120318   4.152   3.229   4.664  1.0321  0.7553 -0.9934
 2895SOL    HW220319   4.021   3.165   4.640  1.8540 -0.5582  1.5357
 2896SOL     OW20320   2.942   1.235  15.643  0.8486  0.8720  0.1880
 2896SOL    HW120321   2.954   1.327  15.668 -0.3960  0.8184  0.9125
 2896SOL    HW220322   2.847   1.230  15.634  1.2216 -2.6793 -1.8766
 2897SOL     OW20323   0.269   1.712   2.687 -0.3982 -0.0441 -0.0063
 2897SOL    HW120324   0.361   1.714   2.662 -0.1467  0.3669  0.9441
 2897SOL    HW220325   0.261   1.618   2.705  3.3998 -0.7172 -1.8593
 2898SOL     OW20326   0.649   3.116  14.676 -0.0558  0.6043 -0.3676
 2898SOL    HW120327   0.566   3.149  14.640 -1.2948  0.2346  2.1522
 2898SOL    HW220328   0.624   3.026  14.698 -0.0825  0.6557 -0.1926
 2899SOL     OW20329   0.001   0.535  11.897  0.5479 -0.2213 -0.2052
 2899SOL    HW120330   4.687   0.603  11.941 -1.2562 -2.2309  0.7664
 2899SOL    HW220331   4.669   0.505  11.838  0.6502 -0.9678  0.0641
 2900SOL     OW20332   0.272   0.537   4.796  0.1240  0.6084 -0.0779
 2900SOL    HW120333   0.323   0.530   4.877 -0.0569 -0.0693 -0.0287
 2900SOL    HW220334   0.339   0.564   4.732 -0.3473  0.0894 -0.7782
 2901SOL     OW20335   2.518   1.382  15.793  0.0793  0.1221  0.0473
 2901SOL    HW120336   2.487   1.385  15.883  0.8047  1.5229  0.2467
 2901SOL    HW220337   2.471   1.307  15.758 -1.6501  2.0048 -1.6845
 2902SOL     OW20338   4.619   2.452  10.348 -0.3274  0.3984  0.7494
 2902SOL    HW120339   4.650   2.392  10.416 -1.1454  1.3701  1.9764
 2902SOL    HW220340   4.694   2.511  10.354  1.2389 -1.6023  1.0897
 2903SOL     OW20341   0.527   1.341   1.346 -0.0230  0.5390 -0.1126
 2903SOL    HW120342   0.467   1.275   1.383  0.4760  1.8732  3.0485
 2903SOL    HW220343   0.604   1.324   1.400  0.2080 -3.2050 -1.5789
 2904SOL     OW20344   2.060   2.692   3.652 -0.0006  0.1312  0.0976
 2904SOL    HW120345   2.074   2.599   3.670  2.3559  0.9190  2.2173
 2904SOL    HW220346   1.996   2.696   3.723  0.7804  1.0477  0.7430
 2905SOL     OW20347   4.364   3.391   1.079  0.6866  0.2533 -0.3048
 2905SOL    HW120348   4.316   3.437   1.148  1.2840  0.2245  0.1287
 2905SOL    HW220349   4.371   3.471   1.028  1.0203 -0.8632 -2.0154
 2906SOL     OW20350   4.538   0.503   9.796  0.1331 -0.3617  0.0062
 2906SOL    HW120351   4.526   0.495   9.891  1.2083 -0.2784  0.1534
 2906SOL    HW220352   4.588   0.423   9.781 -0.3683  0.0101 -3.4856
 2907SOL     OW20353   2.699   1.930   9.059 -0.0882  0.1519  0.3060
 2907SOL    HW120354   2.778   1.887   9.027 -1.0970 -0.2028 -1.6447
 2907SOL    HW220355   2.639   1.856   9.068 -2.1039  1.5794 -1.5504
 2908SOL     OW20356   3.741   1.359  17.469 -0.1897  0.1036  0.1944
 2908SOL    HW120357   3.821   1.310  17.446 -1.0458 -0.5235 -1.4814
 2908SOL    HW220358   3.775   1.376  17.557  1.6839 -1.0561 -0.2989
 2909SOL     OW20359   3.237   0.188  17.207 -0.1355 -0.2364  0.4009
 2909SOL    HW120360   3.146   0.187  17.177  0.1149  1.2930 -0.4258
 2909SOL    HW220361   3.289   0.218  17.132 -0.2140  1.4857  1.0296
 2910SOL     OW20362   2.865   2.499   7.480  0.1736  0.3564 -0.1582
 2910SOL    HW120363   2.779   2.540   7.476  0.0764  0.0908 -0.7473
 2910SOL    HW220364   2.891   2.535   7.565 -0.5939  1.9566 -0.6037
 2911SOL     OW20365   1.954   4.517   3.686  0.2272 -0.1723  0.3641
 2911SOL    HW120366   2.004   4.504   3.606 -0.6615 -2.5290  0.1939
 2911SOL    HW220367   1.899   4.589   3.656  3.0066  1.5442 -0.6075
 2912SOL     OW20368   1.729   1.678   7.376 -0.1973  0.1140 -0.1326
 2912SOL    HW120369   1.650   1.691   7.429  1.3973  2.8642  1.5744
 2912SOL    HW220370   1.788   1.645   7.444  1.4673 -2.3277 -2.7713
 2913SOL     OW20371   0.181   1.167   7.728  0.2255  0.5634  0.7799
 2913SOL    HW120372   0.091   1.191   7.750  0.0201  0.6063 -0.0857
 2913SOL    HW220373   0.206   1.232   7.661  0.5918 -0.5698 -0.1890
 2914SOL     OW20374   0.135   1.391  17.230 -0.2527 -0.3555 -0.6704
 2914SOL    HW120375   0.072   1.459  17.251 -0.9586 -1.6986  1.5330
 2914SOL    HW220376   0.212   1.447  17.220 -1.4703  1.2559 -0.9013
 2915SOL     OW20377   4.247   3.615   2.920 -0.1921 -0.4117  0.1377
 2915SOL    HW120378   4.177   3.663   2.964  0.4241  0.8086 -0.2154
 2915SOL    HW220379   4.313   3.684   2.909  0.0556 -0.9076 -1.4608
 2916SOL     OW20380   2.589   4.064  11.452 -0.0772 -0.8539 -0.3108
 2916SOL    HW120381   2.636   3.997  11.501  1.3664  1.1110  1.0135
 2916SOL    HW220382   2.531   4.013  11.396 -1.8331 -0.1913  0.9136
 2917SOL     OW20383   4.022   0.571  16.068 -0.2710 -0.2371  0.2936
 2917SOL    HW120384   3.951   0.543  16.011 -0.7437  0.0061  0.7684
 2917SOL    HW220385   4.096   0.517  16.039 -0.6676 -1.6784  2.0300
 2918SOL     OW20386   1.901   3.331   0.887  0.2678 -0.2775  0.7250
 2918SOL    HW120387   1.990   3.329   0.921 -0.1061  2.1643  1.8476
 2918SOL    HW220388   1.910   3.276   0.809  2.2195  1.2878 -0.1414
 2919SOL     OW20389   0.731   0.182   1.778 -0.1164  0.0578 -0.3924
 2919SOL    HW120390   0.671   0.255   1.766  1.4931  1.3045 -0.7840
 2919SOL    HW220391   0.754   0.195   1.869  0.0109  0.3939 -0.4731
 2920SOL     OW20392   1.102   1.943   6.208  0.0814  0.3429 -0.4287
 2920SOL    HW120393   1.190   1.946   6.169 -0.1231  0.3290 -0.8980
 2920SOL    HW220394   1.090   2.037   6.196  1.8568  0.4841 -1.2032
 2921SOL     OW20395   4.702   4.521  16.361  0.2550 -0.2632  0.5040
 2921SOL    HW120396   0.060   4.519  16.364  0.2227 -0.9820  1.0283
 2921SOL    HW220397   4.680   4.608  16.394 -0.4291 -0.9528  1.8788
 2922SOL     OW20398   1.943   3.512   9.899 -0.1423 -0.5121 -0.6474
 2922SOL    HW120399   1.957   3.418   9.890  1.1585 -0.4731  1.2599
 2922SOL    HW220400   1.884   3.505   9.974  1.2030 -0.1045  0.4489
 2923SOL     OW20401   2.217   2.801   5.295 -0.0096  0.3507 -0.5876
 2923SOL    HW120402   2.284   2.869   5.301 -1.1625  1.5279 -1.1278
 2923SOL    HW220403   2.282   2.737   5.266 -0.2450 -0.5039  0.7693
 2924SOL     OW20404   2.764   1.117   7.245  0.1596  0.4548 -0.4724
 2924SOL    HW120405   2.817   1.039   7.232  1.3179  1.3381 -1.1124
 2924SOL    HW220406   2.691   1.100   7.187 -1.1613 -0.1462  1.3656
 2925SOL     OW20407   0.996   3.109   6.075  0.1663 -0.3318 -0.1714
 2925SOL    HW120408   1.026   3.082   5.988 -2.2165  1.3268 -1.5088
 2925SOL    HW220409   0.943   3.185   6.051 -3.4841 -2.1875  1.9282
 2926SOL     OW20410   0.103   0.299   7.267 -0.3158  0.2931 -0.4928
 2926SOL    HW120411   0.025   0.279   7.318  0.1787 -1.3583 -0.3507
 2926SOL    HW220412   0.079   0.264   7.181 -0.5277  0.5292 -0.5265
 2927SOL     OW20413   4.591   4.434  15.340 -0.0236 -0.2565  0.3499
 2927SOL    HW120414   4.541   4.444  15.259 -0.4696 -0.1860  0.6339
 2927SOL    HW220415   4.586   4.522  15.378  0.2883 -0.8281  1.7323
 2928SOL     OW20416   0.682   1.237   4.467 -0.0474 -1.0373  0.7244
 2928SOL    HW120417   0.770   1.245   4.503  0.4233 -0.9610 -0.4422
 2928SOL    HW220418   0.692   1.190   4.385 -1.3446  1.2843 -0.7720
 2929SOL     OW20419   3.605   4.140   4.110 -0.0007 -0.8976  0.1519
 2929SOL    HW120420   3.589   4.209   4.175 -1.1441 -1.2807  0.2923
 2929SOL    HW220421   3.666   4.084   4.158  1.1813 -1.5975 -2.1837
 2930SOL     OW20422   2.367   2.432  11.553 -0.1760 -0.1004  0.2522
 2930SOL    HW120423   2.379   2.527  11.551  3.0717 -0.5623 -1.0727
 2930SOL    HW220424   2.440   2.401  11.500 -0.0712 -0.3868  0.5684
 2931SOL     OW20425   1.813   3.434   6.106 -0.2870 -0.1590  0.3350
 2931SOL    HW120426   1.790   3.342   6.112 -0.9335 -0.1460 -1.7716
 2931SOL    HW220427   1.909   3.436   6.113 -0.1476  1.7218 -1.8334
 2932SOL     OW20428   4.293   3.175   2.876 -0.5921  0.0397  0.2804
 2932SOL    HW120429   4.258   3.234   2.942  1.3424  0.8367  0.5640
 2932SOL    HW220430   4.368   3.229   2.853 -0.5660  0.3683  1.1482
 2933SOL     OW20431   2.627   3.313   7.351 -0.1606 -0.2942 -0.6917
 2933SOL    HW120432   2.652   3.230   7.390 -0.6478 -0.2285 -0.2439
 2933SOL    HW220433   2.712   3.340   7.316  1.1987 -1.5003  1.7123
 2934SOL     OW20434   0.205   0.411  11.551  0.4505 -0.7613 -0.6551
 2934SOL    HW120435   0.279   0.471  11.549 -1.7159  1.9791  0.6069
 2934SOL    HW220436   0.147   0.463  11.495  1.3190  0.3016 -0.5599
 2935SOL     OW20437   1.899   1.738   5.170  0.0928  0.0786  0.0623
 2935SOL    HW120438   1.933   1.663   5.122  0.2896  1.2815 -1.6794
 2935SOL    HW220439   1.982   1.778   5.193  0.5188  0.0381 -1.4071
 2936SOL     OW20440   1.636   0.064   7.388 -0.8571  0.0373  0.2485
 2936SOL    HW120441   1.726   0.067   7.421 -0.9617  1.0285  0.4475
 2936SOL    HW220442   1.633   0.137   7.326  2.8943 -1.4660 -1.7264
 2937SOL     OW20443   0.957   2.214   1.938  0.0214  0.3744 -0.2020
 2937SOL    HW120444   1.040   2.188   1.979 -0.8893 -0.2691  1.2148
 2937SOL    HW220445   0.922   2.126   1.922 -1.4160  0.5017  2.2644
 2938SOL     OW20446   0.259   3.161   6.999 -0.0571 -0.3086 -0.3824
 2938SOL    HW120447   0.268   3.216   7.076  0.9958  1.0995 -1.5127
 2938SOL    HW220448   0.321   3.091   7.022 -0.5396 -0.7237 -0.3578
 2939SOL     OW20449   0.362   0.183  16.554  0.0385  0.1307  0.1552
 2939SOL    HW120450   0.313   0.231  16.621  0.3452 -1.7664  1.7374
 2939SOL    HW220451   0.448   0.225  16.559  0.1729 -0.1347  0.0851
 2940SOL     OW20452   2.147   2.096  16.229  0.5891  0.7375  0.0349
 2940SOL    HW120453   2.199   2.017  16.216 -1.6046 -0.6746 -0.1698
 2940SOL    HW220454   2.216   2.162  16.232 -0.2185  1.6062 -0.3759
 2941SOL     OW20455   2.890   3.229   9.551  0.3132 -0.0781 -0.1651
 2941SOL    HW120456   2.964   3.266   9.599  0.8164 -0.2646 -0.7938
 2941SOL    HW220457   2.831   3.214   9.625 -0.8092 -0.6449 -1.1946
 2942SOL     OW20458   2.312   2.861   3.624  0.0178 -0.2829 -0.4187
 2942SOL    HW120459   2.269   2.808   3.691 -2.5333  1.5193 -0.6219
 2942SOL    HW220460   2.292   2.946   3.663  0.4061 -1.5451  2.4813
 2943SOL     OW20461   3.830   4.160   1.489  0.4384  0.1040  0.0708
 2943SOL    HW120462   3.830   4.098   1.416 -3.5363 -0.9365  0.9440
 2943SOL    HW220463   3.738   4.172   1.511  0.3953 -0.3920  0.1533
 2944SOL     OW20464   3.564   4.063  13.294 -0.1223  0.1114 -0.0391
 2944SOL    HW120465   3.620   4.102  13.361 -0.3776 -0.1991  0.3562
 2944SOL    HW220466   3.618   4.067  13.215 -2.4696  2.5541 -1.5098
 2945SOL     OW20467   0.137   4.209   3.400  0.3842 -0.6526  0.3768
 2945SOL    HW120468   0.126   4.114   3.401 -0.6473 -0.5658 -2.7643
 2945SOL    HW220469   0.046   4.232   3.378  0.2466 -0.4193  1.2121
 2946SOL     OW20470   4.724   4.202  15.261  0.2032  0.6711 -0.1856
 2946SOL    HW120471   4.729   4.152  15.343 -0.8180  1.9052  0.6360
 2946SOL    HW220472   4.666   4.274  15.288 -0.2987 -0.3272  1.4295
 2947SOL     OW20473   3.586   1.383   1.133  0.3203  0.0233 -0.0235
 2947SOL    HW120474   3.609   1.377   1.040  1.1885 -0.7063  0.2355
 2947SOL    HW220475   3.493   1.361   1.122  0.5301 -0.3229 -1.1655
 2948SOL     OW20476   0.450   0.534   3.829  0.1479 -0.3108  0.0937
 2948SOL    HW120477   0.381   0.592   3.859  1.0180  0.1387  1.2145
 2948SOL    HW220478   0.517   0.599   3.807  1.1701 -1.5231 -0.3740
 2949SOL     OW20479   3.651   3.970  11.970 -0.6080 -0.5383 -0.4947
 2949SOL    HW120480   3.709   4.006  12.037  1.8013 -0.0302 -2.8391
 2949SOL    HW220481   3.712   3.929  11.909  1.7343  1.9109  0.2219
 2950SOL     OW20482   2.670   0.838   5.680  0.5090 -0.0429 -0.3759
 2950SOL    HW120483   2.692   0.812   5.769  0.0028  1.5215  0.2000
 2950SOL    HW220484   2.682   0.933   5.677  1.2641 -0.1352  0.0029
 2951SOL     OW20485   2.646   3.631   8.482 -0.2199 -0.0220 -0.4401
 2951SOL    HW120486   2.576   3.586   8.436 -1.5846  1.9955 -0.3187
 2951SOL    HW220487   2.623   3.723   8.481  0.5178  0.1632 -0.4915
 2952SOL     OW20488   4.447   1.883   1.904  0.1246 -0.4646  0.1758
 2952SOL    HW120489   4.404   1.915   1.983 -2.6375 -0.8903 -1.1817
 2952SOL    HW220490   4.455   1.967   1.859  0.5663 -0.3214  0.5200
 2953SOL     OW20491   1.359   0.500  15.688  0.3880  0.2719 -0.1830
 2953SOL    HW120492   1.454   0.504  15.692  0.3827 -1.5948  1.7128
 2953SOL    HW220493   1.327   0.577  15.640 -0.7081  0.8837  1.5510
 2954SOL     OW20494   1.620   1.419   1.825  0.6778 -0.3305 -0.0548
 2954SOL    HW120495   1.594   1.364   1.751 -2.6546  2.0031 -0.6369
 2954SOL    HW220496   1.622   1.352   1.893 -1.1656 -0.0828  0.2456
 2955SOL     OW20497   2.506   0.385   3.597  0.2167  0.1229  0.2841
 2955SOL    HW120498   2.420   0.423   3.579 -0.2685 -0.7217  0.7928
 2955SOL    HW220499   2.497   0.324   3.670 -0.5034  0.4536  0.4685
 2956SOL     OW20500   4.168   2.257   7.742 -0.2551  0.6523  0.3656
 2956SOL    HW120501   4.193   2.169   7.714 -4.0933 -0.6958  1.2182
 2956SOL    HW220502   4.250   2.290   7.779  0.5515 -2.4423  1.3010
 2957SOL     OW20503   0.598   2.901   3.554  0.2439 -0.7406  0.3579
 2957SOL    HW120504   0.648   2.825   3.524  0.0053 -0.7352 -0.0569
 2957SOL    HW220505   0.656   2.974   3.575 -0.7954  0.5866 -1.3850
 2958SOL     OW20506   0.701   0.646   9.539  0.6170 -0.5708  0.0282
 2958SOL    HW120507   0.713   0.562   9.495 -2.0080 -0.9070 -0.0717
 2958SOL    HW220508   0.630   0.637   9.603  1.3517 -1.3063  0.7405
 2959SOL     OW20509   1.149   2.332   9.084 -0.1209 -0.0219 -0.0286
 2959SOL    HW120510   1.209   2.273   9.039  0.4827 -0.3972  1.2780
 2959SOL    HW220511   1.119   2.273   9.153 -1.5337  0.4293 -0.2553
 2960SOL     OW20512   3.041   3.612   3.590  1.1738  0.1641 -0.0330
 2960SOL    HW120513   3.076   3.699   3.572  0.2480  0.5304 -0.0724
 2960SOL    HW220514   2.980   3.603   3.518  0.6486 -0.1094  0.4438
 2961SOL     OW20515   0.973   0.973   5.138 -0.3327 -0.2012  0.0901
 2961SOL    HW120516   1.066   0.993   5.122 -0.3357 -0.2293  0.0346
 2961SOL    HW220517   0.932   1.017   5.063 -0.6835  0.7488  0.8520
 2962SOL     OW20518   4.373   1.695   6.254 -0.6869 -1.1307 -0.5661
 2962SOL    HW120519   4.326   1.721   6.333  0.7892  0.8931 -0.3496
 2962SOL    HW220520   4.402   1.781   6.225  0.8935 -0.4244  3.1801
 2963SOL     OW20521   2.226   3.992  17.557  0.3963  0.0816 -0.5964
 2963SOL    HW120522   2.141   4.031  17.580  1.6339  2.3141  0.1972
 2963SOL    HW220523   2.286   4.067  17.555 -0.4155  0.7456 -0.4049
 2964SOL     OW20524   0.465   4.674   4.382  0.0242 -0.4146  0.7862
 2964SOL    HW120525   0.387   4.619   4.372  1.1092 -1.8270  0.1097
 2964SOL    HW220526   0.446   0.008   4.321  1.3861  0.3667  1.2848
 2965SOL     OW20527   1.413   2.702   7.751  0.6833 -0.7012  0.1397
 2965SOL    HW120528   1.492   2.726   7.703  2.0898 -1.6793  1.9173
 2965SOL    HW220529   1.430   2.613   7.783  3.0486  0.3246  1.7652
 2966SOL     OW20530   2.144   4.056   5.813  0.0747 -0.0698 -0.2563
 2966SOL    HW120531   2.175   4.139   5.847 -2.6933  0.2671  1.4283
 2966SOL    HW220532   2.050   4.067   5.828 -0.5965 -4.2010 -1.1676
 2967SOL     OW20533   2.095   2.722   5.523  0.1376 -0.0892  0.2548
 2967SOL    HW120534   2.117   2.721   5.430  1.2215  2.3717  0.4713
 2967SOL    HW220535   2.171   2.766   5.561  0.7095 -2.1818  1.4914
 2968SOL     OW20536   1.545   2.753   5.655  0.0880 -0.4387 -0.7744
 2968SOL    HW120537   1.559   2.668   5.698  4.1547 -0.4355 -2.1178
 2968SOL    HW220538   1.629   2.790   5.684 -2.2659  3.6933  0.8016
 2969SOL     OW20539   3.160   4.193   2.282 -0.0644  0.7873 -0.1751
 2969SOL    HW120540   3.095   4.255   2.314 -0.2555  0.4465  0.0952
 2969SOL    HW220541   3.241   4.244   2.277  0.3151  0.0446 -1.8568
 2970SOL     OW20542   0.334   0.584   6.372  0.1448  0.4638  0.0044
 2970SOL    HW120543   0.330   0.528   6.450  2.4662  0.7753  0.3392
 2970SOL    HW220544   0.377   0.525   6.310  1.6873  1.4682  0.1280
 2971SOL     OW20545   3.696   0.602   7.710 -0.2454  0.1141  0.1156
 2971SOL    HW120546   3.641   0.669   7.750 -0.5061  0.3969 -0.7040
 2971SOL    HW220547   3.762   0.585   7.776 -0.1357  0.7576  0.1664
 2972SOL     OW20548   0.569   1.904  14.653  0.9050 -0.2138  0.2155
 2972SOL    HW120549   0.513   1.885  14.728  1.2648  0.1846  0.5898
 2972SOL    HW220550   0.510   1.902  14.578  1.0732 -0.1829  0.0832
 2973SOL     OW20551   1.801   1.922  16.414  0.6502 -0.1074  0.4752
 2973SOL    HW120552   1.835   2.008  16.442  1.6056 -0.7262  1.2021
 2973SOL    HW220553   1.845   1.904  16.331  0.4963  0.1710  0.3337
 2974SOL     OW20554   4.115   0.445   8.530 -0.1653  0.2945 -0.6240
 2974SOL    HW120555   4.141   0.536   8.513  0.7872  0.1734  0.1344
 2974SOL    HW220556   4.031   0.464   8.572 -0.0640 -0.5044 -0.0672
 2975SOL     OW20557   1.093   3.735   5.402  0.6428 -0.0658  0.3635
 2975SOL    HW120558   1.004   3.766   5.383  0.9372  0.8183  0.3990
 2975SOL    HW220559   1.098   3.750   5.496 -2.0616  0.6056  0.3973
 2976SOL     OW20560   2.514   0.135   6.829 -0.5441  0.5241  0.4068
 2976SOL    HW120561   2.529   0.044   6.802 -1.9144  0.1036  1.0582
 2976SOL    HW220562   2.567   0.177   6.762  0.2737  0.2290  0.8725
 2977SOL     OW20563   0.275   3.792   2.002 -0.3848  0.1818 -0.0987
 2977SOL    HW120564   0.268   3.705   2.040  0.4005 -0.1120 -0.6198
 2977SOL    HW220565   0.298   3.774   1.911 -2.1372 -0.7921 -0.3409
 2978SOL     OW20566   2.327   1.433   2.077  0.2597  0.6183  0.1268
 2978SOL    HW120567   2.421   1.445   2.072  0.2628  0.4352 -0.2624
 2978SOL    HW220568   2.331   1.338   2.075 -0.0786  0.5762  1.6139
 2979SOL     OW20569   0.634   4.448  15.728  0.4243  0.2975  0.3132
 2979SOL    HW120570   0.657   4.525  15.780 -3.7174  0.8777  1.2847
 2979SOL    HW220571   0.549   4.472  15.692 -0.3995  1.3873  2.9771
 2980SOL     OW20572   4.458   2.176   6.075  0.1180  0.7193  0.4427
 2980SOL    HW120573   4.544   2.178   6.033 -0.1494 -1.6249 -0.1658
 2980SOL    HW220574   4.398   2.178   6.001 -1.5992  1.3289  1.8475
 2981SOL     OW20575   2.932   1.006  12.841  0.2008 -0.3567 -0.2681
 2981SOL    HW120576   2.940   1.094  12.878  1.3093 -1.7294  2.7057
 2981SOL    HW220577   2.955   0.956  12.919 -0.2635  0.6242  0.4907
 2982SOL     OW20578   2.729   3.944   2.726  0.5985  0.2980 -0.2922
 2982SOL    HW120579   2.650   3.997   2.714  1.0080  1.3385  1.4320
 2982SOL    HW220580   2.681   3.873   2.768 -0.9629  2.4028  1.5296
 2983SOL     OW20581   2.981   4.063  12.379  0.5671 -0.7671 -0.2598
 2983SOL    HW120582   2.980   3.969  12.392 -1.2252 -0.6667  0.3070
 2983SOL    HW220583   2.897   4.087  12.340  0.4413  0.3813  0.7284
 2984SOL     OW20584   1.907   2.495   8.104  0.2899  0.1508  0.3609
 2984SOL    HW120585   1.870   2.573   8.064 -0.9949 -1.1463 -0.9822
 2984SOL    HW220586   1.989   2.531   8.139  1.4443 -2.6342  0.5133
 2985SOL     OW20587   2.759   2.874  12.830 -0.2811 -0.4833  0.4960
 2985SOL    HW120588   2.707   2.856  12.908  0.5712 -2.2938  0.6433
 2985SOL    HW220589   2.745   2.797  12.776  2.2304  0.9199 -2.1918
 2986SOL     OW20590   2.988   2.984   1.607  0.2226  0.1832 -0.2357
 2986SOL    HW120591   3.016   2.894   1.594 -0.7710 -0.5883  3.0608
 2986SOL    HW220592   2.897   2.970   1.634  0.9889 -5.5086 -0.7200
 2987SOL     OW20593   1.516   2.062   3.653 -0.2240  0.1195 -0.1422
 2987SOL    HW120594   1.516   2.001   3.579  1.1871 -1.1079  0.8607
 2987SOL    HW220595   1.560   2.136   3.609 -0.9441  0.5963 -0.0572
 2988SOL     OW20596   2.049   3.816  11.745  0.0730  0.2704 -0.2494
 2988SOL    HW120597   1.967   3.855  11.712  0.0847 -0.2125 -0.8312
 2988SOL    HW220598   2.087   3.893  11.787  2.0974 -0.0275 -1.5460
 2989SOL     OW20599   0.009   3.445  15.532  0.1116  0.1593 -0.3199
 2989SOL    HW120600   0.071   3.515  15.511 -0.2817  0.2770 -1.0626
 2989SOL    HW220601   4.695   3.459  15.612  1.5142 -1.6245  0.8894
 2990SOL     OW20602   0.417   2.501  14.878 -0.3581  0.6637  0.4514
 2990SOL    HW120603   0.372   2.585  14.867 -1.8139  0.0223  1.5284
 2990SOL    HW220604   0.478   2.527  14.948  0.3820  0.6791 -0.1950
 2991SOL     OW20605   0.400   3.968   2.752  0.4770 -0.0161  0.3286
 2991SOL    HW120606   0.313   3.950   2.788  0.0931  0.6682 -0.2628
 2991SOL    HW220607   0.370   4.002   2.668 -2.8620 -0.3721  1.3669
 2992SOL     OW20608   2.131   0.653   2.451 -0.1332  1.0771 -0.0626
 2992SOL    HW120609   2.171   0.735   2.421  0.1500  1.0986  0.3694
 2992SOL    HW220610   2.040   0.681   2.457 -0.6304 -0.8906  1.4988
 2993SOL     OW20611   2.593   1.215  10.141 -0.2055 -0.0123  0.1354
 2993SOL    HW120612   2.609   1.284  10.206  1.5172 -0.4073  0.1206
 2993SOL    HW220613   2.601   1.259  10.057 -1.2968  0.6228  0.3581
 2994SOL     OW20614   1.881   1.349   7.502 -0.0870  0.4040  0.6858
 2994SOL    HW120615   1.870   1.442   7.524 -2.7858 -0.3550  2.5575
 2994SOL    HW220616   1.810   1.344   7.438 -0.8253  1.5399  1.4143
 2995SOL     OW20617   3.201   1.332   7.515  0.4004  0.2840 -0.5291
 2995SOL    HW120618   3.263   1.288   7.457  1.8309  0.3368  0.9451
 2995SOL    HW220619   3.228   1.300   7.601  2.3944  1.2587 -0.7789
 2996SOL     OW20620   3.039   0.636   4.554  0.2498  0.5306 -0.1435
 2996SOL    HW120621   2.979   0.587   4.498  3.1593 -3.7083  0.4726
 2996SOL    HW220622   3.005   0.726   4.546 -0.3495  0.3568  0.4743
 2997SOL     OW20623   1.737   3.703   8.739 -0.0553  0.1418  0.3963
 2997SOL    HW120624   1.810   3.690   8.678 -0.1576  0.0754  0.2881
 2997SOL    HW220625   1.744   3.796   8.757  0.4276  0.0653  0.6076
 2998SOL     OW20626   3.820   1.277  13.244 -0.7940  0.1835  0.3846
 2998SOL    HW120627   3.831   1.229  13.326 -0.9440 -0.1908  0.1875
 2998SOL    HW220628   3.776   1.358  13.270 -0.0092  1.2800 -1.6838
 2999SOL     OW20629   0.307   1.862   5.739 -0.3149 -0.5803 -0.3698
 2999SOL    HW120630   0.364   1.883   5.813 -1.9429  0.1089  0.6891
 2999SOL    HW220631   0.332   1.938   5.686 -0.7165 -0.5124 -0.4694
 3000SOL     OW20632   0.414   1.551  15.209  0.1891  0.2943  0.1699
 3000SOL    HW120633   0.461   1.615  15.156 -0.3309  0.1496 -0.4659
 3000SOL    HW220634   0.469   1.568  15.285  1.0441  0.6737 -0.5274
 3001SOL     OW20635   4.709   4.235   8.153  0.0033  0.1501  0.3900
 3001SOL    HW120636   0.068   4.232   8.147 -0.1061 -2.7338  0.2075
 3001SOL    HW220637   4.706   4.329   8.169 -0.6779 -0.0473  1.3872
 3002SOL     OW20638   1.762   2.181   5.042  0.3081 -0.1119  0.2999
 3002SOL    HW120639   1.677   2.172   4.998  1.4726 -4.4579 -1.0116
 3002SOL    HW220640   1.771   2.099   5.091 -2.1706 -0.0711  0.8254
 3003SOL     OW20641   1.829   1.181   4.508 -0.0670 -1.0767  0.0608
 3003SOL    HW120642   1.856   1.090   4.509 -0.6901 -1.2721 -0.9313
 3003SOL    HW220643   1.822   1.193   4.413  0.6101  1.9730  0.3773
 3004SOL     OW20644   2.294   2.425  11.859 -0.3923  0.3727 -0.5461
 3004SOL    HW120645   2.361   2.469  11.808 -2.1054 -0.2214 -3.3009
 3004SOL    HW220646   2.338   2.416  11.944 -1.9908 -1.6347  0.0912
 3005SOL     OW20647   1.556   1.845   8.980 -0.3352  0.6438  0.1024
 3005SOL    HW120648   1.467   1.827   9.009 -0.4448 -0.5178 -0.9399
 3005SOL    HW220649   1.600   1.763   9.000  0.2011  0.7394 -0.6400
 3006SOL     OW20650   1.685   1.868   5.052 -0.1141 -0.2005  0.1090
 3006SOL    HW120651   1.639   1.785   5.063 -0.1547 -0.2606 -0.5238
 3006SOL    HW220652   1.765   1.854   5.103  0.3334 -0.8681 -0.7807
 3007SOL     OW20653   1.643   3.771   2.256 -0.6995  0.0665  0.0681
 3007SOL    HW120654   1.580   3.715   2.302 -0.7355 -0.7531 -0.9796
 3007SOL    HW220655   1.627   3.741   2.167 -1.3860  0.4628  0.0615
 3008SOL     OW20656   1.728   3.979  14.777  0.5142 -0.5730  0.3770
 3008SOL    HW120657   1.646   4.000  14.821  0.1888 -0.3480 -0.3433
 3008SOL    HW220658   1.763   3.923  14.846  1.6104  0.4038  0.6263
 3009SOL     OW20659   4.510   3.816   7.554  1.0632  0.2654 -0.6538
 3009SOL    HW120660   4.489   3.850   7.467 -0.9363  0.8863  0.0641
 3009SOL    HW220661   4.471   3.728   7.553 -1.0886  1.2083  0.3559
 3010SOL     OW20662   1.320   2.679   6.751  0.2334  0.3515 -0.5295
 3010SOL    HW120663   1.341   2.716   6.837  1.2651  1.0579 -1.0807
 3010SOL    HW220664   1.374   2.731   6.692  1.6968 -2.8987 -2.0417
 3011SOL     OW20665   4.347   4.178   2.568 -0.3959 -0.1782 -0.1620
 3011SOL    HW120666   4.303   4.261   2.584 -0.0971 -0.3535  1.5176
 3011SOL    HW220667   4.330   4.161   2.475  2.5437 -1.6028 -0.4334
 3012SOL     OW20668   0.747   0.087   2.274  0.4723 -0.0705 -0.2389
 3012SOL    HW120669   0.771   0.029   2.347  3.4838  0.1813 -1.0338
 3012SOL    HW220670   0.681   0.027   2.239  0.3221  0.2333 -0.4709
 3013SOL     OW20671   0.320   2.768  13.388 -0.2882  0.0689  0.3990
 3013SOL    HW120672   0.257   2.837  13.407 -0.9849 -0.8326  1.3711
 3013SOL    HW220673   0.396   2.818  13.419  0.5192 -1.4014  0.7750
 3014SOL     OW20674   3.155   4.411   4.773 -0.1551  0.0345 -0.0947
 3014SOL    HW120675   3.120   4.383   4.688  0.8162 -0.1862 -0.4154
 3014SOL    HW220676   3.074   4.399   4.823 -1.1827  2.5708 -1.1645
 3015SOL     OW20677   1.795   4.496   8.090 -0.6437  0.5027 -1.0293
 3015SOL    HW120678   1.805   4.590   8.103  0.8481  0.4368 -1.6948
 3015SOL    HW220679   1.700   4.485   8.084 -0.5514  1.0048 -3.5157
 3016SOL     OW20680   0.667   4.620   2.734  0.1736 -0.0217  0.0676
 3016SOL    HW120681   0.698   4.577   2.813 -0.4134 -0.3539  0.1243
 3016SOL    HW220682   0.601   4.554   2.711 -0.0296  0.7317 -1.5722
 3017SOL     OW20683   4.471   1.648   5.393 -0.5201  1.0484 -0.4847
 3017SOL    HW120684   4.558   1.621   5.424 -0.8685  1.4693  0.8491
 3017SOL    HW220685   4.483   1.741   5.375 -1.1208  0.9849 -1.2101
 3018SOL     OW20686   1.009   1.636  10.429  0.6398 -0.0103  0.2527
 3018SOL    HW120687   0.926   1.673  10.460 -0.5534 -1.4828 -1.1885
 3018SOL    HW220688   1.045   1.603  10.511  2.5540 -2.7699 -1.6954
 3019SOL     OW20689   1.012   0.878   9.402 -0.7056 -0.1787 -0.6355
 3019SOL    HW120690   0.991   0.950   9.342 -0.2379 -0.1851 -0.8075
 3019SOL    HW220691   0.947   0.896   9.470  1.8532  1.0876  1.4969
 3020SOL     OW20692   1.642   1.747   8.582 -0.6849  0.5265  0.0397
 3020SOL    HW120693   1.687   1.830   8.572 -2.7296  1.6692  0.2949
 3020SOL    HW220694   1.660   1.706   8.497 -2.0248  1.9579 -0.9369
 3021SOL     OW20695   2.032   2.009   4.741 -0.5859  0.8861 -0.2866
 3021SOL    HW120696   2.080   2.092   4.735  0.5612 -0.0277 -3.9363
 3021SOL    HW220697   2.072   1.961   4.813 -0.7477  1.4987  0.2081
 3022SOL     OW20698   4.719   2.009  15.271  0.7297 -0.1411  0.2773
 3022SOL    HW120699   0.026   2.058  15.203  1.6053 -1.3105  0.0228
 3022SOL    HW220700   0.008   1.921  15.244  3.8018  0.9642 -0.2599
 3023SOL     OW20701   1.279   4.633  12.312  0.6278 -0.2744 -0.5299
 3023SOL    HW120702   1.227   4.713  12.313 -1.9255 -1.9238  0.3516
 3023SOL    HW220703   1.371   4.659  12.304  0.3563  1.0455  0.7427
 3024SOL     OW20704   1.250   1.828   5.843 -0.1204  0.5730 -0.2262
 3024SOL    HW120705   1.179   1.812   5.904  1.3731  0.0556  1.3862
 3024SOL    HW220706   1.213   1.819   5.755 -2.0481 -1.4976  0.7921
 3025SOL     OW20707   4.523   0.789   6.411  0.3431  0.5904  0.2634
 3025SOL    HW120708   4.559   0.760   6.494  1.1943  0.4036 -0.1699
 3025SOL    HW220709   4.587   0.755   6.348  0.6699  1.1172  0.3155
 3026SOL     OW20710   0.310   1.409  14.703  0.1335 -0.1125  0.3522
 3026SOL    HW120711   0.403   1.417  14.726  0.3255  1.5042 -0.9771
 3026SOL    HW220712   0.301   1.323  14.663 -0.9602 -0.2220  0.8314
 3027SOL     OW20713   2.967   1.715   9.293  0.1809 -0.5439 -0.5667
 3027SOL    HW120714   2.876   1.710   9.263  0.3187  0.9889 -1.2761
 3027SOL    HW220715   3.002   1.781   9.233  0.8653  0.2406  0.7184
 3028SOL     OW20716   4.044   0.568   0.323  0.2285 -0.4638  0.1594
 3028SOL    HW120717   4.129   0.528   0.302 -0.0231 -0.5183 -0.7591
 3028SOL    HW220718   4.020   0.502   0.388  0.0329  1.8189  2.4077
 3029SOL     OW20719   4.566   0.227   8.353 -0.2465 -0.5207  0.1502
 3029SOL    HW120720   4.635   0.201   8.413  0.4267  1.7812  0.3487
 3029SOL    HW220721   4.582   0.321   8.341  2.2363 -1.2515 -2.2335
 3030SOL     OW20722   4.724   2.500   6.802  0.0821  0.0585  0.1714
 3030SOL    HW120723   4.698   2.590   6.782 -0.2139  0.4784  2.4162
 3030SOL    HW220724   0.080   2.518   6.807  0.0542  0.6179 -1.4259
 3031SOL     OW20725   3.149   2.347   6.686  0.5111 -0.0402 -0.8978
 3031SOL    HW120726   3.156   2.305   6.772 -0.3791  1.3941 -0.1123
 3031SOL    HW220727   3.212   2.290   6.642  1.7804  0.7635 -0.1213
 3032SOL     OW20728   0.295   3.573   9.553 -0.3013 -0.2309  0.4381
 3032SOL    HW120729   0.211   3.607   9.584 -1.0191 -1.3719 -0.2080
 3032SOL    HW220730   0.271   3.490   9.510 -1.0854  0.4889 -0.5083
 3033SOL     OW20731   4.420   0.554   5.247  0.0153  0.0582  0.6015
 3033SOL    HW120732   4.442   0.608   5.171  0.8678  0.2836  1.0035
 3033SOL    HW220733   4.380   0.478   5.205  3.3606 -0.9718 -0.6822
 3034SOL     OW20734   2.785   1.404  15.857  0.6209  0.2776  0.8578
 3034SOL    HW120735   2.702   1.402  15.810  0.2416  0.1476  1.5284
 3034SOL    HW220736   2.819   1.493  15.849 -1.1199  0.8065 -0.4239
 3035SOL     OW20737   2.762   2.711   5.911 -0.3944  0.0375 -0.2193
 3035SOL    HW120738   2.718   2.796   5.909  0.7924  0.6154 -2.0719
 3035SOL    HW220739   2.758   2.689   6.004  2.8520 -0.0288 -0.0963
 3036SOL     OW20740   4.318   2.014   4.090 -0.1813 -0.2814 -0.6027
 3036SOL    HW120741   4.400   1.993   4.044 -0.8898 -0.0885 -1.9652
 3036SOL    HW220742   4.256   2.037   4.020  0.0529  0.8748 -0.4352
 3037SOL     OW20743   1.094   1.593   5.283 -0.0062 -0.3306 -0.3562
 3037SOL    HW120744   1.103   1.599   5.378 -1.1759 -0.5440 -0.2397
 3037SOL    HW220745   1.105   1.498   5.271  0.1405 -0.1272 -1.9237
 3038SOL     OW20746   1.245   3.064   5.114 -0.0920  0.4359 -0.2000
 3038SOL    HW120747   1.321   3.007   5.126 -1.2287 -1.1154 -0.4424
 3038SOL    HW220748   1.290   3.143   5.083  1.9972  0.2564  2.3431
 3039SOL     OW20749   0.378   1.102   5.174  0.3196  0.2991  0.0387
 3039SOL    HW120750   0.382   1.009   5.150 -0.5983  0.0662  0.8135
 3039SOL    HW220751   0.284   1.116   5.169  0.1374 -0.9971 -0.3868
 3040SOL     OW20752   2.160   3.043  13.346  0.1068  0.0915 -0.3270
 3040SOL    HW120753   2.210   3.125  13.349  1.8619 -0.9159 -2.6870
 3040SOL    HW220754   2.071   3.072  13.326  0.1483 -1.0066 -2.0576
 3041SOL     OW20755   2.666   2.562  12.681  0.2610  0.1911 -0.1836
 3041SOL    HW120756   2.655   2.506  12.604  1.9623  1.7498 -1.5734
 3041SOL    HW220757   2.587   2.552  12.733 -1.3092 -1.7122 -2.9308
 3042SOL     OW20758   0.342   1.678  14.494  0.2309 -0.0593  0.3838
 3042SOL    HW120759   0.333   1.652  14.586 -0.3123  0.9334  0.6060
 3042SOL    HW220760   0.254   1.660  14.460  0.8099 -1.3176 -0.4645
 3043SOL     OW20761   1.139   0.073   5.779  0.5980  0.8140 -0.5218
 3043SOL    HW120762   1.097   0.147   5.736  0.9611  0.3159 -1.7297
 3043SOL    HW220763   1.070   0.007   5.781 -0.0162  1.4432 -1.1198
 3044SOL     OW20764   1.249   4.039   3.432 -0.2605  0.2155 -0.4414
 3044SOL    HW120765   1.186   4.038   3.504  0.1615  1.0061 -0.0560
 3044SOL    HW220766   1.276   3.947   3.435 -0.7077  0.1324  1.2601
 3045SOL     OW20767   0.591   3.563   9.096 -0.5149  0.3659  0.1856
 3045SOL    HW120768   0.511   3.602   9.131 -0.0680  0.4196  1.1537
 3045SOL    HW220769   0.571   3.469   9.102 -0.9411  0.2789 -2.7721
 3046SOL     OW20770   0.836   3.429   5.058 -0.3073 -0.9129 -0.2317
 3046SOL    HW120771   0.862   3.506   5.007 -0.6259  0.3933  1.5889
 3046SOL    HW220772   0.810   3.365   4.992  0.5923  0.7406 -2.1895
 3047SOL     OW20773   3.327   1.626   0.081  0.3577  0.3545 -0.1607
 3047SOL    HW120774   3.333   1.583  17.743  0.0770 -0.0002  0.0014
 3047SOL    HW220775   3.233   1.637   0.088  0.4046  0.3964  0.3651
 3048SOL     OW20776   2.300   1.459   3.243  0.3591  0.0841  0.0731
 3048SOL    HW120777   2.222   1.440   3.191  0.4273 -0.9100  0.3380
 3048SOL    HW220778   2.357   1.497   3.176  0.4980 -2.2793 -1.1369
 3049SOL     OW20779   1.513   2.188   2.177 -0.2496  0.1504  0.1386
 3049SOL    HW120780   1.605   2.174   2.201 -0.1745  1.2901  0.5234
 3049SOL    HW220781   1.479   2.125   2.240 -1.2068  0.3328 -0.2064
 3050SOL     OW20782   2.030   3.981  11.992 -0.4570 -0.1242  0.3101
 3050SOL    HW120783   2.071   4.039  12.056 -0.5586 -0.1052  0.3580
 3050SOL    HW220784   1.935   3.990  12.004 -0.0643  1.2057  2.3919
 3051SOL     OW20785   3.560   0.543  11.014  0.0036  0.6920 -0.1935
 3051SOL    HW120786   3.620   0.481  10.972 -1.8008 -0.8569 -0.5028
 3051SOL    HW220787   3.484   0.485  11.025 -0.1071  0.6807 -0.9782
 3052SOL     OW20788   2.255   3.589   7.612  0.0026  0.4060  0.1030
 3052SOL    HW120789   2.260   3.500   7.649  0.0123  0.1414 -0.5375
 3052SOL    HW220790   2.322   3.580   7.544 -3.2619 -0.7565 -2.9559
 3053SOL     OW20791   0.484   4.281   4.732 -0.0229 -0.0129 -0.3494
 3053SOL    HW120792   0.567   4.268   4.686  1.0835  1.7124  1.1383
 3053SOL    HW220793   0.432   4.227   4.673  0.9383 -1.1613 -0.1525
 3054SOL     OW20794   0.448   1.013   3.824 -0.2077 -0.3596 -0.2033
 3054SOL    HW120795   0.353   1.001   3.814 -0.1427 -2.1804  1.3596
 3054SOL    HW220796   0.472   0.945   3.886 -1.5018 -0.5083  0.1306
 3055SOL     OW20797   1.459   2.244  13.406 -0.2772 -0.2149  0.2032
 3055SOL    HW120798   1.382   2.291  13.437 -0.7639 -1.2986  0.6349
 3055SOL    HW220799   1.407   2.210  13.333  0.4357 -2.4510  0.7419
 3056SOL     OW20800   0.618   2.672   5.505 -0.0903  0.3966  0.2399
 3056SOL    HW120801   0.640   2.715   5.422  0.0251  1.2946  0.7355
 3056SOL    HW220802   0.535   2.714   5.524 -0.4089 -0.0963 -0.0582
 3057SOL     OW20803   1.908   2.283   8.436 -0.3135  0.0847  0.2353
 3057SOL    HW120804   1.870   2.226   8.502  1.5934  0.1828  1.4043
 3057SOL    HW220805   2.001   2.260   8.428  0.2259  2.3986 -0.2235
 3058SOL     OW20806   0.005   1.011   0.533 -0.3866  0.1508 -0.2507
 3058SOL    HW120807   4.673   1.008   0.468  1.6034  2.6509 -2.5069
 3058SOL    HW220808   4.689   1.001   0.612 -0.2201  0.5909 -0.0811
 3059SOL     OW20809   4.314   1.944   7.193  0.1441 -0.7637  0.1416
 3059SOL    HW120810   4.241   1.981   7.144  0.4573 -1.5089 -0.8922
 3059SOL    HW220811   4.275   1.884   7.257  0.9164 -0.6708  0.7069
 3060SOL     OW20812   4.101   4.465  14.790 -0.0873 -0.3467 -0.4275
 3060SOL    HW120813   4.039   4.407  14.834  0.7580  0.1115  1.3546
 3060SOL    HW220814   4.105   4.425  14.703 -0.8187 -1.5047  0.0641
 3061SOL     OW20815   4.301   3.854   3.241 -0.0988 -0.7732  0.3467
 3061SOL    HW120816   4.230   3.862   3.177  2.4958 -1.2260 -2.5763
 3061SOL    HW220817   4.269   3.775   3.284 -0.6779 -0.9097 -0.3198
 3062SOL     OW20818   4.356   0.832   9.291 -0.0088  0.3729  0.0653
 3062SOL    HW120819   4.368   0.926   9.304  1.8582  0.1629 -0.0514
 3062SOL    HW220820   4.443   0.798   9.312 -0.0064 -0.2162 -0.8880
 3063SOL     OW20821   2.170   2.073   3.627  0.2260  0.2251  0.0527
 3063SOL    HW120822   2.251   2.103   3.586  1.2883 -1.8603  0.6363
 3063SOL    HW220823   2.121   2.152   3.649 -1.9626 -1.7078  2.1766
 3064SOL     OW20824   2.306   2.861   8.983 -1.0347  0.2175 -0.0092
 3064SOL    HW120825   2.335   2.775   9.013 -1.3427  0.6391  1.5013
 3064SOL    HW220826   2.248   2.825   8.916 -0.1194  0.5347 -0.9622
 3065SOL     OW20827   4.211   3.816   5.559 -0.3596  0.3293 -0.3162
 3065SOL    HW120828   4.282   3.877   5.540  0.2330 -0.1566  0.3787
 3065SOL    HW220829   4.250   3.751   5.617 -0.1375 -1.5007 -2.5202
 3066SOL     OW20830   1.601   3.421   7.446  0.7576  0.1116  0.4424
 3066SOL    HW120831   1.517   3.377   7.433  0.4889  0.5155  0.8154
 3066SOL    HW220832   1.583   3.506   7.405 -1.9868 -0.4436  0.4703
 3067SOL     OW20833   3.239   4.570   0.601  0.4405  0.1562  0.3315
 3067SOL    HW120834   3.282   4.646   0.562  2.6435 -1.1671  0.2459
 3067SOL    HW220835   3.300   4.560   0.674  1.4699 -1.5113 -0.7629
 3068SOL     OW20836   1.496   1.211   8.663  0.5532  0.0112  0.3639
 3068SOL    HW120837   1.590   1.211   8.681  0.6001 -0.1819  0.1013
 3068SOL    HW220838   1.483   1.300   8.630 -1.2740 -1.0318 -1.7560
 3069SOL     OW20839   0.704   0.007   1.443  0.1088 -0.1292  0.0440
 3069SOL    HW120840   0.756   4.665   1.452 -1.0888 -0.5765  2.9204
 3069SOL    HW220841   0.649   0.002   1.521  1.7728  2.2067  1.3558
 3070SOL     OW20842   0.500   2.155   8.503 -0.0196  0.0008  0.4508
 3070SOL    HW120843   0.593   2.156   8.524  0.1125 -2.5344  0.0677
 3070SOL    HW220844   0.477   2.237   8.545 -2.3870  0.4589 -1.6975
 3071SOL     OW20845   4.284   2.628   2.942 -0.4520  0.1825 -0.1907
 3071SOL    HW120846   4.235   2.704   2.910 -1.7295 -1.2421 -1.5753
 3071SOL    HW220847   4.225   2.610   3.016 -0.5940 -2.5030 -1.0010
 3072SOL     OW20848   2.762   1.877   4.152  0.5293  0.1466 -0.1799
 3072SOL    HW120849   2.670   1.861   4.128  0.7961  0.2437 -1.2644
 3072SOL    HW220850   2.771   1.811   4.220  1.4493 -0.6187 -1.0543
 3073SOL     OW20851   1.378   1.675  12.537  0.4334  0.1983 -0.5605
 3073SOL    HW120852   1.363   1.599  12.592 -2.1516  0.2157 -1.2529
 3073SOL    HW220853   1.473   1.682  12.522  0.4258 -1.4338 -1.3310
 3074SOL     OW20854   3.874   4.407   6.778 -0.0947  0.0239  0.7531
 3074SOL    HW120855   3.845   4.332   6.830  1.5381  0.4129  2.2298
 3074SOL    HW220856   3.913   4.373   6.698  1.0618  0.5836  1.0892
 3075SOL     OW20857   0.143   4.285   2.288  0.5681 -0.1748 -0.2264
 3075SOL    HW120858   0.125   4.203   2.243 -2.6422 -0.4176  1.5122
 3075SOL    HW220859   0.056   4.303   2.325  0.2816 -1.9865 -0.0548
 3076SOL     OW20860   1.834   4.309   0.448  0.2292 -0.4280  0.8621
 3076SOL    HW120861   1.838   4.214   0.454  0.5255 -0.7276 -4.0879
 3076SOL    HW220862   1.864   4.325   0.537  2.0382 -2.1119  0.5667
 3077SOL     OW20863   0.350   1.884   4.240  0.3477 -0.0238  0.4964
 3077SOL    HW120864   0.426   1.892   4.298  0.1359  0.4807  0.7053
 3077SOL    HW220865   0.337   1.978   4.229  0.8525  0.1308  1.1709
 3078SOL     OW20866   0.944   2.907   2.377  0.5529 -0.3241 -0.1824
 3078SOL    HW120867   0.932   2.822   2.335  0.9110 -1.3634  1.8128
 3078SOL    HW220868   0.869   2.923   2.434  0.4493 -1.0539 -0.1263
 3079SOL     OW20869   3.376   3.299   1.774 -0.5863  0.5495 -0.0909
 3079SOL    HW120870   3.471   3.292   1.776 -0.6564 -0.3511  0.2363
 3079SOL    HW220871   3.357   3.368   1.711 -1.3634  0.3665 -0.0607
 3080SOL     OW20872   3.122   2.156  15.277 -0.8752 -0.2317 -0.2566
 3080SOL    HW120873   3.151   2.111  15.197  0.1572 -0.0966  0.0481
 3080SOL    HW220874   3.163   2.097  15.340  0.4081 -0.0760 -0.9408
 3081SOL     OW20875   0.003   1.968   6.069 -0.0328  0.8450 -0.2565
 3081SOL    HW120876   0.052   1.894   6.035  0.5061 -0.2617  2.9326
 3081SOL    HW220877   0.004   2.038   6.003  0.3979  1.3526  0.2775
 3082SOL     OW20878   1.620   1.856  17.600  0.1308  0.4272  0.1508
 3082SOL    HW120879   1.698   1.877  17.548  1.4818 -0.9755  1.6260
 3082SOL    HW220880   1.561   1.850  17.525  0.0857  3.6432 -0.0612
 3083SOL     OW20881   0.762   4.609   5.531 -0.7470 -0.0536  0.4219
 3083SOL    HW120882   0.814   4.688   5.519 -1.2797  0.3712  0.9002
 3083SOL    HW220883   0.820   4.557   5.588  0.6041  0.3541 -0.5806
 3084SOL     OW20884   0.340   2.141   4.176 -0.1919  0.5070 -0.3142
 3084SOL    HW120885   0.304   2.230   4.185 -0.8351  0.2538 -0.3941
 3084SOL    HW220886   0.328   2.112   4.085  1.4347  1.8711 -0.9672
 3085SOL     OW20887   0.919   1.160   6.407 -0.1706 -0.5391 -0.1804
 3085SOL    HW120888   0.827   1.164   6.433  0.1487  0.4741  0.7558
 3085SOL    HW220889   0.961   1.216   6.472  1.1409 -0.6435 -0.9259
 3086SOL     OW20890   0.568   4.071   4.131  0.0048 -0.1453  0.0770
 3086SOL    HW120891   0.491   4.018   4.152 -0.1796 -0.5298 -1.5920
 3086SOL    HW220892   0.540   4.118   4.052  0.6720 -0.9959 -0.6670
 3087SOL     OW20893   2.002   1.229   8.686 -0.4357 -0.2226  0.2617
 3087SOL    HW120894   2.023   1.220   8.593 -0.9791  1.4015 -0.0244
 3087SOL    HW220895   1.983   1.137   8.703 -0.1946 -0.4017 -0.4579
 3088SOL     OW20896   0.940   4.600   6.457  0.0630 -0.0660  0.1680
 3088SOL    HW120897   0.968   4.679   6.410 -2.2050  0.5952 -0.0740
 3088SOL    HW220898   0.874   4.562   6.398  0.0958  2.1486 -1.3046
 3089SOL     OW20899   4.298   3.363  10.720  0.2838 -0.1250 -0.6549
 3089SOL    HW120900   4.274   3.449  10.685  2.0519  0.2375 -0.9915
 3089SOL    HW220901   4.221   3.331  10.768  1.5438 -0.6834  0.9742
 3090SOL     OW20902   2.663   2.885   3.832  0.2016 -0.4251 -0.2902
 3090SOL    HW120903   2.703   2.818   3.778 -0.7104 -0.4293 -0.9419
 3090SOL    HW220904   2.598   2.837   3.882  0.5799 -1.8439 -1.1763
 3091SOL     OW20905   4.322   1.362   6.568 -0.8870  0.2783 -0.2548
 3091SOL    HW120906   4.416   1.375   6.560 -0.8930 -0.2840 -1.2955
 3091SOL    HW220907   4.307   1.424   6.640 -2.3526  0.8325 -1.0291
 3092SOL     OW20908   3.207   2.972   8.851  0.4793  0.6258  0.0389
 3092SOL    HW120909   3.265   2.990   8.925 -1.1322  1.8269  1.0140
 3092SOL    HW220910   3.170   3.059   8.837  1.3180  0.6855 -1.7674
 3093SOL     OW20911   3.807   0.650   4.385 -0.2973  0.4615  0.1889
 3093SOL    HW120912   3.737   0.715   4.390 -2.1844 -1.6814  1.7231
 3093SOL    HW220913   3.757   0.570   4.371 -0.9166  0.7465  0.8016
 3094SOL     OW20914   0.814   1.137   7.031 -0.1955  0.5632  0.2737
 3094SOL    HW120915   0.875   1.133   7.105 -0.4651 -0.5580  0.4281
 3094SOL    HW220916   0.815   1.232   7.016 -0.3321  0.6078  0.5509
 3095SOL     OW20917   4.622   2.410  16.905 -0.1268 -0.5016  0.5300
 3095SOL    HW120918   4.533   2.433  16.876  1.0153  2.7776 -0.3968
 3095SOL    HW220919   4.630   2.462  16.984  0.4107  1.2908 -0.7010
 3096SOL     OW20920   2.499   4.184  10.325 -0.0298 -0.2298 -0.1616
 3096SOL    HW120921   2.428   4.193  10.261  1.8415  0.0866 -2.2049
 3096SOL    HW220922   2.481   4.102  10.371 -1.0120 -0.0926 -0.3121
 3097SOL     OW20923   3.947   2.878   9.433 -0.0411 -0.0080 -0.0558
 3097SOL    HW120924   3.895   2.878   9.514 -2.4309  1.7030 -1.6020
 3097SOL    HW220925   4.032   2.856   9.471 -0.3148  2.7581  2.0863
 3098SOL     OW20926   2.741   3.769   4.948 -0.4112 -0.1603  0.2260
 3098SOL    HW120927   2.750   3.674   4.940  0.0665 -0.2458  1.7404
 3098SOL    HW220928   2.834   3.791   4.941 -0.5321  0.0510 -0.6974
 3099SOL     OW20929   0.041   2.984   7.294 -0.0389 -0.1241  0.0624
 3099SOL    HW120930   4.721   2.979   7.217  1.1851  0.7687 -0.9172
 3099SOL    HW220931   4.727   2.947   7.365  1.1791  0.7485  1.4026
 3100SOL     OW20932   4.125   0.944   5.819 -0.1023  0.3320  0.3550
 3100SOL    HW120933   4.189   0.982   5.879 -0.1159  0.1465  0.4874
 3100SOL    HW220934   4.116   1.014   5.754 -1.5505  0.4394  0.6650
 3101SOL     OW20935   1.350   2.591  11.479  0.1005 -0.2345 -0.5750
 3101SOL    HW120936   1.442   2.610  11.496  0.4534 -0.2354 -2.5137
 3101SOL    HW220937   1.361   2.522  11.414  0.9056 -0.5597 -0.0940
 3102SOL     OW20938   0.860   0.981  12.791  0.2962 -0.4182  0.2375
 3102SOL    HW120939   0.803   1.020  12.858  0.7276  1.5989 -0.5812
 3102SOL    HW220940   0.918   1.056  12.786 -0.6743  0.2881 -0.3533
 3103SOL     OW20941   0.451   4.579  15.152 -0.0320 -0.2000  0.5815
 3103SOL    HW120942   0.415   4.566  15.064 -2.0424  0.2666  1.3142
 3103SOL    HW220943   0.544   4.565  15.138 -0.2314  1.7050 -2.6488
 3104SOL     OW20944   0.363   2.225   4.900  0.1193  0.2242 -0.3397
 3104SOL    HW120945   0.436   2.182   4.945  0.0296  0.8629  0.4083
 3104SOL    HW220946   0.406   2.234   4.815  1.5042 -1.8514  0.1434
 3105SOL     OW20947   3.122   1.207   6.646 -0.3758 -0.5292 -0.3227
 3105SOL    HW120948   3.217   1.198   6.633 -0.6804  0.2940 -3.1803
 3105SOL    HW220949   3.100   1.280   6.588 -2.9913 -0.2483  1.0312
 3106SOL     OW20950   2.398   2.984  17.620 -0.0323 -0.0525  0.5865
 3106SOL    HW120951   2.449   3.014  17.545  2.3559 -0.9291  1.8709
 3106SOL    HW220952   2.409   3.066  17.667  2.5460 -0.1698  0.1807
 3107SOL     OW20953   2.038   2.367   7.167  0.0493 -0.0987  0.5209
 3107SOL    HW120954   1.997   2.345   7.083  1.6805  1.7080 -0.7523
 3107SOL    HW220955   2.102   2.299   7.186  0.4369  0.4045  1.0002
 3108SOL     OW20956   1.191   3.491   8.952  0.2456 -0.3967  0.4362
 3108SOL    HW120957   1.196   3.562   9.016 -3.5513  1.7056 -1.5366
 3108SOL    HW220958   1.241   3.530   8.879  0.1660 -1.5315 -0.2219
 3109SOL     OW20959   0.510   4.631   8.852  0.9062  0.0783  0.3853
 3109SOL    HW120960   0.435   4.665   8.804  0.4597 -1.2090  0.1669
 3109SOL    HW220961   0.514   4.549   8.803 -2.0270  1.8430 -2.7706
 3110SOL     OW20962   2.973   2.924   6.647  0.6422 -0.1232 -0.5247
 3110SOL    HW120963   2.928   2.868   6.711  3.3706 -1.0221  0.6164
 3110SOL    HW220964   2.941   3.006   6.686 -0.7330 -1.1385  0.5033
 3111SOL     OW20965   3.178   2.210  17.092 -0.0902 -0.4339 -0.5797
 3111SOL    HW120966   3.268   2.177  17.088  0.0960 -0.1934  1.4266
 3111SOL    HW220967   3.194   2.287  17.037  0.7038 -0.3364 -0.2208
 3112SOL     OW20968   4.205   1.354   4.320  1.2500  0.8458 -0.0058
 3112SOL    HW120969   4.235   1.365   4.230 -0.6783  1.0336 -0.6204
 3112SOL    HW220970   4.253   1.273   4.339 -1.5748 -0.6382  0.8205
 3113SOL     OW20971   4.664   0.498   3.160 -0.7199 -0.0944  0.1441
 3113SOL    HW120972   4.713   0.556   3.102 -0.7807 -0.8244 -0.6293
 3113SOL    HW220973   4.577   0.515   3.124 -0.9602 -0.9174  0.3376
 3114SOL     OW20974   4.360   4.672   3.660  0.4365 -0.4092  0.9374
 3114SOL    HW120975   4.407   4.632   3.734  1.0859  3.9489  2.8937
 3114SOL    HW220976   4.360   4.608   3.589  0.1852  1.4802 -0.7263
 3115SOL     OW20977   4.242   0.896  14.818 -0.2279 -0.3069 -0.4137
 3115SOL    HW120978   4.316   0.861  14.767  0.4042 -0.8344  0.8712
 3115SOL    HW220979   4.292   0.966  14.860  0.0411 -0.8826  0.2129
 3116SOL     OW20980   4.134   4.004   1.350  0.5093  0.5420 -0.0333
 3116SOL    HW120981   4.088   4.021   1.267 -0.8114 -0.3334  0.5143
 3116SOL    HW220982   4.128   4.085   1.401  2.5987 -0.1960  1.3736
 3117SOL     OW20983   2.790   3.251   4.785  0.3642  0.1366  0.7714
 3117SOL    HW120984   2.864   3.210   4.830 -1.6967 -2.4508  1.7469
 3117SOL    HW220985   2.829   3.240   4.698 -0.5350  0.0143  0.3924
 3118SOL     OW20986   0.493   0.667   8.161  0.2348  0.0745 -0.5247
 3118SOL    HW120987   0.505   0.573   8.152  0.2272 -0.2269  2.7013
 3118SOL    HW220988   0.404   0.677   8.127 -0.9234 -3.6016  1.5730
 3119SOL     OW20989   3.109   1.717   5.931  0.0111  0.0417 -0.0079
 3119SOL    HW120990   3.134   1.680   5.846  0.1130  0.7868 -0.3008
 3119SOL    HW220991   3.125   1.638   5.983 -3.8347 -0.4811  0.4027
 3120SOL     OW20992   3.055   3.812   4.141  0.1392 -0.6222  0.1743
 3120SOL    HW120993   3.138   3.851   4.112 -0.1317  0.1063  0.3876
 3120SOL    HW220994   3.078   3.729   4.183  0.2981 -1.9914 -2.6303
 3121SOL     OW20995   0.960   2.077  13.269 -0.1587 -0.2709 -0.1718
 3121SOL    HW120996   1.033   2.069  13.330 -1.6555  0.2681  1.7210
 3121SOL    HW220997   0.890   2.091  13.334 -0.4106 -1.5293 -0.1860
 3122SOL     OW20998   4.712   0.605   8.619 -0.0980  0.3789 -0.8098
 3122SOL    HW120999   0.005   0.516   8.601 -0.3431  0.7385 -3.0905
 3122SOL    HW221000   0.032   0.631   8.691 -2.0656 -1.0652  1.2914
 3123SOL     OW21001   2.309   3.302   6.287  0.1195  0.7215 -0.4603
 3123SOL    HW121002   2.292   3.308   6.381 -2.7133  0.7556 -0.9717
 3123SOL    HW221003   2.310   3.395   6.264  3.0481 -0.0685 -3.5811
 3124SOL     OW21004   4.074   0.020   2.591 -0.2560 -0.6628  0.2621
 3124SOL    HW121005   4.148   4.719   2.637  0.1681 -1.2738 -0.9208
 3124SOL    HW221006   4.041   4.694   2.527  1.7897  0.8589 -2.3405
 3125SOL     OW21007   4.448   3.207  15.811 -0.0960  0.8603 -0.2450
 3125SOL    HW121008   4.369   3.164  15.777 -0.3403  0.7597  0.4542
 3125SOL    HW221009   4.424   3.198  15.903 -0.0845  1.6138 -0.1702
 3126SOL     OW21010   0.494   3.241   3.709 -0.0803 -0.2968 -0.2599
 3126SOL    HW121011   0.405   3.266   3.736  0.2624  2.7562 -1.9184
 3126SOL    HW221012   0.510   3.312   3.647  0.5464 -1.0590 -0.9645
 3127SOL     OW21013   0.500   2.192  14.433 -0.4575  0.0681  0.6466
 3127SOL    HW121014   0.453   2.109  14.446 -2.1974  0.9068 -0.3461
 3127SOL    HW221015   0.464   2.243  14.506 -1.2321  1.5235 -0.7769
 3128SOL     OW21016   0.379   0.687   8.510 -0.6220 -0.0103  0.7673
 3128SOL    HW121017   0.401   0.716   8.599  0.4604 -0.6786  0.7148
 3128SOL    HW221018   0.429   0.747   8.455  2.6782 -2.1074  1.4605
 3129SOL     OW21019   4.258   1.133   7.183 -0.0568 -0.1088 -0.1372
 3129SOL    HW121020   4.259   1.093   7.096  1.2279  1.1770 -0.7028
 3129SOL    HW221021   4.294   1.218   7.161  1.0837 -0.7522 -0.7621
 3130SOL     OW21022   4.228   3.952   2.728 -0.0263  0.1689 -0.2949
 3130SOL    HW121023   4.267   4.031   2.689  1.0372  0.1825  0.7646
 3130SOL    HW221024   4.140   3.950   2.691 -0.0604 -2.9837  0.0094
 3131SOL     OW21025   4.124   4.664   4.125 -0.3363  0.1196 -0.0260
 3131SOL    HW121026   4.065   4.597   4.160  0.4877 -0.1438  0.8612
 3131SOL    HW221027   4.064   4.724   4.081  2.2688  1.8059 -1.2723
 3132SOL     OW21028   2.221   1.498   6.510 -0.1907 -0.7936  0.0741
 3132SOL    HW121029   2.225   1.410   6.472  0.8154 -0.9956  0.6526
 3132SOL    HW221030   2.264   1.556   6.446  1.0005 -0.2175  1.4103
 3133SOL     OW21031   2.040   4.151   8.646 -0.4282 -0.2862 -0.2747
 3133SOL    HW121032   2.129   4.154   8.612  0.2665 -0.7933  1.4901
 3133SOL    HW221033   2.012   4.242   8.643 -1.9203 -0.6724  1.9502
 3134SOL     OW21034   4.182   4.723   4.397 -0.1572 -0.4991  0.2085
 3134SOL    HW121035   4.191   4.719   4.302 -1.7918  1.7707 -0.0248
 3134SOL    HW221036   4.222   0.071   4.409  0.4658 -0.9843  1.6282
 3135SOL     OW21037   3.249   0.160   7.877 -0.5511 -0.6812 -0.2503
 3135SOL    HW121038   3.196   0.081   7.876  1.1139 -1.7807 -1.3150
 3135SOL    HW221039   3.281   0.167   7.787  1.3817  0.6106  0.5223
 3136SOL     OW21040   3.218   2.245   8.103 -0.2985 -0.0684  0.2103
 3136SOL    HW121041   3.227   2.232   8.008 -0.5251 -1.3509  0.3735
 3136SOL    HW221042   3.271   2.325   8.109  1.1031 -1.3327  4.5054
 3137SOL     OW21043   3.166   4.424   2.478  0.0106  0.3095  0.2720
 3137SOL    HW121044   3.077   4.415   2.446 -0.0901  3.2593 -0.2432
 3137SOL    HW221045   3.152   4.513   2.510  0.7016  0.1744  0.9582
 3138SOL     OW21046   2.993   0.799   6.076  0.0939 -0.7550  0.0755
 3138SOL    HW121047   3.015   0.858   6.148 -1.4641 -0.4236  0.2726
 3138SOL    HW221048   2.915   0.766   6.120  0.7537 -0.5306  1.4266
 3139SOL     OW21049   0.115   3.269   5.007  0.4545  0.2654  0.6120
 3139SOL    HW121050   0.092   3.186   5.049 -3.0682  0.4849 -0.8658
 3139SOL    HW221051   0.188   3.290   5.064 -0.3584 -1.8355  2.4329
 3140SOL     OW21052   0.423   1.197   2.148  0.1792 -0.4517 -0.0768
 3140SOL    HW121053   0.499   1.180   2.092  0.5571  1.3200 -0.0966
 3140SOL    HW221054   0.358   1.210   2.080 -0.1223  1.6212  0.6032
 3141SOL     OW21055   1.809   2.854   6.132 -0.2428 -0.0916 -0.1461
 3141SOL    HW121056   1.809   2.870   6.227  1.3389 -0.1224 -0.1356
 3141SOL    HW221057   1.715   2.844   6.118 -0.2304  0.1792 -0.4248
 3142SOL     OW21058   4.286   0.054   5.187  0.7987 -0.5311  0.0117
 3142SOL    HW121059   4.257   0.020   5.102  3.1258  0.9666 -1.3846
 3142SOL    HW221060   4.262   0.145   5.165 -2.1936 -0.9844  1.4645
 3143SOL     OW21061   1.997   2.315   5.047 -0.3740 -0.9544 -0.4637
 3143SOL    HW121062   2.038   2.272   4.972  3.5421  1.2716  0.3617
 3143SOL    HW221063   1.905   2.289   5.056 -0.8851  0.6494 -0.9420
 3144SOL     OW21064   3.012   0.730   3.887 -0.1479  0.0963 -0.1851
 3144SOL    HW121065   3.001   0.637   3.910 -1.6044 -0.0137 -1.3396
 3144SOL    HW221066   2.938   0.745   3.829  0.3578  2.4714 -0.1999
 3145SOL     OW21067   2.344   4.122  12.881  0.0768  0.0762  0.4850
 3145SOL    HW121068   2.393   4.191  12.838 -0.9400 -0.7910 -2.0312
 3145SOL    HW221069   2.406   4.052  12.902  0.5858  0.8375  1.5301
 3146SOL     OW21070   2.655   0.906  13.754  0.0340 -0.0281  0.1859
 3146SOL    HW121071   2.606   0.987  13.767  0.7291  0.2248  1.1923
 3146SOL    HW221072   2.705   0.895  13.834 -0.3877 -1.1073  0.3044
 3147SOL     OW21073   0.662   3.945   8.780 -0.1731  0.0168 -0.3434
 3147SOL    HW121074   0.698   3.862   8.810  1.0471  0.9582  0.7924
 3147SOL    HW221075   0.586   3.910   8.734  1.4844 -2.4371 -1.2231
 3148SOL     OW21076   4.313   3.733   5.209 -0.5185  0.3879  0.4559
 3148SOL    HW121077   4.224   3.725   5.243 -1.3287  2.0600 -1.2558
 3148SOL    HW221078   4.367   3.689   5.275 -1.4710 -0.5019  0.6359
 3149SOL     OW21079   2.089   1.228   8.311 -0.1102 -0.0567 -0.9176
 3149SOL    HW121080   2.018   1.178   8.270 -1.1805  1.5439 -1.0364
 3149SOL    HW221081   2.102   1.293   8.242 -1.2254 -0.5604 -1.5934
 3150SOL     OW21082   2.157   1.979   8.142 -0.3188  0.9132 -0.1310
 3150SOL    HW121083   2.081   2.013   8.188 -1.0262  2.9338 -2.7486
 3150SOL    HW221084   2.138   2.009   8.053 -1.3368  0.5310 -0.0357
 3151SOL     OW21085   2.805   1.355  11.949 -1.0434  0.0326 -0.4025
 3151SOL    HW121086   2.874   1.398  12.000  0.1981 -0.3143 -1.7822
 3151SOL    HW221087   2.780   1.426  11.889  2.2260 -0.5967 -2.5301
 3152SOL     OW21088   2.121   4.239   4.489  0.1687 -0.0506  0.4641
 3152SOL    HW121089   2.060   4.184   4.441 -0.0099  1.2743 -0.8021
 3152SOL    HW221090   2.207   4.210   4.460 -0.2236 -2.3358  1.5928
 3153SOL     OW21091   2.044   2.447   4.220  0.1111  0.2758  0.6020
 3153SOL    HW121092   1.990   2.370   4.240 -2.1662  1.5882 -0.4328
 3153SOL    HW221093   1.977   2.496   4.172 -1.3834 -1.9852  0.3773
 3154SOL     OW21094   3.648   3.986   3.045  0.3536 -0.3232 -0.3811
 3154SOL    HW121095   3.665   4.062   3.100 -0.6524  0.0819 -0.6448
 3154SOL    HW221096   3.679   4.010   2.958 -0.8044  0.8899 -0.4505
 3155SOL     OW21097   3.661   2.996   6.099  0.5155 -0.1419 -0.2826
 3155SOL    HW121098   3.582   2.947   6.079 -1.7193  2.5849  1.7840
 3155SOL    HW221099   3.623   3.069   6.149 -0.7086 -1.7350  1.0738
 3156SOL     OW21100   2.898   1.908   6.877 -0.2868 -0.1250 -0.0504
 3156SOL    HW121101   2.836   1.876   6.942  0.1727  0.0124  0.4544
 3156SOL    HW221102   2.972   1.848   6.882  0.1141  0.5188  1.7696
 3157SOL     OW21103   1.009   2.957   7.949 -0.1037 -0.2949 -0.1885
 3157SOL    HW121104   0.981   2.923   8.034  2.2449 -1.6863  0.0264
 3157SOL    HW221105   1.013   2.880   7.893  0.2687 -0.2876 -0.1702
 3158SOL     OW21106   4.700   0.998   1.410  0.1216  0.2323  0.1380
 3158SOL    HW121107   4.730   1.003   1.319 -0.1236  0.7419  0.0913
 3158SOL    HW221108   4.612   0.959   1.407 -0.2005  0.9768  0.0065
 3159SOL     OW21109   2.853   0.100   4.021  0.1037  0.4335 -0.1129
 3159SOL    HW121110   2.801   0.065   4.094  2.3029  2.5698  2.4850
 3159SOL    HW221111   2.840   0.025   3.963 -0.5845 -0.6553  1.4473
 3160SOL     OW21112   1.785   2.561   9.434 -0.0171 -0.0386  0.2903
 3160SOL    HW121113   1.727   2.518   9.372 -0.9896 -1.0687  1.9185
 3160SOL    HW221114   1.792   2.499   9.507  0.1443 -1.4350 -0.9001
 3161SOL     OW21115   3.729   3.923  15.870 -0.0710 -0.3713  0.1037
 3161SOL    HW121116   3.648   3.972  15.882  0.5124  0.5179  0.4296
 3161SOL    HW221117   3.763   3.955  15.787  1.0108 -0.6487  0.4322
 3162SOL     OW21118   1.042   1.293  15.559 -0.1275 -0.0138  0.0493
 3162SOL    HW121119   1.002   1.240  15.628 -1.8008  0.9076 -0.2120
 3162SOL    HW221120   0.967   1.335  15.516 -0.0209  0.0430 -0.0802
 3163SOL     OW21121   3.401   2.826   6.049  0.2910  0.5202  0.7119
 3163SOL    HW121122   3.334   2.894   6.053 -0.2082  0.0726 -0.0491
 3163SOL    HW221123   3.359   2.768   5.986  0.7287  0.0050  0.8997
 3164SOL     OW21124   4.502   0.804  12.379 -0.0283 -0.2781  0.4094
 3164SOL    HW121125   4.571   0.856  12.422  1.4953 -1.6784 -0.3534
 3164SOL    HW221126   4.538   0.719  12.402  0.1337  0.1296  1.6784
 3165SOL     OW21127   0.849   1.995   1.795 -0.3798  0.3540  0.5610
 3165SOL    HW121128   0.865   1.910   1.754 -3.2439  0.2203 -0.2878
 3165SOL    HW221129   0.833   2.052   1.720 -1.9481  0.4101  0.9350
 3166SOL     OW21130   2.966   4.571   8.663 -0.3042  0.6683  0.3970
 3166SOL    HW121131   2.960   4.649   8.718 -0.3192  0.7501  0.2821
 3166SOL    HW221132   3.044   4.522   8.688 -0.2656  1.0465  1.0037
 3167SOL     OW21133   2.957   3.056   4.594 -0.4964 -0.0465 -0.4667
 3167SOL    HW121134   2.969   3.090   4.506  0.7003 -2.1774 -1.1271
 3167SOL    HW221135   3.025   2.989   4.600  0.8918  1.1167 -3.3213
 3168SOL     OW21136   2.733   3.976  15.580  0.5270 -0.2448 -0.2292
 3168SOL    HW121137   2.727   3.902  15.520  0.3166  0.8154 -1.5162
 3168SOL    HW221138   2.645   3.967  15.617 -0.3795  0.1077 -2.3295
 3169SOL     OW21139   1.267   3.562   6.622  0.6107 -0.4554 -0.4299
 3169SOL    HW121140   1.316   3.547   6.703  1.9476  0.5530 -1.0489
 3169SOL    HW221141   1.222   3.644   6.642  0.4456  0.0178 -2.7111
 3170SOL     OW21142   3.836   2.927   9.015 -0.2659  0.3289  0.6009
 3170SOL    HW121143   3.769   2.942   8.948  0.1141 -0.4656  0.0443
 3170SOL    HW221144   3.905   2.909   8.951  1.3545  1.1976  2.1186
 3171SOL     OW21145   0.931   0.094   8.792  0.0273  0.2092 -0.3179
 3171SOL    HW121146   0.844   0.082   8.830 -1.9168  2.0327 -4.2331
 3171SOL    HW221147   0.966   0.008   8.816 -0.8332  0.2562  1.0983
 3172SOL     OW21148   2.849   1.285   8.807 -0.3082 -0.3395  0.2725
 3172SOL    HW121149   2.876   1.202   8.767 -0.5526 -0.2112 -0.1609
 3172SOL    HW221150   2.930   1.330   8.831 -0.9998  0.9611  0.1784
 3173SOL     OW21151   1.378   1.854   5.124  0.4753 -0.1776  0.2823
 3173SOL    HW121152   1.465   1.833   5.157  0.4950 -1.0272 -0.3233
 3173SOL    HW221153   1.391   1.891   5.037  0.1319  0.2002  0.3882
 3174SOL     OW21154   4.091   0.920   2.305  0.1550 -0.2932 -0.3002
 3174SOL    HW121155   4.099   0.865   2.383 -1.6546 -0.0021  0.0818
 3174SOL    HW221156   4.108   0.847   2.246 -0.8376 -0.2403 -0.6492
 3175SOL     OW21157   1.898   1.678   9.455 -0.1441 -0.2452 -0.3641
 3175SOL    HW121158   1.849   1.702   9.377 -1.3289  0.0681  0.4747
 3175SOL    HW221159   1.915   1.589   9.426  0.1396  0.1342 -1.3592
 3176SOL     OW21160   1.327   1.522   8.114  0.0576 -0.2645  0.3291
 3176SOL    HW121161   1.260   1.557   8.056  0.7954 -2.7333 -2.0779
 3176SOL    HW221162   1.401   1.541   8.055  1.4160 -0.9464  1.8088
 3177SOL     OW21163   0.662   2.194   6.699 -0.1460 -0.3240 -0.3772
 3177SOL    HW121164   0.631   2.280   6.727  0.6356 -0.1244 -0.1180
 3177SOL    HW221165   0.649   2.210   6.606  0.7895  2.5524 -0.0167
 3178SOL     OW21166   3.694   2.779   7.790 -0.1788  0.2165 -0.4653
 3178SOL    HW121167   3.741   2.858   7.763 -0.5720  0.9447  0.9645
 3178SOL    HW221168   3.773   2.728   7.808 -2.4347 -2.7148  1.2901
 3179SOL     OW21169   4.336   1.818   0.009 -0.1366 -0.6118 -0.1847
 3179SOL    HW121170   4.414   1.829   0.064  0.6655 -1.2194 -1.1957
 3179SOL    HW221171   4.276   1.775   0.070 -0.8624  1.5262  0.6313
 3180SOL     OW21172   1.203   1.371   9.419 -0.0739 -0.1649  0.7460
 3180SOL    HW121173   1.183   1.340   9.330  1.5686 -0.2986  0.4132
 3180SOL    HW221174   1.115   1.398   9.445 -0.6623 -1.0953 -0.2695
 3181SOL     OW21175   1.014   4.028  12.913  0.5505 -0.5402  0.0459
 3181SOL    HW121176   0.963   4.105  12.886 -3.5574 -3.2145  0.2615
 3181SOL    HW221177   1.098   4.033  12.867  0.3133  3.0570  0.0214
 3182SOL     OW21178   4.154   2.703  14.198 -0.2488  0.2320 -0.0106
 3182SOL    HW121179   4.187   2.740  14.116 -0.6803 -1.1045 -0.7915
 3182SOL    HW221180   4.061   2.717  14.186 -0.6816 -2.8285 -0.4147
 3183SOL     OW21181   1.747   3.887  17.455  0.1544 -0.1283  0.2771
 3183SOL    HW121182   1.811   3.954  17.482 -0.4851  1.8747 -3.2024
 3183SOL    HW221183   1.664   3.928  17.480 -0.2666 -0.4176 -0.6600
 3184SOL     OW21184   0.681   3.822   1.706  0.0952 -0.4724  0.0289
 3184SOL    HW121185   0.651   3.778   1.786 -1.0066  0.8217  0.3319
 3184SOL    HW221186   0.718   3.751   1.654  1.0724 -1.1102  1.6188
 3185SOL     OW21187   0.992   0.032  14.500  0.2528  0.6230 -0.4821
 3185SOL    HW121188   0.923   0.055  14.437 -0.3325  0.2623  0.0330
 3185SOL    HW221189   1.015   4.681  14.471  0.0459 -0.2696  2.0703
 3186SOL     OW21190   0.626   0.520  11.237  0.1376  0.3352 -0.3891
 3186SOL    HW121191   0.584   0.477  11.311 -0.6768  0.1555 -0.9601
 3186SOL    HW221192   0.630   0.452  11.171  0.3751  1.3569 -1.4229
 3187SOL     OW21193   0.085   4.733   8.124  0.4581 -0.4516  0.3511
 3187SOL    HW121194   0.071   0.036   8.038  0.9621 -0.3302  0.3251
 3187SOL    HW221195   0.085   0.076   8.176 -0.6224 -0.7486  0.8086
 3188SOL     OW21196   3.993   4.704   6.601 -0.3057 -0.0116  0.4094
 3188SOL    HW121197   3.961   4.626   6.645 -0.4074 -0.6679 -0.8268
 3188SOL    HW221198   3.957   4.691   6.513 -0.6141  2.4887  0.1762
 3189SOL     OW21199   3.421   3.180   7.456 -0.0369  0.1579 -0.6583
 3189SOL    HW121200   3.371   3.234   7.518 -0.5799  1.4818 -2.2469
 3189SOL    HW221201   3.495   3.241   7.447 -1.7608  2.1244 -1.4575
 3190SOL     OW21202   4.074   4.492  13.592  0.1946  0.4592 -0.4610
 3190SOL    HW121203   4.045   4.409  13.629  0.0502  0.8993  0.4035
 3190SOL    HW221204   4.163   4.475  13.560  0.0236 -0.9487 -0.2094
 3191SOL     OW21205   4.415   3.388   2.739  0.1210  0.0823 -0.3228
 3191SOL    HW121206   4.367   3.455   2.787  0.7625 -1.4413  2.4254
 3191SOL    HW221207   4.505   3.415   2.759  0.5701 -0.0833 -2.0548
 3192SOL     OW21208   1.849   3.602   9.471 -0.3209 -0.4741 -0.0345
 3192SOL    HW121209   1.941   3.598   9.444 -0.4005  1.7869 -0.6181
 3192SOL    HW221210   1.816   3.672   9.416 -3.2722  0.2470  2.6492
 3193SOL     OW21211   0.853   3.540  13.400  0.1780  0.1799 -0.0473
 3193SOL    HW121212   0.862   3.583  13.315 -0.6808 -2.8633 -1.6488
 3193SOL    HW221213   0.801   3.606  13.445 -1.7944 -0.5219 -1.2940
 3194SOL     OW21214   0.189   1.907   9.625 -0.4926 -0.2066 -0.1679
 3194SOL    HW121215   0.257   1.941   9.683  2.5509 -0.8455 -3.3541
 3194SOL    HW221216   0.126   1.878   9.691  0.6021 -0.8546  0.5901
 3195SOL     OW21217   0.991   4.069   8.158 -0.2158  0.0199  0.1899
 3195SOL    HW121218   0.978   4.110   8.072 -0.6614 -0.6303 -0.0605
 3195SOL    HW221219   1.069   4.119   8.181 -0.6023 -0.5266  2.7331
 3196SOL     OW21220   2.350   3.015  13.912  0.7883  0.0794  0.3258
 3196SOL    HW121221   2.332   3.100  13.872  2.0727  0.7706  1.2124
 3196SOL    HW221222   2.441   3.032  13.938  1.4040  1.4391 -2.7658
 3197SOL     OW21223   1.552   3.224   4.820  0.5009 -0.2915  0.2588
 3197SOL    HW121224   1.487   3.216   4.751 -0.3205  1.1286  0.8606
 3197SOL    HW221225   1.507   3.195   4.899 -1.1347  0.8950 -0.2302
 3198SOL     OW21226   4.662   3.156   7.502  0.0658  0.0987 -0.5573
 3198SOL    HW121227   4.593   3.209   7.462 -1.2453  0.5864  2.3509
 3198SOL    HW221228   4.737   3.197   7.458 -0.0678  0.5941 -0.3220
 3199SOL     OW21229   2.326   2.104   5.921  0.1040 -0.5269 -0.1300
 3199SOL    HW121230   2.317   2.076   5.830  0.1513  1.0199 -0.6069
 3199SOL    HW221231   2.304   2.197   5.917  1.2319 -0.1750  1.6823
 3200SOL     OW21232   0.235   3.154   4.786 -0.2972 -0.7633 -0.0185
 3200SOL    HW121233   0.242   3.197   4.871 -1.7377 -0.3188 -0.1369
 3200SOL    HW221234   0.199   3.216   4.724  2.0141  0.1367 -0.4788
 3201SOL     OW21235   3.695   3.121   2.634 -0.9243 -0.2928  0.1064
 3201SOL    HW121236   3.762   3.181   2.601 -0.5951 -1.4513 -1.3342
 3201SOL    HW221237   3.735   3.051   2.583 -1.1604 -0.2923 -0.0773
 3202SOL     OW21238   2.930   3.635   2.442 -0.1270 -0.2477 -0.3175
 3202SOL    HW121239   2.972   3.603   2.363  1.2146  0.3832  0.1475
 3202SOL    HW221240   2.863   3.691   2.403  1.1364 -0.0186 -2.1154
 3203SOL     OW21241   1.643   0.489  11.025 -0.4277 -0.1942  0.1918
 3203SOL    HW121242   1.629   0.515  11.116 -0.7494 -1.1356  0.4053
 3203SOL    HW221243   1.649   0.579  10.992  0.5691 -0.3461 -0.0581
 3204SOL     OW21244   2.729   3.897   7.179 -0.2012  0.2977  0.0853
 3204SOL    HW121245   2.685   3.812   7.186 -0.5834  0.3695 -1.5007
 3204SOL    HW221246   2.659   3.957   7.205  0.6668  1.3301  0.0295
 3205SOL     OW21247   0.090   0.690   6.283 -0.5445  0.0120 -0.0795
 3205SOL    HW121248   0.172   0.652   6.313 -1.6523 -1.3014  1.2656
 3205SOL    HW221249   0.022   0.638   6.326  0.7468 -1.3114  0.3459
 3206SOL     OW21250   2.254   2.038   5.660 -0.1591 -0.3493  0.0272
 3206SOL    HW121251   2.329   2.004   5.610  0.6830 -1.6948  2.1769
 3206SOL    HW221252   2.210   2.099   5.602 -0.3040 -0.1397  0.3596
 3207SOL     OW21253   2.598   0.674   5.012 -0.2701  0.0224 -0.4427
 3207SOL    HW121254   2.569   0.634   4.930 -3.2096  2.1217 -0.4037
 3207SOL    HW221255   2.693   0.661   5.011 -0.1266  0.7877  2.0359
 3208SOL     OW21256   0.400   2.341   9.764  0.3809 -0.0564 -0.3003
 3208SOL    HW121257   0.468   2.399   9.730  0.4003  0.0007 -0.1639
 3208SOL    HW221258   0.381   2.382   9.849  1.2799  0.8189 -0.5318
 3209SOL     OW21259   4.368   0.017   8.410  0.0138 -0.3042 -0.3802
 3209SOL    HW121260   4.403   0.092   8.362 -1.9552  0.5705 -0.4680
 3209SOL    HW221261   4.425   0.012   8.487 -0.4115 -1.4333 -0.1334
 3210SOL     OW21262   4.606   0.111  11.912 -0.1872 -0.0404 -0.3540
 3210SOL    HW121263   4.676   0.051  11.939  1.7594  2.3081 -0.1909
 3210SOL    HW221264   4.564   0.132  11.995 -0.1689 -0.5695 -0.2070
 3211SOL     OW21265   3.199   4.507   8.802  0.2344 -0.3187  0.1169
 3211SOL    HW121266   3.277   4.545   8.762 -0.5205 -0.7904 -1.7911
 3211SOL    HW221267   3.186   4.551   8.886 -1.4358  2.0126 -1.3553
 3212SOL     OW21268   1.353   2.390  16.530 -0.2062  0.2045 -0.0857
 3212SOL    HW121269   1.272   2.378  16.580  0.8021  2.4376  2.0683
 3212SOL    HW221270   1.414   2.421  16.597 -1.0719 -0.0806  0.8235
 3213SOL     OW21271   2.068   1.674   8.363 -0.3069  0.4221  0.1546
 3213SOL    HW121272   2.081   1.654   8.455 -2.9727 -1.1507  0.1947
 3213SOL    HW221273   2.066   1.769   8.357  1.0002  0.3592 -1.4435
 3214SOL     OW21274   0.187   2.177  17.512  0.0506 -0.2868  0.7732
 3214SOL    HW121275   0.134   2.102  17.485  2.3516 -1.7574  0.3481
 3214SOL    HW221276   0.230   2.139  17.589 -0.1281  2.0985  2.0711
 3215SOL     OW21277   1.014   4.718   4.708 -0.2113  0.0482 -0.7119
 3215SOL    HW121278   0.941   4.657   4.719  1.7601 -1.7466  2.3883
 3215SOL    HW221279   1.077   4.660   4.667 -0.6121 -1.3330  0.6082
 3216SOL     OW21280   0.410   4.547  10.687  0.1686  0.2701  0.4836
 3216SOL    HW121281   0.447   4.634  10.703  0.2244  0.2186  0.6316
 3216SOL    HW221282   0.334   4.578  10.638 -0.1104  2.2637  2.1892
 3217SOL     OW21283   1.109   2.744  17.062 -0.3183 -0.1847 -0.7032
 3217SOL    HW121284   1.026   2.788  17.044 -1.1573 -1.1232  1.0137
 3217SOL    HW221285   1.159   2.807  17.114 -1.3106  2.4953 -2.9350
 3218SOL     OW21286   0.922   0.204   1.174  0.1747  0.0233  0.3570
 3218SOL    HW121287   1.005   0.249   1.157  0.2792 -0.4174 -0.3261
 3218SOL    HW221288   0.905   0.148   1.098  1.1638  0.4804 -0.2112
 3219SOL     OW21289   0.039   4.579   7.090  0.1319 -0.0146  0.0917
 3219SOL    HW121290   4.714   4.522   7.135 -0.1870 -1.2278 -1.8831
 3219SOL    HW221291   0.044   4.532   7.007 -1.2312 -0.9208  0.5254
 3220SOL     OW21292   1.581   2.140   6.782  0.4075  0.0292  0.1763
 3220SOL    HW121293   1.656   2.132   6.722  0.2017  1.2435 -0.2622
 3220SOL    HW221294   1.613   2.084   6.852 -0.5260 -3.0845 -1.8894
 3221SOL     OW21295   2.043   3.375   7.814  0.5229 -0.1805 -0.3214
 3221SOL    HW121296   1.994   3.384   7.732  0.1676 -4.2872 -0.5476
 3221SOL    HW221297   2.127   3.379   7.768 -0.6054 -0.0037 -2.3800
 3222SOL     OW21298   1.509   1.155   6.308  0.4147  0.3719 -0.2899
 3222SOL    HW121299   1.419   1.150   6.276  0.1356 -0.5126  0.6470
 3222SOL    HW221300   1.527   1.062   6.297  1.5813  0.8216 -2.2900
 3223SOL     OW21301   2.414   1.318   4.258  0.3443 -0.2832  0.4977
 3223SOL    HW121302   2.321   1.318   4.283  0.1172  0.6567 -0.3654
 3223SOL    HW221303   2.413   1.241   4.200 -0.2382 -0.4949  0.7852
 3224SOL     OW21304   2.693   1.770  16.683 -0.1488 -0.1123  0.0250
 3224SOL    HW121305   2.702   1.709  16.757  0.0220  0.7083  0.6827
 3224SOL    HW221306   2.764   1.832  16.701  1.2824 -1.9576  0.7900
 3225SOL     OW21307   0.601   1.580  15.393  0.0666 -0.1673  0.4162
 3225SOL    HW121308   0.690   1.608  15.373  0.3026  0.2593  2.1052
 3225SOL    HW221309   0.618   1.508  15.454  2.7609  1.2495  1.3263
 3226SOL     OW21310   3.849   3.581  13.757 -0.6521  0.3001  0.4543
 3226SOL    HW121311   3.795   3.660  13.761  0.4983  1.2622 -2.9764
 3226SOL    HW221312   3.911   3.594  13.685 -0.4618  3.6463  1.1947
 3227SOL     OW21313   0.706   0.617   7.016 -0.0150 -0.4034 -0.1479
 3227SOL    HW121314   0.659   0.649   7.093  1.0777  0.2516  0.2390
 3227SOL    HW221315   0.794   0.609   7.054 -0.5355  1.0150  1.3752
 3228SOL     OW21316   0.807   2.632   8.962 -0.3181 -0.0691  0.3236
 3228SOL    HW121317   0.736   2.603   8.906  0.5416 -0.1894 -0.7036
 3228SOL    HW221318   0.852   2.693   8.904 -2.4988 -0.0330 -1.3327
 3229SOL     OW21319   1.874   2.867   8.860 -0.0845 -0.0887  0.4863
 3229SOL    HW121320   1.855   2.892   8.950 -0.9223 -0.8164  0.5135
 3229SOL    HW221321   1.799   2.810   8.845 -0.5800  0.4211  1.0588
 3230SOL     OW21322   4.676   0.438  13.540  0.0550 -0.7284 -0.6201
 3230SOL    HW121323   4.685   0.491  13.460  0.8019 -0.0352 -0.0766
 3230SOL    HW221324   4.583   0.454  13.551  0.1537 -0.7448  0.1792
 3231SOL     OW21325   0.446   3.735   8.326 -0.3744 -0.6947  0.5244
 3231SOL    HW121326   0.445   3.704   8.235 -1.0463  1.7374 -0.3077
 3231SOL    HW221327   0.450   3.646   8.361  3.4868 -0.4883  0.5890
 3232SOL     OW21328   3.541   3.934   9.427 -0.3223  0.8022 -0.1538
 3232SOL    HW121329   3.451   3.946   9.397  0.3057  1.7587 -1.6956
 3232SOL    HW221330   3.556   3.854   9.377 -2.6058  0.7672 -0.7743
 3233SOL     OW21331   1.474   0.619   4.896  0.2979 -0.0288 -0.2656
 3233SOL    HW121332   1.506   0.607   4.806 -0.4772  0.8839 -0.6642
 3233SOL    HW221333   1.484   0.714   4.901 -1.6467  0.1962 -0.6840
 3234SOL     OW21334   2.236   0.358  13.112  0.1150 -0.0742  0.1420
 3234SOL    HW121335   2.270   0.355  13.201  0.1344  3.1542  0.2448
 3234SOL    HW221336   2.307   0.324  13.058 -1.2945 -2.4290 -0.2709
 3235SOL     OW21337   3.147   1.630   2.131 -0.0900  0.3987  0.2969
 3235SOL    HW121338   3.144   1.547   2.084  0.8389  0.6348 -0.1941
 3235SOL    HW221339   3.228   1.618   2.181  0.6708  0.2064 -0.9584
 3236SOL     OW21340   0.261   1.157   5.996 -0.2678  0.1267 -0.0153
 3236SOL    HW121341   0.345   1.204   5.999  0.1899 -0.6288 -0.8607
 3236SOL    HW221342   0.238   1.185   5.907  2.6175  0.9065 -0.5293
 3237SOL     OW21343   2.349   1.297   8.425 -0.3252 -0.1891  0.1744
 3237SOL    HW121344   2.291   1.319   8.352 -1.6748  0.7141  1.5143
 3237SOL    HW221345   2.318   1.212   8.456 -0.9771 -0.7395 -2.0116
 3238SOL     OW21346   4.356   2.221  11.704  0.3043 -0.1129 -0.0542
 3238SOL    HW121347   4.324   2.301  11.746  1.8533  0.5489 -0.1366
 3238SOL    HW221348   4.278   2.173  11.731 -1.5355  1.5188 -2.4406
 3239SOL     OW21349   1.848   0.790   6.495 -0.0300 -0.2269 -0.3183
 3239SOL    HW121350   1.869   0.805   6.403 -1.5945  0.7699 -0.5097
 3239SOL    HW221351   1.853   0.695   6.497 -0.4793 -0.2253  1.1067
 3240SOL     OW21352   3.329   0.372   6.243 -0.8859 -0.4248 -0.3123
 3240SOL    HW121353   3.403   0.384   6.183 -0.9605  0.7150 -0.1699
 3240SOL    HW221354   3.341   0.426   6.321 -0.1897 -3.6384  1.8128
 3241SOL     OW21355   2.298   1.842  13.701  0.4816  0.0279 -0.1120
 3241SOL    HW121356   2.291   1.938  13.697 -2.0005 -0.2813 -3.4062
 3241SOL    HW221357   2.222   1.812  13.651  0.3988 -0.8547  0.5453
 3242SOL     OW21358   1.633   2.641   6.397  0.1434  0.0581  0.3121
 3242SOL    HW121359   1.599   2.582   6.330  0.1894 -0.7602  1.0150
 3242SOL    HW221360   1.724   2.612   6.392 -0.1204 -0.4822 -1.5737
 3243SOL     OW21361   1.706   2.682   4.575  0.4379  0.3981  0.0799
 3243SOL    HW121362   1.642   2.655   4.641  0.7106 -0.4372  0.0127
 3243SOL    HW221363   1.691   2.775   4.562 -0.3598  0.1976 -0.3944
 3244SOL     OW21364   3.289   3.497   9.901 -0.1129  0.4946  0.3053
 3244SOL    HW121365   3.319   3.529   9.816 -0.8721  0.0702 -0.1145
 3244SOL    HW221366   3.341   3.417   9.903 -0.2556  0.3602 -2.2955
 3245SOL     OW21367   1.702   3.100  11.606  0.7556  0.1444  0.0764
 3245SOL    HW121368   1.648   3.058  11.539 -0.1553 -1.1974  1.6176
 3245SOL    HW221369   1.633   3.165  11.615 -0.0430 -0.9284  1.9129
 3246SOL     OW21370   3.562   1.896   1.750  0.5259  0.0658 -0.0552
 3246SOL    HW121371   3.480   1.848   1.746  0.8340 -0.3265 -1.8879
 3246SOL    HW221372   3.624   1.829   1.779  0.2802 -0.2464 -0.2538
 3247SOL     OW21373   0.940   1.242   7.853  0.0877  0.3665 -0.1661
 3247SOL    HW121374   0.968   1.257   7.943 -1.4995 -2.4888  0.7853
 3247SOL    HW221375   0.846   1.262   7.846  0.1571  0.3689 -1.0883
 3248SOL     OW21376   2.983   2.480  12.495 -0.6697  0.1953  0.3585
 3248SOL    HW121377   2.940   2.433  12.423 -0.3700 -0.2641  0.4840
 3248SOL    HW221378   2.903   2.508  12.540 -0.0953  0.5750  1.1416
 3249SOL     OW21379   1.573   0.875   4.884 -0.1776  0.1034  0.3223
 3249SOL    HW121380   1.576   0.958   4.837  1.5736  0.0678  0.3557
 3249SOL    HW221381   1.667   0.855   4.887 -0.0468  0.8837  1.2979
 3250SOL     OW21382   2.944   2.775   3.062  0.8241  0.1399  0.1660
 3250SOL    HW121383   2.916   2.839   2.997  0.1990 -1.3571 -1.0479
 3250SOL    HW221384   2.956   2.839   3.132 -1.0024  2.7371 -1.9248
 3251SOL     OW21385   0.638   3.281   8.545 -0.7214  0.2146 -0.0457
 3251SOL    HW121386   0.567   3.225   8.576 -1.3254  1.0560  0.1048
 3251SOL    HW221387   0.668   3.321   8.627  0.6548 -0.7825 -0.0694
 3252SOL     OW21388   3.225   4.657   5.254  0.2422 -0.1453  0.0993
 3252SOL    HW121389   3.253   4.591   5.190  1.0758 -0.4864  0.8092
 3252SOL    HW221390   3.176   4.722   5.204 -0.3246 -0.9404 -0.3795
 3253SOL     OW21391   1.301   0.242   4.943 -0.0474  0.5341  0.4830
 3253SOL    HW121392   1.211   0.273   4.948  0.1898  1.0085  1.9116
 3253SOL    HW221393   1.327   0.241   4.851 -0.5326 -2.9539  0.3958
 3254SOL     OW21394   1.152   3.372   7.174  0.2669  0.5259 -0.3555
 3254SOL    HW121395   1.158   3.454   7.126 -0.9823 -0.0766 -1.5694
 3254SOL    HW221396   1.061   3.373   7.205  0.2747 -0.2657 -0.3027
 3255SOL     OW21397   3.572   2.807   3.288 -0.5307 -0.1675  0.9371
 3255SOL    HW121398   3.591   2.888   3.240 -1.2386 -3.3386 -4.7563
 3255SOL    HW221399   3.481   2.826   3.313 -0.5594  0.7263  0.1988
 3256SOL     OW21400   1.688   4.377   2.860 -0.0120 -0.6376 -0.4705
 3256SOL    HW121401   1.606   4.403   2.817 -0.2270 -1.3664 -0.5068
 3256SOL    HW221402   1.681   4.282   2.855 -1.4931 -0.5130 -0.8277
 3257SOL     OW21403   3.009   2.072  16.892  0.0321  0.5681  0.0597
 3257SOL    HW121404   3.051   2.144  16.845  1.1440  0.2600  0.5798
 3257SOL    HW221405   3.074   2.070  16.962 -0.5520 -2.0492  0.4982
 3258SOL     OW21406   1.330   4.204   6.760  0.2756 -0.9239 -0.3732
 3258SOL    HW121407   1.416   4.233   6.730  0.7242  0.5077  2.3184
 3258SOL    HW221408   1.316   4.118   6.720 -2.4104 -0.2617 -0.8959
 3259SOL     OW21409   0.279   1.788   6.414 -0.2058 -0.0912 -0.3965
 3259SOL    HW121410   0.242   1.866   6.373  1.1402  0.4968 -0.4874
 3259SOL    HW221411   0.195   1.747   6.437 -0.6319  0.7386 -0.4839
 3260SOL     OW21412   1.161   3.515   4.683 -0.6766 -0.3134  0.1192
 3260SOL    HW121413   1.158   3.608   4.662 -1.1187  0.0416  1.6984
 3260SOL    HW221414   1.141   3.458   4.609  0.0036 -2.0195  1.2271
 3261SOL     OW21415   2.408   4.355   7.432 -0.0815  0.0455 -0.0468
 3261SOL    HW121416   2.340   4.414   7.400 -0.6794  0.1690  1.4578
 3261SOL    HW221417   2.478   4.367   7.369  2.1197 -2.2458  1.9368
 3262SOL     OW21418   1.264   0.974   1.103  0.2029  0.4374 -0.1265
 3262SOL    HW121419   1.285   0.881   1.097 -1.0715  0.2857 -2.2056
 3262SOL    HW221420   1.330   1.003   1.040  2.4144 -1.6076  1.2456
 3263SOL     OW21421   3.203   2.570   5.908 -0.3112  0.6564 -0.7509
 3263SOL    HW121422   3.241   2.619   5.834 -0.7918  1.3359 -0.5513
 3263SOL    HW221423   3.276   2.527   5.950 -1.2792 -0.5635 -0.3354
 3264SOL     OW21424   0.173   2.253   6.310  0.1244  0.9550 -0.2973
 3264SOL    HW121425   0.166   2.297   6.395 -1.5256 -0.9581  0.5668
 3264SOL    HW221426   0.083   2.257   6.278  0.9188  2.4359 -2.3533
 3265SOL     OW21427   3.085   3.780   5.744  0.2772  0.5856  0.4196
 3265SOL    HW121428   3.073   3.858   5.690  0.0808  1.2650  1.4597
 3265SOL    HW221429   3.178   3.787   5.766  1.1185 -0.6826 -2.6924
 3266SOL     OW21430   0.864   4.370   4.747 -0.3233 -0.5000  0.5764
 3266SOL    HW121431   0.874   4.346   4.654  0.3181 -2.4187  1.1434
 3266SOL    HW221432   0.797   4.438   4.738  0.4517  0.3336  1.0677
 3267SOL     OW21433   3.740   1.478   2.786 -0.1316  0.0619 -0.0008
 3267SOL    HW121434   3.705   1.401   2.832  1.6281  0.7936  2.5624
 3267SOL    HW221435   3.822   1.449   2.747 -0.0516  1.2558 -0.7095
 3268SOL     OW21436   0.770   3.186   4.928 -0.6588 -0.2099  0.7923
 3268SOL    HW121437   0.674   3.182   4.924 -0.6089  2.0805 -2.3865
 3268SOL    HW221438   0.789   3.197   4.835 -0.8886  0.1406  0.7872
 3269SOL     OW21439   4.363   2.785   4.922 -0.8765  0.1518  0.1314
 3269SOL    HW121440   4.381   2.698   4.957  1.0071  0.5475  0.1953
 3269SOL    HW221441   4.455   2.809   4.907 -1.7040  3.6079  0.5795
 3270SOL     OW21442   0.666   4.170   7.586  0.2176 -0.0253 -0.1670
 3270SOL    HW121443   0.671   4.108   7.659 -2.0566  1.1363  0.9933
 3270SOL    HW221444   0.587   4.218   7.611  0.4250  0.7931 -1.1021
 3271SOL     OW21445   3.192   1.438  15.410 -0.2320 -0.2944  0.0214
 3271SOL    HW121446   3.147   1.461  15.492 -1.1216  1.3647 -0.9376
 3271SOL    HW221447   3.122   1.378  15.383 -1.2112  0.6916  0.3721
 3272SOL     OW21448   1.320   1.348   6.062  0.3881 -0.1650 -0.1664
 3272SOL    HW121449   1.296   1.441   6.069  0.5302 -0.0543 -1.0645
 3272SOL    HW221450   1.319   1.311   6.150  3.1379  0.0027 -0.0663
 3273SOL     OW21451   0.488   4.699   4.070  0.5774  0.1789 -0.5837
 3273SOL    HW121452   0.423   4.715   4.002  0.7924  0.1344 -0.8018
 3273SOL    HW221453   0.565   4.723   4.017  0.3498  0.7834 -0.6506
 3274SOL     OW21454   3.057   1.188   5.029 -0.1630  0.0225  0.3376
 3274SOL    HW121455   3.148   1.162   5.014 -0.3795 -2.8584  4.0709
 3274SOL    HW221456   3.075   1.245   5.103 -0.5235  0.1252  0.3466
 3275SOL     OW21457   2.174   4.716   7.156 -0.0078  0.0297 -0.1869
 3275SOL    HW121458   2.184   0.052   7.096 -2.0988  1.8886  1.7112
 3275SOL    HW221459   2.143   4.636   7.114  0.4521 -1.1150  1.6688
 3276SOL     OW21460   3.764   3.120   1.014  0.2171  0.8636 -0.5160
 3276SOL    HW121461   3.691   3.181   1.023  0.2587  0.8902 -0.3672
 3276SOL    HW221462   3.771   3.118   0.919 -1.9550 -2.2945 -0.6075
 3277SOL     OW21463   0.725   2.958   7.205 -0.3712  0.2241 -0.2585
 3277SOL    HW121464   0.778   2.901   7.150  1.0409  0.1554  1.1829
 3277SOL    HW221465   0.678   2.899   7.264 -2.1235  0.1156 -1.7434
 3278SOL     OW21466   4.502   3.306   8.762  0.2725 -0.0509  0.0714
 3278SOL    HW121467   4.492   3.346   8.676  1.8240  0.4129  0.1066
 3278SOL    HW221468   4.491   3.382   8.819 -2.1865 -1.5606  1.5833
 3279SOL     OW21469   2.056   1.054  11.440  0.4107  0.2458 -0.1290
 3279SOL    HW121470   1.979   1.020  11.394  0.8824  0.0959 -0.8021
 3279SOL    HW221471   2.039   1.147  11.429  2.9826  0.7164 -0.1148
 3280SOL     OW21472   0.785   0.855   5.290 -0.0952 -0.2429  0.3834
 3280SOL    HW121473   0.758   0.897   5.372  4.0046 -0.5035  1.8679
 3280SOL    HW221474   0.854   0.910   5.252 -2.0754  2.2792  0.4392
 3281SOL     OW21475   0.025   0.014  16.544  0.5451 -0.5404 -0.1992
 3281SOL    HW121476   4.695   0.072  16.579  1.3892  0.2478  0.1065
 3281SOL    HW221477   0.007   4.666  16.585  1.3858 -0.1777  0.9202
 3282SOL     OW21478   0.505   3.695  14.338 -0.2320 -0.1517 -0.2238
 3282SOL    HW121479   0.569   3.631  14.307 -0.4400 -1.5541  2.2254
 3282SOL    HW221480   0.542   3.779  14.310  2.3550 -1.4436 -0.7311
 3283SOL     OW21481   1.447   4.448   3.437 -0.0208  0.6424  0.1276
 3283SOL    HW121482   1.411   4.396   3.366  3.7031 -0.5993 -0.8310
 3283SOL    HW221483   1.411   4.532   3.409 -1.4975  0.0738  0.2679
 3284SOL     OW21484   2.048   1.478   7.150  0.6515 -0.5348  0.1497
 3284SOL    HW121485   2.126   1.448   7.103  0.8476 -0.2952  0.3209
 3284SOL    HW221486   1.991   1.402   7.138  1.2065 -0.4450 -3.0943
 3285SOL     OW21487   2.069   3.368   4.315 -0.2053  0.7198 -0.3492
 3285SOL    HW121488   2.135   3.307   4.348  0.4669  1.2010 -0.8056
 3285SOL    HW221489   2.022   3.387   4.396  3.3371  3.0505  1.1174
 3286SOL     OW21490   4.466   2.885  14.393 -0.2375  0.4809  0.3854
 3286SOL    HW121491   4.405   2.811  14.394  0.2073  0.0979 -1.5489
 3286SOL    HW221492   4.515   2.863  14.314  2.0775 -0.7060  2.1788
 3287SOL     OW21493   3.471   2.869   9.377 -0.0133  0.1675 -0.0954
 3287SOL    HW121494   3.500   2.783   9.346 -4.7189 -2.8544  3.9525
 3287SOL    HW221495   3.533   2.878   9.450 -1.5062 -0.9198  1.3036
 3288SOL     OW21496   4.571   3.513   4.054  0.1205  0.4816  0.3088
 3288SOL    HW121497   4.600   3.428   4.022 -0.5035  0.0903  0.7964
 3288SOL    HW221498   4.619   3.543   4.132  0.7365  1.2349 -0.3488
 3289SOL     OW21499   1.491   3.659   7.354 -0.2985  0.4992 -0.7525
 3289SOL    HW121500   1.556   3.650   7.285  0.7717 -0.2461  0.3751
 3289SOL    HW221501   1.504   3.753   7.367  0.2803  0.0972  1.4914
 3290SOL     OW21502   0.460   2.337   6.899 -0.0952  0.6112  0.2373
 3290SOL    HW121503   0.420   2.371   6.979 -0.8516 -0.9839  0.5378
 3290SOL    HW221504   0.433   2.245   6.900  1.0370  0.2836 -0.1402
 3291SOL     OW21505   3.116   2.378  15.094 -0.0598  0.0368  1.0799
 3291SOL    HW121506   3.203   2.383  15.056 -1.8917  0.6910 -2.9711
 3291SOL    HW221507   3.128   2.353  15.186  3.5525 -0.3354  0.4967
 3292SOL     OW21508   2.947   0.199   9.729  0.0050 -0.5534 -0.1802
 3292SOL    HW121509   2.949   0.127   9.793 -0.7585 -0.1814  0.2633
 3292SOL    HW221510   2.854   0.216   9.744  0.2822  0.4275  0.3792
 3293SOL     OW21511   4.254   0.372   3.256 -0.1867 -0.2361 -0.1412
 3293SOL    HW121512   4.281   0.285   3.230 -1.0132 -1.3991  2.8707
 3293SOL    HW221513   4.242   0.358   3.350  2.1313  0.1553  0.2123
 3294SOL     OW21514   0.436   4.729  12.998 -0.8542 -0.3539 -0.0721
 3294SOL    HW121515   0.461   0.047  12.923  0.2127  1.3543  1.5501
 3294SOL    HW221516   0.508   0.008  13.058  0.1063 -1.5252 -0.8961
 3295SOL     OW21517   4.179   3.190   5.294 -0.0889  0.4466 -0.3510
 3295SOL    HW121518   4.226   3.269   5.267 -0.1867 -0.0193 -1.8812
 3295SOL    HW221519   4.224   3.122   5.244  1.4175  0.9421  0.3405
 3296SOL     OW21520   0.014   0.645   9.716  0.0180  0.6224  0.1146
 3296SOL    HW121521   4.683   0.587   9.749 -0.0003  0.8035  0.3992
 3296SOL    HW221522   4.700   0.718   9.685  1.7855  1.2283 -1.3745
 3297SOL     OW21523   0.482   3.419  13.705  0.5270 -0.0054 -0.3768
 3297SOL    HW121524   0.489   3.356  13.777 -2.1133 -0.4260 -0.5016
 3297SOL    HW221525   0.536   3.372  13.642  0.2155  0.9285 -1.3546
 3298SOL     OW21526   3.757   2.417   4.794 -0.4001  0.1151  0.1772
 3298SOL    HW121527   3.766   2.333   4.840  0.8670  1.1813  1.8457
 3298SOL    HW221528   3.784   2.384   4.708 -1.2417 -1.1127  0.3829
 3299SOL     OW21529   2.896   1.425   2.943  0.3996 -0.2910  0.0152
 3299SOL    HW121530   2.926   1.444   3.032  0.0220  1.6372 -0.2642
 3299SOL    HW221531   2.840   1.499   2.920  0.0688 -0.6338 -0.2779
 3300SOL     OW21532   1.948   3.122  13.167 -0.1469 -0.0314 -0.2738
 3300SOL    HW121533   2.003   3.084  13.098 -0.7354 -0.6424 -0.4047
 3300SOL    HW221534   1.907   3.199  13.128 -2.3057  0.0503  2.1825
 3301SOL     OW21535   0.286   4.379   5.052 -0.3543 -0.4683  0.4476
 3301SOL    HW121536   0.233   4.416   5.122 -2.8546 -0.7325 -1.3159
 3301SOL    HW221537   0.356   4.444   5.046 -1.6172  0.8882  0.6212
 3302SOL     OW21538   3.447   3.644   1.086 -0.1957  0.3053 -0.2358
 3302SOL    HW121539   3.372   3.691   1.048  1.0534  1.9333 -0.6854
 3302SOL    HW221540   3.415   3.608   1.169 -0.0824 -3.0128 -1.6210
 3303SOL     OW21541   3.045   4.305   6.941 -0.0790  0.2689  0.1052
 3303SOL    HW121542   3.042   4.216   6.976  1.5159  0.2186  0.1104
 3303SOL    HW221543   3.133   4.339   6.959 -0.3404  0.4705  1.0216
 3304SOL     OW21544   2.277   1.179   4.775 -0.3930  0.1118 -0.3417
 3304SOL    HW121545   2.245   1.214   4.858 -0.6847 -0.2850 -0.2872
 3304SOL    HW221546   2.205   1.187   4.713 -0.3111  0.7412 -0.3496
 3305SOL     OW21547   2.115   1.068  15.669  0.4406  0.0051 -0.0419
 3305SOL    HW121548   2.143   0.981  15.698 -0.6369  0.5843  2.7136
 3305SOL    HW221549   2.027   1.080  15.706  0.0093 -2.5338 -0.2237
 3306SOL     OW21550   3.419   1.428   3.041  0.2315  0.7304 -0.0793
 3306SOL    HW121551   3.464   1.350   3.074  1.2570  0.6414 -1.6769
 3306SOL    HW221552   3.437   1.416   2.948  0.5880 -0.8830  0.1937
 3307SOL     OW21553   2.199   1.917   7.100 -0.3820  1.3080 -0.1074
 3307SOL    HW121554   2.191   1.987   7.164  1.9155  1.6385 -0.1850
 3307SOL    HW221555   2.184   1.837   7.149  0.1288  0.2901 -1.6016
 3308SOL     OW21556   4.685   2.671   3.250  0.2401 -0.8118 -0.0220
 3308SOL    HW121557   4.722   2.649   3.336  2.1205  3.0565  0.1357
 3308SOL    HW221558   0.009   2.743   3.233 -1.4897  0.1690 -2.0614
 3309SOL     OW21559   3.621   4.299   4.310  0.0887  0.2899 -0.0774
 3309SOL    HW121560   3.686   4.229   4.315  0.7619  0.8621 -0.8808
 3309SOL    HW221561   3.678   4.362   4.355  2.1200 -1.3811 -0.2972
 3310SOL     OW21562   4.465   4.446   6.466  0.3030  0.5444  0.1016
 3310SOL    HW121563   4.468   4.529   6.419  0.0948 -0.3390 -1.4972
 3310SOL    HW221564   4.371   4.430   6.459  0.6146 -1.1811 -0.1812
 3311SOL     OW21565   0.960   3.883   4.257  0.7748 -0.1590 -0.4029
 3311SOL    HW121566   0.932   3.905   4.168  2.0752 -0.7381 -0.9720
 3311SOL    HW221567   1.053   3.867   4.243  1.0117  0.6023  0.3247
 3312SOL     OW21568   2.666   1.191  15.590 -0.0446 -0.3978 -0.1151
 3312SOL    HW121569   2.683   1.112  15.538  0.6920 -1.1619  1.2812
 3312SOL    HW221570   2.577   1.180  15.623  0.0085 -0.5650 -0.0294
 3313SOL     OW21571   2.642   4.132  16.719 -0.7236 -0.4238 -0.2573
 3313SOL    HW121572   2.604   4.152  16.805  0.0566  0.9297 -0.2185
 3313SOL    HW221573   2.616   4.040  16.717 -1.4666 -0.2335  0.4521
 3314SOL     OW21574   0.895   0.691   3.634  0.0183  0.6450 -0.2870
 3314SOL    HW121575   0.969   0.665   3.689  0.5894 -1.3221 -1.9494
 3314SOL    HW221576   0.898   0.786   3.639 -0.5958  0.6591 -0.2232
 3315SOL     OW21577   0.432   1.480   4.579 -0.1224  0.4391 -0.4591
 3315SOL    HW121578   0.400   1.391   4.595  2.4730 -0.1088  1.5929
 3315SOL    HW221579   0.461   1.479   4.488 -2.4826  1.1709 -1.2373
 3316SOL     OW21580   0.694   0.884   6.488 -0.4570 -0.3364 -0.1400
 3316SOL    HW121581   0.775   0.869   6.538 -0.4477  0.1733 -0.0007
 3316SOL    HW221582   0.684   0.979   6.492 -1.1734 -0.3535 -1.6921
 3317SOL     OW21583   2.025   2.409  17.625 -0.1321 -0.5320  0.1434
 3317SOL    HW121584   2.037   2.504  17.626  0.3598 -0.6160  1.7588
 3317SOL    HW221585   2.012   2.388  17.717 -2.1768 -1.1481 -0.2859
 3318SOL     OW21586   1.180   0.026   8.531  0.1642 -0.3936  0.3364
 3318SOL    HW121587   1.134   0.082   8.468  1.5616  0.4269  0.0614
 3318SOL    HW221588   1.167   0.073   8.613  2.3571 -2.1460  1.6755
 3319SOL     OW21589   4.121   0.573   6.419  0.5220  0.4006 -0.1113
 3319SOL    HW121590   4.043   0.604   6.464 -1.4716 -1.7529 -2.0823
 3319SOL    HW221591   4.166   0.557   6.502 -1.4886  0.5536  0.9967
 3320SOL     OW21592   1.235   3.033   6.392  0.1841  0.4500  0.1472
 3320SOL    HW121593   1.329   3.016   6.396 -0.1548 -1.0898  2.0461
 3320SOL    HW221594   1.211   3.029   6.485 -0.7741 -1.9451 -0.1989
 3321SOL     OW21595   4.559   2.792  14.149 -0.1809 -0.2858 -0.5174
 3321SOL    HW121596   4.581   2.717  14.094  1.9190 -0.3491  0.4333
 3321SOL    HW221597   4.486   2.836  14.105  0.5891  0.5047 -1.0060
 3322SOL     OW21598   4.675   2.434   7.255  0.2775  0.0097  0.0702
 3322SOL    HW121599   4.627   2.503   7.208  0.5944  0.7082  0.7614
 3322SOL    HW221600   4.686   2.359   7.197 -0.6207  0.0816 -0.1885
 3323SOL     OW21601   0.023   1.621   7.921  0.4194 -0.2084 -0.0581
 3323SOL    HW121602   0.071   1.578   7.850  0.7527  2.7463 -1.6547
 3323SOL    HW221603   0.021   1.557   7.992  0.8241 -1.1419 -0.8880
 3324SOL     OW21604   3.241   2.622  10.806 -0.4445  0.2018 -0.0724
 3324SOL    HW121605   3.311   2.687  10.800  0.7833 -1.3869 -2.9474
 3324SOL    HW221606   3.193   2.678  10.868 -0.5494 -0.8064  0.7733
 3325SOL     OW21607   0.277   3.067  13.237  0.4355  0.2690 -0.1472
 3325SOL    HW121608   0.267   3.150  13.190 -0.6956  0.6089  0.6687
 3325SOL    HW221609   0.254   3.004  13.169  0.3040  0.5194 -0.3337
 3326SOL     OW21610   3.306   0.140  16.689 -0.2465  1.3748  0.1532
 3326SOL    HW121611   3.215   0.111  16.686  0.4543 -0.8028  0.0163
 3326SOL    HW221612   3.335   0.122  16.779 -0.5906  0.9621  0.1759
 3327SOL     OW21613   4.210   3.713   7.208  0.0515 -0.5211  0.6119
 3327SOL    HW121614   4.210   3.723   7.113  0.1873  0.6822  0.7386
 3327SOL    HW221615   4.132   3.760   7.237 -2.0729 -3.0635 -0.9316
 3328SOL     OW21616   2.193   2.953   2.492 -0.1107 -0.6723 -0.4544
 3328SOL    HW121617   2.244   2.928   2.569 -2.2223  0.9007  1.4512
 3328SOL    HW221618   2.120   2.892   2.484 -0.0048 -0.8847  0.2228
 3329SOL     OW21619   4.437   0.728  17.220  0.1111 -0.3997 -0.5081
 3329SOL    HW121620   4.364   0.771  17.176 -1.0377 -1.1991  0.5918
 3329SOL    HW221621   4.385   0.665  17.270 -0.5221 -0.0597 -0.7274
 3330SOL     OW21622   4.320   3.151   5.001  0.5311  0.2365 -0.2761
 3330SOL    HW121623   4.373   3.088   5.049 -0.1188  0.7092  1.0633
 3330SOL    HW221624   4.237   3.105   5.013 -0.5855  2.3531  0.1594
 3331SOL     OW21625   0.944   4.300   9.227 -0.0759 -0.2250 -0.2423
 3331SOL    HW121626   1.035   4.323   9.245 -0.8115  1.9891  0.6082
 3331SOL    HW221627   0.889   4.357   9.279  0.5153 -0.4936  0.6811
 3332SOL     OW21628   1.939   1.456  14.404  0.0114  0.3135 -0.0041
 3332SOL    HW121629   1.915   1.415  14.487 -0.4612  0.5225 -0.0357
 3332SOL    HW221630   2.019   1.503  14.427  1.0825 -2.5115  1.9452
 3333SOL     OW21631   4.043   2.848   6.482  0.0523 -0.3415 -0.9739
 3333SOL    HW121632   3.957   2.881   6.506  0.4164  1.2903 -1.8928
 3333SOL    HW221633   4.100   2.919   6.513 -1.1988  0.7312 -1.1025
 3334SOL     OW21634   4.448   2.558   1.024 -0.1738  0.4686  0.3521
 3334SOL    HW121635   4.422   2.525   0.938 -0.3012 -2.2034  1.4164
 3334SOL    HW221636   4.435   2.649   0.999  0.8690  0.6275  0.3603
 3335SOL     OW21637   3.024   3.658   6.469 -0.6490  0.3837 -0.3557
 3335SOL    HW121638   3.067   3.737   6.501  0.3467 -0.0807 -0.5693
 3335SOL    HW221639   2.946   3.660   6.524  1.1210  2.5423  2.0414
 3336SOL     OW21640   1.461   4.715   2.727  0.1458 -0.1719 -0.3827
 3336SOL    HW121641   1.520   0.053   2.735  0.7705 -0.6914 -0.1232
 3336SOL    HW221642   1.454   4.679   2.815 -1.5109  2.2036  0.4637
 3337SOL     OW21643   1.486   4.029   3.054 -0.4259 -0.2306  0.0180
 3337SOL    HW121644   1.475   4.105   3.112 -0.4601  1.3085 -1.9999
 3337SOL    HW221645   1.422   3.968   3.091 -1.1929 -0.1161 -1.1072
 3338SOL     OW21646   4.527   0.461  15.432 -0.4335 -0.2238 -0.0318
 3338SOL    HW121647   4.546   0.424  15.518 -1.6728 -1.2896 -0.2176
 3338SOL    HW221648   4.454   0.521  15.447  1.4229  1.9808  0.1248
 3339SOL     OW21649   3.596   4.478   5.194  0.3301  0.3049  0.0845
 3339SOL    HW121650   3.669   4.512   5.142 -1.0807  3.8507  0.4107
 3339SOL    HW221651   3.572   4.544   5.259 -2.0230 -1.5429  1.0677
 3340SOL     OW21652   3.560   0.544   6.579 -0.7865 -0.2864  0.7796
 3340SOL    HW121653   3.478   0.519   6.537 -0.3149  0.7803 -0.7550
 3340SOL    HW221654   3.607   0.461   6.581  0.6670  0.4877 -1.4563
 3341SOL     OW21655   2.870   1.310   6.255  0.3933 -0.3669 -0.3181
 3341SOL    HW121656   2.836   1.292   6.343 -3.0029  1.6909 -1.1900
 3341SOL    HW221657   2.806   1.377   6.231  1.2153  1.1169  1.5528
 3342SOL     OW21658   1.474   2.105   0.521 -0.0111 -0.5057 -0.1621
 3342SOL    HW121659   1.523   2.123   0.601  0.8038 -1.4549 -0.4382
 3342SOL    HW221660   1.541   2.050   0.480 -1.4846 -3.0972  0.9459
 3343SOL     OW21661   3.839   1.004  12.061  0.5876 -0.6583 -0.2407
 3343SOL    HW121662   3.906   0.950  12.102 -0.2212 -1.3780  0.1516
 3343SOL    HW221663   3.886   1.077  12.022 -0.7961  0.8404  0.8723
 3344SOL     OW21664   4.730   0.091   1.870 -0.1897  0.1547 -0.2562
 3344SOL    HW121665   0.054   0.106   1.799 -0.3238 -1.0928 -0.6290
 3344SOL    HW221666   4.690   0.009   1.840 -1.8250  0.6497  0.5448
 3345SOL     OW21667   1.838   1.592   7.018  0.1978 -0.2984 -0.1338
 3345SOL    HW121668   1.796   1.551   6.943  2.1183  1.3970 -2.1251
 3345SOL    HW221669   1.917   1.542   7.040  1.6018  0.8962 -2.5429
 3346SOL     OW21670   0.474   1.075  15.470  0.8650  0.1580 -0.4607
 3346SOL    HW121671   0.444   1.012  15.405 -2.1134  0.6673  0.3980
 3346SOL    HW221672   0.436   1.033  15.547  0.0892  0.0487 -0.9031
 3347SOL     OW21673   2.672   0.258   6.664 -0.1481  0.5074  0.1563
 3347SOL    HW121674   2.631   0.320   6.604  0.2944  1.9115  1.3030
 3347SOL    HW221675   2.766   0.273   6.660 -0.0322  0.0604  1.1895
 3348SOL     OW21676   2.123   3.789   2.329 -0.5767  0.8035  0.1966
 3348SOL    HW121677   2.113   3.853   2.400 -0.4335 -0.1363  1.0608
 3348SOL    HW221678   2.051   3.728   2.344  0.3543 -0.5758 -0.9619
 3349SOL     OW21679   4.217   4.286  13.709 -0.0759  0.4817 -0.2774
 3349SOL    HW121680   4.244   4.203  13.669 -1.5488  0.1391 -0.5534
 3349SOL    HW221681   4.299   4.319  13.745 -0.5456 -0.2325  1.4569
 3350SOL     OW21682   2.605   4.334   1.654  0.3588 -0.2887  0.5639
 3350SOL    HW121683   2.521   4.290   1.649  0.3324 -0.5191  3.1836
 3350SOL    HW221684   2.596   4.403   1.719  1.7053  0.8574 -0.4636
 3351SOL     OW21685   1.249   1.809   5.385  0.0557 -0.5488 -0.6282
 3351SOL    HW121686   1.254   1.737   5.323  1.8409 -0.3641 -0.7134
 3351SOL    HW221687   1.305   1.871   5.338  1.2089 -0.3668  0.9868
 3352SOL     OW21688   3.626   3.501   8.016  0.3872 -0.3593  0.0007
 3352SOL    HW121689   3.718   3.502   8.040  1.0642  1.8936 -2.7490
 3352SOL    HW221690   3.603   3.578   8.067 -0.7394 -0.5090 -0.2786
 3353SOL     OW21691   0.406   0.047   7.281 -0.1271  0.0726  0.2354
 3353SOL    HW121692   0.366   4.714   7.230  1.3324  0.5398 -1.5750
 3353SOL    HW221693   0.443   0.003   7.358 -1.1494 -0.3391  0.4900
 3354SOL     OW21694   1.442   0.042   7.583  0.2410  0.3211  0.1506
 3354SOL    HW121695   1.492   0.076   7.509  0.1497 -0.9220 -0.4786
 3354SOL    HW221696   1.499   0.077   7.651 -0.7524 -0.2217  1.2694
 3355SOL     OW21697   3.663   1.501   3.339  0.5407 -0.0803  0.4183
 3355SOL    HW121698   3.667   1.409   3.366 -1.5593  0.6528  3.1921
 3355SOL    HW221699   3.568   1.503   3.336  0.5169 -1.5184  0.5729
 3356SOL     OW21700   3.837   3.957   6.726 -0.0531 -0.4549  0.3907
 3356SOL    HW121701   3.752   3.915   6.713 -0.1939 -0.6634  2.0592
 3356SOL    HW221702   3.816   4.019   6.795 -1.0394 -1.0913  0.6649
 3357SOL     OW21703   4.415   4.481   9.123  0.3348  0.8248 -0.0599
 3357SOL    HW121704   4.481   4.411   9.128 -0.5052  0.2013  2.2425
 3357SOL    HW221705   4.416   4.497   9.029 -1.7073 -0.8042 -0.3593
 3358SOL     OW21706   2.772   2.636   2.896  0.1516 -0.1992 -0.0032
 3358SOL    HW121707   2.822   2.652   2.976  0.4930 -0.1867 -0.2185
 3358SOL    HW221708   2.734   2.548   2.900  0.7365 -0.5100 -1.2376
 3359SOL     OW21709   3.490   2.345   6.769 -1.0724  0.2387  0.1165
 3359SOL    HW121710   3.424   2.386   6.825 -0.5466  0.8610  0.2784
 3359SOL    HW221711   3.562   2.408   6.782 -1.4464  0.6518  0.2027
 3360SOL     OW21712   3.077   3.195   9.787  0.2469 -0.3456  0.4217
 3360SOL    HW121713   3.044   3.264   9.844  0.6800  1.0922 -1.0603
 3360SOL    HW221714   3.038   3.120   9.831 -0.4578 -1.4353 -2.0376
 3361SOL     OW21715   0.806   2.708   7.110 -0.5835  0.3367  0.2809
 3361SOL    HW121716   0.780   2.616   7.108  2.0727 -0.4394  1.3790
 3361SOL    HW221717   0.819   2.730   7.018  1.6166 -1.1893  0.2349
 3362SOL     OW21718   2.208   1.908   6.045  0.4829  0.5368  0.1410
 3362SOL    HW121719   2.255   1.913   6.129 -0.8999  0.6906  0.9064
 3362SOL    HW221720   2.246   1.982   5.999  1.9047 -0.9156 -0.9959
 3363SOL     OW21721   2.247   2.285   9.813 -0.0737  0.2926  0.1312
 3363SOL    HW121722   2.307   2.306   9.884 -1.2370  2.0122  0.6057
 3363SOL    HW221723   2.294   2.298   9.731 -0.1171 -1.5060 -0.1814
 3364SOL     OW21724   4.175   3.846   2.391  0.2071 -0.9371  0.4270
 3364SOL    HW121725   4.101   3.801   2.351 -0.2684 -0.2421  0.5189
 3364SOL    HW221726   4.130   3.915   2.441 -1.2717 -1.0875 -0.7079
 3365SOL     OW21727   2.893   2.141   9.138  0.0485  0.2138  0.3767
 3365SOL    HW121728   2.811   2.104   9.103  1.2663 -1.5987 -0.5832
 3365SOL    HW221729   2.892   2.224   9.090 -2.0885  0.3283  0.6040
 3366SOL     OW21730   2.826   3.413   2.591  0.3388  0.2182  0.9135
 3366SOL    HW121731   2.857   3.485   2.537  0.1753 -0.8504 -0.6221
 3366SOL    HW221732   2.891   3.401   2.660  0.8336 -1.0195  0.2350
 3367SOL     OW21733   1.793   1.604   1.000  0.4804  0.4904 -0.4254
 3367SOL    HW121734   1.750   1.566   0.924 -1.1672  0.4695  0.5256
 3367SOL    HW221735   1.885   1.611   0.975  0.1086 -0.2924 -2.0171
 3368SOL     OW21736   2.088   3.749   6.406  0.9586  0.2671 -0.4815
 3368SOL    HW121737   2.049   3.662   6.403  1.0356  0.1453  2.1744
 3368SOL    HW221738   2.044   3.790   6.480  1.1977  0.3700 -0.3977
 3369SOL     OW21739   3.565   3.721   8.986 -0.2922  1.2327  0.3445
 3369SOL    HW121740   3.541   3.737   8.895  2.1301  0.0380 -0.4989
 3369SOL    HW221741   3.658   3.746   8.980 -0.0584  0.5887  1.3566
 3370SOL     OW21742   0.100   4.000  10.417  0.0431 -0.0330  0.5175
 3370SOL    HW121743   0.055   4.041  10.491 -0.3948  1.4224 -0.5588
 3370SOL    HW221744   0.185   4.044  10.423  0.5874 -0.7815 -1.9458
 3371SOL     OW21745   1.473   2.882   5.155  0.2102  0.1815  0.1808
 3371SOL    HW121746   1.556   2.845   5.124 -0.6696 -3.0329  1.6529
 3371SOL    HW221747   1.459   2.831   5.234 -1.0448  0.0527 -0.1315
 3372SOL     OW21748   0.205   1.107   0.882 -0.5153  0.9710 -0.0331
 3372SOL    HW121749   0.299   1.113   0.866 -0.3953 -2.7099 -0.7600
 3372SOL    HW221750   0.166   1.189   0.851  1.5613  1.9336 -0.0454
 3373SOL     OW21751   0.805   2.775  17.501 -0.5746  0.0528  0.1151
 3373SOL    HW121752   0.825   2.707  17.437  0.1637  0.3096  0.0734
 3373SOL    HW221753   0.866   2.844  17.475 -0.0502  0.4960  2.5810
 3374SOL     OW21754   0.793   0.335   5.166  0.4599 -0.3303 -0.2502
 3374SOL    HW121755   0.877   0.292   5.152  0.3149 -0.9520  0.7636
 3374SOL    HW221756   0.751   0.303   5.086  0.8199  2.1637 -1.4225
 3375SOL     OW21757   4.598   3.343   4.613  0.1277 -0.4662 -0.1489
 3375SOL    HW121758   4.513   3.299   4.620 -1.2148  1.9398 -1.2551
 3375SOL    HW221759   4.572   3.412   4.551 -0.4963  0.2867  0.9566
 3376SOL     OW21760   2.131   4.014  12.719 -0.4922  0.0038  0.3014
 3376SOL    HW121761   2.207   4.070  12.734 -1.4764  1.2356  0.6912
 3376SOL    HW221762   2.179   3.943  12.677 -0.7904 -0.2897  0.4585
 3377SOL     OW21763   4.163   1.954   4.436 -0.0013  0.2699  0.0094
 3377SOL    HW121764   4.169   1.868   4.477  0.7174 -0.7621 -2.2631
 3377SOL    HW221765   4.151   1.931   4.344  0.5939 -1.5780  0.3862
 3378SOL     OW21766   3.558   0.158   5.116  0.6582  0.1252 -0.5662
 3378SOL    HW121767   3.646   0.195   5.109  0.9233 -0.1815  1.1058
 3378SOL    HW221768   3.567   0.095   5.188 -1.4638  1.2418  0.6773
 3379SOL     OW21769   0.780   0.349  14.579  0.0435  0.4446 -0.2464
 3379SOL    HW121770   0.817   0.363  14.666 -0.7771 -2.5734  0.6139
 3379SOL    HW221771   0.749   0.260  14.595  0.0646  0.5274  0.2568
 3380SOL     OW21772   1.876   1.849   3.707  0.3962 -0.4307 -0.6536
 3380SOL    HW121773   1.816   1.790   3.662 -0.2051  0.4890 -1.0579
 3380SOL    HW221774   1.946   1.835   3.644  0.6308  0.4364 -0.5821
 3381SOL     OW21775   1.499   1.067  16.902  0.6977  0.0297  0.3906
 3381SOL    HW121776   1.406   1.057  16.882  0.7466 -2.1527  1.2132
 3381SOL    HW221777   1.495   1.129  16.975 -2.5795  0.6175 -0.2761
 3382SOL     OW21778   4.600   1.355   6.531  0.6444  0.1133 -0.0635
 3382SOL    HW121779   4.695   1.345   6.531  0.8594  2.2168 -0.1552
 3382SOL    HW221780   4.583   1.388   6.443  1.6214 -0.5744 -0.5165
 3383SOL     OW21781   3.298   0.716   1.527 -0.3107  0.1845 -0.3065
 3383SOL    HW121782   3.296   0.636   1.580 -2.9025  0.0112 -0.6316
 3383SOL    HW221783   3.389   0.735   1.508 -0.6196 -0.6407 -2.5702
 3384SOL     OW21784   2.465   1.914   9.523 -0.3292 -0.2376  0.2429
 3384SOL    HW121785   2.508   1.829   9.529 -0.6579 -0.4310 -0.1618
 3384SOL    HW221786   2.371   1.900   9.511 -0.4975 -0.1641  1.4287
 3385SOL     OW21787   1.459   2.640  17.423  0.1763  0.3158 -0.5701
 3385SOL    HW121788   1.459   2.558  17.373  0.7559 -1.0454  1.7010
 3385SOL    HW221789   1.415   2.688  17.352  1.3153  2.0205 -0.1057
 3386SOL     OW21790   1.142   0.242   1.702  0.4748  0.4175 -0.2635
 3386SOL    HW121791   1.132   0.335   1.719  0.3813  0.1892  0.9975
 3386SOL    HW221792   1.134   0.253   1.608  1.1954  1.1693 -0.2350
 3387SOL     OW21793   2.288   3.863   4.855  0.1604 -0.1437 -0.3067
 3387SOL    HW121794   2.260   3.942   4.809 -1.4680  0.2718  1.4078
 3387SOL    HW221795   2.381   3.881   4.873 -0.3252  1.6286  0.4560
 3388SOL     OW21796   1.747   3.079   2.145 -0.0252 -0.2874  0.0936
 3388SOL    HW121797   1.739   2.991   2.182  0.4569 -1.5811 -2.8669
 3388SOL    HW221798   1.837   3.084   2.112 -0.7857  0.4622 -1.8727
 3389SOL     OW21799   0.969   3.180  16.339 -0.6152  0.0042 -0.7022
 3389SOL    HW121800   0.987   3.272  16.354  0.7377  0.1241 -2.9966
 3389SOL    HW221801   0.927   3.188  16.253 -2.2276 -0.1435  0.0757
 3390SOL     OW21802   4.707   2.007   6.477 -0.1415  0.1558 -0.3379
 3390SOL    HW121803   4.619   1.987   6.507  0.0803 -0.3844 -0.0506
 3390SOL    HW221804   4.681   2.031   6.388 -0.3248  3.0991  0.5022
 3391SOL     OW21805   3.280   0.653   5.559  0.1688 -0.1058 -0.4298
 3391SOL    HW121806   3.326   0.574   5.587 -0.5777 -0.7413 -1.0159
 3391SOL    HW221807   3.190   0.634   5.583  0.6394 -0.3842  1.1198
 3392SOL     OW21808   0.783   2.046  13.960  0.1770 -0.9638  0.2225
 3392SOL    HW121809   0.819   1.979  14.018 -0.2515 -0.5806  0.9288
 3392SOL    HW221810   0.855   2.088  13.913 -0.9775  0.0526 -0.6256
 3393SOL     OW21811   2.664   2.801   1.612  0.0676 -0.9287  0.3339
 3393SOL    HW121812   2.744   2.748   1.611  1.1190  0.6881 -0.9499
 3393SOL    HW221813   2.636   2.784   1.702 -1.6979  2.5323  0.4383
 3394SOL     OW21814   0.838   0.331   0.269 -0.3737 -0.5761 -0.5230
 3394SOL    HW121815   0.835   0.419   0.231  0.1290 -0.1885  0.3423
 3394SOL    HW221816   0.856   0.273   0.195 -2.1233 -0.8736 -0.7168
 3395SOL     OW21817   4.642   1.282   7.782 -0.1167  0.1980  0.3369
 3395SOL    HW121818   4.592   1.227   7.841  4.3319 -0.2327  3.7443
 3395SOL    HW221819   4.577   1.293   7.713 -1.1059  1.0288  1.3982
 3396SOL     OW21820   3.576   1.467   8.886 -0.2049  0.3238  0.5060
 3396SOL    HW121821   3.611   1.506   8.966 -2.2627  1.5119  0.8171
 3396SOL    HW221822   3.643   1.400   8.873 -1.3003 -0.7050  0.2384
 3397SOL     OW21823   4.589   3.582   2.050  0.0292  0.3332 -0.8790
 3397SOL    HW121824   4.588   3.550   1.959  1.8572 -1.1667 -0.3681
 3397SOL    HW221825   4.497   3.567   2.071  0.0166  1.3642 -0.2134
 3398SOL     OW21826   1.725   0.578   7.715 -0.3937 -0.4506 -0.1130
 3398SOL    HW121827   1.796   0.633   7.750  0.2671 -2.8070  2.2578
 3398SOL    HW221828   1.711   0.514   7.785 -1.7623  0.6218  0.5839
 3399SOL     OW21829   2.681   1.037   2.336 -0.3769  0.0872  0.1642
 3399SOL    HW121830   2.649   1.103   2.398 -1.2719 -1.3673  1.2445
 3399SOL    HW221831   2.767   1.012   2.371 -1.9942 -3.0804  1.9475
 3400SOL     OW21832   0.221   0.598  15.410 -0.0723 -0.6215  0.1863
 3400SOL    HW121833   0.146   0.638  15.365 -1.4670 -2.1332  1.1578
 3400SOL    HW221834   0.200   0.504  15.405  1.2709 -0.9387  0.4270
 3401SOL     OW21835   3.649   3.840   4.364 -0.0071  0.4557  0.3136
 3401SOL    HW121836   3.589   3.797   4.303 -1.3122 -0.6409  2.3913
 3401SOL    HW221837   3.597   3.887   4.428  0.2586  0.6852  0.3646
 3402SOL     OW21838   3.904   1.101   0.500  0.6699  0.1318  0.4523
 3402SOL    HW121839   3.826   1.155   0.517 -0.3204 -1.2477  0.3415
 3402SOL    HW221840   3.862   1.016   0.515  0.0004 -0.1563 -3.0708
 3403SOL     OW21841   2.141   3.491   6.708  0.1421  0.8533  0.1845
 3403SOL    HW121842   2.184   3.406   6.696 -0.8697  0.2990  0.5511
 3403SOL    HW221843   2.062   3.475   6.657  0.6337  0.6161 -0.5147
 3404SOL     OW21844   3.166   3.715  16.641 -0.2772  0.2431 -0.3596
 3404SOL    HW121845   3.096   3.760  16.594 -0.5799 -0.4544 -0.5829
 3404SOL    HW221846   3.225   3.787  16.662  3.1407 -1.8435 -2.7975
 3405SOL     OW21847   1.883   3.629   8.534  0.0414 -0.4585  0.4344
 3405SOL    HW121848   1.862   3.705   8.480  0.9018 -1.7750 -1.7723
 3405SOL    HW221849   1.961   3.600   8.485 -0.9369 -1.5018 -0.5090
 3406SOL     OW21850   4.713   4.039   2.337 -0.2572  0.1409  0.0632
 3406SOL    HW121851   4.702   4.073   2.426 -0.8877 -0.4231  0.2074
 3406SOL    HW221852   4.658   3.963   2.359 -2.2951  1.9477  1.1274
 3407SOL     OW21853   3.375   1.517   3.348  0.0034  0.0459  0.0042
 3407SOL    HW121854   3.333   1.586   3.297  1.8673  2.4551  1.7553
 3407SOL    HW221855   3.315   1.443   3.340  0.2917 -0.2743  0.8611
 3408SOL     OW21856   4.077   2.289   5.342  0.4417 -0.4313  0.1163
 3408SOL    HW121857   4.087   2.359   5.407  0.0838 -0.8983  0.6806
 3408SOL    HW221858   3.988   2.296   5.309  0.3837 -0.5479  0.2484
 3409SOL     OW21859   2.147   3.572   3.821 -0.1639  0.4195 -0.2068
 3409SOL    HW121860   2.064   3.576   3.773 -0.1871  0.0025 -0.2053
 3409SOL    HW221861   2.128   3.522   3.901  2.5931 -0.0090  0.1756
 3410SOL     OW21862   0.325   2.780  10.451  0.5411 -0.0928  0.0586
 3410SOL    HW121863   0.339   2.870  10.419  0.0112 -0.0390 -0.0212
 3410SOL    HW221864   0.405   2.761  10.500 -0.5012 -1.2139  1.3197
 3411SOL     OW21865   4.585   2.863   5.804  0.0917 -0.8313  0.2234
 3411SOL    HW121866   4.513   2.870   5.741  0.1793  0.1048  0.2155
 3411SOL    HW221867   4.655   2.836   5.744  2.6635 -0.8731  3.2473
 3412SOL     OW21868   1.937   4.294  12.025 -0.0340  0.9239 -0.4868
 3412SOL    HW121869   1.917   4.238  11.950  0.8116 -1.1388  0.8259
 3412SOL    HW221870   1.985   4.231  12.079 -1.4644 -0.3199 -0.6717
 3413SOL     OW21871   4.131   3.549   0.038  0.3631 -0.1921  0.1238
 3413SOL    HW121872   4.198   3.612   0.065 -0.0827 -0.9082  2.9655
 3413SOL    HW221873   4.152   3.559  17.693  0.3855  0.4457  0.1949
 3414SOL     OW21874   3.586   4.517   2.117 -1.0229 -0.0738  0.8722
 3414SOL    HW121875   3.679   4.505   2.102 -0.4788  4.4219  0.8233
 3414SOL    HW221876   3.565   4.582   2.051 -1.2259  1.1498  2.1399
 3415SOL     OW21877   2.790   0.933   2.064 -0.6819  0.3988 -0.0777
 3415SOL    HW121878   2.870   0.984   2.078  0.2404 -1.0626 -0.0213
 3415SOL    HW221879   2.776   0.949   1.971 -0.3522  0.6994 -0.0776
 3416SOL     OW21880   2.655   1.587   8.120 -0.2972  0.0397 -0.1378
 3416SOL    HW121881   2.571   1.623   8.089  0.1365  1.9557  0.9357
 3416SOL    HW221882   2.709   1.584   8.041 -0.8034 -1.0274 -0.4581
 3417SOL     OW21883   3.413   1.806   2.789  0.6886  0.1860 -0.0034
 3417SOL    HW121884   3.369   1.747   2.850  0.2820 -1.7946 -2.2374
 3417SOL    HW221885   3.503   1.776   2.783  0.0533 -1.5793 -0.6931
 3418SOL     OW21886   0.489   1.371  11.347  0.3154 -0.3857 -0.0825
 3418SOL    HW121887   0.397   1.396  11.334 -0.0457 -1.3636  0.5558
 3418SOL    HW221888   0.510   1.445  11.402  0.4302  0.5923 -1.4459
 3419SOL     OW21889   0.287   3.198   2.469  0.1873 -0.2682  0.4379
 3419SOL    HW121890   0.201   3.233   2.493 -0.2730 -1.7437  0.9978
 3419SOL    HW221891   0.344   3.253   2.523  0.2284 -0.6137  0.7505
 3420SOL     OW21892   4.735   0.062   1.010 -0.9307  0.1455 -0.2135
 3420SOL    HW121893   4.641   0.079   1.002 -0.8591 -0.8952 -3.1016
 3420SOL    HW221894   0.024   0.082   0.920 -5.6753 -1.1603 -1.8922
 3421SOL     OW21895   0.331   1.370   3.986  0.2332  0.2769  0.1563
 3421SOL    HW121896   0.302   1.295   4.037  0.4225 -0.3878 -0.7194
 3421SOL    HW221897   0.260   1.370   3.921  0.5277  0.4733 -0.1629
 3422SOL     OW21898   2.791   1.396   7.575  0.0036 -0.0579  0.4882
 3422SOL    HW121899   2.701   1.365   7.564  0.7383 -1.5000 -1.4285
 3422SOL    HW221900   2.783   1.489   7.597 -0.9262  0.0647 -0.3558
 3423SOL     OW21901   0.274   1.415  11.631 -0.6070  0.4728 -0.1108
 3423SOL    HW121902   0.254   1.484  11.567  1.7780  1.4759  0.2431
 3423SOL    HW221903   0.322   1.464  11.697  0.2577 -0.9076  0.2728
 3424SOL     OW21904   3.725   0.856   1.246 -0.3578  0.0759 -0.0103
 3424SOL    HW121905   3.712   0.813   1.162  1.8698  1.5166 -1.1239
 3424SOL    HW221906   3.813   0.892   1.230 -0.4066 -0.2977 -1.1052
 3425SOL     OW21907   1.125   0.316  16.308  0.0704 -0.3848 -0.2545
 3425SOL    HW121908   1.132   0.248  16.376 -0.3764  1.8879  2.0597
 3425SOL    HW221909   1.170   0.391  16.347 -1.5501 -0.0035  0.9176
 3426SOL     OW21910   2.587   3.326   6.696 -0.1956 -0.5204 -0.0620
 3426SOL    HW121911   2.566   3.353   6.785 -1.9100  1.6256 -1.1052
 3426SOL    HW221912   2.583   3.407   6.645  0.2329  0.1969  1.0541
 3427SOL     OW21913   3.793   4.326  15.539 -0.5544  0.2434 -0.1255
 3427SOL    HW121914   3.723   4.336  15.475 -2.9879 -0.1380  2.4668
 3427SOL    HW221915   3.759   4.400  15.591 -1.5035  0.4265 -1.0230
 3428SOL     OW21916   0.954   2.589   3.467 -0.0784 -0.3396 -0.2310
 3428SOL    HW121917   0.861   2.609   3.460 -0.6425 -3.0341 -0.4910
 3428SOL    HW221918   0.978   2.575   3.375  0.4748  0.8163 -0.2658
 3429SOL     OW21919   1.453   0.919   5.393  0.3531  0.2216  0.4021
 3429SOL    HW121920   1.455   1.012   5.373 -0.4577  0.1714  0.0590
 3429SOL    HW221921   1.459   0.876   5.308  2.5206 -1.8399  1.6151
 3430SOL     OW21922   4.071   2.721  15.487 -0.0073  0.3746  0.7868
 3430SOL    HW121923   4.006   2.772  15.439  0.4414  0.5620  0.3766
 3430SOL    HW221924   4.091   2.663  15.414  1.1125 -0.4170  1.7193
 3431SOL     OW21925   2.004   1.283  16.970  0.0583 -0.4350  0.3656
 3431SOL    HW121926   2.065   1.294  16.897  2.1782  1.4482  2.4054
 3431SOL    HW221927   1.977   1.194  16.947 -0.3501 -0.4736  1.0052
 3432SOL     OW21928   3.687   4.110   2.310 -0.3687 -0.2730 -0.1681
 3432SOL    HW121929   3.639   4.033   2.338  2.0606 -1.2714  1.2988
 3432SOL    HW221930   3.693   4.084   2.218  0.2446  0.3596 -0.3126
 3433SOL     OW21931   4.206   0.956  16.790  0.0058 -0.0251  0.0867
 3433SOL    HW121932   4.114   0.973  16.811 -0.6123 -1.9837 -0.9879
 3433SOL    HW221933   4.184   0.887  16.726 -0.2172  1.4473 -1.4388
 3434SOL     OW21934   1.607   2.632  11.515 -0.0863  0.9073 -0.0972
 3434SOL    HW121935   1.665   2.568  11.472  0.7855  0.0590  2.3423
 3434SOL    HW221936   1.636   2.624  11.606  4.3527 -0.2893 -1.5922
 3435SOL     OW21937   3.675   2.823  15.723  0.2702  0.1352  0.9516
 3435SOL    HW121938   3.628   2.796  15.644  1.5552  1.0784 -0.1308
 3435SOL    HW221939   3.758   2.776  15.715 -0.3020 -0.7795  0.3559
 3436SOL     OW21940   4.111   3.980   5.873 -0.3695 -0.3408  0.0389
 3436SOL    HW121941   4.140   4.065   5.904 -0.9100 -0.2004  0.1565
 3436SOL    HW221942   4.098   4.006   5.782 -0.1844  1.0937  0.4311
 3437SOL     OW21943   1.578   0.374  11.842 -0.7736  0.1371  0.1168
 3437SOL    HW121944   1.585   0.469  11.839  0.9140 -0.0472 -1.5659
 3437SOL    HW221945   1.559   0.356  11.934 -0.6962  2.6212  0.6165
 3438SOL     OW21946   4.003   0.539   1.881  0.0802 -0.2338 -0.4310
 3438SOL    HW121947   3.927   0.482   1.871  0.3434 -0.6262 -0.1891
 3438SOL    HW221948   4.078   0.495   1.842  0.6109  0.6792 -0.4351
 3439SOL     OW21949   3.631   4.377  15.924  0.1694  0.1247 -0.0826
 3439SOL    HW121950   3.630   4.464  15.964  1.4224  0.7632 -1.4447
 3439SOL    HW221951   3.651   4.398  15.833  1.2992 -0.2637  0.0671
 3440SOL     OW21952   1.440   2.569   4.391 -0.1773 -0.4342 -0.5608
 3440SOL    HW121953   1.535   2.567   4.382 -0.0101 -0.2294  1.2049
 3440SOL    HW221954   1.409   2.481   4.371  0.3166 -0.2736 -2.0525
 3441SOL     OW21955   0.381   4.565   5.347  0.1660 -0.4655  0.0610
 3441SOL    HW121956   0.466   4.605   5.331 -0.3102  1.0788  1.5142
 3441SOL    HW221957   0.399   4.511   5.424  0.4268  0.5810  0.7262
 3442SOL     OW21958   0.221   1.272   1.964 -0.1326  0.0855 -0.2031
 3442SOL    HW121959   0.170   1.341   1.922 -1.2941 -0.4536  0.3114
 3442SOL    HW221960   0.152   1.231   2.018 -1.2000  0.4691 -1.2800
 3443SOL     OW21961   0.041   1.620  10.184  0.2020 -0.0798  0.1646
 3443SOL    HW121962   0.099   1.620  10.260 -0.7184 -0.0674  0.8731
 3443SOL    HW221963   0.088   1.589  10.107 -3.1642 -0.1513 -1.8834
 3444SOL     OW21964   4.052   3.824   1.890  0.0037  0.4404 -0.5694
 3444SOL    HW121965   4.043   3.898   1.950 -0.6017 -0.5679  0.5678
 3444SOL    HW221966   4.047   3.748   1.947 -1.8522 -0.1136 -1.4793
 3445SOL     OW21967   3.753   0.836   5.760  0.3079  0.5923 -0.0064
 3445SOL    HW121968   3.835   0.855   5.806  0.1182  4.0257 -1.0381
 3445SOL    HW221969   3.723   0.926   5.744  1.2745  0.8385 -0.3985
 3446SOL     OW21970   1.799   3.159   1.843  0.2363  0.0151 -0.0211
 3446SOL    HW121971   1.712   3.186   1.812 -0.5670 -1.3240  1.0410
 3446SOL    HW221972   1.850   3.239   1.856  0.8516 -0.0561 -1.9638
 3447SOL     OW21973   0.797   3.628   6.755 -0.7880 -0.2924 -0.3709
 3447SOL    HW121974   0.839   3.663   6.677 -0.1733  0.3539  0.2484
 3447SOL    HW221975   0.870   3.598   6.810 -0.1505  2.0964  0.0913
 3448SOL     OW21976   3.238   1.783   3.611  0.5088  0.2839  0.2049
 3448SOL    HW121977   3.291   1.716   3.568  1.5561  1.3904 -0.2482
 3448SOL    HW221978   3.148   1.758   3.590  0.5819 -0.5786  0.9175
 3449SOL     OW21979   4.106   1.346   1.391 -0.5817  0.5707 -0.0540
 3449SOL    HW121980   4.062   1.320   1.311  0.6266 -0.4446 -0.3928
 3449SOL    HW221981   4.108   1.272   1.453 -1.1480  1.4745  1.0484
 3450SOL     OW21982   1.102   0.087   2.021  0.4405 -0.3392  0.8086
 3450SOL    HW121983   1.011   0.081   1.991  1.2333 -0.5129 -1.5724
 3450SOL    HW221984   1.115   0.181   2.029 -1.0821  0.0358 -1.1826
 3451SOL     OW21985   4.269   1.117   4.719  0.5806 -0.0731  0.2251
 3451SOL    HW121986   4.283   1.107   4.624  2.8165 -0.2686  0.5789
 3451SOL    HW221987   4.217   1.197   4.715  0.1210 -0.4611 -2.1271
 3452SOL     OW21988   2.264   1.452   5.990  0.0845  0.8026 -0.1440
 3452SOL    HW121989   2.324   1.440   5.916 -0.4997  1.1485 -0.6750
 3452SOL    HW221990   2.219   1.532   5.965  0.9213  0.5804 -2.3994
 3453SOL     OW21991   3.635   0.521   1.465  0.3813 -0.2144  0.2678
 3453SOL    HW121992   3.558   0.490   1.512  0.1840 -0.6797 -0.3616
 3453SOL    HW221993   3.643   0.454   1.397 -2.8973 -1.5459  1.1770
 3454SOL     OW21994   2.060   1.051  14.014  0.1521 -0.5187 -0.1107
 3454SOL    HW121995   2.098   1.135  14.039 -0.5302  0.8881 -3.8202
 3454SOL    HW221996   1.973   1.090  14.026  1.0180  1.2450  0.5488
 3455SOL     OW21997   4.335   2.701  10.702  0.4728  0.2445  0.4733
 3455SOL    HW121998   4.344   2.746  10.786  2.2055 -0.5196  0.7014
 3455SOL    HW221999   4.245   2.725  10.680  0.6200  0.7740  0.4517
 3456SOL     OW22000   3.562   3.314   0.929  0.1419 -0.2880  0.0615
 3456SOL    HW122001   3.583   3.272   0.845  0.2207 -0.0555 -0.0349
 3456SOL    HW222002   3.509   3.388   0.899 -0.2216 -1.0918 -1.2790
 3457SOL     OW22003   2.697   0.818   9.562 -0.6161  0.1595 -0.0228
 3457SOL    HW122004   2.737   0.792   9.644 -0.0985  1.4467  0.1298
 3457SOL    HW222005   2.765   0.876   9.528  1.0092 -1.4716  0.4909
 3458SOL     OW22006   0.855   3.044   5.152 -0.3883  0.5681  0.0233
 3458SOL    HW122007   0.943   3.040   5.115 -1.4841  0.7139 -2.5855
 3458SOL    HW222008   0.816   3.088   5.077 -0.6616 -0.6454 -0.5465
 3459SOL     OW22009   0.074   1.533  13.741  0.0141  0.8762 -0.1375
 3459SOL    HW122010   4.721   1.520  13.771  0.0146 -0.8988 -0.9167
 3459SOL    HW222011   0.078   1.471  13.668 -0.2450  0.3344  0.3060
 3460SOL     OW22012   3.666   0.702   3.806  0.1183  0.0172  0.0161
 3460SOL    HW122013   3.709   0.636   3.751 -0.8118  0.8498 -1.7349
 3460SOL    HW222014   3.690   0.784   3.762 -1.4165  1.5855  2.0978
 3461SOL     OW22015   1.427   4.398   4.121 -0.0818  0.1053 -0.0111
 3461SOL    HW122016   1.483   4.336   4.167 -0.7436 -0.3242  0.2181
 3461SOL    HW222017   1.344   4.386   4.168  1.1915 -1.6792  1.7605
 3462SOL     OW22018   2.681   0.585   0.981 -0.2034  0.4479 -0.0997
 3462SOL    HW122019   2.762   0.636   0.979  0.2494 -0.2513  0.6675
 3462SOL    HW222020   2.633   0.642   1.041 -1.0056 -2.4069  1.9547
 3463SOL     OW22021   1.477   2.147   5.969 -0.3476 -0.1294  0.3924
 3463SOL    HW122022   1.452   2.082   6.036  0.9319 -0.7936  0.2414
 3463SOL    HW222023   1.571   2.129   5.966 -0.1451  1.0712 -0.1436
 3464SOL     OW22024   3.965   1.716   7.788  0.2160  0.4083 -0.0126
 3464SOL    HW122025   3.871   1.718   7.808  0.1747 -0.9821 -0.0139
 3464SOL    HW222026   3.986   1.801   7.826 -0.4830  0.8249 -0.5450
 3465SOL     OW22027   1.209   4.675  16.050  0.9150 -0.1780  0.1575
 3465SOL    HW122028   1.304   4.663  16.046  0.5132 -2.8890 -1.0504
 3465SOL    HW222029   1.199   0.032  16.057 -3.0405 -0.8206  2.7772
 3466SOL     OW22030   1.400   2.614   8.871 -0.1366 -0.1672 -0.2763
 3466SOL    HW122031   1.409   2.609   8.776 -2.0380  1.4060 -0.5537
 3466SOL    HW222032   1.310   2.581   8.880  0.1271 -0.8294 -0.0754
 3467SOL     OW22033   1.025   3.845   5.147 -0.3075 -0.7566  0.4357
 3467SOL    HW122034   0.953   3.868   5.205  0.4302  1.3268  0.5415
 3467SOL    HW222035   0.982   3.772   5.103  0.9702 -0.9886 -0.4521
 3468SOL     OW22036   4.686   1.428   1.663  0.0242  0.2389 -0.5906
 3468SOL    HW122037   0.040   1.438   1.640  0.1669 -0.7909 -0.4826
 3468SOL    HW222038   4.648   1.401   1.579  1.2385  1.1083 -1.4002
 3469SOL     OW22039   2.420   3.470   7.388  0.3588 -0.3065  0.7506
 3469SOL    HW122040   2.491   3.411   7.362  2.0434  2.2057 -0.2988
 3469SOL    HW222041   2.343   3.417   7.366 -0.4507 -0.3424  3.5825
 3470SOL     OW22042   3.522   3.204  16.566 -0.1251 -0.5820 -0.4151
 3470SOL    HW122043   3.570   3.132  16.524 -0.1550 -0.0452 -1.3611
 3470SOL    HW222044   3.533   3.197  16.661  3.3900 -1.7082 -0.8995
 3471SOL     OW22045   3.696   1.039  15.129 -0.5015  0.3097 -0.3381
 3471SOL    HW122046   3.788   1.010  15.122 -0.4721  0.0545  1.1511
 3471SOL    HW222047   3.688   1.081  15.043 -2.2438 -0.6654 -0.6413
 3472SOL     OW22048   3.150   0.636   5.918  0.2059  0.8245  0.1932
 3472SOL    HW122049   3.132   0.567   5.982 -1.0623 -0.4118 -1.4889
 3472SOL    HW222050   3.089   0.701   5.954 -1.1318  0.3499 -1.2004
 3473SOL     OW22051   2.395   2.620  13.789  0.0154 -0.3627 -0.4955
 3473SOL    HW122052   2.359   2.605  13.701 -0.7330  1.8542 -0.5462
 3473SOL    HW222053   2.317   2.663  13.823  0.0667  0.5428 -1.5291
 3474SOL     OW22054   4.585   0.168   3.342 -0.0694 -0.7798  0.0528
 3474SOL    HW122055   4.650   0.156   3.412  0.6731  0.5601 -0.4060
 3474SOL    HW222056   4.571   0.263   3.346 -0.7664 -0.9374  1.5099
 3475SOL     OW22057   2.177   3.484  16.137  0.3484  0.7639  0.4157
 3475SOL    HW122058   2.139   3.558  16.185  0.7521  0.8062  0.6690
 3475SOL    HW222059   2.259   3.516  16.099  0.8167  1.7841  2.2526
 3476SOL     OW22060   2.247   4.466   5.464 -0.2484 -0.0970 -0.3816
 3476SOL    HW122061   2.195   4.386   5.478 -0.4796  0.0027 -0.6637
 3476SOL    HW222062   2.177   4.530   5.478  1.2143  0.9481  2.0558
 3477SOL     OW22063   1.139   0.513  12.213  0.1620  0.1759 -0.2283
 3477SOL    HW122064   1.054   0.543  12.246  0.4625  1.7060 -0.8336
 3477SOL    HW222065   1.175   0.477  12.294 -0.7564 -2.1853 -0.8781
 3478SOL     OW22066   2.403   2.158   3.439 -0.4977 -0.2581 -0.1497
 3478SOL    HW122067   2.412   2.082   3.383 -0.2984 -1.4709  1.5223
 3478SOL    HW222068   2.486   2.160   3.488  0.2943 -2.3350 -1.4613
 3479SOL     OW22069   1.974   0.474  12.817  0.3828 -0.0278 -0.2869
 3479SOL    HW122070   1.979   0.396  12.872  0.2111 -0.2178 -0.5372
 3479SOL    HW222071   2.067   0.497  12.811  0.7911 -1.2967  1.3690
 3480SOL     OW22072   2.841   3.014   5.617  0.2515 -0.0392 -0.5986
 3480SOL    HW122073   2.932   3.021   5.589  0.4632  1.7104  0.4978
 3480SOL    HW222074   2.848   3.059   5.701  0.5750  0.2193 -0.7612
 3481SOL     OW22075   3.077   2.515  16.693  0.3878 -0.3772 -0.4530
 3481SOL    HW122076   3.106   2.581  16.630  0.7244 -0.1257 -0.0314
 3481SOL    HW222077   3.022   2.566  16.752  0.0436 -1.8817  0.5430
 3482SOL     OW22078   2.875   2.953   2.172 -0.0109  0.2401  0.5914
 3482SOL    HW122079   2.817   2.928   2.100  0.2369  0.0349  0.4624
 3482SOL    HW222080   2.816   3.013   2.217 -0.6068  1.1380 -1.3797
 3483SOL     OW22081   1.540   1.146   7.202  0.8258  0.2311  0.2470
 3483SOL    HW122082   1.504   1.061   7.226 -0.9724  1.0166  0.3272
 3483SOL    HW222083   1.462   1.190   7.168  1.3269  0.7593 -0.2132
 3484SOL     OW22084   1.109   2.664  12.455 -0.2967 -0.4290 -1.1654
 3484SOL    HW122085   1.184   2.616  12.421  0.0863  0.5451 -1.6918
 3484SOL    HW222086   1.115   2.741  12.400 -1.2685  0.4538 -0.0449
 3485SOL     OW22087   3.908   1.676   4.648  0.0823 -0.7951 -0.0916
 3485SOL    HW122088   3.836   1.621   4.680  0.7916 -1.6846 -0.0425
 3485SOL    HW222089   3.946   1.619   4.581 -2.6203 -0.8408 -1.6264
 3486SOL     OW22090   1.385   1.474   7.466 -0.4110  0.2680 -0.4299
 3486SOL    HW122091   1.322   1.544   7.448  0.2416  1.3677  1.5444
 3486SOL    HW222092   1.381   1.467   7.561  0.6490  1.1737 -0.3328
 3487SOL     OW22093   0.338   3.136   9.563  0.3440  0.0861  0.2920
 3487SOL    HW122094   0.296   3.050   9.563 -0.9415  0.7223  1.3143
 3487SOL    HW222095   0.392   3.122   9.641  1.7218 -2.3380 -1.0904
 3488SOL     OW22096   0.680   2.914   4.255  0.1118  0.0150 -0.1340
 3488SOL    HW122097   0.619   2.844   4.231 -1.8907  1.2196  1.4459
 3488SOL    HW222098   0.622   2.978   4.296 -2.0044 -1.4491 -0.8412
 3489SOL     OW22099   0.403   2.058   9.725 -0.6458  0.0725  0.4970
 3489SOL    HW122100   0.475   2.111   9.691 -0.9376  0.4580  0.4708
 3489SOL    HW222101   0.400   2.098   9.813  2.2554  1.6234 -0.0746
 3490SOL     OW22102   0.204   0.485   2.065 -0.5625 -0.0373  0.7683
 3490SOL    HW122103   0.272   0.513   2.004 -3.0015  3.6040 -0.3288
 3490SOL    HW222104   0.266   0.474   2.137 -1.7050 -0.6510  1.6699
 3491SOL     OW22105   2.922   3.937  17.595  0.3484 -0.2223 -0.5785
 3491SOL    HW122106   2.996   3.960  17.538  0.7096 -1.4596 -0.5894
 3491SOL    HW222107   2.938   3.976  17.681 -0.1327  1.0185 -1.0434
 3492SOL     OW22108   0.360   3.940  13.585  0.0407  0.2187 -0.1246
 3492SOL    HW122109   0.370   3.938  13.490  1.9960 -0.4814  0.0997
 3492SOL    HW222110   0.367   3.848  13.613 -0.8696  0.9953  2.7047
 3493SOL     OW22111   0.138   1.272   7.198  0.8263  0.0010  0.0041
 3493SOL    HW122112   0.070   1.339   7.186  0.1076 -1.0456 -1.6855
 3493SOL    HW222113   0.091   1.192   7.220 -0.9449  1.4751  1.6391
 3494SOL     OW22114   1.790   2.243   7.779 -0.0966  0.0512 -0.3920
 3494SOL    HW122115   1.763   2.234   7.870 -3.0188  0.5720 -1.2056
 3494SOL    HW222116   1.707   2.264   7.736 -0.1835  0.2019 -0.1494
 3495SOL     OW22117   2.258   1.269   9.048 -0.7367  0.2510  0.1208
 3495SOL    HW122118   2.299   1.292   9.131 -2.2473  1.5704  0.4786
 3495SOL    HW222119   2.261   1.174   9.063  1.5510  0.1322 -1.0512
 3496SOL     OW22120   1.208   3.855   4.095 -0.1843  0.4324 -0.0059
 3496SOL    HW122121   1.243   3.922   4.037  2.1223  0.3760  1.3241
 3496SOL    HW222122   1.270   3.850   4.167 -0.0402  0.8310 -0.1051
 3497SOL     OW22123   1.503   0.257   8.270  0.1964 -0.3610 -0.0652
 3497SOL    HW122124   1.581   0.254   8.214  0.1912  2.4343 -0.2291
 3497SOL    HW222125   1.443   0.295   8.207  0.1552 -0.9592 -0.3863
 3498SOL     OW22126   3.120   0.873   8.750  0.0732  0.3877  0.4005
 3498SOL    HW122127   3.074   0.939   8.698  0.2883  1.1878  1.2239
 3498SOL    HW222128   3.200   0.860   8.699  0.1089 -0.9766  0.8199
 3499SOL     OW22129   2.320   2.130   9.011  0.3838 -0.6458 -0.0078
 3499SOL    HW122130   2.230   2.161   9.024  0.9187  0.3737  1.2211
 3499SOL    HW222131   2.368   2.119   9.094 -0.9106 -0.3696  0.7860
 3500SOL     OW22132   1.122   4.588  12.585 -0.8804  0.5254  0.3780
 3500SOL    HW122133   1.060   4.571  12.514  1.4732 -1.3823 -1.2140
 3500SOL    HW222134   1.139   4.677  12.554 -0.8663  1.0109  1.8067
 3501SOL     OW22135   1.440   0.418   2.481 -0.1303 -0.2188 -0.4173
 3501SOL    HW122136   1.400   0.344   2.436 -0.4304 -0.1958 -0.1854
 3501SOL    HW222137   1.529   0.382   2.472 -0.8175 -2.3585  1.2045
 3502SOL     OW22138   4.488   0.359   4.882  0.0771  0.2786  0.3181
 3502SOL    HW122139   4.556   0.312   4.833  0.6328 -0.6321  1.9585
 3502SOL    HW222140   4.490   0.445   4.840  1.6439 -0.1163 -0.4156
 3503SOL     OW22141   2.998   3.488   6.793  0.2294 -0.6650  0.1034
 3503SOL    HW122142   2.959   3.559   6.741 -0.2539 -0.9699  0.0490
 3503SOL    HW222143   3.044   3.545   6.854  1.2447 -1.6407  0.2485
 3504SOL     OW22144   1.309   3.265   6.629 -0.5891  0.4645  0.7159
 3504SOL    HW122145   1.353   3.336   6.675 -1.2956  1.8453 -0.7584
 3504SOL    HW222146   1.353   3.185   6.658  0.7750  1.3040  0.9501
 3505SOL     OW22147   4.686   1.775  17.561  0.5522  0.2292  0.4135
 3505SOL    HW122148   4.709   1.683  17.554  2.2608  0.6722  0.3302
 3505SOL    HW222149   4.682   1.785  17.656 -1.0034 -0.2956  0.4096
 3506SOL     OW22150   3.312   2.898   3.327  0.2269  0.3830  0.2841
 3506SOL    HW122151   3.220   2.879   3.307  0.6622 -0.8484 -0.5140
 3506SOL    HW222152   3.314   2.984   3.283  0.4925  0.7125  0.9415
 3507SOL     OW22153   2.355   4.129   4.382 -0.4258  0.3840 -0.1192
 3507SOL    HW122154   2.320   4.150   4.296  0.1884 -3.0723 -1.1951
 3507SOL    HW222155   2.447   4.113   4.364  0.2968  1.2530  2.7350
 3508SOL     OW22156   2.174   0.809  15.761 -0.4814  0.2895 -0.5741
 3508SOL    HW122157   2.214   0.826  15.846 -1.3842  0.8877 -0.2650
 3508SOL    HW222158   2.130   0.728  15.786 -0.9437  0.6027 -0.3544
 3509SOL     OW22159   2.008   2.775  12.540  0.2196 -0.3068 -0.5005
 3509SOL    HW122160   1.962   2.803  12.619  0.1159 -0.7761 -0.3931
 3509SOL    HW222161   1.975   2.841  12.479 -0.3402  1.0369  1.2508
 3510SOL     OW22162   0.070   3.088   7.780 -0.0002 -0.3258 -0.0589
 3510SOL    HW122163   0.088   3.115   7.870 -1.1838 -0.1164  0.1089
 3510SOL    HW222164   0.107   2.999   7.777  0.2774 -0.2326  0.7111
 3511SOL     OW22165   2.691   2.181  10.718  0.7241 -0.0942  0.2952
 3511SOL    HW122166   2.758   2.240  10.685  0.0972  0.1989 -0.4554
 3511SOL    HW222167   2.629   2.179  10.645  1.4560 -1.0438 -0.2845
 3512SOL     OW22168   1.359   2.328   9.335  0.6197  0.1920 -0.3312
 3512SOL    HW122169   1.277   2.311   9.287  1.0395 -1.2056 -0.5600
 3512SOL    HW222170   1.333   2.408   9.380 -0.6307 -0.5102  0.2111
 3513SOL     OW22171   0.920   3.025  10.584  0.4342  0.7633 -0.1399
 3513SOL    HW122172   0.901   3.089  10.653  1.3507  1.6481 -0.7117
 3513SOL    HW222173   0.924   2.945  10.636 -0.3878  0.5949 -0.3363
 3514SOL     OW22174   4.492   3.657   9.254  0.0528 -0.2749 -0.3730
 3514SOL    HW122175   4.537   3.582   9.292 -0.0041 -0.7536 -1.2322
 3514SOL    HW222176   4.524   3.732   9.304 -1.1030  0.9597 -1.4878
 3515SOL     OW22177   1.151   4.266   6.239 -0.3077 -0.2141 -0.4891
 3515SOL    HW122178   1.219   4.333   6.238 -1.0182  0.5499  2.7309
 3515SOL    HW222179   1.192   4.190   6.197  1.4798  1.6446 -2.0866
 3516SOL     OW22180   3.023   0.912   8.182  0.0121  0.3347  0.0623
 3516SOL    HW122181   3.029   0.879   8.092  1.4579  0.8730 -0.0439
 3516SOL    HW222182   3.068   0.995   8.167  0.6992  0.0426  0.5086
 3517SOL     OW22183   2.002   4.200   3.350 -0.5990  0.1126 -0.3845
 3517SOL    HW122184   2.041   4.175   3.434  0.9494  2.5516 -0.3762
 3517SOL    HW222185   1.921   4.248   3.365 -0.0294  0.1047  2.7469
 3518SOL     OW22186   3.253   0.957  11.528 -0.5294  0.2897 -0.0697
 3518SOL    HW122187   3.325   0.894  11.535 -0.5215  0.1131 -1.5498
 3518SOL    HW222188   3.286   1.028  11.583 -2.0569  1.3443 -0.5188
 3519SOL     OW22189   0.778   2.722   7.585 -0.2021 -0.3930  0.6182
 3519SOL    HW122190   0.716   2.746   7.655  0.1707 -0.3841  0.9455
 3519SOL    HW222191   0.732   2.743   7.504  0.6256 -2.5603 -0.3994
 3520SOL     OW22192   1.341   4.398   9.656  0.5874  0.8173  0.3457
 3520SOL    HW122193   1.431   4.403   9.623  1.0499  1.4048  1.7031
 3520SOL    HW222194   1.304   4.463   9.596 -3.1298 -2.7214 -1.1947
 3521SOL     OW22195   2.181   4.216   5.525  0.0679  0.7021 -0.2465
 3521SOL    HW122196   2.090   4.195   5.504  0.1264 -3.0107  3.2102
 3521SOL    HW222197   2.212   4.130   5.556  2.4461  1.8836  0.6862
 3522SOL     OW22198   0.043   4.459   6.113 -0.0442  0.0137 -0.2599
 3522SOL    HW122199   0.016   4.371   6.140  0.9998 -0.6823 -1.5226
 3522SOL    HW222200   0.009   4.461   6.024 -1.9823  2.6652  0.5276
 3523SOL     OW22201   4.580   1.800   7.566 -0.1238  0.1036 -0.2622
 3523SOL    HW122202   4.568   1.738   7.494 -2.3468 -1.4908  1.4929
 3523SOL    HW222203   4.673   1.813   7.550 -0.3533 -0.7185 -2.3488
 3524SOL     OW22204   3.059   3.059   5.260 -0.4239 -0.5193 -0.2809
 3524SOL    HW122205   3.085   3.149   5.237 -0.4854 -0.5955 -0.6460
 3524SOL    HW222206   2.972   3.050   5.220  1.4020 -2.2121 -3.8821
 3525SOL     OW22207   3.081   4.483  16.202  0.0463 -0.0934 -0.6204
 3525SOL    HW122208   3.155   4.543  16.191  1.0743 -1.1178  0.6462
 3525SOL    HW222209   3.017   4.516  16.265 -0.3933  1.8179 -2.0757
 3526SOL     OW22210   2.138   1.267   6.747 -0.0776  0.9226 -0.2003
 3526SOL    HW122211   2.066   1.288   6.806 -0.9086  0.4990 -1.0538
 3526SOL    HW222212   2.097   1.273   6.660 -1.4691  0.2330  0.4254
 3527SOL     OW22213   0.493   2.198   7.427 -0.3698 -0.2313  0.5459
 3527SOL    HW122214   0.402   2.198   7.398  0.6983 -2.6558 -2.8462
 3527SOL    HW222215   0.537   2.158   7.352 -0.0176 -0.1112  0.6859
 3528SOL     OW22216   0.093   2.630   3.490 -0.2978 -0.7088 -0.0568
 3528SOL    HW122217   0.105   2.535   3.490  2.7766 -0.3328 -0.0576
 3528SOL    HW222218   0.051   2.655   3.572  0.1643  2.5528 -0.8064
 3529SOL     OW22219   3.869   4.379   5.884 -0.1350 -0.0139 -0.2891
 3529SOL    HW122220   3.887   4.381   5.790  2.6809  0.1830  0.2517
 3529SOL    HW222221   3.914   4.299   5.908 -0.2439  0.2700  0.8433
 3530SOL     OW22222   3.543   2.736   3.870  0.3236  0.4162  0.1462
 3530SOL    HW122223   3.605   2.665   3.853  2.2832  2.0848  0.2397
 3530SOL    HW222224   3.531   2.756   3.777  0.8732  2.0032  0.4172
 3531SOL     OW22225   3.517   4.297   6.523 -0.6154  0.5170 -0.7599
 3531SOL    HW122226   3.589   4.359   6.537  0.3258 -0.7397 -0.0427
 3531SOL    HW222227   3.459   4.333   6.456 -3.6074  0.9468  2.0789
 3532SOL     OW22228   2.979   3.876  16.513 -0.0330 -0.1885 -0.4625
 3532SOL    HW122229   3.022   3.921  16.441 -1.1522  1.7056  0.0645
 3532SOL    HW222230   2.979   3.941  16.583  2.2710 -0.0876 -0.5594
 3533SOL     OW22231   2.652   1.621   5.621 -0.6829 -0.2442 -0.4883
 3533SOL    HW122232   2.720   1.662   5.567  0.4628 -2.5268 -0.7749
 3533SOL    HW222233   2.586   1.593   5.558 -2.8500  3.2994  0.2698
 3534SOL     OW22234   4.225   2.848   4.699  0.3692 -0.1828  0.7014
 3534SOL    HW122235   4.275   2.823   4.777 -0.3739  3.0729  2.2055
 3534SOL    HW222236   4.300   2.835   4.641  1.1321 -0.5040  1.7667
 3535SOL     OW22237   3.657   2.228   6.562 -0.2844 -0.0089 -0.4817
 3535SOL    HW122238   3.602   2.242   6.639  0.7770  0.2165  0.2476
 3535SOL    HW222239   3.669   2.321   6.544  0.6298 -0.2356 -1.0427
 3536SOL     OW22240   3.131   2.304  17.329 -0.2955  0.1980  0.3510
 3536SOL    HW122241   3.169   2.390  17.315  0.7871 -0.4873 -0.8842
 3536SOL    HW222242   3.138   2.264  17.242 -2.6451 -0.7638  0.6056
 3537SOL     OW22243   2.958   3.074   9.034  0.7107  0.3278  0.5245
 3537SOL    HW122244   3.032   3.121   9.072  0.0776  1.3445  0.4988
 3537SOL    HW222245   2.983   2.982   9.045  0.6369 -0.0444 -2.2520
 3538SOL     OW22246   1.080   3.632  13.076  0.5324 -0.3340 -0.3279
 3538SOL    HW122247   1.019   3.568  13.113 -1.2111  1.8378  0.5944
 3538SOL    HW222248   1.012   3.676  13.023  0.4139 -1.2514 -0.9403
 3539SOL     OW22249   0.267   3.252   4.353 -0.3477  0.2821 -0.3494
 3539SOL    HW122250   0.203   3.236   4.422  1.2373 -0.1002  1.0161
 3539SOL    HW222251   0.274   3.347   4.345 -2.3164  0.3515 -1.2279
 3540SOL     OW22252   1.978   4.374  16.646  0.0404  0.3802  0.0072
 3540SOL    HW122253   2.047   4.308  16.648  0.8087  1.1715 -0.1941
 3540SOL    HW222254   2.023   4.435  16.704  3.1010 -1.6848 -0.1797
 3541SOL     OW22255   3.649   1.580  15.942  0.0103  0.3438 -0.3851
 3541SOL    HW122256   3.611   1.634  16.012 -0.6309 -0.1281 -0.3610
 3541SOL    HW222257   3.737   1.614  15.928 -0.2084 -0.1204 -2.9429
 3542SOL     OW22258   4.501   1.873   1.266 -0.0091  0.5646 -0.3377
 3542SOL    HW122259   4.533   1.783   1.273 -0.0040  0.6623  0.8796
 3542SOL    HW222260   4.435   1.875   1.335  0.6311  1.1080  0.2609
 3543SOL     OW22261   0.978   1.721   4.002  0.3070 -0.0610  0.6744
 3543SOL    HW122262   0.974   1.788   4.071 -0.3337 -0.1527  0.7272
 3543SOL    HW222263   0.889   1.704   3.970  0.0943  0.1884  1.1367
 3544SOL     OW22264   0.731   3.368   8.833 -0.3909  0.0901 -0.3387
 3544SOL    HW122265   0.715   3.313   8.910  0.7835  0.6189  0.2801
 3544SOL    HW222266   0.824   3.358   8.814 -0.0574 -1.0054  1.8217
 3545SOL     OW22267   3.331   3.570  13.146  0.3517  0.0439  0.0277
 3545SOL    HW122268   3.284   3.530  13.073  1.4330 -0.2946 -0.4978
 3545SOL    HW222269   3.269   3.609  13.207 -0.1064 -0.1200 -0.3309
 3546SOL     OW22270   2.410   2.567  12.803  0.5137 -0.1197 -0.0928
 3546SOL    HW122271   2.373   2.533  12.884  2.3835 -0.5164  0.5978
 3546SOL    HW222272   2.345   2.534  12.741  2.7599 -0.7252 -2.1420
 3547SOL     OW22273   4.718   4.061   1.605  0.2855 -0.6230  0.0268
 3547SOL    HW122274   0.054   4.094   1.657  1.0303 -1.1571 -0.6802
 3547SOL    HW222275   0.006   3.970   1.588  0.7282 -0.8337  1.7840
 3548SOL     OW22276   4.614   3.611   8.013 -0.1507 -0.5099  0.3342
 3548SOL    HW122277   4.550   3.658   7.960  1.4352  1.6770  0.3762
 3548SOL    HW222278   4.689   3.669   8.001 -0.1049 -0.0759  2.7092
 3549SOL     OW22279   4.392   1.442   5.011  0.0876 -0.1014 -0.2483
 3549SOL    HW122280   4.367   1.360   5.053  1.4058 -0.9602 -1.1457
 3549SOL    HW222281   4.478   1.453   5.051 -0.0378 -0.0715  0.0139
 3550SOL     OW22282   2.384   3.985   9.086  0.6661 -0.0471  0.0440
 3550SOL    HW122283   2.471   3.972   9.047  1.0478 -0.0798  0.9053
 3550SOL    HW222284   2.336   3.906   9.064 -0.2178  0.5580 -0.2051
 3551SOL     OW22285   1.194   0.636   8.670  0.4070 -0.7134  0.3452
 3551SOL    HW122286   1.209   0.661   8.761  0.8115 -1.5216  0.4996
 3551SOL    HW222287   1.277   0.600   8.638  0.2737 -1.5773  0.9582
 3552SOL     OW22288   0.615   0.443   1.788 -0.8585  0.2827 -0.1500
 3552SOL    HW122289   0.610   0.420   1.695 -0.2107 -2.2192  0.4292
 3552SOL    HW222290   0.674   0.518   1.776 -0.5492 -0.1216 -1.2358
 3553SOL     OW22291   2.154   3.473   4.881  0.5029  0.1425  0.3441
 3553SOL    HW122292   2.138   3.429   4.964  0.1375  1.0021  0.7254
 3553SOL    HW222293   2.069   3.507   4.850  0.7373  1.7372  1.4951
 3554SOL     OW22294   1.222   3.559   0.938 -0.1064  0.0590  0.4012
 3554SOL    HW122295   1.275   3.481   0.956 -0.6099  0.4220  3.4952
 3554SOL    HW222296   1.254   3.589   0.853 -0.0104  0.3570  0.5426
 3555SOL     OW22297   2.628   1.378   5.142  0.3319  0.9565 -0.2282
 3555SOL    HW122298   2.604   1.297   5.187  2.2061  0.2940 -0.4244
 3555SOL    HW222299   2.600   1.359   5.052  3.6278  0.7598 -1.2246
 3556SOL     OW22300   4.540   0.148   6.650  0.3027 -0.2484  0.5590
 3556SOL    HW122301   4.483   0.088   6.603 -1.5337  3.0484 -1.4293
 3556SOL    HW222302   4.494   0.163   6.732  0.9975 -1.0565  1.0994
 3557SOL     OW22303   2.313   3.253  10.772  0.1057 -0.2533 -0.8608
 3557SOL    HW122304   2.382   3.318  10.788 -1.1807  0.8970 -0.0074
 3557SOL    HW222305   2.265   3.294  10.700 -1.3216 -2.3997 -1.1300
 3558SOL     OW22306   2.469   3.642   9.850  0.2437  0.6699  1.1299
 3558SOL    HW122307   2.460   3.658   9.756 -0.7140 -1.4553  0.8496
 3558SOL    HW222308   2.392   3.687   9.885 -0.6323  0.0264  0.0208
 3559SOL     OW22309   2.717   4.543   8.987 -0.3847  0.4881  0.4178
 3559SOL    HW122310   2.678   4.537   8.899 -2.0112 -0.0926  1.1760
 3559SOL    HW222311   2.776   4.469   8.997 -0.2586  0.4769 -0.3528
 3560SOL     OW22312   3.205   0.078   6.592 -0.1159 -0.2793 -0.2356
 3560SOL    HW122313   3.192   0.035   6.507 -2.6380  0.1047 -0.0442
 3560SOL    HW222314   3.162   0.162   6.580 -0.4689 -0.1121  2.1688
 3561SOL     OW22315   1.473   0.613   8.929 -0.1733 -0.2926  0.6981
 3561SOL    HW122316   1.499   0.538   8.875  0.1695  0.1204  0.3037
 3561SOL    HW222317   1.377   0.610   8.930 -0.2828  3.4974 -0.5919
 3562SOL     OW22318   0.061   0.509  14.102 -0.3937  0.1408  0.0970
 3562SOL    HW122319   0.067   0.466  14.016  0.7459 -1.2366  0.8502
 3562SOL    HW222320   4.708   0.539  14.102  0.0404  1.4668  0.3548
 3563SOL     OW22321   2.718   3.759   3.590  0.1377 -0.5630  0.1731
 3563SOL    HW122322   2.714   3.676   3.637  1.8897 -0.6364  0.1854
 3563SOL    HW222323   2.756   3.818   3.656  0.2496 -0.0881 -0.3180
 3564SOL     OW22324   0.665   4.737   7.082  0.0474  1.0937  0.1547
 3564SOL    HW122325   0.610   4.716   7.007 -0.3643  3.1128 -0.0959
 3564SOL    HW222326   0.604   0.016   7.154  0.0247  1.3524  0.0763
 3565SOL     OW22327   0.164   1.933   7.884  0.0991  0.0722 -0.1435
 3565SOL    HW122328   0.256   1.934   7.858  1.0860  0.6984  3.4131
 3565SOL    HW222329   0.131   1.852   7.844  1.4321 -0.5225 -0.0539
 3566SOL     OW22330   4.600   4.192   3.369  0.6792 -0.2462 -0.2083
 3566SOL    HW122331   4.520   4.237   3.344  0.8772 -0.3414 -1.0074
 3566SOL    HW222332   4.580   4.106   3.332 -1.7223  0.9118 -1.5341
 3567SOL     OW22333   1.906   2.871  12.765 -0.5289 -0.6539  0.0503
 3567SOL    HW122334   1.924   2.798  12.825 -1.3838 -1.4877 -0.7162
 3567SOL    HW222335   1.843   2.921  12.816 -0.2950  1.4282 -1.7288
 3568SOL     OW22336   4.304   4.008  11.831  0.6466 -0.5362 -0.3778
 3568SOL    HW122337   4.256   4.028  11.751  0.1668 -0.7050 -0.1336
 3568SOL    HW222338   4.390   4.022  11.792 -0.4544  0.6092 -2.3331
 3569SOL     OW22339   3.999   1.840   5.197 -0.0091 -0.1215 -0.0268
 3569SOL    HW122340   3.966   1.901   5.264  1.7254  0.3087  0.4238
 3569SOL    HW222341   4.015   1.888   5.116  0.0190 -1.3769 -0.7595
 3570SOL     OW22342   4.419   3.997   5.635  0.1723  0.0566 -0.6515
 3570SOL    HW122343   4.510   3.973   5.652 -0.1728 -0.3369  0.5997
 3570SOL    HW222344   4.428   4.075   5.580 -0.0286 -0.1902 -1.0341
 3571SOL     OW22345   0.295   3.552   5.397 -0.5340 -0.4654  0.3876
 3571SOL    HW122346   0.248   3.604   5.332 -0.7801  0.0885  1.0045
 3571SOL    HW222347   0.259   3.466   5.377  0.2740 -0.2519 -1.8933
 3572SOL     OW22348   1.785   2.107  13.304 -0.4275 -0.3219  0.0140
 3572SOL    HW122349   1.864   2.154  13.332 -0.2227  0.2847 -1.5551
 3572SOL    HW222350   1.811   2.019  13.330 -2.5601 -1.2281 -1.0090
 3573SOL     OW22351   4.494   1.925   6.215 -0.3297 -0.1136  0.5488
 3573SOL    HW122352   4.486   2.017   6.189  1.1797 -0.2008 -0.2565
 3573SOL    HW222353   4.578   1.894   6.181 -0.0028 -0.6917  1.8960
 3574SOL     OW22354   1.948   3.803   4.007 -0.4093 -0.2637  0.6323
 3574SOL    HW122355   2.004   3.817   3.931  0.6065 -1.4342  1.1703
 3574SOL    HW222356   1.990   3.727   4.047  2.5939  1.1596  0.1803
 3575SOL     OW22357   0.215   2.411  12.139 -0.6890  0.0150 -0.1957
 3575SOL    HW122358   0.164   2.368  12.071 -0.8578  0.4745 -0.3589
 3575SOL    HW222359   0.150   2.411  12.211  0.5842  1.2883  0.9629
 3576SOL     OW22360   0.407   1.481   0.367  0.3236  0.0306 -0.2875
 3576SOL    HW122361   0.377   1.458   0.455  1.7441  3.1920  1.0290
 3576SOL    HW222362   0.462   1.407   0.343 -1.4165 -1.5197  0.5312
 3577SOL     OW22363   1.127   0.092  11.198 -0.7451 -0.5731 -0.3258
 3577SOL    HW122364   1.215   0.132  11.200 -0.9847 -0.1171  0.8124
 3577SOL    HW222365   1.076   0.125  11.271 -1.3215 -2.3097  0.0475
 3578SOL     OW22366   1.955   2.981  12.366 -0.4802  0.0738  0.5682
 3578SOL    HW122367   1.941   2.914  12.299 -0.7128 -0.9354  1.6261
 3578SOL    HW222368   1.946   3.063  12.316  0.7417  1.2129  2.2353
 3579SOL     OW22369   0.606   2.652   6.485 -0.7492  0.5349  0.0091
 3579SOL    HW122370   0.672   2.677   6.421  0.7575  2.8049  2.4747
 3579SOL    HW222371   0.657   2.599   6.546 -0.2666  1.9133  0.7888
 3580SOL     OW22372   3.793   3.677   8.814 -0.2909 -0.2441  0.6304
 3580SOL    HW122373   3.761   3.653   8.727  1.4307 -3.5622  0.9313
 3580SOL    HW222374   3.853   3.749   8.794  1.7777 -1.7721  1.2442
 3581SOL     OW22375   3.367   4.029  12.148  0.0199 -0.2794 -0.4696
 3581SOL    HW122376   3.458   4.052  12.130 -0.2792  0.0497 -1.5294
 3581SOL    HW222377   3.371   4.009  12.242  0.2226 -0.9617 -0.6282
 3582SOL     OW22378   0.107   1.678   2.057  0.2862 -0.2333 -0.1806
 3582SOL    HW122379   0.061   1.761   2.057  0.2442 -0.2570 -0.6637
 3582SOL    HW222380   0.051   1.618   2.107  0.1055  0.0507 -0.0424
 3583SOL     OW22381   1.671   4.560   7.699 -0.2017 -0.1528 -0.2490
 3583SOL    HW122382   1.726   4.579   7.774 -1.7536 -0.1654  0.8846
 3583SOL    HW222383   1.639   4.646   7.672  1.0901  0.8746  1.5330
 3584SOL     OW22384   1.913   0.384   2.418  0.0213  0.1415  0.1502
 3584SOL    HW122385   1.893   0.386   2.324 -1.5932 -3.2238  0.4309
 3584SOL    HW222386   1.928   0.477   2.436  0.8025 -0.3872  2.1546
 3585SOL     OW22387   2.044   4.070   2.919  0.1889  0.0011  0.1351
 3585SOL    HW122388   2.089   4.024   2.847  2.7331  3.8044 -0.7401
 3585SOL    HW222389   1.958   4.029   2.927  0.7306 -0.5297  3.1996
 3586SOL     OW22390   1.699   1.677  16.334 -0.2267 -0.3114 -0.0401
 3586SOL    HW122391   1.716   1.723  16.417  0.2171 -0.6871  0.0811
 3586SOL    HW222392   1.754   1.733  16.280  0.0982  0.5654  1.1818
 3587SOL     OW22393   0.931   1.564  13.130 -0.3801 -0.0389  0.6886
 3587SOL    HW122394   0.914   1.501  13.060  1.3668 -1.5044  1.5775
 3587SOL    HW222395   0.942   1.645  13.081 -0.0330  1.6139  3.4820
 3588SOL     OW22396   3.964   4.422   0.472  0.6620 -1.0125  0.0907
 3588SOL    HW122397   3.903   4.350   0.452  3.5956 -2.6909 -2.7641
 3588SOL    HW222398   4.002   4.384   0.552 -0.8684 -2.7613 -0.0068
 3589SOL     OW22399   0.462   4.343   0.426  0.1000 -0.3710  0.1599
 3589SOL    HW122400   0.491   4.296   0.348 -0.3646  0.8655 -0.7581
 3589SOL    HW222401   0.545   4.349   0.472 -0.2473  1.2711  0.5744
 3590SOL     OW22402   1.893   2.090   8.639 -0.3076  0.1422  0.4349
 3590SOL    HW122403   1.898   2.040   8.721  2.3152  0.9413  0.7527
 3590SOL    HW222404   1.932   2.171   8.671 -1.3829  0.4529  0.9669
 3591SOL     OW22405   3.791   3.175   2.970 -0.0509 -0.4619 -0.1814
 3591SOL    HW122406   3.767   3.259   2.932 -0.5227  0.8943  3.1248
 3591SOL    HW222407   3.853   3.136   2.908  0.7286  1.7644 -0.8181
 3592SOL     OW22408   0.195   2.916   4.321  0.0923  0.7582  0.0390
 3592SOL    HW122409   0.112   2.924   4.368 -0.0006  0.9177 -0.1493
 3592SOL    HW222410   0.225   2.834   4.360  0.2357  1.0918  0.6289
 3593SOL     OW22411   1.358   0.811   2.130  0.3568 -0.4806 -0.5679
 3593SOL    HW122412   1.443   0.767   2.140  1.6345  2.5921  1.8202
 3593SOL    HW222413   1.348   0.855   2.214 -3.4268  2.1745 -2.4359
 3594SOL     OW22414   1.818   1.574   6.420  0.6804 -0.0774  0.0560
 3594SOL    HW122415   1.783   1.487   6.401  1.2393  0.2351 -2.3429
 3594SOL    HW222416   1.789   1.628   6.347  0.8686 -1.4925 -1.0703
 3595SOL     OW22417   2.792   1.539   0.236  0.6637  0.2877  0.4392
 3595SOL    HW122418   2.850   1.519   0.162  1.0729  1.1892  0.5175
 3595SOL    HW222419   2.710   1.568   0.195  0.3995  0.1869  0.8996
 3596SOL     OW22420   4.202   3.375  10.202  0.1754 -0.2026 -0.3751
 3596SOL    HW122421   4.167   3.463  10.214  2.4476  0.4451  1.2899
 3596SOL    HW222422   4.289   3.395  10.169  0.8000 -1.7808  0.3185
 3597SOL     OW22423   2.359   0.289  15.874  0.0713 -0.1236 -0.4959
 3597SOL    HW122424   2.424   0.235  15.918 -0.3153 -0.5406 -0.4356
 3597SOL    HW222425   2.372   0.253  15.787 -0.7104 -1.0883 -0.2084
 3598SOL     OW22426   0.711   0.053   8.947 -0.3727  0.0941 -0.1457
 3598SOL    HW122427   0.757   4.727   9.003  1.5836 -0.6717 -2.6572
 3598SOL    HW222428   0.648   4.726   8.915 -1.8591  1.7569 -0.5363
 3599SOL     OW22429   1.871   2.815   6.833  0.4294 -0.6308 -0.5688
 3599SOL    HW122430   1.966   2.819   6.836  0.4336 -2.0029  0.8608
 3599SOL    HW222431   1.853   2.897   6.787 -1.0855  0.8062  2.5604
 3600SOL     OW22432   3.297   1.374   9.272  0.1052 -0.6785  0.0501
 3600SOL    HW122433   3.259   1.302   9.322  2.5310 -0.9763  1.5177
 3600SOL    HW222434   3.220   1.425   9.248 -0.6874 -1.5808  0.7233
 3601SOL     OW22435   3.093   2.655   6.736 -0.0565  0.0944  0.2414
 3601SOL    HW122436   3.115   2.658   6.643 -1.1312 -0.2731 -0.0314
 3601SOL    HW222437   3.173   2.626   6.779 -1.1806 -2.4561  0.6231
 3602SOL     OW22438   3.923   3.909   0.489  0.3347  0.0264  1.0779
 3602SOL    HW122439   3.948   3.952   0.408 -2.2526  1.2454  0.9483
 3602SOL    HW222440   3.890   3.831   0.444 -1.5656  0.7024  1.3112
 3603SOL     OW22441   3.629   0.538   1.948 -0.4501 -0.5150  0.1170
 3603SOL    HW122442   3.625   0.506   2.038  1.1088 -1.9255 -0.3085
 3603SOL    HW222443   3.540   0.573   1.940  0.3119  1.3463 -0.2597
 3604SOL     OW22444   0.790   0.141  14.915 -0.2931  0.2613  0.4706
 3604SOL    HW122445   0.850   0.142  14.989 -1.4889 -0.7301  1.4595
 3604SOL    HW222446   0.707   0.110  14.952  0.9960  1.5720  4.4278
 3605SOL     OW22447   1.720   3.879   5.929 -0.4686  0.0859  0.0775
 3605SOL    HW122448   1.802   3.920   5.955 -0.3922 -0.4157  0.6221
 3605SOL    HW222449   1.761   3.792   5.932 -1.3033 -0.2843  0.6263
 3606SOL     OW22450   2.836   1.780   2.185  0.3901  0.1386  0.7489
 3606SOL    HW122451   2.915   1.727   2.198  0.2428 -0.7092 -1.9650
 3606SOL    HW222452   2.872   1.867   2.202  1.9566 -0.3547  0.0482
 3607SOL     OW22453   4.619   2.338   8.038 -0.8232 -0.2029  0.2759
 3607SOL    HW122454   4.663   2.276   7.980 -1.6858 -2.3268  1.8939
 3607SOL    HW222455   4.686   2.403   8.057 -1.3579  0.7396 -0.9897
 3608SOL     OW22456   0.359   4.429   1.191 -0.2285 -0.7049  0.4975
 3608SOL    HW122457   0.442   4.465   1.223 -0.7003 -0.5489  1.5451
 3608SOL    HW222458   0.305   4.509   1.194 -1.2743 -1.4646  1.9311
 3609SOL     OW22459   3.501   3.873   6.045  0.8704 -0.6409  0.0507
 3609SOL    HW122460   3.453   3.954   6.062  0.8216 -0.3931 -1.2552
 3609SOL    HW222461   3.552   3.906   5.971 -1.4841 -1.2182 -1.8240
 3610SOL     OW22462   2.323   3.683   1.673  0.1946  0.3391  0.3945
 3610SOL    HW122463   2.376   3.612   1.636 -0.0496  0.9651 -1.1884
 3610SOL    HW222464   2.393   3.742   1.701  0.0273  0.7195  0.0146
 3611SOL     OW22465   0.876   2.056   4.679  0.0718 -0.0205  0.8845
 3611SOL    HW122466   0.879   2.101   4.595 -0.5418  3.1766  2.5858
 3611SOL    HW222467   0.948   1.994   4.667  0.5346  0.8648 -0.8799
 3612SOL     OW22468   2.419   4.025   9.450 -0.0793 -0.1747 -0.3799
 3612SOL    HW122469   2.369   4.061   9.377 -2.0220  0.6457  1.3557
 3612SOL    HW222470   2.365   4.054   9.523  0.2636 -0.2065 -0.1179
 3613SOL     OW22471   1.925   3.316   0.019  0.0151 -0.1773 -0.6644
 3613SOL    HW122472   1.940   3.366  17.686 -2.6392  0.8254 -0.5242
 3613SOL    HW222473   1.981   3.239   0.005  0.2660 -0.4647  1.9196
 3614SOL     OW22474   3.737   1.475   7.530 -0.1286  0.6199 -0.0491
 3614SOL    HW122475   3.809   1.413   7.545 -0.4299  0.0403 -0.9616
 3614SOL    HW222476   3.782   1.557   7.549  1.5692 -0.1732 -0.5882
 3615SOL     OW22477   1.357   3.297   5.012  0.5992  0.3142  0.3131
 3615SOL    HW122478   1.444   3.298   5.051  0.6906 -1.0691  0.1649
 3615SOL    HW222479   1.348   3.373   4.956 -2.1605 -0.8889 -0.8764
 3616SOL     OW22480   4.681   4.498   8.221 -0.0096  0.0035  0.3346
 3616SOL    HW122481   0.015   4.558   8.203 -0.3295  0.7775  1.6805
 3616SOL    HW222482   4.600   4.540   8.193  0.4575  1.5632  1.3746
 3617SOL     OW22483   2.928   3.704   4.477 -0.4620  0.5832 -0.1397
 3617SOL    HW122484   2.885   3.783   4.446  0.1791  1.7628  2.0485
 3617SOL    HW222485   2.994   3.751   4.528  0.0186  0.0984 -0.3094
 3618SOL     OW22486   0.944   0.023   1.706 -0.1944  0.5770  0.2683
 3618SOL    HW122487   1.003   0.098   1.700 -2.3279  2.0445 -2.4184
 3618SOL    HW222488   0.859   0.066   1.718 -0.0171  0.1131  3.1464
 3619SOL     OW22489   4.228   3.604  15.922  0.0602 -0.6887  0.0751
 3619SOL    HW122490   4.296   3.630  15.985 -0.5398  0.7580  0.1070
 3619SOL    HW222491   4.180   3.536  15.971  0.2925 -1.1613 -0.3475
 3620SOL     OW22492   0.179   3.129   3.435 -0.5141  0.0799  0.3286
 3620SOL    HW122493   0.213   3.043   3.458  1.4252  0.6062 -0.6114
 3620SOL    HW222494   0.180   3.174   3.519  0.5340 -1.1397  0.9504
 3621SOL     OW22495   0.543   1.743   0.248  0.3715  0.0056 -0.2877
 3621SOL    HW122496   0.483   1.806   0.288 -0.3206 -2.1716  2.1528
 3621SOL    HW222497   0.479   1.692   0.198 -0.1162 -0.7371  1.0822
 3622SOL     OW22498   3.689   3.884  17.495  0.3060  0.0810 -0.3369
 3622SOL    HW122499   3.765   3.905  17.440  2.5342 -2.5141  1.7487
 3622SOL    HW222500   3.716   3.808  17.546 -1.3647 -0.5157 -0.3486
 3623SOL     OW22501   0.421   0.544   7.368 -1.2350 -0.1149  0.1438
 3623SOL    HW122502   0.377   0.582   7.444 -0.7684 -0.4820  0.5948
 3623SOL    HW222503   0.370   0.463   7.365  1.3671 -1.7149 -1.0462
 3624SOL     OW22504   3.980   0.019   1.519  0.2059 -0.1530  0.3748
 3624SOL    HW122505   3.966   0.110   1.545 -1.7614 -0.0031 -1.1634
 3624SOL    HW222506   4.004   4.719   1.604 -1.5675 -0.7312  0.6317
 3625SOL     OW22507   0.016   3.329   2.253  0.0449  1.0142 -0.3872
 3625SOL    HW122508   4.671   3.311   2.207 -1.2068  0.1855  2.1758
 3625SOL    HW222509   0.079   3.294   2.190  0.1545 -1.3772  1.0256
 3626SOL     OW22510   0.244   0.502   7.993 -0.1882 -0.4301 -0.2192
 3626SOL    HW122511   0.175   0.488   7.929  0.2383 -1.3716 -0.4821
 3626SOL    HW222512   0.312   0.460   7.939  1.3519  1.3271  0.3490
 3627SOL     OW22513   0.992   3.709   0.294  0.0908  0.0105 -0.1145
 3627SOL    HW122514   1.076   3.708   0.341 -0.4361  2.0993  0.8854
 3627SOL    HW222515   0.974   3.803   0.301 -0.1460 -0.0633  0.2685
 3628SOL     OW22516   0.743   1.330  13.646 -0.6057 -0.1429 -0.5557
 3628SOL    HW122517   0.741   1.319  13.741  1.2776 -1.2473 -0.6485
 3628SOL    HW222518   0.717   1.422  13.645 -1.9617 -0.5275  0.1537
 3629SOL     OW22519   2.047   4.263   7.864 -0.2915 -0.0151 -0.1617
 3629SOL    HW122520   2.005   4.214   7.934 -1.1569  1.0493  0.0659
 3629SOL    HW222521   1.994   4.222   7.795  2.2685 -2.8185 -0.4891
 3630SOL     OW22522   0.689   1.399   4.080  0.3462  0.5938 -0.2968
 3630SOL    HW122523   0.663   1.318   4.037 -0.8763 -0.5046  2.5025
 3630SOL    HW222524   0.777   1.377   4.112  1.0469  0.8063 -2.1014
 3631SOL     OW22525   2.037   3.047   6.295 -0.1186 -0.1395 -0.3296
 3631SOL    HW122526   1.969   2.983   6.315 -0.5243  0.4345  0.1159
 3631SOL    HW222527   2.035   3.051   6.199 -1.2444  1.8495 -0.2006
 3632SOL     OW22528   4.134   0.389   4.696 -0.9479  0.1046  0.2820
 3632SOL    HW122529   4.167   0.428   4.777  1.6957 -0.5947 -0.4698
 3632SOL    HW222530   4.040   0.383   4.715 -1.2836  3.9287 -0.1958
 3633SOL     OW22531   0.474   1.581  14.927 -0.3002 -0.0981 -0.0458
 3633SOL    HW122532   0.551   1.614  14.973 -0.8809 -1.3846  1.8182
 3633SOL    HW222533   0.506   1.494  14.901  1.1383  0.7330 -1.0561
 3634SOL     OW22534   1.140   0.955   5.772 -0.6572 -0.8371  0.1745
 3634SOL    HW122535   1.225   0.936   5.733 -0.9326 -1.4547 -0.1255
 3634SOL    HW222536   1.097   0.984   5.692 -2.1612 -0.4811  1.1062
 3635SOL     OW22537   2.750   3.142  12.954  0.3877 -0.1278 -0.1843
 3635SOL    HW122538   2.767   3.062  12.903  0.8190 -0.2250  0.1121
 3635SOL    HW222539   2.660   3.130  12.984 -0.3724  1.1338 -1.9290
 3636SOL     OW22540   2.178   3.435   0.122 -0.1683  0.1280 -0.2493
 3636SOL    HW122541   2.098   3.394   0.153 -0.8243  1.5254 -0.1070
 3636SOL    HW222542   2.160   3.464   0.033  0.6495 -0.2170 -0.5385
 3637SOL     OW22543   0.484   4.018   6.547  0.3193 -0.5673  0.0115
 3637SOL    HW122544   0.436   3.957   6.491 -0.3673  3.7281 -4.0937
 3637SOL    HW222545   0.412   4.077   6.568 -1.0069 -1.9598 -0.5882
 3638SOL     OW22546   0.971   3.393   9.061  0.9893  0.1022 -0.9094
 3638SOL    HW122547   0.932   3.473   9.097  0.2240 -0.8397  0.3736
 3638SOL    HW222548   1.048   3.427   9.015 -0.3042  1.2789 -2.1898
 3639SOL     OW22549   1.330   3.823   2.516  0.2921 -0.2350 -0.3921
 3639SOL    HW122550   1.308   3.894   2.456 -0.3463 -0.1937 -0.1008
 3639SOL    HW222551   1.316   3.751   2.454  0.1853 -0.3052 -0.2857
 3640SOL     OW22552   0.005   4.111   7.158 -0.1390  0.4273  0.0083
 3640SOL    HW122553   4.705   4.092   7.072  3.6509  0.8844 -1.7411
 3640SOL    HW222554   0.088   4.062   7.157 -0.5741 -0.3238  0.3193
 3641SOL     OW22555   4.648   0.877   5.930  0.1855  0.2570  0.1920
 3641SOL    HW122556   4.698   0.813   5.880 -0.6845 -1.5511  1.6071
 3641SOL    HW222557   4.708   0.914   5.996  0.0302  1.4558 -0.3530
 3642SOL     OW22558   4.365   3.124   7.712  1.0969  0.4584  0.3520
 3642SOL    HW122559   4.291   3.181   7.732 -0.0478 -1.0433  0.3827
 3642SOL    HW222560   4.428   3.173   7.765  0.7693 -2.1077  3.1244
 3643SOL     OW22561   0.301   3.407   3.544  0.0578  0.1792 -0.1719
 3643SOL    HW122562   0.282   3.429   3.453  1.1468  0.4482 -0.3306
 3643SOL    HW222563   0.247   3.476   3.583  1.9448  0.7831  1.3637
 3644SOL     OW22564   1.832   4.604  10.606  0.0624 -0.2776 -0.0575
 3644SOL    HW122565   1.898   4.618  10.674  0.8533  0.3007 -0.9473
 3644SOL    HW222566   1.798   4.519  10.632 -2.3459  0.6724 -0.1563
 3645SOL     OW22567   4.566   0.092   6.038  0.1641 -0.5774 -0.6083
 3645SOL    HW122568   4.588   0.162   5.976 -1.1562  0.5342  0.1801
 3645SOL    HW222569   4.492   0.136   6.080  1.5140  0.3854  0.7662
 3646SOL     OW22570   2.265   2.213  15.831  0.0202  0.5104  0.2053
 3646SOL    HW122571   2.339   2.242  15.778  0.2120  0.4296  0.4316
 3646SOL    HW222572   2.283   2.125  15.863 -3.4065 -0.8567 -1.6199
 3647SOL     OW22573   2.784   1.519   6.908  0.1492 -0.0306 -0.1320
 3647SOL    HW122574   2.817   1.528   6.819  0.7758 -0.5989  0.0452
 3647SOL    HW222575   2.816   1.597   6.955 -0.7318  1.0311 -1.2737
 3648SOL     OW22576   4.539   0.849  10.652  0.1843 -0.4881 -0.2427
 3648SOL    HW122577   4.506   0.908  10.719  1.1341  0.1252 -0.3197
 3648SOL    HW222578   4.463   0.802  10.618  1.1981 -1.8463 -0.6301
 3649SOL     OW22579   2.003   2.146   2.820 -0.4851  0.0830  0.3975
 3649SOL    HW122580   1.941   2.075   2.805  0.0953 -0.6508  1.4652
 3649SOL    HW222581   2.080   2.089   2.829 -1.1310 -0.9113 -0.3095
 3650SOL     OW22582   3.424   4.295   8.573  0.3317  0.5569 -0.1154
 3650SOL    HW122583   3.342   4.314   8.529 -0.3354  0.6001  1.1365
 3650SOL    HW222584   3.494   4.316   8.512 -0.3184 -0.6712 -1.2900
 3651SOL     OW22585   1.448   3.740  15.668  0.4386  0.2150  0.0094
 3651SOL    HW122586   1.435   3.794  15.590  2.0701  0.6191  0.0267
 3651SOL    HW222587   1.512   3.675  15.640 -0.0185  0.5874 -1.8855
 3652SOL     OW22588   0.106   1.523  17.618 -0.3020  0.6452  0.6895
 3652SOL    HW122589   0.166   1.450  17.631  0.4026  1.2784  0.9280
 3652SOL    HW222590   0.159   1.583  17.566 -1.3530 -0.6466 -1.8723
 3653SOL     OW22591   1.591   2.196  10.997 -0.2083 -0.2193 -0.0689
 3653SOL    HW122592   1.603   2.261  10.928  0.0402  0.5350  0.6712
 3653SOL    HW222593   1.579   2.262  11.066 -2.1763 -0.4117 -0.2484
 3654SOL     OW22594   2.882   2.563   4.105 -0.3540  0.2712 -0.5646
 3654SOL    HW122595   2.845   2.474   4.105 -1.8229  0.8911  1.6590
 3654SOL    HW222596   2.973   2.543   4.084 -1.0124 -2.8480 -0.5900
 3655SOL     OW22597   1.766   1.399  17.409  0.4112 -0.5301 -0.4104
 3655SOL    HW122598   1.696   1.462  17.426 -0.4666 -1.2541 -1.3845
 3655SOL    HW222599   1.717   1.317  17.404  0.3495 -0.5813  1.1040
 3656SOL     OW22600   2.240   4.449   4.667 -0.5161  0.0262  0.4077
 3656SOL    HW122601   2.178   4.521   4.676 -1.8460 -0.9411 -0.9073
 3656SOL    HW222602   2.180   4.379   4.643 -0.4429 -0.0098  0.3266
 3657SOL     OW22603   1.950   0.659   5.013  0.2709  0.2240 -0.2031
 3657SOL    HW122604   1.900   0.613   5.080  1.7216 -2.0785 -0.7156
 3657SOL    HW222605   1.909   0.631   4.931  0.6198  2.2845 -1.0837
 3658SOL     OW22606   0.562   2.713   6.078 -0.8691  0.5581  0.1757
 3658SOL    HW122607   0.657   2.729   6.082 -0.6312 -1.2256  1.6768
 3658SOL    HW222608   0.552   2.735   5.986 -0.2728 -1.5492 -0.4008
 3659SOL     OW22609   0.635   3.359  10.925 -0.1845  0.4311 -0.8276
 3659SOL    HW122610   0.644   3.293  10.857  1.1476 -0.4243  0.1781
 3659SOL    HW222611   0.557   3.402  10.889 -3.2764 -0.9001  4.2934
 3660SOL     OW22612   0.606   4.661   5.282  0.1288  0.1588 -0.6432
 3660SOL    HW122613   0.634   0.015   5.288  0.1192  0.1175 -0.0327
 3660SOL    HW222614   0.669   4.637   5.350 -0.5565  0.7334  0.1918
 3661SOL     OW22615   2.781   1.228   5.830 -0.4235 -0.1961 -0.5981
 3661SOL    HW122616   2.845   1.157   5.833  0.3934  0.5749  0.4785
 3661SOL    HW222617   2.841   1.302   5.824  0.7080 -0.8518  2.7731
 3662SOL     OW22618   0.528   2.537   7.369 -0.1074  0.7738  0.4638
 3662SOL    HW122619   0.589   2.464   7.364  0.3765  1.4030 -2.4686
 3662SOL    HW222620   0.490   2.526   7.456 -0.9808  0.3865  0.0279
 3663SOL     OW22621   4.619   4.147   2.581 -0.0122 -0.3827 -0.0503
 3663SOL    HW122622   4.656   4.235   2.586  2.6732 -1.3526 -3.1176
 3663SOL    HW222623   4.527   4.168   2.565 -0.0847 -1.5022 -1.1140
 3664SOL     OW22624   0.676   2.722   8.360  0.4805 -0.1335  0.4543
 3664SOL    HW122625   0.700   2.811   8.333  0.1043 -0.0149  0.5132
 3664SOL    HW222626   0.586   2.735   8.389  1.0196  3.1558  0.6651
 3665SOL     OW22627   4.555   2.244  13.623  0.3180 -0.5677  0.1066
 3665SOL    HW122628   4.546   2.243  13.527  0.4488  1.5995  0.0664
 3665SOL    HW222629   4.609   2.166  13.633 -1.4146 -1.7623  0.1603
 3666SOL     OW22630   4.349   0.120   3.188 -0.2056  0.2328  0.1432
 3666SOL    HW122631   4.290   0.048   3.213 -0.6110  0.3353 -0.5262
 3666SOL    HW222632   4.415   0.103   3.255  1.9659  0.5217 -1.9309
 3667SOL     OW22633   3.486   3.300   5.992  0.0908  0.3694 -0.5725
 3667SOL    HW122634   3.540   3.265   6.064  0.2984  0.4864 -0.6721
 3667SOL    HW222635   3.440   3.362   6.048 -1.7600 -1.7753  0.2835
 3668SOL     OW22636   1.804   4.546   6.162  0.1693  0.4711  0.2742
 3668SOL    HW122637   1.891   4.510   6.150 -0.2402 -0.2008 -0.6496
 3668SOL    HW222638   1.775   4.555   6.071 -0.5578 -0.7006  0.3914
 3669SOL     OW22639   2.890   4.589   6.511 -0.1608 -0.1356 -0.0649
 3669SOL    HW122640   2.920   4.611   6.599 -1.5081  1.8920 -0.1029
 3669SOL    HW222641   2.849   4.504   6.526  0.4009 -0.4499 -0.3217
 3670SOL     OW22642   4.441   0.576   0.412  0.8764 -0.1324  0.2807
 3670SOL    HW122643   4.441   0.576   0.508 -1.0366 -0.6083  0.2885
 3670SOL    HW222644   4.532   0.550   0.399  0.5748 -1.6219  1.0901
 3671SOL     OW22645   3.211   2.317   9.037  0.4095  0.4375  0.3197
 3671SOL    HW122646   3.224   2.399   8.990  0.7149 -0.1641 -0.6415
 3671SOL    HW222647   3.152   2.270   8.978  1.0230 -0.2534  0.2568
 3672SOL     OW22648   0.490   3.088   9.342 -0.2051  0.4832 -0.3747
 3672SOL    HW122649   0.435   3.101   9.420 -0.0087  2.0136 -0.4922
 3672SOL    HW222650   0.465   2.996   9.340  1.8244 -0.1161  1.7841
 3673SOL     OW22651   2.287   2.911  14.170 -0.8385 -0.2985 -0.6946
 3673SOL    HW122652   2.286   2.951  14.083 -0.2903 -0.2472 -0.6762
 3673SOL    HW222653   2.239   2.831  14.146  0.1634 -0.4706 -2.1003
 3674SOL     OW22654   0.132   3.573   7.406 -0.2331  0.5802  0.0160
 3674SOL    HW122655   0.144   3.610   7.319  2.4978 -0.0815  0.0965
 3674SOL    HW222656   0.217   3.598   7.442 -0.4307 -0.1543  1.0283
 3675SOL     OW22657   4.684   4.597   1.719 -0.0678 -0.3750 -0.1866
 3675SOL    HW122658   4.718   4.540   1.651 -1.0026 -1.4421  0.2342
 3675SOL    HW222659   4.627   4.646   1.660  0.3737  3.2987  2.3876
 3676SOL     OW22660   1.017   0.033   6.268 -0.5616  0.0969 -0.1042
 3676SOL    HW122661   0.990   0.121   6.295  1.6186  1.3613 -2.0026
 3676SOL    HW222662   1.075   0.054   6.195 -3.2682 -0.8349 -2.4757
 3677SOL     OW22663   2.468   1.223   5.610 -0.4817  0.3258  0.0490
 3677SOL    HW122664   2.549   1.173   5.619  0.0749  1.1443 -0.4767
 3677SOL    HW222665   2.475   1.262   5.523 -2.7260  0.3676 -0.1264
 3678SOL     OW22666   4.552   3.272   3.577  0.3053  0.1073 -0.2499
 3678SOL    HW122667   4.559   3.198   3.517  0.3466  1.1053 -1.4676
 3678SOL    HW222668   4.465   3.255   3.614 -0.1335 -0.6179 -1.6229
 3679SOL     OW22669   4.243   2.544  10.470 -0.3566 -0.3368 -0.7803
 3679SOL    HW122670   4.183   2.491  10.523  0.1249 -0.0593  0.0468
 3679SOL    HW222671   4.314   2.558  10.532 -0.1893  0.7330 -1.2075
 3680SOL     OW22672   1.339   0.005   1.803  0.3090  0.0059  0.1316
 3680SOL    HW122673   1.294   4.658   1.811  0.6326 -0.0760  1.0423
 3680SOL    HW222674   1.266   0.064   1.819 -0.8614 -1.8735  1.8272
 3681SOL     OW22675   3.129   2.941   2.285 -0.2002  0.5797 -0.3895
 3681SOL    HW122676   3.052   2.982   2.245 -0.4793  0.0819 -0.3726
 3681SOL    HW222677   3.091   2.878   2.346 -0.3420 -1.0349 -2.1355
 3682SOL     OW22678   0.883   3.962   3.403  0.2939  0.3618  0.5568
 3682SOL    HW122679   0.949   3.893   3.407 -0.1608 -0.0317  1.2488
 3682SOL    HW222680   0.926   4.027   3.458  0.8188  1.6107 -1.3353
 3683SOL     OW22681   0.898   4.535   3.240 -0.0994 -0.0992  0.0093
 3683SOL    HW122682   0.991   4.557   3.248 -0.3397  0.6817  0.6563
 3683SOL    HW222683   0.867   4.572   3.323  0.5166  1.9002 -0.6512
 3684SOL     OW22684   2.978   3.451   9.121  0.3338  0.0872 -0.3881
 3684SOL    HW122685   2.901   3.407   9.086 -0.1480  1.1832 -0.6957
 3684SOL    HW222686   3.018   3.387   9.180 -0.9394 -1.2813 -1.0041
 3685SOL     OW22687   1.986   0.971   6.911  0.3471  0.1877  0.2348
 3685SOL    HW122688   1.915   0.942   6.968  0.7278 -0.6678  0.2583
 3685SOL    HW222689   1.931   1.029   6.857  1.1941  0.9211  0.1554
 3686SOL     OW22690   4.098   1.609   7.572 -0.0510  0.4123 -0.3991
 3686SOL    HW122691   4.177   1.640   7.616  0.2009 -1.2099  0.2883
 3686SOL    HW222692   4.038   1.638   7.640  1.2639 -1.0471  1.3782
 3687SOL     OW22693   3.793   2.056  15.070  0.0799  0.0327  0.0531
 3687SOL    HW122694   3.740   2.104  15.006 -1.1291 -1.3431  0.0045
 3687SOL    HW222695   3.879   2.074  15.034  0.0661  1.0309  0.5436
 3688SOL     OW22696   2.016   4.544   6.945  0.0963 -0.2648 -0.0561
 3688SOL    HW122697   1.947   4.503   6.997 -1.9724  1.3607 -1.5072
 3688SOL    HW222698   2.042   4.479   6.881 -0.6383 -0.8724  0.2662
 3689SOL     OW22699   2.769   1.964   7.586 -0.0281  0.4039 -0.4869
 3689SOL    HW122700   2.674   1.961   7.573 -0.3166  0.1155  1.7753
 3689SOL    HW222701   2.770   2.060   7.592 -2.3029  0.3968  0.0816
 3690SOL     OW22702   2.314   4.295   3.583 -0.2024  0.0659 -0.1979
 3690SOL    HW122703   2.395   4.321   3.539 -0.9488 -0.4949 -1.9155
 3690SOL    HW222704   2.288   4.236   3.511  0.2984 -1.2139  0.6699
 3691SOL     OW22705   2.756   0.111  13.655  0.1362  0.6684 -0.3900
 3691SOL    HW122706   2.817   0.039  13.642 -0.0137  0.4794 -0.0726
 3691SOL    HW222707   2.795   0.162  13.584 -0.9366 -0.0877 -1.5287
 3692SOL     OW22708   4.476   1.239   0.897  0.1323  0.1547 -0.4636
 3692SOL    HW122709   4.417   1.220   0.824 -0.8336 -0.1394  0.3831
 3692SOL    HW222710   4.478   1.334   0.890  1.4550  0.0232 -1.9102
 3693SOL     OW22711   0.212   4.385   7.780  0.5290  0.4767 -0.3101
 3693SOL    HW122712   0.177   4.302   7.811  0.5731  0.6952  0.3380
 3693SOL    HW222713   0.157   4.416   7.708 -0.7831  0.9025  0.8783
 3694SOL     OW22714   2.480   3.827   5.768  0.2307  0.1037 -0.2043
 3694SOL    HW122715   2.549   3.782   5.718  1.3093  0.5437  0.8949
 3694SOL    HW222716   2.405   3.768   5.759  0.6662 -0.2098 -1.7910
 3695SOL     OW22717   4.668   4.703   5.660  0.5300  0.2775  0.1366
 3695SOL    HW122718   4.723   4.711   5.739  1.6930 -2.3854 -0.3996
 3695SOL    HW222719   4.716   0.024   5.601 -0.6469 -1.8644 -2.8899
 3696SOL     OW22720   2.080   3.783   8.772  0.0355  0.4856 -0.7106
 3696SOL    HW122721   2.135   3.862   8.767  1.2961 -0.2933  0.8667
 3696SOL    HW222722   1.999   3.820   8.805 -0.1661  0.8772 -1.6415
 3697SOL     OW22723   3.066   4.470  14.552  0.0571 -0.4007  0.2875
 3697SOL    HW122724   3.081   4.453  14.645  1.2842  2.3464  0.6016
 3697SOL    HW222725   3.052   4.382  14.517  0.8016 -0.1119 -0.7241
 3698SOL     OW22726   0.029   3.296   2.538 -0.4179  0.4966  0.4986
 3698SOL    HW122727   0.008   3.379   2.581 -1.0147 -0.2909  1.7338
 3698SOL    HW222728   4.715   3.309   2.459 -2.6395  0.1013  1.8977
 3699SOL     OW22729   4.635   4.280   9.626  0.6263  0.4059 -0.1435
 3699SOL    HW122730   4.708   4.321   9.580  1.8853 -0.9411  0.6724
 3699SOL    HW222731   4.601   4.358   9.670 -0.1882 -1.0012  1.7255
 3700SOL     OW22732   3.477   4.025  12.730  0.1203  0.3814  0.2048
 3700SOL    HW122733   3.554   4.054  12.779 -0.1031 -0.5824  1.1281
 3700SOL    HW222734   3.466   4.098  12.669  0.9953  0.0336 -0.3609
 3701SOL     OW22735   3.435   1.957   2.500  0.0223 -0.0729 -0.3312
 3701SOL    HW122736   3.407   2.038   2.458 -0.4626 -0.1652 -0.1905
 3701SOL    HW222737   3.419   1.975   2.592  0.2788 -0.9196 -0.1233
 3702SOL     OW22738   2.478   3.901   3.385 -0.8806  0.7449  0.5807
 3702SOL    HW122739   2.561   3.863   3.355 -0.6788 -0.8728  3.1896
 3702SOL    HW222740   2.419   3.859   3.323  1.2350  0.5407 -1.3077
 3703SOL     OW22741   4.636   1.321  16.933  0.4060  0.4441  0.7664
 3703SOL    HW122742   4.708   1.269  16.970 -0.4167 -0.0074  1.7425
 3703SOL    HW222743   4.684   1.403  16.921 -2.1451  1.6007 -1.4723
 3704SOL     OW22744   1.076   0.360   2.107 -0.6942 -0.6172  0.0019
 3704SOL    HW122745   1.097   0.335   2.197 -0.2638 -2.0858 -0.5055
 3704SOL    HW222746   0.981   0.346   2.114 -0.7748 -0.6393 -1.1615
 3705SOL     OW22747   1.516   4.680   2.313 -0.1000 -0.3426  0.2837
 3705SOL    HW122748   1.446   4.694   2.378 -0.3111 -0.8640  0.1693
 3705SOL    HW222749   1.462   4.694   2.235  0.8639  2.9174  0.2005
 3706SOL     OW22750   1.353   1.330  17.434  0.1567 -0.1573  0.1188
 3706SOL    HW122751   1.294   1.388  17.387  2.6467  0.7509 -1.8469
 3706SOL    HW222752   1.344   1.365  17.523 -2.8500  0.6524 -0.5161
 3707SOL     OW22753   0.131   1.019   1.729  0.4836  0.1305 -0.1086
 3707SOL    HW122754   0.037   1.017   1.745  1.2313  0.6200  4.6313
 3707SOL    HW222755   0.159   1.097   1.776 -2.5058  0.7777  0.6047
 3708SOL     OW22756   3.146   3.206  15.130 -0.4532  0.0096 -0.2813
 3708SOL    HW122757   3.130   3.113  15.144 -2.7116  0.6292  1.2545
 3708SOL    HW222758   3.113   3.215  15.040 -0.6898  0.2421 -0.1725
 3709SOL     OW22759   0.669   0.849   9.084 -0.6211 -0.8232 -0.0612
 3709SOL    HW122760   0.652   0.890   9.168 -1.1347 -0.1758 -0.4799
 3709SOL    HW222761   0.608   0.902   9.033 -1.3541 -1.4777  0.1352
 3710SOL     OW22762   2.999   2.923  10.128  0.2954  0.3341  0.0405
 3710SOL    HW122763   3.002   2.895  10.037 -0.5920  0.6726 -0.0865
 3710SOL    HW222764   2.918   2.970  10.144 -0.3693 -1.0708  0.7850
 3711SOL     OW22765   1.063   1.947   8.890  0.1455  0.1646  0.2973
 3711SOL    HW122766   1.080   2.041   8.899 -0.7728  0.2661  0.9398
 3711SOL    HW222767   0.972   1.944   8.859  0.1359 -2.3987  0.5886
 3712SOL     OW22768   1.999   0.611  14.202 -0.3027 -0.0981 -0.6223
 3712SOL    HW122769   2.075   0.588  14.150 -1.1429  2.9341 -3.1528
 3712SOL    HW222770   1.945   0.532  14.198 -0.1299 -0.4309  2.8991
 3713SOL     OW22771   1.077   4.590   9.014 -0.2572  0.7607 -0.1939
 3713SOL    HW122772   0.986   4.607   9.037 -0.0097  2.0056 -0.1334
 3713SOL    HW222773   1.071   4.502   8.978 -0.4443 -0.1624  2.1071
 3714SOL     OW22774   1.913   3.500   0.400 -0.0122  0.6809  0.5056
 3714SOL    HW122775   1.968   3.423   0.414  2.3308  2.4703  1.2775
 3714SOL    HW222776   1.880   3.514   0.489 -1.5760  0.4053 -0.0362
 3715SOL     OW22777   4.516   3.747  11.697  0.3501  0.0303 -0.0563
 3715SOL    HW122778   4.610   3.729  11.697  0.8623  2.7441  0.3911
 3715SOL    HW222779   4.507   3.831  11.651  1.2452 -0.2840 -0.7987
 3716SOL     OW22780   4.560   3.034   5.347  0.1858 -0.7330 -0.0080
 3716SOL    HW122781   4.534   3.126   5.347 -2.3723 -1.4579  1.2361
 3716SOL    HW222782   4.552   3.021   5.253  1.9082  1.3912 -0.4589
 3717SOL     OW22783   2.378   1.368   2.696  0.1860  0.0227  0.4990
 3717SOL    HW122784   2.370   1.463   2.685 -0.1411 -0.2497 -1.8195
 3717SOL    HW222785   2.287   1.344   2.713 -0.3345  0.9883 -0.8778
 3718SOL     OW22786   3.661   1.537   9.133 -0.2022  0.2884 -0.4268
 3718SOL    HW122787   3.627   1.488   9.207  1.9171 -0.6002 -0.0197
 3718SOL    HW222788   3.642   1.627   9.159 -1.8196  0.0633 -0.8771
 3719SOL     OW22789   1.669   0.287  17.021  0.1836 -0.4241 -0.7668
 3719SOL    HW122790   1.586   0.321  17.052  0.7000 -0.3224  0.5118
 3719SOL    HW222791   1.642   0.197  17.002  1.3042 -0.9155 -0.0239
 3720SOL     OW22792   3.872   2.291   8.192  0.2178  0.3266 -0.2670
 3720SOL    HW122793   3.839   2.347   8.261 -1.7157  0.7973 -1.5903
 3720SOL    HW222794   3.958   2.271   8.229 -0.8008 -2.1881  0.7290
 3721SOL     OW22795   0.128   3.361   0.380  0.9272  0.2826 -0.6722
 3721SOL    HW122796   0.189   3.379   0.308 -0.2830  0.5450 -1.6147
 3721SOL    HW222797   0.188   3.343   0.452  1.3501  0.1947 -1.0447
 3722SOL     OW22798   0.401   2.134  16.377  0.3738 -0.2231  0.0343
 3722SOL    HW122799   0.475   2.194  16.368  0.1639  0.1608  0.9712
 3722SOL    HW222800   0.324   2.187  16.397  1.9920  1.6417  1.2681
 3723SOL     OW22801   3.347   0.344   2.023 -0.0843 -0.4177 -0.6330
 3723SOL    HW122802   3.322   0.272   1.965 -0.1315 -0.7329 -0.2199
 3723SOL    HW222803   3.266   0.373   2.065  1.4881  2.0166  0.7315
 3724SOL     OW22804   1.465   3.504  10.040  0.3114 -0.5630 -0.0285
 3724SOL    HW122805   1.400   3.527   9.972  0.7736 -0.4634 -0.4399
 3724SOL    HW222806   1.498   3.593  10.056 -2.0329  0.1689  0.7582
 3725SOL     OW22807   4.124   1.167   8.841 -0.2776  0.0965 -0.1072
 3725SOL    HW122808   4.067   1.132   8.909  0.9774  0.9123  1.3577
 3725SOL    HW222809   4.073   1.173   8.760  0.3361  0.4274 -0.4671
 3726SOL     OW22810   3.793   4.364   2.792  0.2682 -0.0146  0.3672
 3726SOL    HW122811   3.799   4.378   2.887 -0.1174  2.0204  0.0870
 3726SOL    HW222812   3.832   4.444   2.758 -3.0856  1.2772 -0.5014
 3727SOL     OW22813   3.539   1.490  17.368  0.1301  0.3235  0.2443
 3727SOL    HW122814   3.618   1.436  17.370  0.4753  0.8550  0.9333
 3727SOL    HW222815   3.489   1.459  17.292  2.1065 -1.5126 -0.3237
 3728SOL     OW22816   3.865   1.439   1.031 -0.1460  0.2260  0.2392
 3728SOL    HW122817   3.869   1.390   0.949  1.0685 -1.9380  1.6010
 3728SOL    HW222818   3.927   1.397   1.090  0.5281  0.1396 -0.5336
 3729SOL     OW22819   2.103   1.947  13.202 -0.0430 -0.5260 -0.7489
 3729SOL    HW122820   2.067   1.862  13.180  2.2345 -1.2899 -1.5160
 3729SOL    HW222821   2.166   1.965  13.133  0.7209 -1.0060 -0.1750
 3730SOL     OW22822   4.272   2.481  15.457 -0.5239  0.2522 -0.0210
 3730SOL    HW122823   4.307   2.545  15.395 -0.4351  1.7255  1.5655
 3730SOL    HW222824   4.276   2.399  15.406  3.0897 -0.1783  0.9270
 3731SOL     OW22825   0.964   2.222   8.879  0.4262 -0.1026 -0.0243
 3731SOL    HW122826   0.877   2.262   8.883  0.9327  0.8138  2.1183
 3731SOL    HW222827   0.998   2.300   8.836  0.2088 -0.0440 -0.0898
 3732SOL     OW22828   3.600   1.654   8.562 -0.8392  0.4428  0.2351
 3732SOL    HW122829   3.669   1.711   8.527 -1.4881  2.3565  2.0782
 3732SOL    HW222830   3.652   1.609   8.629 -1.0446 -0.8968 -0.5207
 3733SOL     OW22831   4.333   3.046   1.314  0.0279 -0.5789  0.0589
 3733SOL    HW122832   4.297   2.969   1.360 -0.5594 -0.0305  0.5209
 3733SOL    HW222833   4.360   3.108   1.382 -1.8546  1.0086 -0.6757
 3734SOL     OW22834   0.446   2.937   8.147  0.0859 -0.6423  0.2888
 3734SOL    HW122835   0.405   2.955   8.232 -1.1728  1.1924 -0.7287
 3734SOL    HW222836   0.432   3.026   8.116  0.4589 -0.5138  0.4933
 3735SOL     OW22837   1.558   2.898  10.232 -0.3747  0.9113 -0.6265
 3735SOL    HW122838   1.644   2.882  10.270 -0.0645  1.6942 -1.0053
 3735SOL    HW222839   1.554   2.838  10.158  2.5770  0.0900 -0.0873
 3736SOL     OW22840   2.063   2.946   3.471 -0.2924  0.1459 -0.2303
 3736SOL    HW122841   2.105   2.879   3.524 -0.9726 -0.5454 -0.5780
 3736SOL    HW222842   2.133   2.946   3.405  0.1115  2.0598  0.1825
 3737SOL     OW22843   0.891   0.497   9.127 -0.0400 -0.3079  0.0430
 3737SOL    HW122844   0.883   0.577   9.074  1.0184 -0.3855 -0.2178
 3737SOL    HW222845   0.830   0.438   9.083 -0.6720  0.9016 -0.7285
 3738SOL     OW22846   1.736   0.554  12.461 -0.3938 -0.2405  0.1677
 3738SOL    HW122847   1.652   0.557  12.416  1.0669 -0.6485 -2.5840
 3738SOL    HW222848   1.744   0.645  12.490 -0.6518  0.3555 -1.6452
 3739SOL     OW22849   2.865   1.394   2.280  0.2192 -0.3339  0.5125
 3739SOL    HW122850   2.850   1.453   2.354  0.1974  0.9969 -0.5314
 3739SOL    HW222851   2.795   1.332   2.297 -1.5097  0.8783 -2.1737
 3740SOL     OW22852   0.568   1.545   4.812 -0.0800 -0.1058 -0.1264
 3740SOL    HW122853   0.551   1.518   4.722 -1.3642  2.6760 -0.7079
 3740SOL    HW222854   0.494   1.511   4.862  0.5628 -1.1489  0.1101
 3741SOL     OW22855   2.689   2.562  13.262 -0.1679  0.1750 -0.6322
 3741SOL    HW122856   2.760   2.613  13.223 -0.8097  1.7432  0.2523
 3741SOL    HW222857   2.707   2.574  13.355 -2.1675  0.2739 -0.2662
 3742SOL     OW22858   2.824   1.544   5.098  0.3375 -0.2106 -0.6009
 3742SOL    HW122859   2.749   1.487   5.115 -1.7776  2.5138 -0.8866
 3742SOL    HW222860   2.794   1.634   5.108  0.4707 -0.0768 -1.4370
 3743SOL     OW22861   3.117   4.415   9.270  0.3006  0.3384 -0.1999
 3743SOL    HW122862   3.093   4.377   9.185  0.6015  1.7402 -0.9080
 3743SOL    HW222863   3.030   4.425   9.309 -0.2531 -2.3149 -0.6961
 3744SOL     OW22864   2.915   3.718   3.039  0.6652  0.3670 -0.1878
 3744SOL    HW122865   2.922   3.802   2.993  0.7371  1.3415  1.6053
 3744SOL    HW222866   2.985   3.666   2.999  1.2920 -0.1326  1.5681
 3745SOL     OW22867   1.979   2.746   5.934 -0.0195  0.6671  0.2392
 3745SOL    HW122868   2.027   2.678   5.982 -0.0261  0.9477  0.6447
 3745SOL    HW222869   1.896   2.756   5.982  1.6494  0.6707  3.1141
 3746SOL     OW22870   1.616   1.886   4.295  0.4699  0.2585  0.5284
 3746SOL    HW122871   1.642   1.945   4.224  0.5513 -0.2957  0.0990
 3746SOL    HW222872   1.649   1.800   4.269  0.0991  0.6254 -1.2223
 3747SOL     OW22873   3.919   1.294   0.809 -0.1551 -0.5707  0.2562
 3747SOL    HW122874   3.845   1.310   0.751  2.2669 -0.0408 -2.6514
 3747SOL    HW222875   3.930   1.199   0.810  0.6805 -0.4706  0.5709
 3748SOL     OW22876   1.159   4.173  13.359 -0.2254  0.5049 -0.4262
 3748SOL    HW122877   1.195   4.197  13.273  0.4418  0.8790 -0.0458
 3748SOL    HW222878   1.226   4.110  13.386 -0.5314  0.2409 -0.2934
 3749SOL     OW22879   4.078   3.947   4.991 -1.1400 -0.5274 -0.2578
 3749SOL    HW122880   4.015   3.886   4.953 -1.8822 -0.4354  0.8186
 3749SOL    HW222881   4.069   3.902   5.075  1.0872  2.6899  1.7371
 3750SOL     OW22882   0.933   4.299   7.672  0.3168  0.2964 -0.7339
 3750SOL    HW122883   1.020   4.340   7.675  0.7294 -0.7892  2.1922
 3750SOL    HW222884   0.907   4.306   7.580 -2.1749 -1.3518 -0.1558
 3751SOL     OW22885   2.952   2.932   3.905  0.0255 -0.2521 -0.3196
 3751SOL    HW122886   2.871   2.881   3.903  1.2495 -2.0596 -2.6744
 3751SOL    HW222887   3.002   2.909   3.827  1.3428  0.6840  0.2547
 3752SOL     OW22888   4.078   0.759   2.529  0.2091  1.0115 -0.9129
 3752SOL    HW122889   4.003   0.701   2.516  0.4712  1.1623 -3.0997
 3752SOL    HW222890   4.046   0.821   2.594 -1.0732  0.0599 -0.6398
 3753SOL     OW22891   1.154   2.206   3.134  0.4286  0.1322  0.5194
 3753SOL    HW122892   1.110   2.225   3.051  3.2147 -1.2056 -1.2748
 3753SOL    HW222893   1.241   2.245   3.124  0.9125  0.0749  4.4996
 3754SOL     OW22894   4.034   2.759   3.042  0.1813 -0.2703  0.1221
 3754SOL    HW122895   3.987   2.831   3.083  3.2808  1.2620  0.9793
 3754SOL    HW222896   3.975   2.755   2.967 -1.1942 -3.5034  1.3781
 3755SOL     OW22897   0.290   3.365   2.820 -0.5421  0.1139  0.3496
 3755SOL    HW122898   0.364   3.304   2.812  0.1315  0.6887  2.4492
 3755SOL    HW222899   0.331   3.442   2.779  0.7880 -0.3651  0.7651
 3756SOL     OW22900   3.742   3.154  16.807  0.5733  0.1737  0.0777
 3756SOL    HW122901   3.825   3.171  16.762  1.2401 -2.6678  0.2267
 3756SOL    HW222902   3.719   3.238  16.848 -0.0230  0.3627 -0.6450
 3757SOL     OW22903   4.037   2.623  10.257  0.1147 -1.3006 -0.6246
 3757SOL    HW122904   4.004   2.712  10.272 -0.4219 -1.9116  1.8385
 3757SOL    HW222905   4.071   2.598  10.343  3.9392  0.7158 -1.6019
 3758SOL     OW22906   2.900   1.473   5.858  0.0149  0.5381 -0.7881
 3758SOL    HW122907   2.919   1.508   5.771 -2.3386  1.0519 -1.0941
 3758SOL    HW222908   2.839   1.539   5.890 -2.0895 -1.2596 -1.0900
 3759SOL     OW22909   2.209   3.363   1.413 -0.0684  0.3567 -0.5407
 3759SOL    HW122910   2.216   3.343   1.507  0.4933 -3.5027 -1.3981
 3759SOL    HW222911   2.116   3.362   1.392 -0.2914 -0.2519  0.4454
 3760SOL     OW22912   4.326   4.156   8.294  0.7769 -0.2160  0.3886
 3760SOL    HW122913   4.406   4.144   8.345  2.5250  0.9831 -2.0484
 3760SOL    HW222914   4.275   4.087   8.335  0.7570  0.2324  1.1204
 3761SOL     OW22915   0.768   2.792   5.297  0.1561 -0.1466  0.1757
 3761SOL    HW122916   0.807   2.869   5.257 -0.5319 -0.2056 -0.6020
 3761SOL    HW222917   0.848   2.741   5.282  0.7225  0.6157  0.5828
 3762SOL     OW22918   1.887   3.484   2.839 -0.2246 -0.2741 -0.2814
 3762SOL    HW122919   1.836   3.443   2.908 -3.3122  0.2066 -2.2886
 3762SOL    HW222920   1.826   3.531   2.782  0.0013 -0.0445 -0.3313
 3763SOL     OW22921   0.859   3.280   4.391  0.1766  0.3673 -0.6616
 3763SOL    HW122922   0.848   3.226   4.469 -0.5473  0.8780 -0.4169
 3763SOL    HW222923   0.771   3.303   4.362  0.0438 -0.7091 -1.1208
 3764SOL     OW22924   0.796   1.285   3.449 -0.0161  0.5138 -0.5864
 3764SOL    HW122925   0.758   1.344   3.514 -1.4910  0.6292 -1.5464
 3764SOL    HW222926   0.841   1.234   3.516 -0.1505 -0.3856 -1.1727
 3765SOL     OW22927   4.132   3.609   5.390  0.2964 -0.5714 -0.1290
 3765SOL    HW122928   4.090   3.557   5.459 -0.0270  0.1137  0.1882
 3765SOL    HW222929   4.161   3.685   5.441 -0.6484 -1.3640  1.6079
 3766SOL     OW22930   4.705   2.477   3.790  0.8774  0.4561 -0.5664
 3766SOL    HW122931   4.726   2.511   3.877 -0.1064  3.1927 -1.3947
 3766SOL    HW222932   4.683   2.557   3.742  1.1349  0.8422 -0.0480
 3767SOL     OW22933   0.470   2.992   5.297 -0.0327  0.0653 -0.7601
 3767SOL    HW122934   0.427   2.923   5.346  0.9021 -0.0911 -0.1511
 3767SOL    HW222935   0.562   2.968   5.284  0.2524  0.4322  0.5107
 3768SOL     OW22936   0.916   2.844   9.387 -0.3159 -0.6610 -0.5412
 3768SOL    HW122937   1.007   2.873   9.377 -0.3943  0.5899  2.4208
 3768SOL    HW222938   0.870   2.928   9.377  2.9704  1.2202  0.1080
 3769SOL     OW22939   4.027   3.722   5.761 -0.4278  0.1855  0.1154
 3769SOL    HW122940   4.062   3.786   5.824  0.8668 -0.4488  0.0428
 3769SOL    HW222941   4.105   3.668   5.750 -0.4889  0.1377 -0.0785
 3770SOL     OW22942   4.461   4.576   5.048  0.0583  0.2506  0.0398
 3770SOL    HW122943   4.554   4.594   5.042 -0.2911  2.4453  1.1226
 3770SOL    HW222944   4.430   4.658   5.010 -0.9517 -0.7071 -1.2217
 3771SOL     OW22945   3.524   0.588  17.736 -0.0206  0.8496 -0.3384
 3771SOL    HW122946   3.540   0.642   0.065  0.4029  1.6977 -1.0280
 3771SOL    HW222947   3.551   0.643  17.663 -0.9106 -1.6064 -2.5305
 3772SOL     OW22948   1.756   4.462   9.773 -0.4977  0.7474  0.2964
 3772SOL    HW122949   1.794   4.442   9.859 -0.3316  0.7445  0.2230
 3772SOL    HW222950   1.828   4.512   9.735 -1.5718  2.9958  1.2207
 3773SOL     OW22951   2.554   2.020  17.108  0.3519 -0.1573  0.5934
 3773SOL    HW122952   2.569   2.109  17.138  0.0164 -0.3363  1.3090
 3773SOL    HW222953   2.606   2.022  17.028 -1.0751  3.5580 -0.2440
 3774SOL     OW22954   0.249   2.099   3.907  0.6134 -0.5009 -0.2151
 3774SOL    HW122955   0.208   2.162   3.848 -2.5225 -0.7575  1.7065
 3774SOL    HW222956   0.240   2.020   3.855  0.6776 -0.3320 -0.4842
 3775SOL     OW22957   1.723   4.506   4.456  0.1195 -0.2350  0.0894
 3775SOL    HW122958   1.654   4.441   4.467 -0.4996  0.5422  0.8455
 3775SOL    HW222959   1.746   4.503   4.363  0.2292 -0.3149  0.1192
 3776SOL     OW22960   1.368   2.339   8.007 -0.4750  0.1159 -0.7731
 3776SOL    HW122961   1.380   2.422   8.053  1.9971  0.8443 -2.6994
 3776SOL    HW222962   1.416   2.359   7.926  1.7436 -3.6358 -0.3788
 3777SOL     OW22963   4.636   3.491   7.537 -0.3630  0.4752 -0.0975
 3777SOL    HW122964   4.564   3.523   7.482 -0.4024 -1.5658 -1.2290
 3777SOL    HW222965   4.714   3.527   7.494  0.6119 -0.4934  0.8835
 3778SOL     OW22966   4.235   4.328   8.871 -0.2150 -0.3721  0.1423
 3778SOL    HW122967   4.326   4.346   8.846 -0.9575  2.2360 -0.6527
 3778SOL    HW222968   4.186   4.314   8.790  0.4294 -0.1242 -0.2900
 3779SOL     OW22969   2.258   1.084   6.891 -0.4218 -0.1707 -0.3543
 3779SOL    HW122970   2.172   1.044   6.903  0.3324 -1.6438  0.1527
 3779SOL    HW222971   2.233   1.157   6.834 -0.6860  1.1281  1.4634
 3780SOL     OW22972   4.638   1.353  15.255  0.0830  0.5924 -0.5241
 3780SOL    HW122973   4.733   1.365  15.255  0.2239 -0.5220 -0.4242
 3780SOL    HW222974   4.629   1.288  15.324  0.8588  0.2400 -0.7461
 3781SOL     OW22975   0.828   3.525   0.157 -0.1804  0.6211  0.3065
 3781SOL    HW122976   0.885   3.449   0.166 -0.8228 -0.2055 -2.7073
 3781SOL    HW222977   0.891   3.584   0.196 -1.2105  1.8007  0.1875
 3782SOL     OW22978   4.687   0.906   7.860  0.1898  0.0274  0.3286
 3782SOL    HW122979   0.035   0.866   7.844  0.3792  1.4658 -2.2592
 3782SOL    HW222980   4.626   0.835   7.839 -0.4441 -0.0192  2.3553
 3783SOL     OW22981   3.989   2.453   7.014 -0.2227 -0.2792  0.0923
 3783SOL    HW122982   4.054   2.393   7.052  0.5437  0.1155 -0.5942
 3783SOL    HW222983   3.990   2.420   6.925 -2.6162 -1.6042  0.5786
 3784SOL     OW22984   4.151   3.372   9.041 -0.0371  0.1677 -0.7196
 3784SOL    HW122985   4.140   3.277   9.048  1.5774 -0.2994 -4.1890
 3784SOL    HW222986   4.078   3.389   8.981  1.3909 -0.6831 -2.6972
 3785SOL     OW22987   3.400   3.883   1.728 -0.3056 -0.8442 -0.1004
 3785SOL    HW122988   3.316   3.928   1.717 -0.9941 -1.8282  1.1062
 3785SOL    HW222989   3.439   3.912   1.646 -0.4091 -2.8558 -0.8648
 3786SOL     OW22990   3.010   1.852   6.266  0.5628  0.1682  0.4591
 3786SOL    HW122991   2.927   1.835   6.221  1.6460  1.6009 -2.0779
 3786SOL    HW222992   3.047   1.764   6.274 -0.1943 -0.2298 -0.3856
 3787SOL     OW22993   4.239   0.479   5.619 -0.5145  0.0434 -0.2681
 3787SOL    HW122994   4.182   0.426   5.676  0.0913  1.7297  1.8994
 3787SOL    HW222995   4.237   0.553   5.679  2.8440 -0.0648 -0.0287
 3788SOL     OW22996   2.275   0.640  16.066 -0.0717 -0.0350  0.1863
 3788SOL    HW122997   2.360   0.600  16.047  0.1096  1.2473 -1.6920
 3788SOL    HW222998   2.304   0.731  16.064 -0.6850  0.1675  0.9295
 3789SOL     OW22999   0.130   1.609  14.719  0.7536 -0.5989 -0.7602
 3789SOL    HW123000   0.077   1.586  14.795  1.3349  2.3256  0.5304
 3789SOL    HW223001   0.181   1.531  14.700 -1.9156 -2.1457 -1.4984
 3790SOL     OW23002   2.027   4.143  13.651  0.3841 -0.3944 -0.2025
 3790SOL    HW123003   2.058   4.072  13.707 -1.4485  0.1852  1.5221
 3790SOL    HW223004   1.938   4.161  13.682 -0.5246 -2.3791 -1.6460
 3791SOL     OW23005   4.191   0.917   3.555 -0.0659  0.8779  0.1501
 3791SOL    HW123006   4.117   0.857   3.544  2.4462 -2.0755 -0.6153
 3791SOL    HW223007   4.245   0.916   3.476 -2.4070 -1.8134 -1.3922
 3792SOL     OW23008   1.767   0.901  16.601  0.7494 -0.5052  0.6620
 3792SOL    HW123009   1.770   0.807  16.621  2.2845 -0.4809  0.6007
 3792SOL    HW223010   1.823   0.911  16.523 -1.5462  2.9642 -0.5125
 3793SOL     OW23011   0.725   2.176   2.900 -0.2063  0.3432 -0.1895
 3793SOL    HW123012   0.762   2.191   2.813 -1.9883 -0.5518 -1.1071
 3793SOL    HW223013   0.630   2.180   2.891 -0.2620 -1.2777 -0.3720
 3794SOL     OW23014   0.234   3.891   4.430 -0.5473 -0.0125  0.3286
 3794SOL    HW123015   0.141   3.913   4.442  0.4525  3.5622  1.6509
 3794SOL    HW223016   0.249   3.818   4.490 -0.2378  1.2837  1.8327
 3795SOL     OW23017   1.443   1.017   9.712  0.4789  0.8760  0.1881
 3795SOL    HW123018   1.383   1.059   9.650  0.4853  0.2497 -0.2471
 3795SOL    HW223019   1.417   1.060   9.794 -3.5720 -0.5812 -0.3001
 3796SOL     OW23020   1.704   0.138   1.335  0.6054  0.1223  0.3700
 3796SOL    HW123021   1.675   0.159   1.246  0.1406 -0.3087  0.4202
 3796SOL    HW223022   1.655   0.056   1.342 -0.0312  0.5955  1.4775
 3797SOL     OW23023   2.127   2.037   6.406  0.2555  0.1995 -0.1404
 3797SOL    HW123024   2.046   2.089   6.408  0.0908 -0.0302 -0.8757
 3797SOL    HW223025   2.186   2.086   6.464 -0.6830 -0.0167  0.9966
 3798SOL     OW23026   3.621   4.360   9.087 -0.0281  0.1847  0.1456
 3798SOL    HW123027   3.714   4.380   9.081 -0.3783  1.5780 -0.5906
 3798SOL    HW223028   3.599   4.298   9.017 -0.0467  0.8680 -0.4564
 3799SOL     OW23029   4.061   4.318   6.560  0.5111  0.0105  0.3747
 3799SOL    HW123030   4.016   4.261   6.497 -0.4506  0.4318  0.6806
 3799SOL    HW223031   4.107   4.258   6.619 -1.1798 -1.5542  0.0820
 3800SOL     OW23032   4.372   2.118  13.254  0.0515 -0.1963 -0.0845
 3800SOL    HW123033   4.464   2.112  13.282  0.3525 -0.7670 -1.1718
 3800SOL    HW223034   4.359   2.035  13.209  1.6549  0.6515 -2.1427
 3801SOL     OW23035   0.519   1.431   1.649  0.2909 -0.1386  0.3273
 3801SOL    HW123036   0.536   1.452   1.741 -1.9272 -0.1942  0.7497
 3801SOL    HW223037   0.595   1.380   1.622 -0.6596 -0.4471 -1.7603
 3802SOL     OW23038   1.755   3.454  10.083 -0.2074  0.0989 -0.2227
 3802SOL    HW123039   1.783   3.388  10.147 -1.6647  0.1354  0.4550
 3802SOL    HW223040   1.661   3.444  10.093 -0.1484 -0.4839 -0.2173
 3803SOL     OW23041   2.846   2.519  13.844 -0.5239 -0.3214  0.6635
 3803SOL    HW123042   2.917   2.465  13.879 -1.9688 -3.1048 -0.7278
 3803SOL    HW223043   2.774   2.456  13.842 -0.9168  0.1404  0.4108
 3804SOL     OW23044   3.096   1.507   9.153 -0.0140  0.5253  0.4257
 3804SOL    HW123045   3.059   1.582   9.199 -2.2737  0.0840 -0.6728
 3804SOL    HW223046   3.018   1.452   9.149  1.1957 -1.0197 -1.7503
 3805SOL     OW23047   3.724   0.749   6.294  0.7725  0.4488  0.0538
 3805SOL    HW123048   3.648   0.756   6.351  0.8223  0.7545  0.0858
 3805SOL    HW223049   3.791   0.809   6.328  2.9260 -1.3673 -0.9799
 3806SOL     OW23050   4.036   0.239   5.387  0.6988 -0.4664  0.0296
 3806SOL    HW123051   4.050   0.329   5.418  2.4154 -1.4253  1.9898
 3806SOL    HW223052   4.106   0.196   5.436  1.9288 -0.9963 -2.1400
 3807SOL     OW23053   4.112   2.018   3.890 -0.3038  0.3520  0.0532
 3807SOL    HW123054   4.144   1.971   3.813  1.2930  3.3029 -1.0857
 3807SOL    HW223055   4.059   2.086   3.849 -1.8357 -0.4142  0.7590
 3808SOL     OW23056   1.611   0.135   5.494  0.3453 -0.3348 -0.0036
 3808SOL    HW123057   1.615   0.218   5.542 -0.7591 -0.9452  1.1146
 3808SOL    HW223058   1.536   0.088   5.530  0.2432  0.6365  1.0680
 3809SOL     OW23059   2.375   4.063  12.550  0.6499 -0.5740  0.0647
 3809SOL    HW123060   2.424   4.119  12.610 -0.3892  0.9085 -0.4983
 3809SOL    HW223061   2.447   4.002  12.533  1.8456  0.5610  1.0802
 3810SOL     OW23062   2.926   0.848   6.880  0.5962  0.0631  0.2131
 3810SOL    HW123063   2.874   0.926   6.861 -0.5150 -0.6992  0.1184
 3810SOL    HW223064   2.925   0.846   6.976  1.5564 -0.8841  0.2000
 3811SOL     OW23065   2.142   3.365   3.611 -0.2106 -0.2142 -0.3635
 3811SOL    HW123066   2.166   3.429   3.678  2.0921  0.4887 -1.8834
 3811SOL    HW223067   2.192   3.393   3.534  0.2813  0.6026  0.2555
 3812SOL     OW23068   0.314   0.665  16.163 -0.3207  0.1746  0.5571
 3812SOL    HW123069   0.250   0.668  16.234 -0.3991  0.6514  0.4613
 3812SOL    HW223070   0.292   0.574  16.140  1.4959  0.1102 -0.9515
 3813SOL     OW23071   2.458   2.668   8.350  0.3002  0.5141 -0.0509
 3813SOL    HW123072   2.480   2.654   8.258  0.6954  0.1770  0.0944
 3813SOL    HW223073   2.546   2.673   8.388 -0.3908 -1.6752  1.8419
 3814SOL     OW23074   4.185   0.650  13.930 -0.7443  0.1477 -0.9027
 3814SOL    HW123075   4.144   0.577  13.884 -0.3971 -0.1962 -0.6602
 3814SOL    HW223076   4.265   0.604  13.954 -0.8595 -1.5427 -3.7459
 3815SOL     OW23077   0.028   1.339   6.025 -0.2534  0.1318 -0.2933
 3815SOL    HW123078   0.078   1.259   6.043  0.5180  1.0917  1.7179
 3815SOL    HW223079   4.680   1.299   6.006  1.1462 -3.4554  0.8337
 3816SOL     OW23080   0.374   3.663   7.453  0.3328  0.1878  0.1462
 3816SOL    HW123081   0.440   3.596   7.434 -1.4975 -1.6650  0.4242
 3816SOL    HW223082   0.427   3.736   7.487  0.5684  0.8599 -1.6191
 3817SOL     OW23083   1.670   3.622  10.442 -0.1699  0.7635 -0.3398
 3817SOL    HW123084   1.699   3.534  10.418  1.2061  1.1163  0.0361
 3817SOL    HW223085   1.607   3.641  10.372  0.1255  0.2230 -0.7415
 3818SOL     OW23086   1.110   1.441  13.603  0.0950  0.0607 -0.0696
 3818SOL    HW123087   1.134   1.450  13.511 -0.5907  2.7266  0.0184
 3818SOL    HW223088   1.095   1.349  13.624 -1.6037  0.4396  0.3928
 3819SOL     OW23089   2.037   0.069   6.264 -0.2630  0.1136  0.1004
 3819SOL    HW123090   1.944   0.093   6.255 -0.0886  1.1639  1.0804
 3819SOL    HW223091   2.082   0.133   6.210  0.9574  0.5187  1.6102
 3820SOL     OW23092   0.347   0.952   1.299 -0.5389 -0.3120  0.2221
 3820SOL    HW123093   0.305   0.889   1.358 -1.5796 -0.8518 -1.0929
 3820SOL    HW223094   0.352   1.031   1.353  0.8313 -1.3033  1.5534
 3821SOL     OW23095   1.663   0.416   4.016  0.2572  0.5373  0.5088
 3821SOL    HW123096   1.590   0.359   3.995 -0.5443  0.4741  3.3856
 3821SOL    HW223097   1.720   0.339   4.022 -1.4952 -0.7521  0.5746
 3822SOL     OW23098   4.445   4.186   6.342  0.8784 -0.0177  0.3233
 3822SOL    HW123099   4.472   4.259   6.397  0.3515 -0.2818  0.9256
 3822SOL    HW223100   4.422   4.228   6.259 -2.5406 -0.4890  1.0353
 3823SOL     OW23101   4.664   0.914  10.939  0.1420  0.4503 -0.0329
 3823SOL    HW123102   4.711   0.836  10.969 -0.1179 -0.2347 -1.4118
 3823SOL    HW223103   4.708   0.953  10.864  2.1747  2.3267  2.1351
 3824SOL     OW23104   0.812   2.547   6.627 -0.3408  0.1949 -0.0074
 3824SOL    HW123105   0.863   2.517   6.702 -1.1361 -1.1972 -0.0238
 3824SOL    HW223106   0.872   2.609   6.585 -1.3698 -0.7355 -2.9178
 3825SOL     OW23107   1.872   3.588   5.428 -0.3112 -0.2050  0.1808
 3825SOL    HW123108   1.874   3.514   5.367  0.8448  0.2407 -0.3145
 3825SOL    HW223109   1.933   3.638   5.374 -1.8472  0.2024 -1.1676
 3826SOL     OW23110   0.821   0.265  11.890 -0.3055 -0.1546  0.6766
 3826SOL    HW123111   0.858   0.340  11.843  0.1801 -0.2118  0.9611
 3826SOL    HW223112   0.814   0.212  11.811  2.4413 -2.5725  2.0253
 3827SOL     OW23113   0.163   1.920   0.845 -0.6526 -0.3246  0.2930
 3827SOL    HW123114   0.161   1.826   0.858 -4.6610 -0.5731 -1.9859
 3827SOL    HW223115   0.205   1.939   0.929 -0.5296 -0.4180  0.2530
 3828SOL     OW23116   3.678   3.730   4.820 -0.1266 -0.0724 -0.3440
 3828SOL    HW123117   3.762   3.698   4.852  0.7265 -0.1922 -2.7582
 3828SOL    HW223118   3.642   3.649   4.785  0.1060  0.2426 -1.3223
 3829SOL     OW23119   1.422   1.867   6.926  0.5255 -0.1266  0.3495
 3829SOL    HW123120   1.398   1.956   6.950  2.6606  0.7232 -0.6163
 3829SOL    HW223121   1.518   1.875   6.927  0.6207 -1.3175  1.9731
 3830SOL     OW23122   1.384   3.550   3.334  0.1577 -0.8264  0.2549
 3830SOL    HW123123   1.324   3.515   3.400  0.3604  1.1689  1.4941
 3830SOL    HW223124   1.351   3.513   3.253  1.4412 -2.6983  0.5904
 3831SOL     OW23125   0.080   0.250   8.865  0.2080  0.5677  0.6662
 3831SOL    HW123126   0.079   0.308   8.941 -0.2311  2.0644 -0.4804
 3831SOL    HW223127   0.133   0.173   8.887 -0.8991 -0.2765  0.3391
 3832SOL     OW23128   2.816   1.525   7.908 -0.1286 -0.2972  0.5027
 3832SOL    HW123129   2.814   1.434   7.878 -3.2195 -0.1711  0.3401
 3832SOL    HW223130   2.849   1.569   7.830  0.7452 -1.3949  0.2513
 3833SOL     OW23131   3.493   3.893   2.333  0.2398  0.1258  1.0757
 3833SOL    HW123132   3.464   3.844   2.410  0.7241  1.5653  2.1727
 3833SOL    HW223133   3.485   3.839   2.255 -0.1421  0.7463  0.6851
 3834SOL     OW23134   1.222   2.175   2.022  0.3514 -0.2412  0.3789
 3834SOL    HW123135   1.246   2.254   1.973 -0.8712 -1.8317 -2.7422
 3834SOL    HW223136   1.307   2.157   2.063 -0.2634  0.3077  1.9064
 3835SOL     OW23137   0.034   2.933   2.913 -0.3253  0.3976  0.3786
 3835SOL    HW123138   0.039   2.981   2.831  1.7233 -2.0986 -0.9747
 3835SOL    HW223139   0.104   2.870   2.896 -1.3462 -0.4405 -0.6502
 3836SOL     OW23140   1.620   2.947  12.676 -0.0229 -0.3236 -0.0206
 3836SOL    HW123141   1.677   2.942  12.753 -1.1190  2.6289  0.9631
 3836SOL    HW223142   1.558   2.874  12.688 -1.9859  1.1314 -1.3342
 3837SOL     OW23143   4.166   4.236   0.982 -0.0957  0.6105  0.1592
 3837SOL    HW123144   4.095   4.200   1.035  0.8243  0.0829  1.0385
 3837SOL    HW223145   4.249   4.194   1.007 -0.5003  0.0263  0.5382
 3838SOL     OW23146   3.121   3.906   7.960 -0.1078 -0.3071 -0.0841
 3838SOL    HW123147   3.170   3.833   7.997  0.3619 -0.0047 -0.1048
 3838SOL    HW223148   3.032   3.896   7.993 -0.5198 -2.6742 -1.8935
 3839SOL     OW23149   4.242   2.770   5.706 -0.3044  0.4665  0.2675
 3839SOL    HW123150   4.180   2.799   5.773 -0.5461 -0.7441  0.5564
 3839SOL    HW223151   4.233   2.675   5.709  1.7655  0.3491  2.3174
 3840SOL     OW23152   0.497   4.386   5.537 -0.0406  0.0673  0.0978
 3840SOL    HW123153   0.584   4.395   5.577  1.3228  0.9730 -3.0593
 3840SOL    HW223154   0.442   4.385   5.615 -0.2572 -0.4734 -0.0623
 3841SOL     OW23155   2.224   3.941  15.791  0.3025  0.1093  0.0280
 3841SOL    HW123156   2.192   3.917  15.703  0.5743 -0.7563  0.1684
 3841SOL    HW223157   2.177   4.024  15.800 -1.5595 -0.9486  0.1083
 3842SOL     OW23158   2.903   2.652   1.270  0.0654 -0.2790 -0.0916
 3842SOL    HW123159   2.827   2.619   1.221 -0.3255  0.4063  0.0536
 3842SOL    HW223160   2.948   2.706   1.204 -0.7762  2.0348  1.2219
 3843SOL     OW23161   3.722   1.591   4.110 -0.1957 -0.2415  0.1355
 3843SOL    HW123162   3.650   1.601   4.173  1.0331  0.3649  1.4360
 3843SOL    HW223163   3.765   1.675   4.118 -2.1210  0.9256 -1.7082
 3844SOL     OW23164   0.223   2.739   2.845 -0.1335  1.2019  0.0500
 3844SOL    HW123165   0.267   2.729   2.761 -0.0324 -2.4268  0.5403
 3844SOL    HW223166   0.294   2.786   2.888 -0.9496  0.3969  2.2879
 3845SOL     OW23167   1.819   3.041   9.061  0.1170 -0.0257  0.1232
 3845SOL    HW123168   1.895   3.021   9.116 -0.4441 -1.1899  0.4635
 3845SOL    HW223169   1.746   3.054   9.120 -1.6249  1.7073 -2.4399
 3846SOL     OW23170   2.999   4.439   3.838 -0.2755 -0.0874 -0.5123
 3846SOL    HW123171   3.034   4.414   3.924  2.0954  1.3481 -1.0576
 3846SOL    HW223172   3.070   4.452   3.775  1.4198  2.2553  1.8813
 3847SOL     OW23173   4.669   0.408   0.375 -0.5174 -0.0031 -0.1859
 3847SOL    HW123174   0.025   0.405   0.395 -0.7062 -0.2121  0.6771
 3847SOL    HW223175   4.637   0.338   0.432  1.9929 -0.9332  0.0509
 3848SOL     OW23176   0.102   1.683   4.332  0.1779 -0.1563 -0.8004
 3848SOL    HW123177   0.156   1.605   4.322 -0.7099 -0.8514 -0.0918
 3848SOL    HW223178   0.163   1.753   4.307 -0.1193  0.3481 -0.0950
 3849SOL     OW23179   0.731   4.299   3.684  0.1578 -0.1817 -0.0299
 3849SOL    HW123180   0.814   4.339   3.710 -0.9326  1.7098  0.5430
 3849SOL    HW223181   0.754   4.257   3.602  1.1808 -3.3066  1.8498
 3850SOL     OW23182   3.075   1.421  14.494 -0.0913  0.4495 -0.2578
 3850SOL    HW123183   3.105   1.423  14.403 -0.8691  4.0698 -0.4215
 3850SOL    HW223184   3.100   1.510  14.517  1.4903 -0.1037  0.1283
 3851SOL     OW23185   4.489   2.778   8.842 -0.3716  0.3729 -0.2634
 3851SOL    HW123186   4.473   2.870   8.861 -0.9181  0.0609  0.8176
 3851SOL    HW223187   4.400   2.748   8.826  0.7062 -1.5687 -2.6247
 3852SOL     OW23188   0.865   1.452   1.687 -0.1863 -0.2987 -0.4568
 3852SOL    HW123189   0.847   1.386   1.620  2.0790  0.2739 -1.6393
 3852SOL    HW223190   0.791   1.444   1.747  0.3815  1.3654  0.4494
 3853SOL     OW23191   1.798   2.050   5.302 -0.9163  0.2748 -0.1124
 3853SOL    HW123192   1.751   2.001   5.370 -3.0099  3.4013  0.7001
 3853SOL    HW223193   1.787   2.141   5.328  0.4959  1.1122 -2.4933
 3854SOL     OW23194   1.564   3.152   5.157 -0.6019 -0.7119  0.5911
 3854SOL    HW123195   1.616   3.188   5.229 -1.9851  0.5052  0.9614
 3854SOL    HW223196   1.555   3.058   5.172  0.9977 -1.0825 -0.7421
 3855SOL     OW23197   0.873   3.929   2.967  0.3501  0.2949 -0.5284
 3855SOL    HW123198   0.844   3.893   3.050  1.6777 -0.4526 -0.3918
 3855SOL    HW223199   0.806   3.904   2.904 -0.3767  0.8915  0.0149
 3856SOL     OW23200   0.281   2.172   5.915  0.3789  0.3747 -0.0023
 3856SOL    HW123201   0.349   2.162   5.983  1.2756 -0.5983 -1.0362
 3856SOL    HW223202   0.315   2.237   5.853  1.6960 -0.0489  0.2692
 3857SOL     OW23203   1.228   1.648   3.528 -0.5316  0.2388  0.5096
 3857SOL    HW123204   1.188   1.704   3.595 -0.9213 -0.9790  1.2739
 3857SOL    HW223205   1.261   1.579   3.586 -2.2805  0.1554  1.4127
 3858SOL     OW23206   4.719   1.434   7.540  0.3155  0.3425  0.4300
 3858SOL    HW123207   0.064   1.466   7.504  0.5438 -0.6418  0.0574
 3858SOL    HW223208   0.014   1.363   7.596 -1.4167  0.5212  1.6605
 3859SOL     OW23209   1.517   1.776   7.526  0.7913 -0.5808 -0.3180
 3859SOL    HW123210   1.466   1.756   7.605 -0.0171  0.3511 -0.6154
 3859SOL    HW223211   1.515   1.872   7.528 -0.8132 -0.5896 -2.2120
 3860SOL     OW23212   2.855   1.177   4.313 -0.1534 -0.1271 -0.6153
 3860SOL    HW123213   2.778   1.233   4.307 -0.3154 -0.3836 -0.9683
 3860SOL    HW223214   2.861   1.165   4.408 -0.9225  1.1470 -0.4106
 3861SOL     OW23215   0.583   0.403   1.534  0.3149  0.1255 -0.2310
 3861SOL    HW123216   0.603   0.495   1.517 -2.0754  0.2972 -2.0832
 3861SOL    HW223217   0.651   0.369   1.475 -2.2790 -3.0309 -1.4068
 3862SOL     OW23218   4.484   3.021   4.553  0.5997 -0.9299  0.4176
 3862SOL    HW123219   4.449   3.085   4.615  0.2920 -1.8227  1.1709
 3862SOL    HW223220   4.422   3.030   4.481  1.7354  0.8364 -0.3244
 3863SOL     OW23221   2.595   4.121   4.167  0.3861 -0.1048  0.2493
 3863SOL    HW123222   2.541   4.084   4.097 -0.6129  1.7747  0.0133
 3863SOL    HW223223   2.678   4.124   4.121  0.6901 -1.7057  0.7023
 3864SOL     OW23224   2.117   4.423   7.308  0.5929  0.0589 -0.1021
 3864SOL    HW123225   2.050   4.429   7.240  0.9703  0.9805 -0.3969
 3864SOL    HW223226   2.089   4.347   7.360  2.2240 -1.6226 -1.6548
 3865SOL     OW23227   2.173   0.308  11.435 -0.2032 -0.2431 -0.3610
 3865SOL    HW123228   2.170   0.393  11.480 -2.5843  0.3863 -1.7249
 3865SOL    HW223229   2.192   0.343  11.348 -1.3557 -1.3396 -1.0484
 3866SOL     OW23230   2.884   0.117   7.075 -0.3149 -0.3239  0.5255
 3866SOL    HW123231   2.975   0.092   7.090  0.4449 -0.0138 -3.5203
 3866SOL    HW223232   2.896   0.136   6.982  1.7763  0.0384  0.8874
 3867SOL     OW23233   1.787   3.165   6.112 -0.6945 -0.9681  0.0737
 3867SOL    HW123234   1.743   3.126   6.037 -0.9452  0.6070 -0.6076
 3867SOL    HW223235   1.852   3.096   6.125  0.2541 -0.2250 -0.6848
 3868SOL     OW23236   3.099   2.543   8.175  0.1303 -0.2504 -0.3164
 3868SOL    HW123237   3.146   2.581   8.249  0.5949  2.4417 -1.9696
 3868SOL    HW223238   3.174   2.528   8.117  0.2970  1.9787 -0.6853
 3869SOL     OW23239   1.461   1.092  10.144  0.3279  0.0274 -0.7197
 3869SOL    HW123240   1.411   1.030  10.091  1.8139 -1.4480 -0.3931
 3869SOL    HW223241   1.412   1.171  10.122  4.7147  2.9457  0.0873
 3870SOL     OW23242   0.986   1.198   4.514  0.0608  0.0563 -0.0931
 3870SOL    HW123243   1.060   1.251   4.485  0.2826 -0.4049 -0.3647
 3870SOL    HW223244   1.027   1.113   4.527 -1.9458 -0.7610  0.8905
 3871SOL     OW23245   0.016   1.253   0.326 -0.2929  0.5672 -0.1817
 3871SOL    HW123246   4.721   1.259   0.416  1.8283  0.5491  0.5908
 3871SOL    HW223247   4.694   1.185   0.293  1.7365  0.0434 -2.7544
 3872SOL     OW23248   2.187   1.298   3.868 -0.6058  0.2166  0.0436
 3872SOL    HW123249   2.274   1.310   3.829  0.3364  0.4982  2.2616
 3872SOL    HW223250   2.192   1.346   3.950 -0.7285  0.5176 -0.1228
 3873SOL     OW23251   1.807   0.290  10.934  0.0153  0.2313 -0.0485
 3873SOL    HW123252   1.870   0.348  10.892 -1.0499  1.4173 -0.0182
 3873SOL    HW223253   1.754   0.361  10.970 -2.5058 -1.7457  0.2168
 3874SOL     OW23254   0.681   2.859  10.789  0.4233  0.0717 -0.5712
 3874SOL    HW123255   0.737   2.931  10.819  1.7776 -1.3345  0.2719
 3874SOL    HW223256   0.716   2.782  10.834  0.3363  2.2553  3.2295
 3875SOL     OW23257   1.730   4.333   9.194 -0.0088  0.0038  0.0939
 3875SOL    HW123258   1.769   4.366   9.275  0.6479 -2.7117  0.8548
 3875SOL    HW223259   1.803   4.348   9.134  0.8010 -0.1041  1.0505
 3876SOL     OW23260   2.181   4.670  11.681  0.3067  0.0617 -0.4167
 3876SOL    HW123261   2.156   4.711  11.598  3.0433 -1.5406 -2.0725
 3876SOL    HW223262   2.216   4.587  11.648  2.6693  0.8519  0.0922
 3877SOL     OW23263   3.532   3.329   5.343  0.3562  0.1900  1.1800
 3877SOL    HW123264   3.577   3.386   5.281  0.1754 -0.1541  0.7278
 3877SOL    HW223265   3.446   3.368   5.327  1.6571  2.3395 -0.5932
 3878SOL     OW23266   3.904   2.355   3.339  0.0376  0.2087 -0.4176
 3878SOL    HW123267   3.820   2.309   3.340 -0.2110  0.6723 -0.0077
 3878SOL    HW223268   3.878   2.447   3.335 -1.6833 -0.1911  2.0591
 3879SOL     OW23269   2.359   0.424  16.617  0.7283 -0.2590 -0.2389
 3879SOL    HW123270   2.442   0.380  16.637  1.3923  2.6318  3.2784
 3879SOL    HW223271   2.333   0.387  16.532 -0.4347  0.6444 -0.2680
 3880SOL     OW23272   0.143   3.900   2.905 -0.5323  0.2809  0.6422
 3880SOL    HW123273   0.094   3.840   2.962 -1.8770  0.6931 -0.0969
 3880SOL    HW223274   0.166   3.970   2.967  1.3576 -1.0728  1.4622
 3881SOL     OW23275   3.671   2.030  16.417 -0.3558 -0.3855 -0.7671
 3881SOL    HW123276   3.693   2.082  16.340 -1.2264 -1.3283 -1.6569
 3881SOL    HW223277   3.703   2.095  16.480 -0.1670 -2.3412  1.1491
 3882SOL     OW23278   0.571   0.642   5.834 -0.4554  0.1258 -0.0312
 3882SOL    HW123279   0.651   0.694   5.833 -1.0242  0.9663 -1.3182
 3882SOL    HW223280   0.523   0.686   5.764 -0.1541 -0.9837 -0.9238
 3883SOL     OW23281   2.874   3.136   2.534  0.1878 -0.2402  0.3958
 3883SOL    HW123282   2.853   3.228   2.548  1.7224  0.4635 -1.9626
 3883SOL    HW223283   2.914   3.138   2.448  1.7848  0.3768  1.1627
 3884SOL     OW23284   2.667   1.961   2.701 -0.6252 -0.3012 -0.2398
 3884SOL    HW123285   2.674   1.873   2.664 -1.9383  0.1948 -1.6769
 3884SOL    HW223286   2.651   1.949   2.795  0.6137 -1.4138 -0.1792
 3885SOL     OW23287   0.302   2.691   0.934 -0.5322  0.6029 -0.2659
 3885SOL    HW123288   0.252   2.661   1.010 -2.3870  1.4091 -1.1555
 3885SOL    HW223289   0.390   2.708   0.966  0.0766 -0.0253 -1.6022
 3886SOL     OW23290   3.716   2.980  12.537  0.0762  0.1855 -0.4609
 3886SOL    HW123291   3.640   2.922  12.527  2.0277 -2.5575  0.3748
 3886SOL    HW223292   3.794   2.925  12.537 -0.6678 -0.8587 -1.3817
 3887SOL     OW23293   1.940   3.678   3.226 -0.3423  0.5017 -0.1134
 3887SOL    HW123294   1.992   3.754   3.251 -1.1943  0.8362  0.6346
 3887SOL    HW223295   1.981   3.619   3.289  0.2470  1.4635  0.3987
 3888SOL     OW23296   4.503   0.476   1.493 -0.1958  0.0703 -0.5098
 3888SOL    HW123297   4.496   0.460   1.587 -0.8375  0.5307 -0.4843
 3888SOL    HW223298   4.431   0.536   1.473 -0.8275 -1.3086 -2.3082
 3889SOL     OW23299   4.400   0.937   5.543 -0.2446 -0.5161 -0.3184
 3889SOL    HW123300   4.400   0.848   5.578  3.4591 -0.4967 -0.2854
 3889SOL    HW223301   4.417   0.990   5.621 -1.2971 -0.4302 -0.1467
 3890SOL     OW23302   1.923   2.271   6.452  0.0397 -0.6413 -0.3917
 3890SOL    HW123303   1.901   2.248   6.542 -1.3775 -0.0858 -0.5905
 3890SOL    HW223304   1.996   2.327   6.476  0.2860 -0.5735 -1.3114
 3891SOL     OW23305   0.545   2.622  13.014 -0.0125 -0.5115 -0.1984
 3891SOL    HW123306   0.569   2.533  13.039  0.2250 -0.5756 -0.6536
 3891SOL    HW223307   0.474   2.639  13.076 -0.3797 -0.5900 -0.5951
 3892SOL     OW23308   0.108   0.354  15.412 -0.1583 -0.4734  1.0922
 3892SOL    HW123309   0.090   0.273  15.460  2.7600 -1.4182  0.6037
 3892SOL    HW223310   0.126   0.320  15.324 -2.4301  0.7052  0.1648
 3893SOL     OW23311   1.132   1.349   5.059  0.3902 -0.1662 -0.2687
 3893SOL    HW123312   1.124   1.305   4.974 -2.1817 -0.4909  0.1291
 3893SOL    HW223313   1.096   1.432   5.029 -1.6335 -1.1669 -0.6184
 3894SOL     OW23314   2.006   1.184   6.529 -0.4780  0.5173 -0.4251
 3894SOL    HW123315   2.078   1.171   6.469  0.5899  1.6414  0.6117
 3894SOL    HW223316   1.939   1.207   6.465 -1.4434 -0.5543  0.1967
 3895SOL     OW23317   4.291   2.442   6.750  0.1429 -0.5274  0.4884
 3895SOL    HW123318   4.338   2.503   6.806 -1.8022 -0.2787  1.8545
 3895SOL    HW223319   4.357   2.419   6.684  0.6668  1.3583  0.3482
 3896SOL     OW23320   0.767   2.450   4.161 -0.6275 -0.2206  0.1873
 3896SOL    HW123321   0.711   2.414   4.091 -0.8742 -1.5665  1.0780
 3896SOL    HW223322   0.834   2.489   4.104 -0.5317 -1.5478 -0.6159
 3897SOL     OW23323   3.272   0.083   1.974  0.0109  0.4088 -0.5881
 3897SOL    HW123324   3.268   0.058   2.067 -0.1644  1.6716 -0.2633
 3897SOL    HW223325   3.179   0.103   1.966  0.0681  2.2539  3.3992
 3898SOL     OW23326   3.688   0.480  12.236  0.1044  0.6075 -0.6077
 3898SOL    HW123327   3.760   0.526  12.193  0.1536  0.9900 -0.1234
 3898SOL    HW223328   3.668   0.402  12.185 -1.1130 -1.6709  3.3013
 3899SOL     OW23329   3.395   0.210   8.807  0.4030 -0.0967  0.1248
 3899SOL    HW123330   3.385   0.193   8.900  2.6912  0.9838  0.5641
 3899SOL    HW223331   3.390   0.306   8.802 -2.2017 -0.4135 -3.4842
 3900SOL     OW23332   2.456   0.076   4.001  0.4774 -0.1987  0.1822
 3900SOL    HW123333   2.482   0.081   4.094  0.5631  0.9364  0.0955
 3900SOL    HW223334   2.490   4.727   3.976  0.4628  0.4363 -2.0158
 3901SOL     OW23335   0.508   1.562   3.797 -0.3637 -0.3218 -0.2577
 3901SOL    HW123336   0.461   1.628   3.745 -1.0045  0.1606  0.9310
 3901SOL    HW223337   0.449   1.536   3.867 -0.9421 -0.5376 -0.8320
 3902SOL     OW23338   1.333   4.018   8.884  0.7402  0.0631 -0.4250
 3902SOL    HW123339   1.376   4.056   8.808 -1.1691 -0.0734 -1.5638
 3902SOL    HW223340   1.305   4.097   8.932 -1.1644 -1.7596  1.4584
 3903SOL     OW23341   4.554   4.179   7.341  0.2269  0.0307 -0.1344
 3903SOL    HW123342   4.573   4.273   7.341  0.4302 -0.0150  3.0064
 3903SOL    HW223343   4.629   4.150   7.290  0.3947  1.6293 -0.7992
 3904SOL     OW23344   4.033   3.619  13.537  0.7015 -0.2484 -0.5309
 3904SOL    HW123345   4.084   3.700  13.540 -1.2204  0.9517  0.1816
 3904SOL    HW223346   4.074   3.559  13.475 -3.3858 -3.9086  0.3069
 3905SOL     OW23347   4.596   4.250   6.035 -0.1475  0.0308  0.6986
 3905SOL    HW123348   4.565   4.248   5.944  0.8585  1.0865  0.3284
 3905SOL    HW223349   4.528   4.304   6.074  0.6446  0.3617  1.6188
 3906SOL     OW23350   4.191   0.628   9.224  0.7177  0.1010 -0.1736
 3906SOL    HW123351   4.234   0.558   9.273  0.4435 -0.9373 -1.4157
 3906SOL    HW223352   4.231   0.707   9.260  0.0825  0.8792 -1.1577
 3907SOL     OW23353   4.457   1.941  17.064 -0.0261  0.9494 -0.0013
 3907SOL    HW123354   4.492   2.015  17.015  1.7857  1.2010  1.6610
 3907SOL    HW223355   4.363   1.956  17.066  0.3782  3.5004 -0.9915
 3908SOL     OW23356   0.943   3.910  16.717 -0.0821  0.0438 -0.0111
 3908SOL    HW123357   1.024   3.879  16.759 -0.2783 -1.2059 -0.5385
 3908SOL    HW223358   0.952   4.003  16.739  0.8433  0.0949 -0.6099
 3909SOL     OW23359   0.939   3.033  17.427  0.4301  0.1058 -0.1231
 3909SOL    HW123360   0.879   3.108  17.430  0.1738 -0.1883  2.1973
 3909SOL    HW223361   0.939   3.016  17.333 -1.0875 -1.2111  0.1333
 3910SOL     OW23362   1.462   1.212   7.918 -0.1452 -0.6882 -0.4261
 3910SOL    HW123363   1.500   1.199   8.005  0.9020  0.7818 -0.6586
 3910SOL    HW223364   1.371   1.195   7.943  0.4690 -1.5664  1.2061
 3911SOL     OW23365   1.789   3.267  12.535 -0.1014  0.1246 -0.0784
 3911SOL    HW123366   1.847   3.344  12.531 -0.6868  0.5246 -0.8666
 3911SOL    HW223367   1.776   3.240  12.626  0.8173  0.1421  0.0577
 3912SOL     OW23368   1.461   0.155   7.085 -0.3062 -0.5919 -0.2272
 3912SOL    HW123369   1.371   0.139   7.057 -0.4822 -0.9239  0.5071
 3912SOL    HW223370   1.494   0.233   7.041  1.6108 -0.7365  0.9312
 3913SOL     OW23371   2.570   1.004  12.342  0.4054  0.1187  0.0561
 3913SOL    HW123372   2.578   1.073  12.276 -0.8865 -0.2127 -0.4650
 3913SOL    HW223373   2.474   1.004  12.352  0.2072 -1.2965 -1.8204
 3914SOL     OW23374   0.921   4.222   8.742 -0.1463  0.1898 -0.7962
 3914SOL    HW123375   0.908   4.149   8.682  1.3644  0.9736 -2.0810
 3914SOL    HW223376   0.837   4.217   8.787 -0.3953  1.0165 -1.1640
 3915SOL     OW23377   4.053   3.982  11.614 -0.5925 -0.1687 -0.6030
 3915SOL    HW123378   3.961   4.008  11.615 -0.0371  1.7948  0.4940
 3915SOL    HW223379   4.048   3.887  11.604  1.4612 -0.0545 -2.8058
 3916SOL     OW23380   0.107   2.593   8.769  0.0026 -0.5140 -0.5328
 3916SOL    HW123381   0.023   2.554   8.744  0.3266 -1.6072  0.1029
 3916SOL    HW223382   0.157   2.513   8.785  0.5490  0.2805  1.6558
 3917SOL     OW23383   1.841   0.684   2.522 -1.0477 -0.1033 -0.1494
 3917SOL    HW123384   1.832   0.773   2.486  0.8826  0.3642  0.5025
 3917SOL    HW223385   1.765   0.677   2.580 -2.3445 -1.0860 -1.9508
 3918SOL     OW23386   3.844   1.697   3.374  0.4458 -0.3388 -0.1469
 3918SOL    HW123387   3.768   1.640   3.365 -0.9059  1.2483  1.3299
 3918SOL    HW223388   3.911   1.633   3.400  0.7514 -0.1272 -0.4135
 3919SOL     OW23389   4.287   3.962   4.622  0.3454 -0.5039 -0.2427
 3919SOL    HW123390   4.201   3.933   4.652 -0.9518  3.4550 -0.1630
 3919SOL    HW223391   4.312   4.006   4.703 -0.5823  0.2415 -0.3695
 3920SOL     OW23392   3.550   3.412   5.700  0.2216  0.6982 -0.3163
 3920SOL    HW123393   3.494   3.354   5.647 -0.4128  0.6777  0.3755
 3920SOL    HW223394   3.542   3.376   5.788 -1.1805 -2.1080 -1.6154
 3921SOL     OW23395   0.976   4.039  17.655  0.0772  0.3431  0.2148
 3921SOL    HW123396   0.945   4.088  17.731  1.5341  4.0670 -1.5748
 3921SOL    HW223397   0.950   3.952  17.683 -0.9216  0.4830 -0.2728
 3922SOL     OW23398   1.087   4.532  14.458  0.7150  0.1646  0.5737
 3922SOL    HW123399   1.141   4.519  14.380 -0.5843  1.2668 -0.5061
 3922SOL    HW223400   1.037   4.452  14.469  2.6606 -0.8510  2.0968
 3923SOL     OW23401   2.900   3.857   9.361  0.2795 -0.3893 -0.2009
 3923SOL    HW123402   2.898   3.778   9.415  3.0154  0.1958  0.7488
 3923SOL    HW223403   2.840   3.922   9.397  1.1085 -1.4206  3.0114
 3924SOL     OW23404   4.405   0.450  10.558 -0.2123 -0.1255 -0.2134
 3924SOL    HW123405   4.479   0.393  10.579 -0.1417  0.0127 -0.0901
 3924SOL    HW223406   4.330   0.413  10.605 -0.5968  1.1279  0.1750
 3925SOL     OW23407   0.471   1.705  16.619  0.2506 -0.2007  0.3189
 3925SOL    HW123408   0.488   1.800  16.615 -0.8159 -0.0420 -0.7404
 3925SOL    HW223409   0.401   1.708  16.684  0.7781  2.0371  0.8007
 3926SOL     OW23410   0.120   2.260   3.714 -0.0795  0.3816 -0.0203
 3926SOL    HW123411   0.062   2.205   3.661 -0.0599  1.6635 -1.3732
 3926SOL    HW223412   0.059   2.326   3.747 -1.1687 -0.4428 -0.3612
 3927SOL     OW23413   2.466   0.693   1.784  0.4326  0.4432 -0.3949
 3927SOL    HW123414   2.494   0.757   1.849 -0.6130 -0.1203  0.6095
 3927SOL    HW223415   2.413   0.737   1.718 -0.8140 -0.1583  0.2025
 3928SOL     OW23416   2.062   3.255   3.210 -0.1300 -0.1917  0.0083
 3928SOL    HW123417   1.979   3.229   3.169 -0.7759  2.1492 -0.2284
 3928SOL    HW223418   2.111   3.272   3.130  0.9398  0.1810  0.7366
 3929SOL     OW23419   1.890   0.758   8.078 -0.7426  0.4057  0.0998
 3929SOL    HW123420   1.977   0.758   8.038 -0.0644 -0.1653  1.5853
 3929SOL    HW223421   1.849   0.680   8.040 -2.1287  0.6143  1.1871
 3930SOL     OW23422   3.571   0.423   8.220 -0.1722  0.0760  0.0457
 3930SOL    HW123423   3.506   0.448   8.154 -0.6158 -0.6252  0.2203
 3930SOL    HW223424   3.533   0.347   8.265 -0.9522  0.6788  0.3935
 3931SOL     OW23425   4.583   0.064   1.549 -0.9241 -0.4961  0.0673
 3931SOL    HW123426   4.530   0.086   1.472 -1.6112 -2.4070 -0.0120
 3931SOL    HW223427   4.668   0.104   1.529  0.1357 -2.7649  0.0529
 3932SOL     OW23428   2.321   1.335   7.563 -0.2856 -0.3453  0.0907
 3932SOL    HW123429   2.388   1.322   7.630 -0.1751 -0.9115 -0.1298
 3932SOL    HW223430   2.328   1.254   7.512  0.7414 -0.9149  1.1370
 3933SOL     OW23431   0.655   2.467   7.106  0.0826  0.2175 -0.1031
 3933SOL    HW123432   0.584   2.481   7.169 -0.5731 -2.0991 -0.3567
 3933SOL    HW223433   0.608   2.493   7.026  1.4463 -0.5255 -1.1531
 3934SOL     OW23434   0.069   0.383   4.905 -0.0404 -0.2048  0.2590
 3934SOL    HW123435   0.013   0.346   4.838  1.8184 -0.9187 -0.9099
 3934SOL    HW223436   0.122   0.450   4.862  0.8376  0.8398  2.9465
 3935SOL     OW23437   4.247   0.553   7.082  0.5865  0.3494  0.4721
 3935SOL    HW123438   4.214   0.637   7.050  0.2098 -0.7968 -2.1885
 3935SOL    HW223439   4.232   0.567   7.175  0.5818 -3.1497  0.9839
 3936SOL     OW23440   1.126   1.840   4.311  0.0093  0.0432  0.6824
 3936SOL    HW123441   1.067   1.898   4.264 -3.2758 -1.6981  2.6093
 3936SOL    HW223442   1.070   1.762   4.318 -1.5163  1.0007 -0.8435
 3937SOL     OW23443   2.385   4.035   2.958  0.0812 -0.4407 -0.1142
 3937SOL    HW123444   2.363   3.943   2.943  0.0097 -0.3554 -0.5159
 3937SOL    HW223445   2.299   4.069   2.982  0.7263 -0.0195  1.6175
 3938SOL     OW23446   2.526   1.257  16.383  0.0515  0.3351  0.1637
 3938SOL    HW123447   2.593   1.254  16.450  0.0497 -1.4654  0.0736
 3938SOL    HW223448   2.459   1.312  16.424 -2.0258 -1.7081 -0.4780
 3939SOL     OW23449   0.995   2.929   6.288 -0.4214  0.7714  0.3350
 3939SOL    HW123450   1.018   2.969   6.204  0.6231 -0.8262 -0.1312
 3939SOL    HW223451   1.075   2.944   6.337  0.4372 -0.1739 -0.7797
 3940SOL     OW23452   2.286   4.199   2.110  0.0277  0.0923  0.1305
 3940SOL    HW123453   2.223   4.135   2.079 -1.5147  1.1004  1.1812
 3940SOL    HW223454   2.226   4.256   2.158  0.6150 -0.2472  1.2747
 3941SOL     OW23455   1.596   0.897   2.872 -0.0064 -0.1931  0.3389
 3941SOL    HW123456   1.565   0.982   2.842 -1.4340  0.3414  3.3914
 3941SOL    HW223457   1.554   0.889   2.957 -0.1205 -2.1498  0.0998
 3942SOL     OW23458   2.835   0.453   9.710  0.5942 -0.6820 -0.0670
 3942SOL    HW123459   2.878   0.537   9.729  0.6509 -0.9577  1.0606
 3942SOL    HW223460   2.801   0.424   9.795 -1.8334  1.5707 -0.2415
 3943SOL     OW23461   1.839   1.096   6.734  0.4100 -0.3830  0.1966
 3943SOL    HW123462   1.898   1.085   6.659 -0.5977 -1.9286 -0.3661
 3943SOL    HW223463   1.772   1.134   6.679 -1.1687  0.9152  3.0176
 3944SOL     OW23464   1.786   3.548  12.231  0.2901  0.3724  0.3613
 3944SOL    HW123465   1.821   3.572  12.317 -2.1881  1.6266  1.0137
 3944SOL    HW223466   1.865   3.528  12.179 -1.6418 -2.1766 -1.6035
 3945SOL     OW23467   0.193   0.240   2.763  0.2389  0.1670  0.2013
 3945SOL    HW123468   0.242   0.227   2.682 -4.1266  2.0566 -2.7445
 3945SOL    HW223469   0.230   0.190   2.835  0.5034 -1.9412 -1.4010
 3946SOL     OW23470   2.444   2.857   1.838 -0.0821 -0.0827  0.1039
 3946SOL    HW123471   2.353   2.828   1.845 -0.5622  1.4711  0.2873
 3946SOL    HW223472   2.486   2.801   1.903 -1.8827  0.2249  1.5177
 3947SOL     OW23473   2.961   0.006   2.536 -0.1073  0.2469 -0.2878
 3947SOL    HW123474   2.947   4.671   2.597  1.4124  0.3742  0.2177
 3947SOL    HW223475   3.038   0.035   2.585  0.5054 -0.4398 -0.8537
 3948SOL     OW23476   3.244   0.177   8.547 -0.1463 -0.3169  0.0090
 3948SOL    HW123477   3.253   0.155   8.640 -0.8145 -2.2176 -0.3724
 3948SOL    HW223478   3.238   0.091   8.506  0.1900  0.0956 -0.9037
 3949SOL     OW23479   4.395   3.984   5.184 -0.0826  0.3183  0.2108
 3949SOL    HW123480   4.481   3.964   5.223  0.8968  2.0732 -1.0264
 3949SOL    HW223481   4.354   3.898   5.187  1.5870 -0.4734  0.5471
 3950SOL     OW23482   3.358   0.627   0.550 -0.6906 -0.2197 -0.2887
 3950SOL    HW123483   3.270   0.591   0.557 -0.6055 -0.3577  0.0583
 3950SOL    HW223484   3.373   0.626   0.455  0.9988  2.1845 -0.0682
 3951SOL     OW23485   4.346   1.175   6.262 -0.2930 -0.0019 -0.2916
 3951SOL    HW123486   4.351   1.256   6.313  2.5041  0.6133 -1.5551
 3951SOL    HW223487   4.369   1.107   6.325  2.4826 -0.3437 -1.6717
 3952SOL     OW23488   4.213   2.805   7.831  0.1321  0.0657 -0.2260
 3952SOL    HW123489   4.237   2.857   7.908  3.8197  0.2633 -1.4876
 3952SOL    HW223490   4.223   2.716   7.864 -1.1363  0.2662  0.7101
 3953SOL     OW23491   1.581   0.324   8.520 -0.3247  0.2614  0.1114
 3953SOL    HW123492   1.647   0.267   8.559  0.3390  1.2275  0.4316
 3953SOL    HW223493   1.566   0.291   8.432 -0.1474  2.4004 -0.7175
 3954SOL     OW23494   2.578   0.301  16.161  0.1569 -0.1972 -0.0434
 3954SOL    HW123495   2.591   0.386  16.120  0.2845  1.2539  3.0202
 3954SOL    HW223496   2.558   0.242  16.089 -0.9198 -0.1824  0.2478
 3955SOL     OW23497   1.466   0.944   7.644 -0.0877  0.3927 -0.5678
 3955SOL    HW123498   1.515   1.026   7.635  1.9993 -0.6182  1.4880
 3955SOL    HW223499   1.409   0.983   7.711  0.3693  1.2816 -0.6900
 3956SOL     OW23500   1.996   1.204   9.562 -0.7778  0.3626  0.0423
 3956SOL    HW123501   2.087   1.173   9.564 -0.8869  0.2406  2.4637
 3956SOL    HW223502   1.945   1.140   9.611  0.2492 -1.4387 -1.2351
 3957SOL     OW23503   2.133   0.170  14.953  0.7886 -0.4570  0.3140
 3957SOL    HW123504   2.069   0.236  14.981 -0.2991 -0.7445 -1.4934
 3957SOL    HW223505   2.077   0.096  14.930  0.6016 -0.9019  2.2164
 3958SOL     OW23506   0.267   1.479   5.851 -0.1714 -0.6131 -0.3495
 3958SOL    HW123507   0.281   1.537   5.777 -2.1322  1.8465  1.2180
 3958SOL    HW223508   0.255   1.395   5.806 -0.1808 -0.7531 -0.0866
 3959SOL     OW23509   0.916   0.136   4.457  0.0812  0.3545 -1.0835
 3959SOL    HW123510   0.976   0.166   4.525 -0.7561 -1.1598  0.3470
 3959SOL    HW223511   0.833   0.118   4.501 -0.8876  0.5051 -2.8577
 3960SOL     OW23512   2.248   2.869   7.515 -0.0070 -0.0014 -0.1614
 3960SOL    HW123513   2.298   2.841   7.438 -0.2382  2.9086 -1.3764
 3960SOL    HW223514   2.167   2.819   7.502  0.2969  0.1644 -2.7037
 3961SOL     OW23515   3.201   4.357   8.446 -0.1838 -0.1496 -0.0449
 3961SOL    HW123516   3.116   4.400   8.439  0.0280 -0.2529 -3.1881
 3961SOL    HW223517   3.184   4.285   8.386 -0.9331 -1.6843  2.0097
 3962SOL     OW23518   2.679   0.410   8.257  0.3359  0.7765  0.0737
 3962SOL    HW123519   2.743   0.447   8.196 -1.5441  2.1291 -1.1024
 3962SOL    HW223520   2.728   0.413   8.339 -1.7458 -1.8553  1.3851
 3963SOL     OW23521   3.420   4.630  10.213  0.4328  0.4015  0.8916
 3963SOL    HW123522   3.509   4.657  10.192  0.1952  0.8718  0.4923
 3963SOL    HW223523   3.439   4.588  10.297  0.5974 -2.0256 -0.3492
 3964SOL     OW23524   1.443   1.036  14.145  0.3655 -0.2217 -0.1540
 3964SOL    HW123525   1.471   1.126  14.164  0.4136  0.1289 -1.8232
 3964SOL    HW223526   1.522   0.994  14.109  0.9483 -0.9923  2.0530
 3965SOL     OW23527   0.399   3.687  13.635 -0.0845 -0.2661 -0.3036
 3965SOL    HW123528   0.398   3.595  13.661  1.0613  0.0859  1.0031
 3965SOL    HW223529   0.473   3.679  13.574 -0.5710  1.6446 -1.1396
 3966SOL     OW23530   3.420   0.653   3.390  0.8130 -0.3687 -0.4288
 3966SOL    HW123531   3.336   0.689   3.418  0.5198  0.3624 -2.2481
 3966SOL    HW223532   3.475   0.732   3.399 -1.1548  0.8599  0.8086
 3967SOL     OW23533   0.131   2.130  13.189  0.2729 -0.0074  0.1771
 3967SOL    HW123534   0.166   2.218  13.202  1.7234 -0.2528 -1.9397
 3967SOL    HW223535   0.162   2.104  13.102  0.2141 -2.2755  0.8350
 3968SOL     OW23536   2.232   0.318   9.834 -0.4270 -0.9381 -0.1289
 3968SOL    HW123537   2.302   0.260   9.863  0.2325 -0.4888 -0.8148
 3968SOL    HW223538   2.187   0.266   9.768 -0.5803 -1.0603  0.0731
 3969SOL     OW23539   2.509   3.231   6.126  0.4476 -0.1344 -0.3486
 3969SOL    HW123540   2.526   3.138   6.136 -0.3964 -0.3541 -0.9890
 3969SOL    HW223541   2.435   3.243   6.186  0.6634 -0.1331 -0.0805
 3970SOL     OW23542   2.104   3.170   8.877 -0.1556 -0.0769  0.1983
 3970SOL    HW123543   2.161   3.239   8.911  0.6821 -1.5818  1.8231
 3970SOL    HW223544   2.073   3.139   8.962  0.9002 -0.4814  0.4339
 3971SOL     OW23545   4.633   0.457   2.068 -0.5246 -0.0016  0.0759
 3971SOL    HW123546   4.712   0.510   2.083  0.2368 -1.3334  0.7377
 3971SOL    HW223547   4.668   0.393   2.006 -0.0857 -0.1486  0.4735
 3972SOL     OW23548   4.196   1.761   2.572  0.6073  0.5465 -0.6798
 3972SOL    HW123549   4.280   1.720   2.553  1.0782  1.6472 -0.9934
 3972SOL    HW223550   4.224   1.852   2.577  1.2117  0.3482 -0.4852
 3973SOL     OW23551   0.549   1.258  16.019 -0.4369  0.5327 -0.3292
 3973SOL    HW123552   0.642   1.268  15.995 -0.4580  0.2099 -0.5344
 3973SOL    HW223553   0.520   1.347  15.997 -1.0628 -0.2023 -2.3664
 3974SOL     OW23554   0.012   2.143   5.868  0.6550  0.0286  0.5425
 3974SOL    HW123555   0.105   2.160   5.860  0.2783  0.9568 -2.0382
 3974SOL    HW223556   0.008   2.089   5.790 -2.9228  1.1864 -0.1094
 3975SOL     OW23557   3.721   0.476   4.749 -0.3464 -0.3330  0.0847
 3975SOL    HW123558   3.648   0.522   4.789 -0.4547  0.3468 -0.8865
 3975SOL    HW223559   3.682   0.419   4.681 -1.9220  1.5612 -0.6022
 3976SOL     OW23560   2.196   1.963   3.914  0.1814  0.0035 -0.1832
 3976SOL    HW123561   2.263   2.005   3.968  1.3399 -2.0936 -0.0032
 3976SOL    HW223562   2.217   1.999   3.828  1.6306  0.9795  0.5889
 3977SOL     OW23563   3.794   1.373   1.623 -0.2915 -0.7272  0.6659
 3977SOL    HW123564   3.750   1.290   1.606  0.8567 -1.4603  1.1927
 3977SOL    HW223565   3.842   1.376   1.540 -0.9029 -1.3910  0.2926
 3978SOL     OW23566   1.681   4.559   5.305  0.2961  0.0567  0.3133
 3978SOL    HW123567   1.642   4.474   5.287  1.2873  0.4604 -3.6340
 3978SOL    HW223568   1.630   4.611   5.244 -1.1435 -1.8124 -0.0456
 3979SOL     OW23569   2.435   2.366  11.238 -0.1026 -0.6146 -0.4518
 3979SOL    HW123570   2.527   2.340  11.240  0.5446  2.0627  3.7595
 3979SOL    HW223571   2.394   2.281  11.257 -0.3834 -0.8845 -2.2288
 3980SOL     OW23572   0.161   2.755   8.567  0.6200 -0.3378  0.2040
 3980SOL    HW123573   0.073   2.720   8.555  0.4998 -0.1736  0.6274
 3980SOL    HW223574   0.179   2.705   8.647 -0.6221 -0.0109  0.6775
 3981SOL     OW23575   4.439   0.895   1.491 -0.5418 -0.1199  0.6679
 3981SOL    HW123576   4.443   0.966   1.556  1.3887  0.1958  0.2046
 3981SOL    HW223577   4.401   0.928   1.410 -1.7318 -0.6826  0.9917
 3982SOL     OW23578   2.435   1.919  12.597  0.3444 -0.1382  0.9102
 3982SOL    HW123579   2.470   1.974  12.527 -1.4279 -1.8598 -1.3244
 3982SOL    HW223580   2.422   1.846  12.537  1.0071  0.1056  0.4702
 3983SOL     OW23581   4.312   0.704  10.495  0.0163  1.0822  0.2527
 3983SOL    HW123582   4.232   0.702  10.549 -0.2877 -1.9378 -0.3211
 3983SOL    HW223583   4.350   0.619  10.515  1.1320  1.3351 -0.8116
 3984SOL     OW23584   3.234   2.474  12.509 -0.6032 -0.3476  0.2839
 3984SOL    HW123585   3.139   2.477  12.501 -0.5320  1.9860  0.3912
 3984SOL    HW223586   3.259   2.565  12.494  0.5998 -0.6348  0.5430
 3985SOL     OW23587   1.164   4.298   4.746  0.3092  0.2603 -0.0530
 3985SOL    HW123588   1.184   4.283   4.838 -1.1979 -0.6860  0.1094
 3985SOL    HW223589   1.069   4.299   4.739  0.4322  3.4829 -1.1376
 3986SOL     OW23590   1.579   1.182   5.540  0.2122  0.0044  0.3823
 3986SOL    HW123591   1.503   1.213   5.588 -1.1254  0.1952 -1.8443
 3986SOL    HW223592   1.559   1.193   5.447  0.1895  1.6088  0.5864
 3987SOL     OW23593   3.116   0.797   1.098 -0.0302  0.0961 -0.3372
 3987SOL    HW123594   3.103   0.890   1.116  1.6544  0.5451 -1.3532
 3987SOL    HW223595   3.025   0.770   1.099 -0.2738  0.8665 -1.1674
 3988SOL     OW23596   3.850   0.142   0.651 -0.0450  0.2497  0.0631
 3988SOL    HW123597   3.936   0.113   0.681 -0.0333  2.0151  1.7672
 3988SOL    HW223598   3.829   0.206   0.719  1.0113  0.5250  0.1351
 3989SOL     OW23599   3.355   2.696   5.720  0.3741 -0.0272  0.5643
 3989SOL    HW123600   3.385   2.787   5.723  1.0442 -0.1531 -2.1625
 3989SOL    HW223601   3.374   2.673   5.629 -0.7580  0.5949  0.1677
 3990SOL     OW23602   1.211   1.594   6.159 -0.5010  0.4220 -0.1851
 3990SOL    HW123603   1.168   1.537   6.223  0.8569 -2.2767 -1.7260
 3990SOL    HW223604   1.142   1.600   6.093 -0.6756 -0.7985 -0.1144
 3991SOL     OW23605   2.940   4.335   5.343  0.3394  0.5743  0.1536
 3991SOL    HW123606   2.985   4.397   5.400 -0.3687  2.3155 -1.1448
 3991SOL    HW223607   2.999   4.320   5.269 -1.1620 -0.4708 -0.8241
 3992SOL     OW23608   4.629   1.407   3.877 -0.1428 -0.3712 -0.1862
 3992SOL    HW123609   4.598   1.467   3.945  2.1617 -1.1461  1.5612
 3992SOL    HW223610   4.560   1.341   3.877 -0.1854 -0.3248  1.6871
 3993SOL     OW23611   2.877   0.562   4.321  0.3145 -0.4039 -0.6246
 3993SOL    HW123612   2.828   0.480   4.329  1.1682 -0.9220 -0.7147
 3993SOL    HW223613   2.959   0.533   4.280  0.7341 -1.0700  0.6618
 3994SOL     OW23614   1.755   3.600   5.896 -0.2803  0.0479  0.0357
 3994SOL    HW123615   1.784   3.558   5.976  1.4073  0.6697 -0.2406
 3994SOL    HW223616   1.814   3.565   5.829 -1.8160 -2.9762  0.2834
 3995SOL     OW23617   2.913   4.703   9.562 -0.1488  0.2675  0.2887
 3995SOL    HW123618   2.841   4.680   9.621 -0.7287 -1.2970 -1.0193
 3995SOL    HW223619   2.906   0.061   9.564  2.3867  0.3924  2.6224
 3996SOL     OW23620   2.943   4.369  13.547 -0.4781  0.2763 -0.1476
 3996SOL    HW123621   2.848   4.371  13.536 -0.6652 -1.6803  1.1308
 3996SOL    HW223622   2.966   4.380  13.455  0.2340  0.4126  0.0418
 3997SOL     OW23623   3.889   2.621   1.977  0.5493  0.3974  0.2519
 3997SOL    HW123624   3.803   2.613   1.936  0.7972  1.0808 -0.3972
 3997SOL    HW223625   3.939   2.649   1.900 -2.0859 -0.3508 -1.7336
 3998SOL     OW23626   0.152   1.302   6.474 -0.5556 -0.6242  0.2012
 3998SOL    HW123627   0.196   1.282   6.391 -1.8082  1.4609 -0.9671
 3998SOL    HW223628   0.226   1.309   6.533  0.2489  1.6902 -1.1040
 3999SOL     OW23629   4.340   4.575   7.266  0.2941 -0.2077  0.3295
 3999SOL    HW123630   4.271   4.509   7.258 -0.7903  0.7941  1.4578
 3999SOL    HW223631   4.308   4.639   7.202 -0.2639  0.3693  1.1868
 4000SOL     OW23632   2.247   2.518   4.561 -0.2005 -0.1673  0.6556
 4000SOL    HW123633   2.232   2.471   4.479  1.5356  0.8827 -0.2594
 4000SOL    HW223634   2.312   2.458   4.598 -0.0122  2.1878  4.1422
 4001SOL     OW23635   0.514   0.616   4.669 -0.0362 -0.0689 -0.2392
 4001SOL    HW123636   0.563   0.699   4.662 -0.4410  0.1549 -0.4311
 4001SOL    HW223637   0.582   0.550   4.679  0.0657  0.1244  0.3280
 4002SOL     OW23638   3.341   1.353   8.658  0.7075  0.1767  0.7877
 4002SOL    HW123639   3.373   1.351   8.567  0.7392  0.7748  0.7810
 4002SOL    HW223640   3.384   1.278   8.698  0.2333 -0.7801 -0.5213
 4003SOL     OW23641   2.824   1.856  17.738  0.2942 -0.4229 -0.1379
 4003SOL    HW123642   2.915   1.831  17.722 -0.1381 -2.0573 -0.0365
 4003SOL    HW223643   2.829   1.951  17.741 -1.2354 -0.3005 -1.3628
 4004SOL     OW23644   2.612   2.556   2.499 -0.5405  0.8119  0.5454
 4004SOL    HW123645   2.526   2.517   2.515 -0.2439  0.7895  2.0455
 4004SOL    HW223646   2.592   2.640   2.542  0.1244  0.6204  1.2149
 4005SOL     OW23647   0.437   3.479   8.445  0.4061 -0.0610 -0.7506
 4005SOL    HW123648   0.491   3.527   8.508  0.1785 -0.3942 -0.3018
 4005SOL    HW223649   0.389   3.414   8.496  0.5675 -0.1292 -0.6897
 4006SOL     OW23650   4.063   1.899   4.143 -0.4348  0.0545 -0.6460
 4006SOL    HW123651   4.061   1.936   4.054  0.6810 -0.2776 -0.8111
 4006SOL    HW223652   4.137   1.840   4.131 -1.2305 -0.7340 -1.7549
 4007SOL     OW23653   3.581   3.895   5.015 -0.6829  0.3659 -0.0456
 4007SOL    HW123654   3.661   3.948   5.022 -0.3130  0.0375 -1.7440
 4007SOL    HW223655   3.619   3.825   4.962 -1.2546  0.4523 -0.5692
 4008SOL     OW23656   3.926   3.545   4.623  0.5066  0.2856  0.8826
 4008SOL    HW123657   3.877   3.524   4.543  2.3963 -0.4368 -0.0925
 4008SOL    HW223658   4.017   3.537   4.593 -0.2273 -2.1221 -0.7203
 4009SOL     OW23659   2.796   4.687  14.722 -0.0345  0.2627 -0.0939
 4009SOL    HW123660   2.853   4.736  14.780 -1.2355  2.6431 -0.9497
 4009SOL    HW223661   2.714   4.736  14.722  0.1474  0.5718 -2.6987
 4010SOL     OW23662   1.372   1.610   2.464  0.4352  0.0108 -0.0650
 4010SOL    HW123663   1.317   1.597   2.542 -1.6934 -0.6592 -1.6682
 4010SOL    HW223664   1.320   1.671   2.411 -0.6916 -1.3436 -0.5349
 4011SOL     OW23665   3.905   4.702   4.536 -0.3514  0.2214  0.2952
 4011SOL    HW123666   3.996   4.692   4.506 -1.2134 -0.9108 -1.9830
 4011SOL    HW223667   3.891   0.056   4.511 -1.6446  0.1995  0.9515
 4012SOL     OW23668   2.579   0.900   7.087 -0.1914  0.0006  0.1464
 4012SOL    HW123669   2.583   0.811   7.123  3.3117 -0.1000 -0.4965
 4012SOL    HW223670   2.623   0.888   7.002 -0.5003  0.4213 -0.0712
 4013SOL     OW23671   1.947   1.928   4.335  0.0812  0.0559 -0.1589
 4013SOL    HW123672   1.891   1.855   4.306 -0.2232  0.0752  0.3882
 4013SOL    HW223673   1.957   1.902   4.426 -2.0704 -1.1811 -0.2678
 4014SOL     OW23674   0.312   0.356   6.535  0.0326  0.3324 -0.2345
 4014SOL    HW123675   0.244   0.290   6.543 -0.8731  1.2958 -0.0336
 4014SOL    HW223676   0.390   0.306   6.510 -1.8275 -0.6511 -4.1344
 4015SOL     OW23677   2.229   3.424   9.463  0.0840 -0.6386 -0.5835
 4015SOL    HW123678   2.227   3.398   9.371  0.5156 -0.9766 -0.4988
 4015SOL    HW223679   2.174   3.357   9.505  1.7106 -0.5082  1.7782
 4016SOL     OW23680   1.592   4.294   6.958 -0.1695 -0.1677  0.2433
 4016SOL    HW123681   1.568   4.370   6.906  1.5705 -0.2973 -0.7370
 4016SOL    HW223682   1.512   4.286   7.011  0.4666  0.4068  1.2934
 4017SOL     OW23683   3.574   2.592   7.601  0.0703 -0.0067  0.1689
 4017SOL    HW123684   3.644   2.617   7.541  0.5380  0.2760  0.8446
 4017SOL    HW223685   3.575   2.669   7.657  1.6404 -0.2458  0.4646
 4018SOL     OW23686   0.027   2.122   4.314 -0.4710  0.3494  0.3151
 4018SOL    HW123687   0.122   2.112   4.324 -0.5796 -2.4416 -1.5117
 4018SOL    HW223688   0.025   2.217   4.324 -0.5126  0.7270 -3.2085
 4019SOL     OW23689   2.316   2.116  13.082  0.1549  0.4506  0.2187
 4019SOL    HW123690   2.313   2.083  12.992  4.7630 -0.5980  0.4642
 4019SOL    HW223691   2.409   2.101  13.098 -0.4932 -2.8806  0.9646
 4020SOL     OW23692   4.177   3.505   4.220 -0.0318 -0.2140  0.2992
 4020SOL    HW123693   4.104   3.448   4.247 -0.9530  1.5659  1.5494
 4020SOL    HW223694   4.255   3.451   4.232 -0.8230 -0.8164  2.6767
 4021SOL     OW23695   0.521   0.132   8.534 -0.0841 -1.0886 -0.5671
 4021SOL    HW123696   0.600   0.078   8.523  0.7363  0.6582 -3.2298
 4021SOL    HW223697   0.507   0.151   8.442  1.2042 -0.9353 -0.7317
 4022SOL     OW23698   4.331   2.245  13.921 -0.0097  0.2773  0.7885
 4022SOL    HW123699   4.386   2.262  13.997  1.0321  0.6751 -0.0498
 4022SOL    HW223700   4.288   2.324  13.888 -1.1487 -0.8339 -0.3732
 4023SOL     OW23701   4.495   1.131   5.227  0.0694 -0.1713  0.3667
 4023SOL    HW123702   4.439   1.058   5.252 -0.7258  0.4423  0.3930
 4023SOL    HW223703   4.481   1.130   5.132 -0.7591  1.5155  0.4588
 4024SOL     OW23704   3.134   3.229   1.354  0.2187  0.4992 -0.1826
 4024SOL    HW123705   3.218   3.275   1.361  0.0325  1.1307 -2.1990
 4024SOL    HW223706   3.088   3.276   1.424  1.2831 -0.1976  0.9895
 4025SOL     OW23707   2.281   0.362   6.357 -0.1549  0.3675 -0.9013
 4025SOL    HW123708   2.245   0.285   6.312  1.9536 -0.6920 -0.7667
 4025SOL    HW223709   2.375   0.358   6.337 -0.2096 -2.0626 -0.6285
 4026SOL     OW23710   1.837   1.374  16.359 -0.2597  0.2576  0.5470
 4026SOL    HW123711   1.751   1.332  16.353  0.8617 -1.9216 -0.3833
 4026SOL    HW223712   1.809   1.464  16.345  1.3989  0.7937  0.7694
 4027SOL     OW23713   1.840   0.931   4.367 -0.1964  0.0476  0.8242
 4027SOL    HW123714   1.924   0.891   4.387 -0.0321 -0.3771 -0.7627
 4027SOL    HW223715   1.828   0.880   4.287  0.7138  0.2512  0.5719
 4028SOL     OW23716   2.034   2.889  14.812  0.1830 -0.4645 -0.2001
 4028SOL    HW123717   1.987   2.907  14.731  0.3513  0.0750 -0.1738
 4028SOL    HW223718   2.127   2.902  14.792 -0.0517  0.7580 -0.4673
 4029SOL     OW23719   1.021   2.486   2.010 -0.3571 -0.0764 -0.4321
 4029SOL    HW123720   1.008   2.402   1.967  0.6099 -0.1982 -0.4908
 4029SOL    HW223721   1.116   2.476   2.021 -0.2920 -0.0771 -0.9814
 4030SOL     OW23722   3.946   1.582   8.814  0.4588 -0.3655 -0.2896
 4030SOL    HW123723   4.034   1.606   8.786 -0.0006  0.7941 -0.7365
 4030SOL    HW223724   3.895   1.632   8.750 -0.6937 -0.5434  0.4894
 4031SOL     OW23725   4.189   2.473  13.848  0.1320  0.7510  0.5143
 4031SOL    HW123726   4.164   2.448  13.759  1.3142  1.4378 -0.0147
 4031SOL    HW223727   4.123   2.424  13.896  1.8699 -1.0578  1.0612
 4032SOL     OW23728   2.313   3.712   2.657  0.0533  0.3718  0.3353
 4032SOL    HW123729   2.240   3.653   2.675 -1.0534  1.3893 -0.7776
 4032SOL    HW223730   2.347   3.663   2.581  0.7638  0.1682  0.7917
 4033SOL     OW23731   4.015   0.451   6.920 -0.1396 -0.0149 -0.0699
 4033SOL    HW123732   3.998   0.539   6.886 -0.7529  0.1444  0.6452
 4033SOL    HW223733   4.081   0.483   6.982  1.4110 -4.5277  0.6181
 4034SOL     OW23734   0.885   3.189   8.572 -0.1803 -0.1682  0.0058
 4034SOL    HW123735   0.929   3.104   8.570  2.1498  0.9888  1.3752
 4034SOL    HW223736   0.914   3.220   8.658  1.8297  0.6734 -0.9897
 4035SOL     OW23737   2.928   4.531  14.120 -0.1413  0.5537 -0.4021
 4035SOL    HW123738   2.860   4.463  14.118  0.3655  0.1348 -3.1845
 4035SOL    HW223739   2.992   4.487  14.175  0.2804  0.4971 -0.9399
 4036SOL     OW23740   0.678   1.472   3.276  0.0747  0.2508  0.4167
 4036SOL    HW123741   0.737   1.427   3.336 -2.5868 -1.6106  1.6192
 4036SOL    HW223742   0.718   1.460   3.190 -1.1082  1.3611 -0.2927
 4037SOL     OW23743   4.733   2.588   9.977  0.0672 -0.1863  0.1224
 4037SOL    HW123744   4.642   2.574  10.005 -0.3490  2.4459  0.0550
 4037SOL    HW223745   0.031   2.657  10.032  0.9996 -0.7855  0.2726
 4038SOL     OW23746   3.129   4.044   5.645  0.6030  0.7672 -0.1481
 4038SOL    HW123747   3.116   4.100   5.722  0.3462  1.9086 -1.0209
 4038SOL    HW223748   3.219   4.062   5.621  0.8011  0.3089  0.2610
 4039SOL     OW23749   0.762   0.420   5.627  0.3822  0.2258  0.5256
 4039SOL    HW123750   0.717   0.464   5.554 -0.2450  0.8672  1.2980
 4039SOL    HW223751   0.753   0.489   5.693  0.3143  0.4665  0.2667
 4040SOL     OW23752   1.517   2.207   2.571  0.1470 -0.6143  0.2001
 4040SOL    HW123753   1.606   2.177   2.554  0.8956  0.8330  1.5602
 4040SOL    HW223754   1.520   2.303   2.572 -1.4306 -0.5656 -0.2518
 4041SOL     OW23755   4.509   2.705  11.851  0.2890  0.0360  0.2408
 4041SOL    HW123756   4.561   2.663  11.783 -2.1864 -0.0654 -1.6195
 4041SOL    HW223757   4.546   2.667  11.931  2.1855 -2.1263 -1.6594
 4042SOL     OW23758   3.583   1.255   0.855  0.3209 -0.4852 -0.0594
 4042SOL    HW123759   3.499   1.243   0.811 -1.4044  1.5085  2.6608
 4042SOL    HW223760   3.639   1.285   0.784  1.6914 -2.7604  0.0554
 4043SOL     OW23761   1.232   0.153   9.579  0.2056 -0.0523 -0.3722
 4043SOL    HW123762   1.272   0.084   9.632 -2.1744 -0.6778  0.6173
 4043SOL    HW223763   1.238   0.219   9.648  0.6168 -1.3528  0.8347
 4044SOL     OW23764   0.475   3.082   4.334 -0.2930  0.4439  0.3997
 4044SOL    HW123765   0.383   3.100   4.352 -0.1324  0.4020  1.2490
 4044SOL    HW223766   0.500   3.146   4.267 -1.8060  0.9702  0.3396
 4045SOL     OW23767   2.768   1.689   2.578 -0.1983 -0.7380  0.2818
 4045SOL    HW123768   2.697   1.663   2.519  0.7046  1.4707 -1.7796
 4045SOL    HW223769   2.838   1.630   2.548 -0.0749 -0.0732 -0.7254
 4046SOL     OW23770   2.453   2.266   6.200 -0.5783 -0.0755 -0.3205
 4046SOL    HW123771   2.532   2.212   6.208 -1.1735 -1.0421 -1.0516
 4046SOL    HW223772   2.480   2.323   6.128 -2.1787  1.4228  0.2754
 4047SOL     OW23773   0.406   0.563   1.907  0.0718 -0.1267  0.3472
 4047SOL    HW123774   0.367   0.598   1.828  2.3067  0.7772 -0.3521
 4047SOL    HW223775   0.480   0.511   1.874  0.2282  0.2743  0.0800
 4048SOL     OW23776   2.307   0.607   7.522  0.1240  0.7176  0.6340
 4048SOL    HW123777   2.286   0.520   7.488 -1.3002  1.5570 -0.6511
 4048SOL    HW223778   2.398   0.598   7.548  1.1316 -1.3169 -3.7201
 4049SOL     OW23779   2.116   4.003   5.161  0.3933  0.2543  0.8121
 4049SOL    HW123780   2.201   4.034   5.128  0.2752 -0.6343 -0.3409
 4049SOL    HW223781   2.086   3.936   5.099 -1.3037  0.1910  1.7148
 4050SOL     OW23782   1.473   1.849   8.220  0.2400 -0.4678  0.0779
 4050SOL    HW123783   1.561   1.885   8.234 -0.7884  1.0748  2.4886
 4050SOL    HW223784   1.495   1.756   8.221  2.0996 -0.0519 -2.1078
 4051SOL     OW23785   0.856   0.123  10.251 -0.0021  0.5212 -0.6529
 4051SOL    HW123786   0.891   0.185  10.316 -0.9674  0.2251  0.1510
 4051SOL    HW223787   0.862   0.050  10.313 -1.4166  0.5813 -0.4553
 4052SOL     OW23788   2.342   0.254  15.578  0.0563  0.0232  0.4255
 4052SOL    HW123789   2.428   0.246  15.536 -0.9273 -2.0285 -1.2652
 4052SOL    HW223790   2.299   0.170  15.557 -0.2954  0.0860  0.8878
 4053SOL     OW23791   4.177   2.352   2.639  0.0277 -0.1083  0.2337
 4053SOL    HW123792   4.105   2.403   2.601  0.7086 -0.1788 -1.1597
 4053SOL    HW223793   4.120   2.279   2.663  0.3443  0.0347  1.3997
 4054SOL     OW23794   2.001   0.519   1.496  0.2506  0.0450  0.1655
 4054SOL    HW123795   1.914   0.485   1.477 -0.2952  0.7462  1.3994
 4054SOL    HW223796   2.055   0.442   1.511  0.0029  0.2314  2.0571
 4055SOL     OW23797   3.691   0.419   0.118  0.2633  0.2388  0.2554
 4055SOL    HW123798   3.773   0.420   0.069  0.6574 -0.6290  0.9024
 4055SOL    HW223799   3.620   0.442   0.058  1.7401 -0.4073 -1.7353
 4056SOL     OW23800   1.654   3.757   3.808  0.4511  0.9629 -0.3847
 4056SOL    HW123801   1.704   3.839   3.807 -1.2224  1.9714 -2.6552
 4056SOL    HW223802   1.689   3.698   3.875 -0.1347  2.3650  1.1352
 4057SOL     OW23803   1.156   0.535   3.046 -0.1557  0.3070  0.2093
 4057SOL    HW123804   1.167   0.445   3.077 -0.1049  0.7036  1.3571
 4057SOL    HW223805   1.103   0.513   2.970  1.3508  2.6879 -1.5540
 4058SOL     OW23806   3.287   2.389   4.383 -0.0148 -0.0149  0.5504
 4058SOL    HW123807   3.305   2.339   4.462 -1.7207 -2.0065 -0.3216
 4058SOL    HW223808   3.280   2.480   4.413 -0.8729  0.1616 -0.1900
 4059SOL     OW23809   4.074   3.508   4.997 -0.4099  0.0838 -0.2883
 4059SOL    HW123810   4.036   3.419   4.992 -0.1771 -0.0828  1.1254
 4059SOL    HW223811   4.002   3.564   4.967 -1.9249 -2.0453 -0.6893
 4060SOL     OW23812   2.736   3.149  17.145 -0.0556  0.0876 -0.0259
 4060SOL    HW123813   2.658   3.095  17.156 -0.0928  0.2119  0.3018
 4060SOL    HW223814   2.802   3.093  17.103 -0.5632 -2.3147  2.4108
 4061SOL     OW23815   2.708   3.309   5.201  0.0417 -0.1446  0.0798
 4061SOL    HW123816   2.721   3.395   5.163  0.5392 -0.1426  0.2473
 4061SOL    HW223817   2.772   3.320   5.272  0.4453  0.8289 -0.4421
 4062SOL     OW23818   2.829   2.624  16.540 -0.0543  0.2232  0.2515
 4062SOL    HW123819   2.806   2.538  16.574 -1.2973  0.3328 -0.2882
 4062SOL    HW223820   2.784   2.633  16.456  0.6876  1.8201  0.0248
 4063SOL     OW23821   2.735   2.664   8.383  0.6615 -0.9405 -0.3666
 4063SOL    HW123822   2.800   2.697   8.446  0.7044 -0.5690 -0.6067
 4063SOL    HW223823   2.793   2.644   8.310  0.8903  0.5938 -0.5989
 4064SOL     OW23824   2.405   1.148  15.700  0.3381  0.0705 -0.3778
 4064SOL    HW123825   2.423   1.058  15.676 -0.6018 -0.1864 -0.1374
 4064SOL    HW223826   2.320   1.121  15.735  1.1486  0.8203  2.2144
 4065SOL     OW23827   2.684   1.937   4.608 -0.0594  0.1330 -0.8603
 4065SOL    HW123828   2.779   1.939   4.596  0.1846  0.7798  1.1539
 4065SOL    HW223829   2.679   1.975   4.696 -2.2013  3.1184 -2.2549
 4066SOL     OW23830   1.787   3.288   0.250 -0.0255  0.3671 -0.2683
 4066SOL    HW123831   1.852   3.288   0.179 -1.3080 -0.6833 -1.4421
 4066SOL    HW223832   1.813   3.370   0.292  0.0969  0.8218 -1.2356
 4067SOL     OW23833   0.886   3.483  10.598 -0.1555 -0.6705  0.2082
 4067SOL    HW123834   0.854   3.570  10.619 -0.3592 -1.3890  2.8888
 4067SOL    HW223835   0.908   3.499  10.507 -1.9803 -2.2278 -0.4941
 4068SOL     OW23836   2.577   2.205   2.690  0.5049 -0.2476 -0.1317
 4068SOL    HW123837   2.601   2.113   2.692  2.9137  0.3855 -0.4350
 4068SOL    HW223838   2.558   2.222   2.598  1.0627 -0.2922 -0.2524
 4069SOL     OW23839   0.133   1.490   6.239 -0.4504  0.6094  0.0360
 4069SOL    HW123840   0.191   1.546   6.186  0.2010 -0.8013 -0.7253
 4069SOL    HW223841   0.126   1.413   6.183 -1.2110  0.9661 -0.3705
 4070SOL     OW23842   2.004   3.975   0.951 -0.2055 -0.1085 -0.5105
 4070SOL    HW123843   1.917   3.981   0.991  0.0645  0.6944 -0.0305
 4070SOL    HW223844   2.053   3.927   1.017 -0.3481 -0.2314 -0.4963
 4071SOL     OW23845   3.323   0.235   2.553  0.1693  0.1943  0.2231
 4071SOL    HW123846   3.407   0.238   2.507  1.2606  0.8200  2.2449
 4071SOL    HW223847   3.272   0.289   2.493  2.2098  1.2400 -0.5727
 4072SOL     OW23848   1.278   1.725  14.630  0.2688  0.3848 -0.3836
 4072SOL    HW123849   1.334   1.680  14.694 -1.3051 -0.6019  0.3151
 4072SOL    HW223850   1.339   1.789  14.595  2.1673 -0.7190  0.8402
 4073SOL     OW23851   1.549   3.171   6.259 -0.7433 -0.3847 -0.6332
 4073SOL    HW123852   1.636   3.167   6.219 -0.4102  4.4367 -0.3832
 4073SOL    HW223853   1.504   3.098   6.219 -1.0673 -0.1793 -0.6420
 4074SOL     OW23854   4.685   0.611   4.537 -0.1499 -0.7384 -0.0739
 4074SOL    HW123855   0.040   0.629   4.517  0.1632 -2.2341  0.0132
 4074SOL    HW223856   4.651   0.592   4.450 -0.1435  0.6148 -0.3789
 4075SOL     OW23857   0.924   3.806   3.962  0.4551 -0.6357 -0.3937
 4075SOL    HW123858   1.020   3.806   3.959  0.4811 -1.1989  0.3791
 4075SOL    HW223859   0.901   3.896   3.941  2.0739 -0.1054  0.1398
 4076SOL     OW23860   3.549   1.392   9.348  0.7680 -0.2873  0.0949
 4076SOL    HW123861   3.459   1.369   9.326  0.2489 -0.1990  2.0985
 4076SOL    HW223862   3.544   1.425   9.438 -2.0524  0.5301 -0.3593
 4077SOL     OW23863   1.129   0.818   3.900  0.5460 -0.1328 -0.1043
 4077SOL    HW123864   1.110   0.738   3.950 -3.0632 -0.4740 -2.0504
 4077SOL    HW223865   1.095   0.788   3.816 -1.2880 -0.8547  0.8760
 4078SOL     OW23866   4.583   1.245  12.033 -0.2571 -0.5160 -0.4100
 4078SOL    HW123867   4.655   1.308  12.039 -0.0673 -0.7159 -0.5486
 4078SOL    HW223868   4.566   1.244  11.938 -0.2712  1.4582 -0.4217
 4079SOL     OW23869   3.535   3.746   3.094 -0.1927  0.5720  0.2146
 4079SOL    HW123870   3.571   3.829   3.061 -2.4550  1.0566 -1.0404
 4079SOL    HW223871   3.616   3.695   3.102  0.9048  2.4237  0.9554
 4080SOL     OW23872   0.442   2.489   3.094  0.1785 -0.2908  0.1696
 4080SOL    HW123873   0.380   2.447   3.153 -0.9147  1.3125  0.1713
 4080SOL    HW223874   0.416   2.460   3.007 -2.0354  1.4664  0.2386
 4081SOL     OW23875   3.253   4.208   8.778 -0.0667 -0.1465 -0.3848
 4081SOL    HW123876   3.234   4.300   8.794  3.3509  0.5998 -0.4820
 4081SOL    HW223877   3.329   4.206   8.720 -0.6299  2.2242 -1.2042
 4082SOL     OW23878   1.837   1.827  13.420  0.2260  0.3707 -0.2311
 4082SOL    HW123879   1.767   1.818  13.356  0.8233 -0.5196 -0.7557
 4082SOL    HW223880   1.800   1.762  13.479  1.7839  0.1486  0.5151
 4083SOL     OW23881   4.595   3.873   1.827  0.2393 -0.2975 -0.3408
 4083SOL    HW123882   4.514   3.847   1.871  1.9184 -1.5676  1.9905
 4083SOL    HW223883   4.662   3.889   1.894  0.8293  0.7474 -1.1841
 4084SOL     OW23884   2.920   4.646  13.684 -0.3071 -0.5204  0.1984
 4084SOL    HW123885   2.942   4.666  13.775 -2.0562 -1.9921  0.9708
 4084SOL    HW223886   2.964   4.562  13.671  1.0549 -0.0071  1.5119
 4085SOL     OW23887   1.738   3.534   4.602 -0.1198  0.0192  0.6079
 4085SOL    HW123888   1.757   3.569   4.516  0.8075  0.8399  1.1608
 4085SOL    HW223889   1.786   3.453   4.586  0.5687  0.5381  0.0985
 4086SOL     OW23890   0.357   1.802  12.897 -0.1365  0.2839 -0.3324
 4086SOL    HW123891   0.284   1.858  12.922  0.7146  2.0213 -1.8065
 4086SOL    HW223892   0.432   1.831  12.949  1.2479 -1.2184 -1.4780
 4087SOL     OW23893   1.973   4.431   6.541 -0.4908  0.0977  0.1585
 4087SOL    HW123894   2.007   4.469   6.460  1.5432 -1.6012  0.2227
 4087SOL    HW223895   2.044   4.451   6.603 -0.5192  1.0438 -0.1076
 4088SOL     OW23896   1.249   1.521  15.336 -0.1189  0.2666 -0.1738
 4088SOL    HW123897   1.262   1.590  15.401  0.4440  1.2930 -1.3762
 4088SOL    HW223898   1.240   1.580  15.260  0.9088 -0.1947 -0.6558
 4089SOL     OW23899   1.160   1.944  13.679  0.5865 -0.6519  0.1466
 4089SOL    HW123900   1.233   1.902  13.725  1.4784  1.0355  0.2795
 4089SOL    HW223901   1.114   1.873  13.635  1.8903 -1.3321 -0.0992
 4090SOL     OW23902   4.200   1.048   4.069  0.0292  0.1300 -0.2424
 4090SOL    HW123903   4.264   1.119   4.056 -0.5620  0.4940 -1.1950
 4090SOL    HW223904   4.178   1.048   4.162 -0.1212  0.5858 -0.2731
 4091SOL     OW23905   0.998   2.953   2.766  0.0816  0.6050 -0.6637
 4091SOL    HW123906   1.025   2.981   2.853 -1.4071  0.0318 -0.0336
 4091SOL    HW223907   1.074   2.996   2.726  2.1261 -1.3401  1.0991
 4092SOL     OW23908   0.890   0.005   0.946 -0.3455 -0.5487 -1.0020
 4092SOL    HW123909   0.876   4.653   0.913  0.4814 -0.3555 -1.8955
 4092SOL    HW223910   0.916   0.056   0.869  1.7846 -1.2161 -0.7268
 4093SOL     OW23911   3.271   3.298   2.300  0.0137  0.0534  0.2836
 4093SOL    HW123912   3.282   3.252   2.217  1.0379  3.1344 -1.3056
 4093SOL    HW223913   3.359   3.296   2.337  0.0747  3.2994  0.3431
 4094SOL     OW23914   3.972   4.215   4.914  0.3564  0.1539  0.4039
 4094SOL    HW123915   4.014   4.137   4.879  0.0999 -0.3321  1.1686
 4094SOL    HW223916   4.040   4.227   4.980  0.8424 -0.1425 -0.0532
 4095SOL     OW23917   1.093   2.676   4.112 -0.5046 -0.1646 -0.5062
 4095SOL    HW123918   1.151   2.602   4.099 -0.7094 -0.5424  0.7505
 4095SOL    HW223919   1.141   2.730   4.175  0.8697 -0.6188 -1.1738
 4096SOL     OW23920   2.230   3.513  16.575  0.2030 -0.0735  0.1627
 4096SOL    HW123921   2.252   3.571  16.502  0.0392  0.6259  0.6764
 4096SOL    HW223922   2.136   3.510  16.558  0.2835 -0.9398 -0.1362
 4097SOL     OW23923   4.680   0.882   9.560 -0.0068  0.0049 -0.5058
 4097SOL    HW123924   4.604   0.877   9.619 -1.3362 -0.9045 -2.2909
 4097SOL    HW223925   4.655   0.833   9.482  0.3218  1.7053 -1.6804
 4098SOL     OW23926   2.055   3.767   4.336  0.2813 -0.1814  0.0670
 4098SOL    HW123927   2.108   3.801   4.264  1.0106 -1.6623 -0.1077
 4098SOL    HW223928   2.112   3.790   4.409 -0.3962 -0.1464  0.5899
 4099SOL     OW23929   0.804   4.697  10.496  0.2217  0.0397  0.1265
 4099SOL    HW123930   0.767   4.625  10.546  1.1288 -0.4945  0.0239
 4099SOL    HW223931   0.851   0.008  10.564  1.6910  0.3808 -1.1353
 4100SOL     OW23932   0.897   3.438   6.234  0.1732 -0.0169 -0.7291
 4100SOL    HW123933   0.962   3.420   6.302  1.1088  2.5796 -0.9317
 4100SOL    HW223934   0.954   3.501   6.190 -1.0965  1.2541 -0.5910
 4101SOL     OW23935   2.254   4.443   4.118  0.3309 -0.2700 -0.5283
 4101SOL    HW123936   2.189   4.440   4.188 -1.6100  3.0584 -2.2089
 4101SOL    HW223937   2.202   4.470   4.043 -1.4258  0.7469  1.0797
 4102SOL     OW23938   3.978   3.705  15.920 -0.2157 -0.8059  0.4326
 4102SOL    HW123939   4.064   3.665  15.912 -0.7090 -2.1358  1.8550
 4102SOL    HW223940   4.005   3.796  15.904 -0.0186 -0.5759  2.1307
 4103SOL     OW23941   0.212   2.090   6.607  0.0260  0.9046 -0.2259
 4103SOL    HW123942   0.184   2.176   6.639 -0.6495  0.5268  0.2086
 4103SOL    HW223943   0.128   2.056   6.577 -0.3953  1.4361  0.3389
 4104SOL     OW23944   0.270   3.961  17.623 -0.2399 -0.3629  0.8246
 4104SOL    HW123945   0.348   3.905  17.624  0.9174  1.1974 -1.6278
 4104SOL    HW223946   0.211   3.894  17.589 -1.2937  1.1820 -0.3266
 4105SOL     OW23947   3.954   2.758  15.755  0.6962 -0.7854  0.4250
 4105SOL    HW123948   3.970   2.852  15.748 -0.5355 -0.7077 -1.3340
 4105SOL    HW223949   4.014   2.731  15.685 -0.2395  0.1393 -0.7192
 4106SOL     OW23950   4.245   3.390   3.439  0.0848  0.6185 -0.2563
 4106SOL    HW123951   4.214   3.476   3.410  0.8633  1.0025  0.0496
 4106SOL    HW223952   4.237   3.393   3.534  1.5701 -0.3809 -0.0904
 4107SOL     OW23953   0.344   4.458   3.683 -0.6229  0.1295  0.3928
 4107SOL    HW123954   0.329   4.552   3.687  0.0318  0.1940  1.4842
 4107SOL    HW223955   0.354   4.455   3.588 -1.1286 -0.7399  0.3665
 4108SOL     OW23956   2.074   3.169   2.775  0.1999  0.6160  0.9965
 4108SOL    HW123957   2.034   3.161   2.689  2.7586  0.1484 -0.1571
 4108SOL    HW223958   2.000   3.188   2.833 -0.4850  1.0423 -0.0052
 4109SOL     OW23959   3.145   2.263   5.293  0.1605 -0.9150 -0.6877
 4109SOL    HW123960   3.158   2.226   5.380  0.7829 -1.4532 -1.0150
 4109SOL    HW223961   3.159   2.356   5.314  0.0217 -1.3520  1.3562
 4110SOL     OW23962   3.459   1.479  17.102 -0.0864 -0.1641  0.1007
 4110SOL    HW123963   3.520   1.425  17.052 -1.4159 -1.1012 -0.5104
 4110SOL    HW223964   3.463   1.565  17.062 -0.2544  0.5814  1.6807
 4111SOL     OW23965   0.312   4.442   9.057  0.1828 -0.5294 -0.2466
 4111SOL    HW123966   0.318   4.533   9.086 -0.8868 -0.4878 -0.1418
 4111SOL    HW223967   0.228   4.440   9.012 -0.5198 -2.4398  1.1386
 4112SOL     OW23968   4.172   2.641  13.205  0.6827 -0.6288  1.0349
 4112SOL    HW123969   4.134   2.729  13.207 -0.3273 -1.0929  1.9225
 4112SOL    HW223970   4.108   2.599  13.262 -1.4881 -1.5047 -1.9968
 4113SOL     OW23971   0.939   1.965   4.167  0.0666  0.5759  0.2048
 4113SOL    HW123972   0.971   2.055   4.158  2.3547 -0.0428  2.4006
 4113SOL    HW223973   0.843   1.974   4.166  0.1241  0.8842 -2.5178
 4114SOL     OW23974   3.467   4.192   2.777 -0.1798  0.6975 -0.4059
 4114SOL    HW123975   3.410   4.248   2.829  0.4098 -1.0040  2.0993
 4114SOL    HW223976   3.440   4.203   2.686 -0.4629  2.1384 -0.1465
 4115SOL     OW23977   3.011   2.381   4.482  0.1361  0.3351 -0.5347
 4115SOL    HW123978   2.916   2.389   4.484  0.0930 -0.2234 -0.1965
 4115SOL    HW223979   3.029   2.382   4.388 -0.3585 -0.4652 -0.6386
 4116SOL     OW23980   1.544   3.044   2.455  0.2215  0.4642  0.1541
 4116SOL    HW123981   1.543   3.122   2.399 -1.0984  2.2338  2.6555
 4116SOL    HW223982   1.541   3.082   2.543  0.8160  0.3815  0.2137
 4117SOL     OW23983   0.778   1.994   7.410 -0.1981 -0.7179  0.0176
 4117SOL    HW123984   0.835   2.001   7.334 -0.3059 -1.6419 -0.1473
 4117SOL    HW223985   0.780   2.079   7.454  0.6700  0.1716 -1.7318
 4118SOL     OW23986   3.452   2.744   8.607 -0.4866 -0.1970  0.3742
 4118SOL    HW123987   3.376   2.776   8.559  0.0363 -0.8152 -0.8693
 4118SOL    HW223988   3.522   2.797   8.568 -2.8968  1.1845 -2.1171
 4119SOL     OW23989   4.003   0.618   1.186 -0.1215  0.0961  0.0823
 4119SOL    HW123990   4.077   0.622   1.247  0.0164  1.0323 -0.1500
 4119SOL    HW223991   3.963   0.700   1.212  0.4577  1.2664 -2.7497
 4120SOL     OW23992   2.088   1.797  12.671 -0.2842  0.1469  0.4035
 4120SOL    HW123993   2.152   1.732  12.701  1.1735  1.4382  0.0422
 4120SOL    HW223994   2.124   1.832  12.590 -3.5196 -0.4089 -1.2656
 4121SOL     OW23995   1.204   1.170   7.451  0.1260 -0.0952 -0.1263
 4121SOL    HW123996   1.294   1.137   7.454  0.2180  0.2034  0.2967
 4121SOL    HW223997   1.204   1.221   7.531  0.1120 -0.7401  0.2837
 4122SOL     OW23998   4.447   0.406   6.956  0.4687 -0.0847  0.0363
 4122SOL    HW123999   4.524   0.434   7.006  1.0863  1.7227 -1.9145
 4122SOL    HW224000   4.382   0.456   7.004  0.0345 -1.4254  0.8483
 4123SOL     OW24001   0.261   4.470   3.372  0.5933 -0.2027  0.2597
 4123SOL    HW124002   0.228   4.382   3.390  1.2305 -0.9699 -2.2882
 4123SOL    HW224003   0.206   4.501   3.299 -0.2340 -2.0225  0.1171
 4124SOL     OW24004   2.873   1.828   3.874 -0.0285  0.4721  0.6350
 4124SOL    HW124005   2.846   1.846   3.964  0.3104 -1.6628  1.1531
 4124SOL    HW224006   2.965   1.805   3.888  0.3021  1.6133  0.3796
 4125SOL     OW24007   2.685   2.759   7.413  0.2262  0.0566  0.4462
 4125SOL    HW124008   2.647   2.686   7.462 -2.4226  0.4403 -0.9921
 4125SOL    HW224009   2.604   2.803   7.386  1.0537  1.3079 -0.0009
 4126SOL     OW24010   0.789   3.304   6.040 -0.3002 -0.0285  0.5275
 4126SOL    HW124011   0.703   3.276   6.073  0.2293 -2.5496 -0.2372
 4126SOL    HW224012   0.821   3.355   6.115 -1.5949  1.1148  0.3074
 4127SOL     OW24013   2.100   1.691  17.473  0.5253 -0.6134 -0.1632
 4127SOL    HW124014   2.041   1.645  17.534  1.3242  0.5071  1.4660
 4127SOL    HW224015   2.057   1.775  17.461  0.3018 -0.8024 -0.6631
 4128SOL     OW24016   1.464   3.631   4.649  0.0240  0.2312  0.4875
 4128SOL    HW124017   1.425   3.563   4.593 -1.3462  0.7028  0.8625
 4128SOL    HW224018   1.554   3.601   4.660  0.2885  0.2575 -1.6462
 4129SOL     OW24019   0.789   1.461   3.020 -0.1824 -0.1623 -0.1283
 4129SOL    HW124020   0.857   1.401   2.988 -0.5926 -0.7391  0.0798
 4129SOL    HW224021   0.719   1.441   2.957  0.3877 -0.5774 -0.6269
 4130SOL     OW24022   4.199   4.516   6.447 -0.1857  0.2053 -0.4910
 4130SOL    HW124023   4.124   4.571   6.423  0.3108  1.9581  2.0383
 4130SOL    HW224024   4.151   4.442   6.484 -0.3105  0.1298 -0.8012
 4131SOL     OW24025   3.209   0.385   6.889  0.3350  0.2749  0.1675
 4131SOL    HW124026   3.303   0.394   6.899  0.4114  1.1281 -1.2361
 4131SOL    HW224027   3.177   0.442   6.958  0.4410  0.6415 -0.0827
 4132SOL     OW24028   1.055   0.224   8.376 -0.5043  0.0382  0.3851
 4132SOL    HW124029   0.961   0.240   8.382 -0.6867 -1.6280  1.7373
 4132SOL    HW224030   1.086   0.312   8.397  3.2526 -0.8940 -1.2886
 4133SOL     OW24031   4.611   3.401   9.301  0.1180 -0.3956  0.0575
 4133SOL    HW124032   4.689   3.378   9.252  0.9893  1.6942  0.4479
 4133SOL    HW224033   4.542   3.359   9.250 -1.5340 -0.8200  2.6530
 4134SOL     OW24034   1.520   3.557   2.394  0.2033 -0.3628 -0.1637
 4134SOL    HW124035   1.536   3.473   2.351  3.4842 -0.5406  1.4452
 4134SOL    HW224036   1.446   3.593   2.345 -0.5145 -0.2240  1.0253
 4135SOL     OW24037   4.402   4.273   3.112  0.2080 -0.2753  0.3517
 4135SOL    HW124038   4.341   4.202   3.133 -0.5579  0.6548  1.3054
 4135SOL    HW224039   4.477   4.217   3.093  1.0824  1.1023 -0.1507
 4136SOL     OW24040   0.697   2.737   9.173 -0.1601  0.2736  0.1125
 4136SOL    HW124041   0.737   2.721   9.087 -1.1865  0.0821 -0.3197
 4136SOL    HW224042   0.758   2.790   9.224 -0.3931 -2.1692  2.9241
 4137SOL     OW24043   3.978   4.547   7.385 -0.8264 -0.0290  0.2021
 4137SOL    HW124044   4.046   4.484   7.362  1.3073  1.8860  1.3157
 4137SOL    HW224045   3.894   4.502   7.373 -0.7186  0.2060 -1.4615
 4138SOL     OW24046   4.031   1.868  11.903 -0.2704  0.2724 -0.4598
 4138SOL    HW124047   3.939   1.888  11.922 -0.2047  0.2293 -0.0976
 4138SOL    HW224048   4.024   1.772  11.901 -1.2558  0.3239  0.1794
 4139SOL     OW24049   3.157   3.117   2.754 -0.1331  0.7253  0.2444
 4139SOL    HW124050   3.249   3.142   2.744 -0.4824  1.7832 -0.2993
 4139SOL    HW224051   3.166   3.023   2.737  1.1423  0.6140  1.4830
 4140SOL     OW24052   4.371   4.148  13.892 -0.2465  0.3220  0.1735
 4140SOL    HW124053   4.301   4.140  13.957 -1.5528  0.0801 -1.2432
 4140SOL    HW224054   4.342   4.086  13.824 -0.2742 -1.9335  2.2420
 4141SOL     OW24055   0.498   1.226   1.091 -0.0427 -0.5982  0.0844
 4141SOL    HW124056   0.470   1.293   1.028 -0.6736 -2.2827 -1.4435
 4141SOL    HW224057   0.493   1.272   1.175 -0.5300  2.6524 -1.7206
 4142SOL     OW24058   0.639   4.517  14.681  0.3048 -0.3020  0.3427
 4142SOL    HW124059   0.658   4.464  14.758  0.4036 -0.9265 -0.1155
 4142SOL    HW224060   0.731   4.542  14.675  0.1258  0.4644  0.7346
 4143SOL     OW24061   2.377   3.825  13.843 -0.0680 -0.5045 -0.1385
 4143SOL    HW124062   2.320   3.781  13.906 -0.8946 -0.7058 -1.0167
 4143SOL    HW224063   2.367   3.918  13.864 -0.9504 -0.7148  0.3748
 4144SOL     OW24064   2.756   1.797   6.088  0.3949 -0.6162  0.0606
 4144SOL    HW124065   2.692   1.855   6.048 -0.5248 -0.5326  1.6399
 4144SOL    HW224066   2.732   1.800   6.181  0.0786  0.6142 -0.0663
 4145SOL     OW24067   3.878   1.558  11.315 -0.6907  0.1380 -0.3852
 4145SOL    HW124068   3.953   1.512  11.352 -0.5760  0.1383 -0.6172
 4145SOL    HW224069   3.869   1.514  11.231  0.7816  1.3063 -1.1632
 4146SOL     OW24070   3.875   3.799   5.536  0.4177 -0.2865 -0.0035
 4146SOL    HW124071   3.924   3.763   5.610  0.3335  1.1915  0.7744
 4146SOL    HW224072   3.799   3.741   5.528  0.5103 -0.1010 -2.0212
 4147SOL     OW24073   2.918   3.802   5.338 -0.0968  0.1713  0.2047
 4147SOL    HW124074   2.927   3.886   5.384 -1.5782  1.9478 -2.7055
 4147SOL    HW224075   2.934   3.825   5.246  1.3260  2.5938  1.0663
 4148SOL     OW24076   0.691   0.524   2.588  0.3846  0.1144  0.1463
 4148SOL    HW124077   0.677   0.597   2.528  0.2118  0.0493  0.1068
 4148SOL    HW224078   0.755   0.565   2.646  0.4770 -0.9062  0.7676
 4149SOL     OW24079   0.117   2.984   2.247 -0.0730 -0.1433  0.1508
 4149SOL    HW124080   0.201   3.012   2.283  1.3029 -3.6885 -0.2904
 4149SOL    HW224081   0.114   3.040   2.169  1.5799  1.4719  1.2601
 4150SOL     OW24082   1.616   0.105  15.851  0.0845 -0.0061 -0.1933
 4150SOL    HW124083   1.637   0.178  15.910  0.0235  0.8542 -1.2391
 4150SOL    HW224084   1.650   0.028  15.898  1.3116 -0.3989 -1.7366
 4151SOL     OW24085   2.294   3.613   1.345  0.3233 -0.2195  0.4646
 4151SOL    HW124086   2.293   3.599   1.250 -0.3906  0.4332  0.3675
 4151SOL    HW224087   2.250   3.532   1.372 -0.8242 -0.0237 -0.7928
 4152SOL     OW24088   4.477   3.689  17.152 -0.3927 -0.1271 -0.1689
 4152SOL    HW124089   4.531   3.691  17.073  0.7217  0.1272  0.6083
 4152SOL    HW224090   4.395   3.723  17.115  0.0301  1.4789  0.3751
 4153SOL     OW24091   3.334   2.318   4.133  0.2272 -0.1260 -0.0723
 4153SOL    HW124092   3.360   2.410   4.126 -0.0452 -0.1491 -1.3934
 4153SOL    HW224093   3.314   2.326   4.226  1.8867  1.3795  0.1581
 4154SOL     OW24094   3.909   3.849   4.435 -0.4794 -0.1064 -0.1531
 4154SOL    HW124095   3.934   3.771   4.386 -0.2527  0.6518 -1.2581
 4154SOL    HW224096   3.817   3.851   4.408  0.0543 -0.6300 -1.9795
 4155SOL     OW24097   3.883   2.323   9.162  0.2588  0.3182 -0.1768
 4155SOL    HW124098   3.855   2.247   9.112  1.1833  0.1386 -0.4148
 4155SOL    HW224099   3.814   2.388   9.148  0.5270  0.4541 -0.8274
 4156SOL     OW24100   2.740   2.205   8.743 -0.4464 -0.2980  0.2040
 4156SOL    HW124101   2.756   2.159   8.661 -0.1859  0.4589 -0.1744
 4156SOL    HW224102   2.658   2.167   8.774  0.3506 -0.9098  1.5952
 4157SOL     OW24103   2.025   4.347  13.949 -0.5472  0.7888  0.5362
 4157SOL    HW124104   1.979   4.264  13.935  1.2943 -0.2995  0.9033
 4157SOL    HW224105   2.096   4.333  13.886 -2.5046 -1.1800 -1.2551
 4158SOL     OW24106   2.897   1.794  14.916 -0.8613  0.2428  0.2374
 4158SOL    HW124107   2.928   1.884  14.910  0.6635 -0.2087  1.3632
 4158SOL    HW224108   2.971   1.742  14.950 -0.9280 -1.0035 -1.5023
 4159SOL     OW24109   1.047   3.900   9.275  0.5492  0.9027 -0.5616
 4159SOL    HW124110   1.036   3.980   9.327  1.6840 -0.0176  1.0907
 4159SOL    HW224111   0.968   3.918   9.224  0.5536  0.5523 -0.6909
 4160SOL     OW24112   3.651   2.868   5.433  0.3660 -0.2726 -0.5031
 4160SOL    HW124113   3.610   2.928   5.371  0.3857 -0.6293 -0.8570
 4160SOL    HW224114   3.741   2.864   5.399  1.2546  1.1923  1.6149
 4161SOL     OW24115   0.692   2.071   1.283 -0.2561 -0.2887 -0.0628
 4161SOL    HW124116   0.611   2.099   1.325  0.9780 -0.1150  2.2073
 4161SOL    HW224117   0.691   1.977   1.302 -1.7473 -0.3604 -0.4783
 4162SOL     OW24118   0.222   1.189   9.339  0.0314 -0.4869 -0.6839
 4162SOL    HW124119   0.201   1.249   9.410 -0.5105 -0.1316 -1.1415
 4162SOL    HW224120   0.317   1.198   9.333 -0.0820  1.6804  0.6824
 4163SOL     OW24121   1.918   3.242   6.484  0.0523 -0.2305 -0.5371
 4163SOL    HW124122   1.945   3.176   6.548  0.2449  1.5514  1.2229
 4163SOL    HW224123   1.945   3.196   6.404  1.9101 -1.8931  1.0401
 4164SOL     OW24124   2.393   1.189   6.613  0.4948 -0.1078 -0.7146
 4164SOL    HW124125   2.332   1.261   6.627  0.4534 -0.4106  0.6882
 4164SOL    HW224126   2.471   1.227   6.654 -0.0337 -0.7647  0.9126
 4165SOL     OW24127   0.404   2.801   2.403 -0.1483  0.5811 -0.0497
 4165SOL    HW124128   0.483   2.840   2.367  0.2582 -1.7891 -1.7416
 4165SOL    HW224129   0.346   2.870   2.371 -0.0216  0.2081 -1.0761
 4166SOL     OW24130   0.732   2.293   9.383  0.6755  0.2438  0.4210
 4166SOL    HW124131   0.650   2.299   9.335  1.1982 -1.3322 -0.6549
 4166SOL    HW224132   0.782   2.362   9.340 -2.1245  1.6100 -0.6326
 4167SOL     OW24133   3.218   2.497   8.819 -0.7013 -0.0165 -0.3109
 4167SOL    HW124134   3.137   2.545   8.799 -2.4760 -2.9327 -0.1811
 4167SOL    HW224135   3.214   2.423   8.758 -1.3706  0.7267 -1.1736
 4168SOL     OW24136   4.620   3.963   6.318 -0.1082  0.5003  0.0228
 4168SOL    HW124137   4.674   3.996   6.246  2.0576 -1.6323  0.6463
 4168SOL    HW224138   4.544   4.021   6.324 -0.3832  0.2634 -1.1031
 4169SOL     OW24139   3.791   4.475   4.476 -1.0082 -0.6140  0.2052
 4169SOL    HW124140   3.829   4.563   4.468 -0.0896 -0.9931  0.5019
 4169SOL    HW224141   3.805   4.462   4.570 -0.7772 -0.1141  0.2423
 4170SOL     OW24142   1.455   3.752  15.198  0.2940 -0.2306 -0.3496
 4170SOL    HW124143   1.399   3.777  15.271 -1.6981  0.7181 -2.1861
 4170SOL    HW224144   1.424   3.663  15.185  2.2837 -0.9397 -0.2138
 4171SOL     OW24145   2.199   0.597  16.795 -0.2673 -0.8718  0.0902
 4171SOL    HW124146   2.258   0.545  16.741 -0.0506 -0.1401 -0.3873
 4171SOL    HW224147   2.211   0.562  16.883 -3.0077 -1.6902  0.1145
 4172SOL     OW24148   4.008   2.322  13.952  0.1613 -0.5799  0.1321
 4172SOL    HW124149   4.001   2.242  13.900 -0.1385 -0.2011 -0.4098
 4172SOL    HW224150   3.931   2.368  13.918  2.1427  1.2423 -1.9107
 4173SOL     OW24151   4.529   0.034   8.640 -0.0226  0.5714  0.4766
 4173SOL    HW124152   4.542   0.118   8.682  1.5434  0.8118 -0.4843
 4173SOL    HW224153   4.560   4.717   8.712  0.2679  0.0446 -0.0374
 4174SOL     OW24154   1.076   0.950   2.988 -0.1275  0.0266 -0.0558
 4174SOL    HW124155   1.107   1.040   2.976  1.0817 -0.3080  0.6351
 4174SOL    HW224156   1.012   0.934   2.918  1.1107 -2.7171 -0.5481
 4175SOL     OW24157   0.429   2.713   2.671  0.3637  0.0966  0.6465
 4175SOL    HW124158   0.403   2.752   2.588 -0.3380 -2.8421 -0.5073
 4175SOL    HW224159   0.524   2.722   2.676  0.3449  0.8133 -0.2890
 4176SOL     OW24160   1.759   0.995   7.061 -0.3485 -0.1287 -0.1138
 4176SOL    HW124161   1.705   1.071   7.085  0.0863 -0.4329  1.8702
 4176SOL    HW224162   1.691   0.932   7.038  1.2113 -0.8371 -2.7148
 4177SOL     OW24163   4.163   1.817   2.277  0.3172  0.1214 -0.8373
 4177SOL    HW124164   4.094   1.764   2.236  0.0570  0.4269 -0.8002
 4177SOL    HW224165   4.140   1.818   2.370 -0.7720  1.9445 -1.1169
 4178SOL     OW24166   0.407   2.615   4.089 -0.0845  0.4532 -0.1333
 4178SOL    HW124167   0.367   2.702   4.088 -1.5363 -0.2277 -0.5031
 4178SOL    HW224168   0.449   2.606   4.004  1.3187  2.2297  0.3560
 4179SOL     OW24169   3.206   3.382   2.546 -0.2901  0.1173 -0.2012
 4179SOL    HW124170   3.234   3.328   2.472  0.2876 -2.0302  1.5664
 4179SOL    HW224171   3.241   3.469   2.530 -0.1405  0.3143  1.1548
 4180SOL     OW24172   3.177   2.941  10.540  0.0346 -0.3218 -0.1923
 4180SOL    HW124173   3.235   2.952  10.465 -0.3859  0.9337 -0.3302
 4180SOL    HW224174   3.115   3.012  10.528  1.5043  0.9101 -0.4613
 4181SOL     OW24175   2.621   4.571  14.172 -0.6456 -0.4167  0.5424
 4181SOL    HW124176   2.684   4.631  14.212  0.2939  0.2125 -1.9383
 4181SOL    HW224177   2.545   4.578  14.230 -2.6414 -3.9043 -1.6425
 4182SOL     OW24178   1.581   3.607   6.587  0.1395  0.2502  0.2565
 4182SOL    HW124179   1.527   3.676   6.549 -0.9606 -0.2292  0.9225
 4182SOL    HW224180   1.560   3.531   6.533  0.4076  1.1118 -1.0497
 4183SOL     OW24181   3.477   2.552   8.804 -0.5846 -0.2142 -0.2335
 4183SOL    HW124182   3.460   2.627   8.748  2.8702  1.3593  0.7999
 4183SOL    HW224183   3.394   2.537   8.849  0.4776 -0.5015  1.6360
 4184SOL     OW24184   4.575   2.062   5.006 -0.3327  0.3053 -0.1298
 4184SOL    HW124185   4.582   2.152   5.037  0.9638  0.5347 -1.0574
 4184SOL    HW224186   4.666   2.037   4.992 -0.6147 -0.5980 -0.3474
 4185SOL     OW24187   0.462   3.647   6.245  0.2372  0.0104  0.2717
 4185SOL    HW124188   0.443   3.556   6.223 -1.1235  0.3043  0.2021
 4185SOL    HW224189   0.459   3.683   6.156  4.6317  2.1626  1.0013
 4186SOL     OW24190   4.441   2.972  10.641  0.2545 -0.0307 -0.1341
 4186SOL    HW124191   4.435   2.880  10.664 -1.6793  0.3226  0.7827
 4186SOL    HW224192   4.469   2.998  10.729  2.2041 -0.5073 -0.6039
 4187SOL     OW24193   3.284   3.946   8.318 -0.3986 -0.1850  0.2969
 4187SOL    HW124194   3.279   3.851   8.304  0.2366 -0.3308  1.0583
 4187SOL    HW224195   3.350   3.969   8.254 -0.9440 -2.4802 -1.0995
 4188SOL     OW24196   2.673   4.339   6.839  0.1620 -0.2950  0.0648
 4188SOL    HW124197   2.604   4.342   6.772 -0.7103  0.1165  0.9768
 4188SOL    HW224198   2.641   4.270   6.896 -2.7844 -0.2821 -1.5095
 4189SOL     OW24199   4.231   2.055   5.292 -0.1196  0.4033 -0.0978
 4189SOL    HW124200   4.217   2.033   5.200  2.2991  0.0042 -0.3695
 4189SOL    HW224201   4.174   2.132   5.287  0.5644  0.9674  0.8314
 4190SOL     OW24202   1.685   2.573  14.112  0.0372  0.7309  0.2917
 4190SOL    HW124203   1.747   2.586  14.183 -0.9881 -1.8693  1.6700
 4190SOL    HW224204   1.713   2.643  14.053  2.2807 -0.8771 -0.5556
 4191SOL     OW24205   1.649   2.631   8.339 -0.3827 -0.5471  0.2203
 4191SOL    HW124206   1.632   2.723   8.358 -2.8973 -1.5508  2.7431
 4191SOL    HW224207   1.742   2.625   8.362 -0.4313  0.1731  0.6124
 4192SOL     OW24208   1.738   4.415  16.869  0.1502  0.8304  0.1826
 4192SOL    HW124209   1.686   4.349  16.823  1.0154 -0.5209  1.1298
 4192SOL    HW224210   1.754   4.483  16.803  0.2810  0.4174 -0.2160
 4193SOL     OW24211   4.224   3.097   8.063  0.0039  0.4287  0.3600
 4193SOL    HW124212   4.139   3.120   8.026  0.4473  2.4936  0.6570
 4193SOL    HW224213   4.282   3.155   8.014 -0.3916 -0.0024 -0.6218
 4194SOL     OW24214   1.071   4.286   5.462 -0.0783 -0.0455  0.3483
 4194SOL    HW124215   1.097   4.330   5.381  2.2959 -2.4631 -0.2141
 4194SOL    HW224216   1.097   4.198   5.434  1.1487  0.5420 -0.3691
 4195SOL     OW24217   2.812   0.346   6.364 -0.2865  0.4150 -0.3647
 4195SOL    HW124218   2.809   0.339   6.269 -3.1868 -0.2465 -0.2222
 4195SOL    HW224219   2.729   0.393   6.367 -0.8205 -0.6613  2.6032
 4196SOL     OW24220   0.572   4.703   1.688  0.9375  0.0729  0.3675
 4196SOL    HW124221   0.493   4.726   1.738  0.2682 -1.2145 -0.1069
 4196SOL    HW224222   0.612   0.053   1.686 -2.4417  1.6155 -0.1313
 4197SOL     OW24223   0.675   0.790   0.162  0.1861 -0.1887  0.1494
 4197SOL    HW124224   0.587   0.776   0.127  0.1318  0.7457 -0.0710
 4197SOL    HW224225   0.694   0.875   0.123 -2.2027  0.5579  0.6387
 4198SOL     OW24226   2.344   1.858  10.057 -0.3714  0.4425  0.1735
 4198SOL    HW124227   2.297   1.798  10.114  1.5524 -0.7011  0.5924
 4198SOL    HW224228   2.281   1.863   9.985  1.8290 -0.2702 -1.8622
 4199SOL     OW24229   0.816   2.236   7.100  0.0419 -0.1901 -0.3768
 4199SOL    HW124230   0.770   2.313   7.069  0.4300 -0.0670 -0.6480
 4199SOL    HW224231   0.776   2.161   7.056 -0.8267  0.7677 -1.1965
 4200SOL     OW24232   1.435   4.153   7.345  0.0693  0.1539  0.0608
 4200SOL    HW124233   1.390   4.195   7.272  1.7234  0.2611 -0.9064
 4200SOL    HW224234   1.380   4.175   7.420  0.3073 -1.2241  0.6544
 4201SOL     OW24235   4.234   4.038   6.439  0.3128 -0.4223 -0.5609
 4201SOL    HW124236   4.298   4.080   6.383 -0.4314  1.7850  0.2215
 4201SOL    HW224237   4.258   4.092   6.515 -1.7505  0.0608 -0.2516
 4202SOL     OW24238   2.955   1.080   8.641  0.3112 -0.3370  0.0598
 4202SOL    HW124239   2.871   1.078   8.594 -0.4372  2.3521  1.2936
 4202SOL    HW224240   3.015   1.107   8.572 -1.5672  0.4408 -1.2662
 4203SOL     OW24241   1.434   1.706   9.273  0.5422 -0.2302  0.5567
 4203SOL    HW124242   1.413   1.656   9.352  1.6049 -0.4078  0.7293
 4203SOL    HW224243   1.433   1.633   9.211  1.5559 -0.0561  0.3211
 4204SOL     OW24244   2.791   0.009   5.181  0.2969  0.0895  0.7736
 4204SOL    HW124245   2.734   4.681   5.220  2.6144 -2.0607  0.6158
 4204SOL    HW224246   2.772   0.086   5.236 -2.4518 -0.7540  0.9925
 4205SOL     OW24247   0.669   0.955   6.011  0.5196 -0.2571  0.6835
 4205SOL    HW124248   0.640   0.887   6.072 -0.2126 -0.2038  0.3949
 4205SOL    HW224249   0.764   0.947   6.013  0.6238  1.3922  2.1002
 4206SOL     OW24250   1.347   4.225   2.795  0.3179 -0.9281  0.0865
 4206SOL    HW124251   1.281   4.158   2.810  0.0693 -0.2290  2.0761
 4206SOL    HW224252   1.367   4.254   2.884  0.0021 -1.1359  0.2234
 4207SOL     OW24253   3.425   3.968   6.339  0.2434 -0.5114 -0.2825
 4207SOL    HW124254   3.346   3.956   6.391 -0.3936  2.8141 -0.5250
 4207SOL    HW224255   3.396   4.004   6.255 -3.1014 -1.9357  0.2820
 4208SOL     OW24256   4.434   4.000   1.644 -0.5460  0.0379  0.0365
 4208SOL    HW124257   4.513   4.036   1.606  0.0883  0.7112  1.9708
 4208SOL    HW224258   4.475   3.966   1.724  1.7272 -0.6244 -1.4311
 4209SOL     OW24259   2.869   0.460   8.467  0.3408  0.2293  0.1184
 4209SOL    HW124260   2.844   0.372   8.496 -0.5553  0.7435  0.9112
 4209SOL    HW224261   2.956   0.431   8.440  0.6436  0.2912  1.0096
 4210SOL     OW24262   1.550   1.029  15.976 -0.1966 -0.0186 -0.8143
 4210SOL    HW124263   1.549   0.965  15.904 -2.6374 -2.9899  1.8334
 4210SOL    HW224264   1.468   1.077  15.966  0.6670  1.5835 -0.1215
 4211SOL     OW24265   3.162   3.956   2.046  0.4766 -0.6051  0.1482
 4211SOL    HW124266   3.174   3.930   2.137 -1.0122 -1.9640 -0.0411
 4211SOL    HW224267   3.197   3.875   2.008  0.1464 -0.9845  0.6504
 4212SOL     OW24268   2.847   2.508   2.073 -0.3401 -0.8090  0.0328
 4212SOL    HW124269   2.793   2.553   2.138  2.1128 -1.1712  2.3386
 4212SOL    HW224270   2.928   2.500   2.124  0.0232  2.7331  0.0716
 4213SOL     OW24271   2.579   2.113  13.067 -0.8044  0.8604  0.3482
 4213SOL    HW124272   2.594   2.198  13.025  0.8476  0.5350  0.2647
 4213SOL    HW224273   2.611   2.131  13.156  1.1622 -1.3837  0.0803
 4214SOL     OW24274   3.104   0.025   3.198  0.1877  0.3538  0.3117
 4214SOL    HW124275   3.197   0.031   3.220  0.6309  0.0162 -1.4866
 4214SOL    HW224276   3.107   4.667   3.193 -0.2620  0.3359  0.3822
 4215SOL     OW24277   1.108   3.363   2.905 -0.5133  0.5570  0.0771
 4215SOL    HW124278   1.136   3.275   2.880  0.7362 -0.1133  3.8322
 4215SOL    HW224279   1.025   3.365   2.952 -0.6874 -0.1104 -0.2152
 4216SOL     OW24280   4.141   3.984   9.451 -0.1324 -0.4059  0.3593
 4216SOL    HW124281   4.213   3.953   9.397  1.6554  0.2081  2.3730
 4216SOL    HW224282   4.183   4.052   9.504 -0.3406  0.3843 -0.4767
 4217SOL     OW24283   0.191   2.406  10.515 -0.0238 -0.4257  0.5271
 4217SOL    HW124284   0.151   2.492  10.501  1.3528  0.0827 -0.2968
 4217SOL    HW224285   0.285   2.421  10.526 -0.2806  0.5346  1.4169
 4218SOL     OW24286   4.077   3.013   7.138  0.7416 -0.6328 -0.6819
 4218SOL    HW124287   3.998   2.996   7.088  0.6804  0.7927 -1.0839
 4218SOL    HW224288   4.112   2.929   7.168 -0.0405 -0.9852 -0.7657
 4219SOL     OW24289   3.606   3.581  15.918 -0.1650  0.1527 -0.4645
 4219SOL    HW124290   3.672   3.520  15.951  1.0778  1.4012 -0.6313
 4219SOL    HW224291   3.563   3.537  15.845  2.4630 -0.2293 -1.7804
 4220SOL     OW24292   0.356   3.860   6.357  0.3664  0.4022  0.2198
 4220SOL    HW124293   0.402   3.784   6.322 -0.1126 -0.1014  0.6744
 4220SOL    HW224294   0.326   3.903   6.277  0.1181 -0.1043  0.0346
 4221SOL     OW24295   1.158   1.676  14.008  0.2684 -0.0274 -0.3251
 4221SOL    HW124296   1.126   1.585  14.008  0.6249 -0.1584  1.1982
 4221SOL    HW224297   1.184   1.679  13.916  0.1000  0.4319 -0.3582
 4222SOL     OW24298   0.801   4.591   9.120  0.0872  0.2903  0.2029
 4222SOL    HW124299   0.755   4.512   9.092  0.7598  0.0278 -0.1612
 4222SOL    HW224300   0.808   4.579   9.215 -0.2596 -2.5697 -0.1436
 4223SOL     OW24301   3.119   3.186   4.001  0.2795  0.0928 -0.4299
 4223SOL    HW124302   3.068   3.251   3.952 -1.0970 -0.3616  0.4239
 4223SOL    HW224303   3.094   3.100   3.967 -1.4436  1.2071 -1.9627
 4224SOL     OW24304   2.460   3.084  17.157  0.2158  0.0887 -0.0764
 4224SOL    HW124305   2.397   3.035  17.209  1.3845 -1.6010 -0.2217
 4224SOL    HW224306   2.421   3.064  17.072  0.1613  0.1332 -0.0615
 4225SOL     OW24307   4.429   2.878   3.084 -1.1231  0.3353 -0.1363
 4225SOL    HW124308   4.371   2.852   3.012  0.8754  0.9414 -1.9597
 4225SOL    HW224309   4.367   2.928   3.136  0.9541  1.8414  0.8409
 4226SOL     OW24310   2.540   0.004  11.554  0.6582  0.1727 -0.0843
 4226SOL    HW124311   2.504   4.724  11.641  2.0747  0.6044  0.5794
 4226SOL    HW224312   2.478   0.074  11.531 -0.7166 -1.3987 -1.2017
 4227SOL     OW24313   3.472   2.540   4.071 -0.2467  0.3130  0.1166
 4227SOL    HW124314   3.524   2.557   3.992 -0.0764  1.4504  0.4665
 4227SOL    HW224315   3.531   2.499   4.133  1.0598  0.5075 -0.9980
 4228SOL     OW24316   0.271   1.699   9.420 -0.2503  0.1664  0.5529
 4228SOL    HW124317   0.245   1.692   9.512  1.2504  1.0685  1.0436
 4228SOL    HW224318   0.232   1.784   9.400 -1.6955 -0.3716  1.0668
 4229SOL     OW24319   3.454   1.055   6.005 -0.1117 -0.0528  0.2192
 4229SOL    HW124320   3.402   1.007   5.940  2.7953  1.9349 -3.5479
 4229SOL    HW224321   3.530   0.999   6.020 -0.0987 -0.8404 -2.8164
 4230SOL     OW24322   1.170   0.980  10.147 -0.0859  0.5035  0.1180
 4230SOL    HW124323   1.223   0.941  10.217 -0.5382  0.8595  0.6568
 4230SOL    HW224324   1.099   1.021  10.197  0.9486  1.6481  0.6225
 4231SOL     OW24325   2.692   3.254   9.336  0.0502  0.3233 -0.0027
 4231SOL    HW124326   2.650   3.317   9.395 -1.0441 -0.7002  0.3196
 4231SOL    HW224327   2.773   3.244   9.385 -0.2434 -0.7692  0.2568
 4232SOL     OW24328   2.725   4.440  14.462  0.0449  0.1372 -0.6541
 4232SOL    HW124329   2.796   4.453  14.525 -1.1776 -0.7685  0.9105
 4232SOL    HW224330   2.671   4.517  14.481  1.7728  1.4632 -1.1164
 4233SOL     OW24331   0.129   3.679   5.186  0.2329 -0.1147 -0.2556
 4233SOL    HW124332   0.115   3.627   5.107 -1.1814  1.2384 -0.9216
 4233SOL    HW224333   0.047   3.662   5.232  1.2609 -0.2694  1.5056
 4234SOL     OW24334   1.676   2.239   1.682 -0.4773 -0.3933  0.6446
 4234SOL    HW124335   1.609   2.214   1.617 -0.2162  0.3935  0.0671
 4234SOL    HW224336   1.760   2.207   1.649 -0.8054  1.2467 -1.8143
 4235SOL     OW24337   3.951   1.401   3.761  0.4782  0.2072 -0.5216
 4235SOL    HW124338   4.034   1.445   3.780  0.1320  1.1808 -1.2256
 4235SOL    HW224339   3.908   1.393   3.846  1.8694 -0.8436  0.0835
 4236SOL     OW24340   4.214   2.282   4.675  0.2109 -0.8164  0.1736
 4236SOL    HW124341   4.229   2.198   4.719  1.4023 -0.3013  0.7328
 4236SOL    HW224342   4.140   2.263   4.617  0.1811 -0.8692  0.2284
 4237SOL     OW24343   4.717   3.423  16.052  0.2516  0.4303 -0.7771
 4237SOL    HW124344   0.040   3.355  16.023  0.1089 -0.1108  0.1918
 4237SOL    HW224345   4.689   3.402  16.142  1.9592  2.9448  0.3520
 4238SOL     OW24346   4.214   3.133   3.346 -0.2159 -0.3836 -0.7802
 4238SOL    HW124347   4.255   3.213   3.378 -2.8200  0.6773 -0.1018
 4238SOL    HW224348   4.205   3.160   3.255  1.2948 -0.1993 -0.8714
 4239SOL     OW24349   1.203   0.194  15.243  0.0980 -0.2020  0.0292
 4239SOL    HW124350   1.223   0.124  15.305  0.0510  0.7926  1.1892
 4239SOL    HW224351   1.227   0.273  15.293  0.1526  1.0137 -1.9298
 4240SOL     OW24352   2.125   2.153  13.600 -0.1276 -0.0018  0.2609
 4240SOL    HW124353   2.136   2.066  13.561 -0.4147  1.5222 -3.1508
 4240SOL    HW224354   2.189   2.152  13.671 -1.0730 -0.0422  1.1268
 4241SOL     OW24355   2.308   2.705   5.889 -0.0456  0.4324  0.0252
 4241SOL    HW124356   2.253   2.638   5.848  1.2571 -1.0050  0.6019
 4241SOL    HW224357   2.326   2.763   5.816 -2.2542  1.1317  0.0342
 4242SOL     OW24358   4.098   1.529   7.982 -0.0724 -0.0982 -0.4848
 4242SOL    HW124359   4.078   1.594   8.049  4.7838  0.6097  0.2597
 4242SOL    HW224360   4.058   1.583   7.914  3.0526  3.7489  0.7380
 4243SOL     OW24361   1.208   1.703   9.858 -0.3255  1.3254 -0.2953
 4243SOL    HW124362   1.113   1.713   9.855 -0.4901 -0.0731  0.3202
 4243SOL    HW224363   1.236   1.739   9.773  0.0413 -1.7570 -1.4781
 4244SOL     OW24364   0.819   1.752   0.357  0.0962  0.4336  0.3848
 4244SOL    HW124365   0.740   1.766   0.305 -0.4517  0.0577  1.1153
 4244SOL    HW224366   0.861   1.836   0.374  2.3444 -0.3888 -1.0153
 4245SOL     OW24367   3.393   0.441   1.584 -0.1152  0.1742  0.4537
 4245SOL    HW124368   3.440   0.375   1.634  1.5767  1.7105  0.8891
 4245SOL    HW224369   3.326   0.387   1.543 -0.0954  0.6245 -0.1855
 4246SOL     OW24370   0.586   2.024   2.660  0.3888  0.0273 -0.1626
 4246SOL    HW124371   0.666   1.983   2.692 -0.1976 -0.8264  0.2025
 4246SOL    HW224372   0.524   1.957   2.632 -0.7137  1.2369 -0.6244
 4247SOL     OW24373   0.296   1.337  17.724 -0.2631  0.1339  0.2631
 4247SOL    HW124374   0.306   1.249   0.012  0.2613  0.9518  2.1385
 4247SOL    HW224375   0.342   1.333  17.640  0.4037 -2.0890  0.7183
 4248SOL     OW24376   0.997   1.407   1.932 -0.2570  0.2547  0.6164
 4248SOL    HW124377   0.961   1.486   1.972  0.7093  1.1218 -0.2256
 4248SOL    HW224378   0.963   1.422   1.844  0.6513  1.5215  0.4739
 4249SOL     OW24379   4.033   1.913   3.018  0.1961  0.7214  0.0224
 4249SOL    HW124380   3.965   1.913   3.086  0.5982 -1.1058  0.4338
 4249SOL    HW224381   4.029   1.829   2.972 -0.0232  1.2667 -0.9517
 4250SOL     OW24382   3.220   1.630   5.657  0.1143 -0.0352  0.6268
 4250SOL    HW124383   3.253   1.572   5.589 -0.9536  0.1472 -0.0536
 4250SOL    HW224384   3.303   1.675   5.672 -0.0864  0.6504 -0.3106
 4251SOL     OW24385   3.727   0.203   1.468 -0.1062  0.4156  0.5364
 4251SOL    HW124386   3.777   0.137   1.515 -0.5431  0.0610  0.5054
 4251SOL    HW224387   3.681   0.248   1.539 -0.1747  0.4083  0.4970
 4252SOL     OW24388   2.331   3.756   3.003 -0.0969  0.2443 -0.0175
 4252SOL    HW124389   2.396   3.689   3.026 -0.1477 -0.2359 -1.2950
 4252SOL    HW224390   2.251   3.703   3.003 -0.3513  0.6229  1.0395
 4253SOL     OW24391   2.212   1.420  17.159 -0.0787 -0.2057  0.1929
 4253SOL    HW124392   2.148   1.481  17.196  0.9454  1.3739 -0.5883
 4253SOL    HW224393   2.160   1.350  17.119 -0.0515 -0.2377  0.2138
 4254SOL     OW24394   4.604   2.424   8.323 -0.3004  0.4321  0.3956
 4254SOL    HW124395   4.589   2.386   8.237 -0.0746 -0.0801  0.5797
 4254SOL    HW224396   4.686   2.390   8.359  0.9188  3.7742  0.7214
 4255SOL     OW24397   0.820   0.609   1.761 -0.1386  0.1990  0.4550
 4255SOL    HW124398   0.820   0.661   1.680 -2.1281 -2.0447 -0.9874
 4255SOL    HW224399   0.911   0.617   1.787  0.0337  1.5376 -0.5469
 4256SOL     OW24400   1.719   3.663   9.687 -0.2780 -0.0956  0.1935
 4256SOL    HW124401   1.756   3.653   9.599  1.2475  0.6548  0.7483
 4256SOL    HW224402   1.762   3.586   9.723 -2.4274 -2.3640 -2.0608
 4257SOL     OW24403   1.289   0.455  17.689 -0.7524 -0.0132  0.3981
 4257SOL    HW124404   1.271   0.453   0.035  1.8061 -1.3376  0.8911
 4257SOL    HW224405   1.251   0.377  17.649  1.9967  0.2632 -2.7686
 4258SOL     OW24406   1.478   3.820   6.052 -0.5601  0.0251  0.3046
 4258SOL    HW124407   1.544   3.845   5.988 -0.8800 -0.1906 -0.1066
 4258SOL    HW224408   1.520   3.796   6.135 -1.4651 -0.7800  0.5310
 4259SOL     OW24409   4.472   0.866   0.409  0.0535  0.2323 -0.0690
 4259SOL    HW124410   4.414   0.904   0.342  0.7467  0.6726 -0.4222
 4259SOL    HW224411   4.434   0.778   0.409  0.1678  0.1830  1.6833
 4260SOL     OW24412   0.985   4.610   8.405  0.2382  0.1713 -0.0125
 4260SOL    HW124413   1.060   4.619   8.464 -0.7646  1.2179  1.1008
 4260SOL    HW224414   0.967   4.518   8.426 -2.8773  0.8854  0.3183
 4261SOL     OW24415   0.371   0.718   2.643 -0.0343  0.1300 -0.7118
 4261SOL    HW124416   0.339   0.628   2.639 -2.2531  0.8196  1.4735
 4261SOL    HW224417   0.449   0.716   2.699 -1.0174 -0.8259  0.6389
 4262SOL     OW24418   3.824   4.171  14.730 -0.1351 -0.3293  0.6286
 4262SOL    HW124419   3.782   4.234  14.672 -0.9861 -0.6757  0.8675
 4262SOL    HW224420   3.753   4.108  14.741 -0.5886 -0.0717 -0.7650
 4263SOL     OW24421   2.180   3.296   2.123 -0.0782  0.0703  0.0374
 4263SOL    HW124422   2.120   3.274   2.052  1.6862 -0.0328 -1.4204
 4263SOL    HW224423   2.201   3.388   2.107  1.5762 -0.3337 -0.1038
 4264SOL     OW24424   3.514   1.216  17.522 -0.3184 -0.0866  0.0305
 4264SOL    HW124425   3.580   1.285  17.522 -1.5945  1.1494  0.9432
 4264SOL    HW224426   3.551   1.163  17.452 -0.2371  1.3341 -1.0002
 4265SOL     OW24427   2.086   4.439   7.648  0.2525 -0.6240 -0.2841
 4265SOL    HW124428   2.070   4.381   7.722 -0.4440  2.3002  1.8766
 4265SOL    HW224429   1.998   4.444   7.610  0.8862  3.0651 -1.2948
 4266SOL     OW24430   2.195   1.071   9.756 -0.4509 -0.2013  0.1543
 4266SOL    HW124431   2.150   0.992   9.724  0.8346 -1.2391  0.8911
 4266SOL    HW224432   2.235   1.095   9.673  0.0925  1.5563  0.9197
 4267SOL     OW24433   0.861   2.465   9.193 -0.1178 -0.2083 -0.2018
 4267SOL    HW124434   0.865   2.537   9.130 -0.0852 -1.0840 -1.2115
 4267SOL    HW224435   0.851   2.393   9.130 -0.9648  1.2524 -1.7465
 4268SOL     OW24436   1.903   2.641   3.440 -0.3460 -0.0622  0.0357
 4268SOL    HW124437   1.953   2.661   3.518 -4.8313  1.1190  2.6298
 4268SOL    HW224438   1.885   2.729   3.408  0.5913  0.5485  1.2121
 4269SOL     OW24439   2.825   2.557   0.549 -0.6918  0.3168  0.0008
 4269SOL    HW124440   2.796   2.497   0.480 -0.9715  1.0274 -0.4980
 4269SOL    HW224441   2.744   2.548   0.599 -0.7338  1.2517  0.1012
 4270SOL     OW24442   1.447   1.182   4.204 -0.3810  0.2133 -0.1002
 4270SOL    HW124443   1.444   1.214   4.114 -0.6400 -4.4568 -1.7181
 4270SOL    HW224444   1.510   1.112   4.189 -0.8244  0.1458 -1.6750
 4271SOL     OW24445   2.798   0.812   4.293 -0.1179  0.2333 -0.3774
 4271SOL    HW124446   2.855   0.847   4.361  0.2213  0.4223 -0.7559
 4271SOL    HW224447   2.824   0.720   4.284 -1.6683 -0.2946  0.5758
 4272SOL     OW24448   4.582   0.676   9.384 -0.1113  0.1372  0.8057
 4272SOL    HW124449   4.526   0.610   9.424 -1.1617 -0.1760 -1.1858
 4272SOL    HW224450   4.635   0.627   9.321 -0.4777 -0.2091  0.7689
 4273SOL     OW24451   2.871   4.423   4.358  0.1317 -0.0650  0.6009
 4273SOL    HW124452   2.818   4.496   4.390  2.4398  1.3067  1.2762
 4273SOL    HW224453   2.813   4.347   4.364  1.7186 -1.5955 -3.4562
 4274SOL     OW24454   0.138   0.246   8.270 -0.4824  0.8043  0.8419
 4274SOL    HW124455   0.128   0.263   8.364 -2.0726 -0.7578  0.9702
 4274SOL    HW224456   0.119   0.334   8.240  2.7425  1.2890  0.2840
 4275SOL     OW24457   0.356   2.259  13.074 -0.6105  0.3105 -0.0886
 4275SOL    HW124458   0.352   2.320  13.001  2.7223  1.3431  0.6153
 4275SOL    HW224459   0.450   2.241  13.074 -0.3235  1.8040  2.0663
 4276SOL     OW24460   0.721   2.300   8.950 -0.2568  0.4397  0.7777
 4276SOL    HW124461   0.650   2.307   9.015 -1.5006  0.3314 -0.5735
 4276SOL    HW224462   0.713   2.385   8.907  1.0111  0.3749  0.4243
 4277SOL     OW24463   3.799   2.098   9.773  0.7758 -0.2593  0.1728
 4277SOL    HW124464   3.821   2.155   9.847  0.0293  1.0818 -0.6393
 4277SOL    HW224465   3.718   2.058   9.807 -0.1349  1.1119 -0.3854
 4278SOL     OW24466   0.589   2.000   6.371 -0.4171  0.3321  0.5009
 4278SOL    HW124467   0.633   2.080   6.400  0.7979  0.1615 -0.9233
 4278SOL    HW224468   0.530   1.970   6.441 -1.3497 -0.2849 -0.5531
 4279SOL     OW24469   3.371   4.145   3.966 -0.2040 -0.1873  0.3347
 4279SOL    HW124470   3.387   4.197   3.887 -1.5250  1.1639  0.9561
 4279SOL    HW224471   3.454   4.150   4.013 -0.2883  0.2694  0.4401
 4280SOL     OW24472   0.840   2.683  17.012  0.1534 -0.0482  0.3511
 4280SOL    HW124473   0.745   2.695  17.023  0.2872  1.7134 -0.4307
 4280SOL    HW224474   0.849   2.592  17.040 -0.5530 -0.2553 -0.1072
 4281SOL     OW24475   4.387   1.243   0.395 -0.2736  0.4750  0.3616
 4281SOL    HW124476   4.392   1.175   0.328 -1.2117  0.3035  0.4714
 4281SOL    HW224477   4.294   1.241   0.416 -0.6002  0.8041 -1.0459
 4282SOL     OW24478   0.282   2.216   4.455  0.3555 -0.2896 -0.1379
 4282SOL    HW124479   0.224   2.244   4.526 -0.1200  0.9083 -0.9924
 4282SOL    HW224480   0.316   2.297   4.418  0.9891 -1.2400 -1.6316
 4283SOL     OW24481   0.243   3.205   7.585  0.1774  0.3318  0.0016
 4283SOL    HW124482   0.195   3.145   7.642 -0.5442  0.4385 -0.4925
 4283SOL    HW224483   0.184   3.218   7.511  1.6509 -0.7162 -1.3488
 4284SOL     OW24484   1.594   1.678   6.648  0.5338  0.6248 -0.0028
 4284SOL    HW124485   1.572   1.644   6.561  1.3405  0.6361 -0.2157
 4284SOL    HW224486   1.548   1.621   6.710  1.6541 -0.2013  0.0831
 4285SOL     OW24487   3.488   2.659  12.008  0.0761 -0.0434 -0.6259
 4285SOL    HW124488   3.403   2.662  12.052  1.4131  1.8608  1.8136
 4285SOL    HW224489   3.452   2.626  11.925  0.6045  2.0138 -1.6990
 4286SOL     OW24490   4.369   2.543   8.534  0.3593 -0.3430 -0.5903
 4286SOL    HW124491   4.421   2.619   8.510 -0.0291 -0.4194 -1.6896
 4286SOL    HW224492   4.302   2.581   8.590 -0.5952 -0.3950 -1.6952
 4287SOL     OW24493   2.811   2.540  14.818 -0.7965 -0.1806  0.3745
 4287SOL    HW124494   2.852   2.619  14.784 -2.7099  0.5014 -0.3147
 4287SOL    HW224495   2.721   2.535  14.787 -1.8290 -0.1505  3.3602
 4288SOL     OW24496   1.136   0.839   0.835 -0.6890 -0.0087 -0.6141
 4288SOL    HW124497   1.065   0.899   0.810 -0.6097 -0.2454 -1.4036
 4288SOL    HW224498   1.192   0.887   0.896 -2.5848  0.8544  0.4506
 4289SOL     OW24499   2.513   3.922   3.669  0.0484 -0.5224 -0.1931
 4289SOL    HW124500   2.518   3.969   3.586 -0.5388 -0.3104 -0.1055
 4289SOL    HW224501   2.571   3.846   3.659 -0.5427 -1.2734  2.1723
 4290SOL     OW24502   4.009   3.067   2.815  0.0761  0.0481 -0.3533
 4290SOL    HW124503   3.988   2.983   2.775 -1.3669  0.6075 -0.7872
 4290SOL    HW224504   4.090   3.089   2.770  1.6390 -0.6757  2.1450
 4291SOL     OW24505   3.743   4.134   9.456  0.3570 -0.4186 -0.6445
 4291SOL    HW124506   3.675   4.069   9.442 -0.1817  0.1279 -0.5389
 4291SOL    HW224507   3.683   4.206   9.438 -2.2214 -1.8496  2.2196
 4292SOL     OW24508   1.953   2.564   8.417  0.4654  0.1547 -0.3421
 4292SOL    HW124509   2.016   2.581   8.348 -0.0527  1.5862 -0.4574
 4292SOL    HW224510   1.945   2.469   8.417  1.0246  0.1126 -0.4598
 4293SOL     OW24511   4.569   2.016   6.776  0.1950 -0.9135 -0.1652
 4293SOL    HW124512   4.543   1.965   6.853  0.8057 -3.4723 -1.6546
 4293SOL    HW224513   4.556   2.102   6.815  0.5915 -1.4607  1.2006
 4294SOL     OW24514   1.780   0.617   5.242  0.0573  0.6919  0.2494
 4294SOL    HW124515   1.811   0.654   5.325  1.2993  2.0926 -0.8367
 4294SOL    HW224516   1.735   0.535   5.260  0.8716  0.0623 -0.6165
 4295SOL     OW24517   3.188   3.964   6.811 -0.1513 -0.0017  0.3954
 4295SOL    HW124518   3.204   4.008   6.895 -3.3696  0.3723  0.8249
 4295SOL    HW224519   3.270   3.984   6.765  1.1664  1.8094  3.4656
 4296SOL     OW24520   0.700   0.748   8.641  0.4359 -0.4525  0.0726
 4296SOL    HW124521   0.785   0.758   8.683 -0.3234  0.6378  1.3445
 4296SOL    HW224522   0.708   0.659   8.607 -2.5861 -0.2371 -1.2333
 4297SOL     OW24523   2.133   1.772  15.842  0.0926 -0.4032  0.2550
 4297SOL    HW124524   2.114   1.679  15.857 -1.3100 -0.3900 -1.4347
 4297SOL    HW224525   2.190   1.770  15.765  1.3958  1.6048  1.1851
 4298SOL     OW24526   3.419   3.582   7.505 -0.4786  0.3940  0.2082
 4298SOL    HW124527   3.378   3.496   7.511  0.6287 -0.2723 -1.7287
 4298SOL    HW224528   3.445   3.597   7.596 -1.7506  2.0658  0.2941
 4299SOL     OW24529   4.506   0.077   7.901  0.0829 -0.0179  0.2007
 4299SOL    HW124530   4.538   0.064   7.991 -1.3641 -0.7361  0.6174
 4299SOL    HW224531   4.444   0.004   7.893 -1.3345  1.2498 -0.2639
 4300SOL     OW24532   1.599   1.176   8.136 -0.0064  0.5182  0.2883
 4300SOL    HW124533   1.586   1.126   8.216 -0.6312  0.0861 -0.0828
 4300SOL    HW224534   1.693   1.187   8.130 -0.0860  0.5173 -0.9847
 4301SOL     OW24535   1.523   1.558   5.583 -0.4714 -0.1847 -0.1629
 4301SOL    HW124536   1.452   1.522   5.532  1.1610 -1.2711 -1.6674
 4301SOL    HW224537   1.472   1.582   5.660 -1.0010 -1.7890 -0.0123
 4302SOL     OW24538   2.585   2.398  12.474 -0.0445  0.0726 -0.1255
 4302SOL    HW124539   2.524   2.407  12.401 -0.4751 -2.5583 -0.0762
 4302SOL    HW224540   2.666   2.375  12.429  1.3808  0.7146  2.1205
 4303SOL     OW24541   2.015   0.172   5.696  0.2203  0.2008 -0.3883
 4303SOL    HW124542   1.953   0.133   5.757  0.5684 -1.3368 -0.9902
 4303SOL    HW224543   2.099   0.164   5.742 -0.4357 -0.5240  0.6776
 4304SOL     OW24544   1.026   0.380   5.677  0.6941  0.4123 -0.1787
 4304SOL    HW124545   0.989   0.348   5.759  1.6500 -1.1873 -0.3605
 4304SOL    HW224546   0.939   0.389   5.639  0.4350  0.3174  0.3999
 4305SOL     OW24547   1.541   0.693  12.708  0.4206  0.0750 -0.1321
 4305SOL    HW124548   1.570   0.769  12.759 -0.3307  0.4232 -0.2208
 4305SOL    HW224549   1.610   0.633  12.736  0.9202  0.0475 -1.4041
 4306SOL     OW24550   0.654   1.538   6.053 -1.2733  0.1643  0.2328
 4306SOL    HW124551   0.698   1.476   6.111  0.8737  0.2725 -1.2741
 4306SOL    HW224552   0.656   1.614   6.111  0.7073  0.4229 -0.2008
 4307SOL     OW24553   4.449   1.046   3.014  0.1014 -0.1749 -0.1377
 4307SOL    HW124554   4.367   1.071   3.056 -0.0829 -1.8285  0.4675
 4307SOL    HW224555   4.451   1.105   2.938 -1.2245  1.2670  0.9343
 4308SOL     OW24556   0.260   1.254   7.470  0.3372  0.0562 -0.0894
 4308SOL    HW124557   0.197   1.244   7.399  0.2760  0.9819 -0.1669
 4308SOL    HW224558   0.334   1.206   7.432  0.1853 -0.9269  0.8630
 4309SOL     OW24559   2.157   4.143   0.776 -0.1554 -0.0043 -0.1113
 4309SOL    HW124560   2.234   4.118   0.828 -1.4106 -1.8532  0.8357
 4309SOL    HW224561   2.108   4.066   0.805  1.6543 -1.0148  0.2704
 4310SOL     OW24562   0.318   2.429   0.123 -0.0509 -0.0601 -0.5366
 4310SOL    HW124563   0.409   2.416   0.097  0.8321  1.5273  1.7398
 4310SOL    HW224564   0.318   2.371   0.199 -1.0149  0.0478 -0.4619
 4311SOL     OW24565   4.163   4.362   8.540 -0.1910 -0.1179 -0.0008
 4311SOL    HW124566   4.256   4.345   8.555 -0.2546  0.2167  0.7471
 4311SOL    HW224567   4.178   4.432   8.476 -0.9890  0.6133  0.6133
 4312SOL     OW24568   4.619   4.191   8.752 -0.9311 -0.1984 -0.0984
 4312SOL    HW124569   4.528   4.219   8.737 -0.4435 -0.2647 -3.1529
 4312SOL    HW224570   4.610   4.096   8.752 -0.0050 -0.2712  1.5151
 4313SOL     OW24571   2.700   1.889   1.962 -0.5943  0.0916  0.6176
 4313SOL    HW124572   2.737   1.908   1.876  0.1336 -1.5720  0.5684
 4313SOL    HW224573   2.770   1.883   2.027 -0.5381  0.1406  0.5614
 4314SOL     OW24574   0.796   0.574   8.100  0.1605 -0.1929 -0.7632
 4314SOL    HW124575   0.716   0.525   8.119 -1.8047  2.3391 -2.4828
 4314SOL    HW224576   0.851   0.500   8.075  0.8667  0.5386 -1.3683
 4315SOL     OW24577   4.237   4.319  16.990  0.3832  0.2167  0.0505
 4315SOL    HW124578   4.162   4.352  17.039  0.5197 -2.2108  1.9005
 4315SOL    HW224579   4.303   4.388  16.999 -0.3086  1.3190 -3.2088
 4316SOL     OW24580   4.190   4.238  16.754 -0.5655 -0.0441 -0.0939
 4316SOL    HW124581   4.258   4.271  16.696 -0.2212  0.2241  0.4582
 4316SOL    HW224582   4.193   4.286  16.837 -0.8683 -1.5915  0.8230
 4317SOL     OW24583   3.785   3.303   2.332 -1.1336  0.3363 -0.0106
 4317SOL    HW124584   3.822   3.304   2.420 -2.8564  3.7689  0.6935
 4317SOL    HW224585   3.841   3.241   2.286 -2.1009 -1.2504  0.9995
 4318SOL     OW24586   0.065   3.277   8.215 -0.2214  0.0677 -0.4547
 4318SOL    HW124587   4.732   3.265   8.151 -0.1468  1.3653 -0.7652
 4318SOL    HW224588   0.083   3.186   8.239  1.1264 -0.0576 -1.9827
 4319SOL     OW24589   0.879   1.171   2.041 -0.3385 -0.1535 -1.0080
 4319SOL    HW124590   0.895   1.221   1.961 -0.5033 -2.9666 -2.7883
 4319SOL    HW224591   0.881   1.080   2.012  0.0303 -0.4955  0.0845
 4320SOL     OW24592   1.463   3.565   5.889  0.5568 -0.4991  0.0119
 4320SOL    HW124593   1.463   3.625   5.963 -3.5718 -1.2062  0.5787
 4320SOL    HW224594   1.495   3.619   5.817 -1.6183 -1.4902 -1.7074
 4321SOL     OW24595   0.216   1.919   4.629  0.3973 -0.5032 -0.1884
 4321SOL    HW124596   0.293   1.864   4.618  0.4757 -0.4587  0.1420
 4321SOL    HW224597   0.229   1.975   4.552 -0.4844 -0.4379 -0.2887
 4322SOL     OW24598   4.549   3.058  10.901  0.0129  0.2754 -0.3108
 4322SOL    HW124599   4.626   3.001  10.896 -0.1543  0.0944 -0.8621
 4322SOL    HW224600   4.530   3.071  10.994 -0.9387  1.0186 -0.6154
 4323SOL     OW24601   0.155   1.266  15.316 -0.2449  0.6956 -0.1235
 4323SOL    HW124602   0.246   1.254  15.287 -0.3308  0.5947 -0.3552
 4323SOL    HW224603   0.149   1.196  15.380 -0.5924 -0.2352 -1.1721
 4324SOL     OW24604   3.208   0.991   5.299  0.0441  0.5626  1.2244
 4324SOL    HW124605   3.218   1.086   5.290 -0.8865  0.7444  2.1748
 4324SOL    HW224606   3.130   0.981   5.353 -0.4364 -1.4457  0.1525
 4325SOL     OW24607   0.302   1.454   9.189  0.4208 -0.2594 -0.4920
 4325SOL    HW124608   0.306   1.541   9.230  0.2231  0.2654 -1.5842
 4325SOL    HW224609   0.214   1.427   9.211  0.9439  0.5248  2.5591
 4326SOL     OW24610   0.826   1.885  15.460 -0.2313  0.2079  0.3792
 4326SOL    HW124611   0.779   1.931  15.391 -0.1519 -1.2744 -0.6778
 4326SOL    HW224612   0.831   1.797  15.421 -1.0856  0.4633 -0.2952
 4327SOL     OW24613   2.132   1.012   6.147  0.5925  0.0267 -0.0943
 4327SOL    HW124614   2.095   1.100   6.157  0.0386 -0.3843  1.5269
 4327SOL    HW224615   2.193   1.047   6.082 -0.4340 -1.2088 -1.6878
 4328SOL     OW24616   0.723   1.175   0.864 -0.1402  0.1051 -0.2071
 4328SOL    HW124617   0.683   1.134   0.941  0.6235  0.5365  0.4171
 4328SOL    HW224618   0.666   1.248   0.840  2.1957  1.5139 -1.4592
 4329SOL     OW24619   3.433   3.055   8.057 -0.4250  0.4318 -0.1459
 4329SOL    HW124620   3.371   3.069   8.129 -1.2553 -0.3325 -0.7133
 4329SOL    HW224621   3.435   2.960   8.068  1.5336  0.4629 -0.2831
 4330SOL     OW24622   1.953   2.378   3.394 -0.0970 -0.2774 -0.4188
 4330SOL    HW124623   1.922   2.464   3.420 -1.6844 -1.1517  0.5529
 4330SOL    HW224624   1.939   2.386   3.300  2.6028 -0.5164 -0.8642
 4331SOL     OW24625   2.971   3.480  11.971  0.2858  0.0694 -0.3718
 4331SOL    HW124626   3.001   3.551  11.914  0.1749 -0.1803 -0.7363
 4331SOL    HW224627   2.979   3.401  11.917 -0.3373  0.5605 -1.1849
 4332SOL     OW24628   1.492   1.722   5.815 -0.0130 -0.4066  0.0109
 4332SOL    HW124629   1.578   1.763   5.806 -0.1799  0.1747  1.0003
 4332SOL    HW224630   1.438   1.800   5.831  0.6355  0.1786 -0.7126
 4333SOL     OW24631   4.177   3.025   9.872  0.2332 -0.0635  0.6602
 4333SOL    HW124632   4.179   2.953   9.935  1.0931  0.2494  0.9871
 4333SOL    HW224633   4.126   3.088   9.922  0.4642  0.3506  0.3782
 4334SOL     OW24634   1.942   2.624   7.103  0.1797 -0.4574 -0.3855
 4334SOL    HW124635   1.888   2.664   7.171  0.0010  1.1302 -1.4810
 4334SOL    HW224636   1.967   2.545   7.152  0.7079 -0.7248 -1.0910
 4335SOL     OW24637   0.278   1.792   3.992  0.1069 -0.1485  0.7537
 4335SOL    HW124638   0.316   1.819   4.076  2.2430 -2.0364  0.4072
 4335SOL    HW224639   0.357   1.781   3.940 -1.0433 -1.9975 -0.6129
 4336SOL     OW24640   1.866   2.869   8.028 -0.5667  0.8216  0.1673
 4336SOL    HW124641   1.804   2.906   7.966 -0.3135  1.2516  0.1708
 4336SOL    HW224642   1.831   2.899   8.112  2.5328  1.2780  1.2798
 4337SOL     OW24643   4.589   4.096   3.040 -0.1933  0.2668 -0.1273
 4337SOL    HW124644   4.667   4.151   3.028 -0.5984  0.5413 -1.5387
 4337SOL    HW224645   4.623   4.007   3.036  0.4688  0.5467 -0.5919
 4338SOL     OW24646   3.112   4.468   3.127  0.4944  0.0872 -0.6696
 4338SOL    HW124647   3.035   4.435   3.174  1.2134 -1.2340 -0.4180
 4338SOL    HW224648   3.165   4.461   3.207 -0.3227 -1.1118 -0.2154
 4339SOL     OW24649   0.085   3.544  14.776 -0.4554  0.0720  0.3120
 4339SOL    HW124650   0.124   3.534  14.863  0.2067 -0.9298 -0.0985
 4339SOL    HW224651   0.007   3.595  14.797 -1.6978 -2.1852  1.1187
 4340SOL     OW24652   4.713   4.211  11.977 -0.2064  0.5560  0.4073
 4340SOL    HW124653   0.027   4.256  11.909 -1.6516  1.8658  0.1751
 4340SOL    HW224654   4.734   4.119  11.962 -0.2729  0.3414  1.6572
 4341SOL     OW24655   2.777   2.438   3.254  0.2497  0.8701 -0.4290
 4341SOL    HW124656   2.701   2.428   3.196  0.2674  0.9593 -0.4686
 4341SOL    HW224657   2.756   2.508   3.316  1.1912  1.1810 -0.4606
 4342SOL     OW24658   2.343   0.499   3.155  0.0706 -0.4390  0.8990
 4342SOL    HW124659   2.356   0.518   3.062  4.3658 -2.1128  1.1444
 4342SOL    HW224660   2.257   0.539   3.162 -0.0067 -0.3481 -0.4458
 4343SOL     OW24661   3.877   2.008   5.398  0.4303 -0.4624  0.2091
 4343SOL    HW124662   3.899   2.100   5.384  0.3849 -0.4914 -0.0532
 4343SOL    HW224663   3.916   1.998   5.485  0.7904 -3.3349 -0.2789
 4344SOL     OW24664   1.851   2.250  11.275  0.7598 -0.1801  0.3447
 4344SOL    HW124665   1.939   2.245  11.313  1.6055 -1.8726 -1.8801
 4344SOL    HW224666   1.867   2.246  11.181 -0.0377 -1.5428  0.2662
 4345SOL     OW24667   0.737   1.146   3.699  0.3193 -0.0791 -0.6995
 4345SOL    HW124668   0.790   1.159   3.778 -0.0334  0.6892 -0.5976
 4345SOL    HW224669   0.665   1.207   3.712  1.3455  0.5772  1.9497
 4346SOL     OW24670   2.763   2.700  13.491 -0.4023  0.4299  0.2588
 4346SOL    HW124671   2.692   2.692  13.555 -1.6032 -0.3409 -1.1815
 4346SOL    HW224672   2.836   2.732  13.545 -1.9640  0.9999  2.0157
 4347SOL     OW24673   0.381   1.753   1.984  0.1487 -0.2071  0.2607
 4347SOL    HW124674   0.424   1.671   2.009  0.6657 -0.7727 -2.3924
 4347SOL    HW224675   0.290   1.727   1.977  0.4141 -1.2765  0.8133
 4348SOL     OW24676   0.697   2.702   3.402 -0.1309  0.3266  0.1231
 4348SOL    HW124677   0.634   2.633   3.426 -0.1291 -0.3394 -1.7681
 4348SOL    HW224678   0.679   2.708   3.308 -2.4838 -0.3615  0.5205
 4349SOL     OW24679   2.401   3.949  10.436 -0.2922 -0.6700 -0.3919
 4349SOL    HW124680   2.455   3.916  10.508  2.4927  1.7758 -1.3496
 4349SOL    HW224681   2.435   3.898  10.363 -1.3715  0.9601 -2.0226
 4350SOL     OW24682   3.558   0.545   7.169 -0.5027  0.4375 -0.3818
 4350SOL    HW124683   3.544   0.496   7.088 -1.4130  1.3053 -0.7529
 4350SOL    HW224684   3.482   0.602   7.165 -0.3717  0.6839  0.7618
 4351SOL     OW24685   2.335   1.061   3.321 -0.3232 -0.4028 -0.5185
 4351SOL    HW124686   2.309   1.108   3.242  1.0478 -1.2009 -1.4403
 4351SOL    HW224687   2.323   0.970   3.293  1.5979 -0.4256 -1.2995
 4352SOL     OW24688   4.665   2.402   2.510 -0.2035  0.3136  0.4225
 4352SOL    HW124689   4.675   2.459   2.586 -1.7800  1.3050 -0.1114
 4352SOL    HW224690   0.009   2.352   2.502 -1.1558 -0.9190 -1.8120
 4353SOL     OW24691   4.503   2.953  13.502 -0.0761  0.1161  0.0294
 4353SOL    HW124692   4.455   2.948  13.585  2.1690  0.2346  1.3273
 4353SOL    HW224693   4.594   2.956  13.532 -0.0434 -0.5675 -0.0062
 4354SOL     OW24694   0.499   1.731   7.660  0.0933 -0.6475 -0.3300
 4354SOL    HW124695   0.485   1.674   7.735  0.6572 -0.2724  0.0683
 4354SOL    HW224696   0.469   1.687   7.581 -1.2567 -0.4362  0.0730
 4355SOL     OW24697   2.075   0.873   8.934  0.1719 -0.5338  0.2962
 4355SOL    HW124698   2.047   0.820   8.859 -0.1774  0.1656 -0.0626
 4355SOL    HW224699   2.151   0.909   8.888  0.3975 -0.8889  0.3881
 4356SOL     OW24700   1.201   3.790   4.408  0.6313  0.0608  0.1284
 4356SOL    HW124701   1.235   3.780   4.497 -1.5562 -1.5489  0.7819
 4356SOL    HW224702   1.144   3.715   4.387 -0.3585  0.9011 -0.1934
 4357SOL     OW24703   2.240   1.039   5.645  0.2511 -0.4362  0.1075
 4357SOL    HW124704   2.266   0.985   5.719 -0.4598 -0.4233  0.3745
 4357SOL    HW224705   2.305   1.107   5.658  1.3859 -1.0291 -2.5621
 4358SOL     OW24706   0.318   0.954  15.655 -0.0580 -0.3355 -0.8667
 4358SOL    HW124707   0.332   0.998  15.739 -0.8660 -1.3785 -0.1927
 4358SOL    HW224708   0.307   0.862  15.677  0.5625  0.2292  1.8146
 4359SOL     OW24709   4.323   3.151  10.491  0.7541  0.4896  0.1082
 4359SOL    HW124710   4.341   3.221  10.554  0.5430  0.0520  0.6571
 4359SOL    HW224711   4.354   3.075  10.541  0.3374  0.0065 -0.3671
 4360SOL     OW24712   1.544   3.735   5.685 -0.7055  0.0523 -0.2684
 4360SOL    HW124713   1.635   3.713   5.703 -0.1708  3.0891  0.6397
 4360SOL    HW224714   1.538   3.728   5.589 -1.4157 -3.0377 -0.0149
 4361SOL     OW24715   2.763   3.708   3.982 -0.1917 -0.2025  0.2099
 4361SOL    HW124716   2.856   3.694   4.002  0.1114 -1.6620 -2.1703
 4361SOL    HW224717   2.770   3.782   3.921  1.6342  0.3018  1.0243
 4362SOL     OW24718   1.604   3.331   9.005  0.2014  0.1380  0.3418
 4362SOL    HW124719   1.579   3.417   8.971 -0.0945  0.0454  0.3256
 4362SOL    HW224720   1.605   3.281   8.923 -1.7577  0.5005  0.1035
 4363SOL     OW24721   3.923   3.174   3.204  0.2769  0.3691  0.6719
 4363SOL    HW124722   3.886   3.187   3.117 -0.0456 -1.4925  0.5369
 4363SOL    HW224723   4.003   3.125   3.184  0.0002  0.7848 -1.4879
 4364SOL     OW24724   1.591   4.196   7.682 -0.1136  0.4599  0.1863
 4364SOL    HW124725   1.556   4.112   7.711 -0.9567  1.0311  0.8324
 4364SOL    HW224726   1.521   4.260   7.696 -1.6786 -1.2420  0.0768
 4365SOL     OW24727   1.220   4.683  10.754 -0.3402  0.1884  0.1667
 4365SOL    HW124728   1.298   4.702  10.805  0.1904 -2.0359  0.1763
 4365SOL    HW224729   1.169   0.023  10.776 -0.8075 -0.6822  2.1868
 4366SOL     OW24730   4.241   4.473   4.879 -0.6191 -0.2641 -0.3839
 4366SOL    HW124731   4.310   4.407   4.875  1.1847  1.6231 -0.6234
 4366SOL    HW224732   4.229   4.504   4.789 -0.7104 -0.6531 -0.5044
 4367SOL     OW24733   2.538   0.867  15.634 -0.1973 -0.8923  0.2655
 4367SOL    HW124734   2.459   0.846  15.583 -1.4114  0.6406  1.4910
 4367SOL    HW224735   2.526   0.824  15.719  0.2470  0.1453  0.8476
 4368SOL     OW24736   2.748   1.224  16.570 -0.0936 -0.0426 -0.4057
 4368SOL    HW124737   2.816   1.289  16.553  0.0847 -0.5233 -1.4864
 4368SOL    HW224738   2.700   1.275  16.636  1.0345  0.0578  0.3386
 4369SOL     OW24739   0.310   2.059  11.384  0.2615 -0.7736  0.5668
 4369SOL    HW124740   0.278   2.014  11.462 -0.7375 -0.2736  0.4423
 4369SOL    HW224741   0.246   2.031  11.319 -0.9539  0.2540  1.3282
 4370SOL     OW24742   3.756   2.621   3.326  0.4546 -0.5765  0.4636
 4370SOL    HW124743   3.684   2.684   3.331  1.9972  1.4121 -2.0123
 4370SOL    HW224744   3.825   2.667   3.374  2.9003 -1.9407 -1.7225
 4371SOL     OW24745   0.719   4.069   6.383 -0.1216 -0.3319  0.2686
 4371SOL    HW124746   0.637   4.049   6.429  0.9566 -1.5047  1.6744
 4371SOL    HW224747   0.770   4.119   6.447 -0.2282 -0.7892  0.7110
 4372SOL     OW24748   4.401   1.929   3.070 -0.3656 -0.2643  0.1870
 4372SOL    HW124749   4.343   2.002   3.050  0.3996 -0.6006 -3.3627
 4372SOL    HW224750   4.348   1.855   3.040 -0.2203  0.2153 -1.2879
 4373SOL     OW24751   4.112   0.544   3.975 -0.1948  0.0016 -0.3120
 4373SOL    HW124752   4.074   0.628   3.951  0.6439  0.6551  0.6203
 4373SOL    HW224753   4.071   0.532   4.061 -0.8465  1.6985 -0.3990
 4374SOL     OW24754   2.660   3.675   5.628 -0.1965  0.2290  0.2662
 4374SOL    HW124755   2.733   3.689   5.688 -0.5072  4.0385 -0.2242
 4374SOL    HW224756   2.714   3.639   5.557 -0.5824 -0.3798  0.2850
 4375SOL     OW24757   2.874   3.830   6.101 -0.3669  0.3094 -0.6187
 4375SOL    HW124758   2.952   3.779   6.120 -0.2857  1.4656  2.1206
 4375SOL    HW224759   2.919   3.911   6.078  2.4348 -0.9527  0.4746
 4376SOL     OW24760   2.317   2.642   9.191 -0.3973  0.2857 -0.1270
 4376SOL    HW124761   2.390   2.582   9.173 -0.6356  0.2649 -1.0001
 4376SOL    HW224762   2.351   2.698   9.261 -1.2938 -0.0636  0.5838
 4377SOL     OW24763   0.505   2.702   7.688 -0.3898 -0.0039  0.3684
 4377SOL    HW124764   0.486   2.776   7.746 -0.7806  1.0127 -1.0587
 4377SOL    HW224765   0.425   2.652   7.704 -0.6330  0.2795  0.0318
 4378SOL     OW24766   3.120   2.818  11.016 -0.1845  0.3307  0.4367
 4378SOL    HW124767   3.027   2.806  11.030  0.0880 -0.4527  1.5225
 4378SOL    HW224768   3.125   2.877  10.940  1.4472 -1.3088 -0.7592
 4379SOL     OW24769   4.323   0.328   6.740  0.3719  0.0753 -0.0650
 4379SOL    HW124770   4.274   0.254   6.776 -1.6255  0.2138 -2.5469
 4379SOL    HW224771   4.372   0.357   6.818  0.2995 -2.5428  0.9561
 4380SOL     OW24772   0.003   1.426   8.445  0.3290  0.5067 -0.1447
 4380SOL    HW124773   0.093   1.423   8.478  0.5384 -1.4572 -0.8626
 4380SOL    HW224774   0.009   1.503   8.388 -2.2737  0.3195 -0.6573
 4381SOL     OW24775   4.507   0.845   0.046 -0.0714  0.0521 -0.2413
 4381SOL    HW124776   4.413   0.841   0.061  0.5105 -3.4027  2.4565
 4381SOL    HW224777   4.497   0.843  17.699 -1.0958 -2.5037 -0.0824
 4382SOL     OW24778   3.333   1.550   2.431 -0.1186 -0.0354 -0.5005
 4382SOL    HW124779   3.418   1.563   2.474 -1.6087 -0.6460  2.5942
 4382SOL    HW224780   3.358   1.547   2.339  0.6226 -2.1428 -0.2401
 4383SOL     OW24781   3.854   0.337   8.780  0.3956  0.4028  0.1701
 4383SOL    HW124782   3.807   0.379   8.852 -2.0153  1.0839 -1.8168
 4383SOL    HW224783   3.860   0.407   8.714 -0.7893 -0.9988 -1.4167
 4384SOL     OW24784   1.392   2.745  14.451 -0.4014  0.1374  0.1786
 4384SOL    HW124785   1.482   2.776  14.442 -0.6610  1.1014  1.0132
 4384SOL    HW224786   1.386   2.720  14.543  4.2030  1.2437  0.7931
 4385SOL     OW24787   3.138   4.550  15.932  0.8972  0.0227 -0.0695
 4385SOL    HW124788   3.090   4.573  15.852  1.5770  1.2831 -0.1267
 4385SOL    HW224789   3.065   4.525  15.987  0.0180  0.9763 -0.7934
 4386SOL     OW24790   4.282   4.617   3.365 -0.1214  0.3159  0.4231
 4386SOL    HW124791   4.360   4.593   3.315 -0.5816  2.3046 -1.2350
 4386SOL    HW224792   4.245   4.533   3.390  0.0452 -0.0093 -0.4238
 4387SOL     OW24793   4.553   0.491   8.334 -0.1342 -0.3345 -0.4452
 4387SOL    HW124794   4.517   0.478   8.422 -0.6856 -1.4028 -0.8217
 4387SOL    HW224795   4.610   0.568   8.336  1.1001 -1.2739  0.4812
 4388SOL     OW24796   0.144   0.477   9.535 -0.2000 -0.6654  0.3183
 4388SOL    HW124797   0.080   0.503   9.470 -0.3564  0.0386  0.7515
 4388SOL    HW224798   0.140   0.551   9.596  1.5213  0.2801 -0.6959
 4389SOL     OW24799   0.730   3.723   4.237  0.3578  0.3638 -0.3894
 4389SOL    HW124800   0.808   3.778   4.234 -0.1731  1.1680  0.6918
 4389SOL    HW224801   0.760   3.673   4.312 -0.6419  0.2124 -0.0910
 4390SOL     OW24802   0.602   1.396   2.858 -0.3458  0.5516  0.0431
 4390SOL    HW124803   0.588   1.322   2.798 -0.4347  1.2097 -0.7392
 4390SOL    HW224804   0.576   1.469   2.802  0.9307  0.3277 -0.8531
 4391SOL     OW24805   1.786   2.104   5.585  0.1837 -0.0581  0.5421
 4391SOL    HW124806   1.799   2.105   5.680  2.1260  0.8136  0.2680
 4391SOL    HW224807   1.731   2.026   5.575 -0.5827  0.4406  0.8926
 4392SOL     OW24808   0.124   4.422   9.554 -0.6078  0.3095 -0.0477
 4392SOL    HW124809   0.183   4.394   9.625 -1.2019 -0.9172 -0.0394
 4392SOL    HW224810   0.119   4.517   9.565 -1.0108  0.1580  1.1503
 4393SOL     OW24811   0.790   3.822   6.048  0.1158  0.2191 -0.1951
 4393SOL    HW124812   0.842   3.742   6.055  0.4004  0.5764  1.7362
 4393SOL    HW224813   0.856   3.885   6.077 -0.3283 -0.3635  2.1156
 4394SOL     OW24814   1.390   0.831   8.431 -0.5186 -0.4111  0.4223
 4394SOL    HW124815   1.366   0.738   8.435  2.1231 -1.0731  0.8551
 4394SOL    HW224816   1.420   0.857   8.518  1.5166 -3.7004  0.7242
 4395SOL     OW24817   4.310   1.392   5.873  0.2529 -0.0880 -0.2204
 4395SOL    HW124818   4.228   1.418   5.917  0.4055 -1.4759  0.9034
 4395SOL    HW224819   4.274   1.368   5.788  2.4024  0.1641 -1.1963
 4396SOL     OW24820   2.668   2.591   1.887  0.4100 -0.4378  0.0743
 4396SOL    HW124821   2.728   2.556   1.952  0.6628  1.7572  1.0182
 4396SOL    HW224822   2.618   2.513   1.863  0.0838  0.5419 -2.4817
 4397SOL     OW24823   3.153   2.113   3.632 -0.3737 -0.3579  0.4992
 4397SOL    HW124824   3.168   2.158   3.715  0.3444  1.9158 -0.8508
 4397SOL    HW224825   3.242   2.110   3.595 -0.3348 -1.0802  0.6429
 4398SOL     OW24826   3.136   3.365   0.882  0.4518  0.1769  0.6140
 4398SOL    HW124827   3.183   3.290   0.847 -1.5207 -0.8713  0.2601
 4398SOL    HW224828   3.046   3.337   0.868 -0.0124  2.2033 -0.4528
 4399SOL     OW24829   3.590   3.811   6.913 -0.3333  0.6058  0.3499
 4399SOL    HW124830   3.666   3.804   6.970  2.0978  0.5481 -2.8758
 4399SOL    HW224831   3.614   3.741   6.851 -0.8819  0.4945  0.2627
 4400SOL     OW24832   1.265   0.344   7.260  0.2549 -0.2674  0.3060
 4400SOL    HW124833   1.259   0.425   7.210 -2.6183 -0.8711 -0.3198
 4400SOL    HW224834   1.348   0.309   7.227  0.9107  2.4680 -0.9307
 4401SOL     OW24835   0.282   0.032  17.534 -0.1823 -0.0095  0.1135
 4401SOL    HW124836   0.295   4.719  17.615  1.9079  2.1949  1.1393
 4401SOL    HW224837   0.374   0.035  17.509 -0.8249 -0.3306 -2.2350
 4402SOL     OW24838   2.362   2.827   5.636  0.0337  0.0278 -0.1176
 4402SOL    HW124839   2.392   2.773   5.563  0.6571  1.8874 -1.2376
 4402SOL    HW224840   2.421   2.901   5.624 -0.6447  0.3904 -1.2255
 4403SOL     OW24841   1.167   1.650  14.408 -0.3068  0.6853  0.5496
 4403SOL    HW124842   1.237   1.658  14.344 -0.5161  0.2287  0.2618
 4403SOL    HW224843   1.205   1.699  14.481  0.6252 -0.9706  1.1787
 4404SOL     OW24844   3.352   3.243   4.980  1.2317 -0.2681  0.3453
 4404SOL    HW124845   3.374   3.326   5.022  0.7153  0.5546 -1.0137
 4404SOL    HW224846   3.263   3.238   5.015  1.4774  0.2919  1.0552
 4405SOL     OW24847   3.734   3.496   3.123  0.2798  0.2841 -0.3962
 4405SOL    HW124848   3.652   3.466   3.162 -0.8232  1.8656 -1.4700
 4405SOL    HW224849   3.721   3.475   3.031  1.0917 -0.6000 -0.3104
 4406SOL     OW24850   3.862   2.062   9.348 -0.0505 -0.7690  0.3831
 4406SOL    HW124851   3.834   1.994   9.287  0.6065 -0.3977 -0.3357
 4406SOL    HW224852   3.955   2.064   9.325 -0.1703 -0.5367 -0.0685
 4407SOL     OW24853   3.664   1.717   2.080  0.3620  0.3503 -0.5439
 4407SOL    HW124854   3.659   1.738   1.987 -0.0037 -1.3108 -0.9140
 4407SOL    HW224855   3.756   1.692   2.084 -0.3862 -2.4118 -0.3144
 4408SOL     OW24856   4.437   3.916   7.317 -0.4159 -0.0747 -0.4247
 4408SOL    HW124857   4.394   3.948   7.238  0.7103 -0.5862 -1.2479
 4408SOL    HW224858   4.458   4.002   7.351  1.3023 -0.5242 -0.3616
 4409SOL     OW24859   4.355   3.356  12.628 -0.1972  0.2111 -0.1090
 4409SOL    HW124860   4.282   3.351  12.690  0.1544 -1.5458  0.1740
 4409SOL    HW224861   4.347   3.270  12.588 -0.2001 -0.4598  1.3174
 4410SOL     OW24862   1.251   2.988   2.606 -0.1597  0.0306 -0.6914
 4410SOL    HW124863   1.316   2.949   2.549 -0.4827 -0.3332 -0.8138
 4410SOL    HW224864   1.245   3.072   2.559 -2.3349  0.1242 -0.2753
 4411SOL     OW24865   2.794   3.738   1.698 -0.0814 -0.1568  0.0034
 4411SOL    HW124866   2.877   3.786   1.695  0.2447 -0.7605 -0.7509
 4411SOL    HW224867   2.798   3.658   1.751  0.0045 -0.4440 -0.4286
 4412SOL     OW24868   0.684   4.502  10.659 -0.4046 -0.0762 -0.1786
 4412SOL    HW124869   0.589   4.503  10.668 -0.3143  0.3244  0.6668
 4412SOL    HW224870   0.713   4.413  10.639 -0.2872 -0.1720  0.4185
 4413SOL     OW24871   1.251   3.931  17.497  0.1330 -0.0510 -0.3560
 4413SOL    HW124872   1.195   3.975  17.561  1.9409  0.8540  0.5831
 4413SOL    HW224873   1.237   3.839  17.522  0.2929 -0.3283 -1.2722
 4414SOL     OW24874   1.987   2.665  17.663 -0.2334 -0.1992 -0.4100
 4414SOL    HW124875   2.048   2.738  17.674  0.4374 -0.7206 -0.7052
 4414SOL    HW224876   1.938   2.694  17.586  1.6040  2.1693 -0.6709
 4415SOL     OW24877   1.462   0.810   6.030 -0.6236  0.4167 -0.0682
 4415SOL    HW124878   1.420   0.756   6.097 -0.7761  0.2188 -0.3187
 4415SOL    HW224879   1.391   0.862   5.993 -0.7399  1.3061  1.4187
 4416SOL     OW24880   3.347   2.482   8.082 -0.3701 -0.2334  0.4934
 4416SOL    HW124881   3.428   2.503   8.034 -0.0088  2.8254  2.4541
 4416SOL    HW224882   3.339   2.558   8.139 -0.3791  0.3456 -0.2782
 4417SOL     OW24883   4.597   1.140  17.198  0.1648 -0.3765 -0.0579
 4417SOL    HW124884   4.603   1.080  17.273 -0.1246  4.0600  3.4825
 4417SOL    HW224885   4.688   1.154  17.175 -0.1268  1.6503  0.0629
 4418SOL     OW24886   2.290   3.317   7.637 -0.5777  0.0009  0.0333
 4418SOL    HW124887   2.301   3.306   7.543 -0.7945 -0.5997  0.0793
 4418SOL    HW224888   2.264   3.230   7.668 -2.2334  0.3486 -0.3506
 4419SOL     OW24889   3.517   2.343   5.504 -0.4980  1.0132  0.3366
 4419SOL    HW124890   3.536   2.249   5.512 -2.0708  0.7084  0.3818
 4419SOL    HW224891   3.545   2.370   5.592 -1.0934  1.0030  0.5263
 4420SOL     OW24892   1.174   2.945   9.257  0.1498 -0.3692 -0.1202
 4420SOL    HW124893   1.106   2.909   9.200  0.4809 -0.2765 -0.5741
 4420SOL    HW224894   1.158   3.031   9.218  1.0653  0.6506  1.7543
 4421SOL     OW24895   0.161   3.622  11.684  0.2380  0.4855  0.0469
 4421SOL    HW124896   0.130   3.713  11.687  0.3115  0.5045  0.2141
 4421SOL    HW224897   0.201   3.610  11.770  0.9704 -1.5719 -0.5921
 4422SOL     OW24898   0.295   0.241   9.867  0.2671  0.7315  0.0882
 4422SOL    HW124899   0.340   0.163   9.835  0.9723  1.6571 -1.1510
 4422SOL    HW224900   0.328   0.242   9.957  0.5471 -0.6591  0.0115
 4423SOL     OW24901   3.989   1.680   1.781  0.0336 -0.0437  0.6545
 4423SOL    HW124902   3.971   1.653   1.691 -1.5591 -0.0008  0.9679
 4423SOL    HW224903   4.042   1.758   1.767 -0.6104 -0.2122 -2.7950
 4424SOL     OW24904   4.503   3.395   8.203 -0.2282  0.6025  0.4571
 4424SOL    HW124905   4.557   3.468   8.175 -0.5343  0.4753 -0.4680
 4424SOL    HW224906   4.531   3.339   8.131  2.2843  3.6207 -0.8890
 4425SOL     OW24907   4.573   2.830  11.495 -0.7620  0.0523  0.3697
 4425SOL    HW124908   4.623   2.854  11.573 -0.9401  2.2368 -0.1911
 4425SOL    HW224909   4.633   2.846  11.422  0.9184  2.1787  2.2462
 4426SOL     OW24910   3.315   2.276   7.828  0.7458 -0.4313  0.1805
 4426SOL    HW124911   3.409   2.269   7.813  0.6615 -3.0027  0.8960
 4426SOL    HW224912   3.302   2.371   7.823  1.1321 -0.4989 -2.0293
 4427SOL     OW24913   4.108   0.833  13.713 -0.1234 -0.0826  0.5847
 4427SOL    HW124914   4.190   0.882  13.717 -0.7697  1.1364 -0.9966
 4427SOL    HW224915   4.126   0.760  13.772  0.0867  2.1078  3.2505
 4428SOL     OW24916   2.871   0.449  10.585 -0.0797  0.1047  0.0548
 4428SOL    HW124917   2.847   0.403  10.666 -0.0522  1.0763  0.6137
 4428SOL    HW224918   2.782   0.445  10.550 -0.1147 -0.8800  0.2516
 4429SOL     OW24919   4.252   3.963  14.706 -0.2520  0.0726  0.3863
 4429SOL    HW124920   4.311   4.017  14.653  0.0601 -0.3540  0.2991
 4429SOL    HW224921   4.213   4.034  14.757  0.4269  1.6112 -1.2215
 4430SOL     OW24922   2.930   3.099  16.975 -0.2729 -0.0453  0.0457
 4430SOL    HW124923   2.933   3.165  16.905  0.1647  1.3414  1.3618
 4430SOL    HW224924   3.003   3.125  17.031  0.7452 -2.9084  0.0389
 4431SOL     OW24925   2.522   0.340   7.017 -0.8067  0.9696 -0.2865
 4431SOL    HW124926   2.429   0.323   7.030  0.0686 -2.1737  1.9163
 4431SOL    HW224927   2.544   0.257   6.975  1.7400  2.1198 -1.3203
 4432SOL     OW24928   4.596   1.330   0.561  0.1464 -0.4473 -0.2847
 4432SOL    HW124929   4.556   1.331   0.474 -1.9964 -1.6468  0.6811
 4432SOL    HW224930   4.523   1.352   0.619 -0.2635 -0.7764 -0.6801
 4433SOL     OW24931   1.287   4.235   5.764  0.1756 -0.2539 -0.4418
 4433SOL    HW124932   1.364   4.238   5.821  1.1969  2.7563 -1.9386
 4433SOL    HW224933   1.293   4.154   5.714 -0.2819  0.3925 -1.5494
 4434SOL     OW24934   3.635   3.367  14.338 -0.6002  0.5803 -0.4428
 4434SOL    HW124935   3.643   3.413  14.255 -1.9184  2.9464  0.7366
 4434SOL    HW224936   3.577   3.303  14.299  0.7767  0.0202 -1.5913
 4435SOL     OW24937   3.700   3.294   3.840 -0.2733 -0.8993 -0.4422
 4435SOL    HW124938   3.714   3.276   3.933  0.5867 -0.2227 -0.4402
 4435SOL    HW224939   3.692   3.200   3.820  2.3390 -1.5543  1.6149
 4436SOL     OW24940   3.809   2.837   6.741  0.2631 -0.6021 -0.3001
 4436SOL    HW124941   3.890   2.791   6.720  0.9558  0.3175  0.3660
 4436SOL    HW224942   3.797   2.888   6.662  0.4764  1.0834  0.7633
 4437SOL     OW24943   0.510   0.704   4.273 -1.0498  0.4043  0.1714
 4437SOL    HW124944   0.480   0.755   4.349  0.2295 -1.7432  2.1357
 4437SOL    HW224945   0.596   0.668   4.295 -1.5000 -1.6745 -1.5284
 4438SOL     OW24946   0.736   2.117  13.428  0.4054  0.0333 -0.3725
 4438SOL    HW124947   0.731   2.095  13.521  1.3414 -0.1198 -0.3656
 4438SOL    HW224948   0.665   2.061  13.395  0.7896 -0.7710  0.1575
 4439SOL     OW24949   0.796   1.455   5.432  0.9109  0.3754 -0.2214
 4439SOL    HW124950   0.839   1.400   5.366  1.2960 -1.8857  1.8941
 4439SOL    HW224951   0.729   1.483   5.371  1.0131 -0.6454 -0.8041
 4440SOL     OW24952   1.495   0.450  12.330 -0.2788  0.3606 -0.2815
 4440SOL    HW124953   1.426   0.391  12.361 -0.8268  1.3066  0.3320
 4440SOL    HW224954   1.542   0.392  12.271  0.7984  1.8314 -0.8784
 4441SOL     OW24955   2.907   0.469   7.824  0.0757 -0.0838 -0.2084
 4441SOL    HW124956   2.874   0.554   7.796 -0.4472 -0.6989 -1.4221
 4441SOL    HW224957   2.893   0.403   7.757  2.8368 -0.1333 -0.7376
 4442SOL     OW24958   4.264   1.341  13.938  0.8019  0.0516  0.4088
 4442SOL    HW124959   4.267   1.427  13.981  4.6295  0.0599  0.1857
 4442SOL    HW224960   4.219   1.293  14.007 -2.1576  0.2457 -1.3810
 4443SOL     OW24961   0.015   2.111   3.500 -0.5844  0.4233  0.2243
 4443SOL    HW124962   4.725   2.047   3.435 -1.1477  0.2359  0.6419
 4443SOL    HW224963   4.719   2.187   3.453 -2.3229 -1.0784 -0.9783
 4444SOL     OW24964   0.985   4.038   4.710 -0.0903  0.1362  0.3126
 4444SOL    HW124965   0.920   4.012   4.645  0.5878  1.0559 -0.7196
 4444SOL    HW224966   0.942   4.008   4.790 -1.6630 -0.2136 -0.6561
 4445SOL     OW24967   2.065   4.464   8.038  0.0945 -0.0765  0.4648
 4445SOL    HW124968   2.081   4.406   7.964  2.5725  0.1696  0.8312
 4445SOL    HW224969   1.974   4.444   8.062 -0.3614  1.3029 -0.1368
 4446SOL     OW24970   0.452   1.625   3.267 -0.1565  0.1698 -0.0503
 4446SOL    HW124971   0.513   1.551   3.260  0.6569  0.8586 -0.4126
 4446SOL    HW224972   0.506   1.692   3.310  0.9330 -0.5791 -0.2457
 4447SOL     OW24973   3.779   4.012   8.235  0.0272  0.0365 -0.6234
 4447SOL    HW124974   3.722   3.983   8.306  1.4908  0.5100  0.7491
 4447SOL    HW224975   3.842   4.073   8.273  1.3203 -0.9899 -1.0968
 4448SOL     OW24976   1.905   1.969   0.485  0.5984 -0.6587  0.0944
 4448SOL    HW124977   1.815   1.981   0.455  1.1167 -0.3026 -1.2930
 4448SOL    HW224978   1.954   2.049   0.463 -1.6084 -0.0954 -2.7346
 4449SOL     OW24979   1.816   1.802   6.730  1.1230 -0.4567  0.2162
 4449SOL    HW124980   1.733   1.753   6.729  1.4300 -0.9770  0.3572
 4449SOL    HW224981   1.879   1.731   6.737  1.2028 -0.4159 -0.0889
 4450SOL     OW24982   0.289   0.161   7.816  0.0634  0.4924  0.1856
 4450SOL    HW124983   0.212   0.161   7.873  1.2625  0.0607  1.7956
 4450SOL    HW224984   0.349   0.099   7.857  0.6812  1.4614  0.7448
 4451SOL     OW24985   0.963   4.248  10.817 -0.0568  0.2497 -0.5492
 4451SOL    HW124986   0.968   4.341  10.838  1.0559  0.1059 -0.1653
 4451SOL    HW224987   1.033   4.219  10.875  1.1814  2.4199 -0.9492
 4452SOL     OW24988   2.591   1.546   6.437  0.2441 -0.3144  0.1451
 4452SOL    HW124989   2.496   1.558   6.428  0.2684 -0.5345 -0.4038
 4452SOL    HW224990   2.602   1.461   6.395 -1.6604 -0.8114  0.6329
 4453SOL     OW24991   4.238   3.261   6.764  0.2118  0.2665 -0.1166
 4453SOL    HW124992   4.253   3.356   6.762 -2.2835  0.7270  1.7585
 4453SOL    HW224993   4.155   3.254   6.717 -0.0213  0.3136  0.2851
 4454SOL     OW24994   3.712   4.399   6.161  0.0469  0.2186  0.0807
 4454SOL    HW124995   3.760   4.410   6.079  1.3042 -0.8088  0.6813
 4454SOL    HW224996   3.619   4.396   6.140  0.3088  0.4339 -1.1152
 4455SOL     OW24997   2.068   3.026   4.754 -0.2138  0.4217 -0.3152
 4455SOL    HW124998   2.109   2.953   4.801  3.4735  1.3891 -1.9988
 4455SOL    HW224999   1.978   2.997   4.747  0.2583 -0.6548 -1.8472
 4456SOL     OW25000   3.336   1.763   8.583 -0.3873  0.1413 -0.0666
 4456SOL    HW125001   3.423   1.743   8.546  0.6054 -0.8339  2.7828
 4456SOL    HW225002   3.344   1.724   8.670  1.5044  0.2500 -0.1769
 4457SOL     OW25003   1.544   2.552   2.290  0.5700  0.1813  0.1732
 4457SOL    HW125004   1.552   2.568   2.196 -2.5442 -0.7183 -0.2455
 4457SOL    HW225005   1.538   2.636   2.335  0.7720 -0.3486  1.1868
 4458SOL     OW25006   1.325   1.999   9.266 -0.4869  0.6515  0.4990
 4458SOL    HW125007   1.254   1.991   9.203  1.3646  1.6996 -1.7250
 4458SOL    HW225008   1.343   1.907   9.285 -0.8617  0.5747  0.4685
 4459SOL     OW25009   2.114   3.844   1.185 -0.0365 -0.2174 -0.1714
 4459SOL    HW125010   2.077   3.757   1.168 -0.6240  0.3249 -1.7090
 4459SOL    HW225011   2.109   3.856   1.280  1.4004 -0.6138 -0.0521
 4460SOL     OW25012   1.721   0.323   9.803  0.1404  0.2565  0.5794
 4460SOL    HW125013   1.814   0.331   9.786  0.3480 -0.2947  1.4817
 4460SOL    HW225014   1.688   0.395   9.749 -0.4383 -0.2483  0.2395
 4461SOL     OW25015   2.514   0.417   9.642 -0.2578  0.2300  0.6959
 4461SOL    HW125016   2.590   0.448   9.692  0.8100 -0.6276 -0.4030
 4461SOL    HW225017   2.451   0.423   9.713 -1.3613 -2.0798 -0.0952
 4462SOL     OW25018   0.859   1.800  16.169 -0.2712 -1.0557 -0.0366
 4462SOL    HW125019   0.904   1.776  16.250  0.4752  1.7098  0.3536
 4462SOL    HW225020   0.905   1.883  16.158 -2.6204  0.1019 -1.1290
 4463SOL     OW25021   3.400   1.613  16.769  0.5684 -0.2180  0.2848
 4463SOL    HW125022   3.444   1.528  16.770 -0.6398 -0.8623 -1.4930
 4463SOL    HW225023   3.412   1.649  16.857 -0.1654  0.3605  0.1461
 4464SOL     OW25024   4.114   2.515   5.506  0.1735  0.1032 -1.0191
 4464SOL    HW125025   4.179   2.502   5.574 -1.2542 -2.8299 -0.2120
 4464SOL    HW225026   4.042   2.560   5.550  1.2392  0.9754 -0.1755
 4465SOL     OW25027   2.817   3.232   3.000  0.2315 -0.6341 -0.1721
 4465SOL    HW125028   2.870   3.310   2.984 -0.0948 -0.3992 -0.1069
 4465SOL    HW225029   2.803   3.241   3.095  2.0862  1.6908 -0.1211
 4466SOL     OW25030   3.771   1.860   4.169 -0.4080 -0.0636 -0.4690
 4466SOL    HW125031   3.736   1.929   4.226 -0.5133 -0.2033 -0.3641
 4466SOL    HW225032   3.866   1.863   4.179 -0.3128 -2.9004 -0.5499
 4467SOL     OW25033   2.311   1.134  16.229  0.1177  0.5995 -1.0082
 4467SOL    HW125034   2.357   1.200  16.281  0.2756 -0.2247 -0.0898
 4467SOL    HW225035   2.231   1.185  16.219  0.7421  1.4018 -1.9111
 4468SOL     OW25036   2.475   0.681   6.525 -0.5892 -0.6528 -0.0677
 4468SOL    HW125037   2.420   0.611   6.560 -0.8800 -0.3206  0.1343
 4468SOL    HW225038   2.411   0.749   6.546 -1.9494 -1.6556 -0.9484
 4469SOL     OW25039   1.286   0.003   9.229 -0.4340  0.1575 -0.0288
 4469SOL    HW125040   1.221   4.697   9.173  0.0538  1.9376 -1.9466
 4469SOL    HW225041   1.323   0.060   9.163  0.7650 -0.8464 -0.2235
 4470SOL     OW25042   3.074   2.759   1.903 -0.2051 -0.1163  0.6022
 4470SOL    HW125043   3.122   2.681   1.933 -0.9816 -1.0977 -0.7333
 4470SOL    HW225044   3.141   2.827   1.908  2.0958 -2.3409  0.3914
 4471SOL     OW25045   2.895   1.580   6.683 -0.3718 -0.5720  0.1666
 4471SOL    HW125046   2.985   1.601   6.658 -0.8562  0.9386 -0.2671
 4471SOL    HW225047   2.881   1.498   6.635 -0.0911  0.3853 -1.5176
 4472SOL     OW25048   4.365   2.690   6.904  0.1231  0.7229  0.4159
 4472SOL    HW125049   4.354   2.780   6.871  2.4551 -0.3709 -3.3614
 4472SOL    HW225050   4.272   2.680   6.927 -0.4208 -0.6420 -2.3706
 4473SOL     OW25051   1.009   1.471   3.869  0.1371 -0.3371 -0.0362
 4473SOL    HW125052   0.914   1.478   3.863  0.0680  0.0292  1.4689
 4473SOL    HW225053   1.032   1.552   3.914  0.8618  1.0555 -2.9652
 4474SOL     OW25054   4.670   3.554   2.970  0.2279  0.0576  0.5918
 4474SOL    HW125055   4.723   3.484   3.006 -0.1879 -1.7239 -2.2262
 4474SOL    HW225056   4.599   3.558   3.034 -1.3661  1.7009 -1.2603
 4475SOL     OW25057   0.311   3.855   5.289 -0.1662  0.2493 -0.5423
 4475SOL    HW125058   0.245   3.808   5.238  1.5696  0.7320 -3.2381
 4475SOL    HW225059   0.260   3.872   5.368  0.7626  1.2108 -0.1411
 4476SOL     OW25060   3.937   3.669   2.470  0.3422 -0.0981 -0.5141
 4476SOL    HW125061   3.902   3.728   2.537 -1.0083 -2.4690  0.8916
 4476SOL    HW225062   3.977   3.593   2.513 -1.1679 -1.0015 -0.6907
 4477SOL     OW25063   0.787   1.829   9.039  0.6628 -0.4868 -0.2681
 4477SOL    HW125064   0.822   1.903   9.088 -1.3563  1.7185 -2.1580
 4477SOL    HW225065   0.834   1.752   9.071  0.0737 -1.9128 -2.7899
 4478SOL     OW25066   4.049   2.070   2.014 -0.1485  0.7444  0.7929
 4478SOL    HW125067   4.107   2.045   2.086 -0.2901  1.3681  1.1187
 4478SOL    HW225068   4.091   2.150   1.982 -1.3631  0.7596 -0.7335
 4479SOL     OW25069   3.173   2.007   2.218  0.5411  0.5181  0.0747
 4479SOL    HW125070   3.247   1.947   2.209 -1.2047 -1.2010 -2.4899
 4479SOL    HW225071   3.187   2.049   2.303  1.7387 -0.9845  0.6266
 4480SOL     OW25072   2.474   3.999  15.596 -0.5479 -0.5056  0.2951
 4480SOL    HW125073   2.426   4.053  15.534  2.2338  3.5859  1.7137
 4480SOL    HW225074   2.419   3.921  15.586 -0.0872 -0.7114 -0.6881
 4481SOL     OW25075   3.030   1.899   2.955  0.1834 -0.2334 -0.6662
 4481SOL    HW125076   3.035   1.942   2.870  0.7622  0.6067 -0.2073
 4481SOL    HW225077   3.059   1.811   2.930  0.0654 -1.1072  2.2634
 4482SOL     OW25078   0.700   4.603   3.449  0.0786 -0.2443  0.3488
 4482SOL    HW125079   0.686   4.621   3.543  1.5026 -0.4498  0.5903
 4482SOL    HW225080   0.643   4.526   3.438 -1.3062  0.7986  0.1999
 4483SOL     OW25081   0.494   4.682   5.669 -0.0478 -0.2717 -0.2565
 4483SOL    HW125082   0.554   4.672   5.594  0.9103 -0.2539  0.5070
 4483SOL    HW225083   0.526   0.023   5.713  1.5198 -0.9190 -0.2431
 4484SOL     OW25084   4.694   1.142   9.585  0.0111 -0.9724  0.6298
 4484SOL    HW125085   4.677   1.111   9.674 -1.4618 -1.0711  0.3257
 4484SOL    HW225086   0.005   1.069   9.548  0.3853  0.8297 -2.4480
 4485SOL     OW25087   0.058   3.962   2.026  0.4966 -0.0164  0.5112
 4485SOL    HW125088   0.027   3.984   2.113  0.8033 -0.8823  0.8367
 4485SOL    HW225089   0.134   3.905   2.035  1.4131  1.6171  2.9122
 4486SOL     OW25090   3.069   3.936   2.332  0.3254  0.4027 -0.5470
 4486SOL    HW125091   3.114   4.020   2.324 -1.4577  1.3387 -0.9002
 4486SOL    HW225092   3.012   3.956   2.407  1.1189  2.4614 -0.4811
 4487SOL     OW25093   2.788   1.334   6.553 -0.5965  0.0628 -0.1672
 4487SOL    HW125094   2.700   1.350   6.589 -0.8560  1.2987 -1.3142
 4487SOL    HW225095   2.787   1.239   6.551  0.8822 -0.0025  2.2104
 4488SOL     OW25096   4.040   0.886   5.067 -1.0924  0.6048  0.1810
 4488SOL    HW125097   4.067   0.977   5.065 -3.2919  1.2730  1.3064
 4488SOL    HW225098   4.027   0.879   5.161 -0.5627  0.9390  0.2752
 4489SOL     OW25099   1.324   2.026   4.302  0.3113 -0.3946  0.5641
 4489SOL    HW125100   1.396   1.990   4.352  0.2603 -0.1548  0.8113
 4489SOL    HW225101   1.270   1.947   4.301 -0.6488  0.2683 -1.5349
 4490SOL     OW25102   0.094   1.931  11.298  0.1073  0.0176 -0.2134
 4490SOL    HW125103   0.022   1.928  11.235 -2.0252  2.8990  2.0807
 4490SOL    HW225104   0.057   1.936  11.387  1.7885  2.8260  0.3227
 4491SOL     OW25105   3.687   1.908   5.236 -0.1863 -0.0065  0.2257
 4491SOL    HW125106   3.682   1.827   5.286 -0.9477  0.9136  1.6554
 4491SOL    HW225107   3.756   1.947   5.290 -0.7201 -0.5506  1.2994
 4492SOL     OW25108   3.679   3.805   4.019 -0.4085 -0.8379 -0.3597
 4492SOL    HW125109   3.743   3.863   4.059 -1.6312  0.1753  0.1153
 4492SOL    HW225110   3.737   3.771   3.950 -1.1366 -2.3299 -0.2319
 4493SOL     OW25111   1.088   2.743   0.333  0.0344 -0.0645  0.2009
 4493SOL    HW125112   1.146   2.727   0.407  1.9036 -1.1025 -1.4853
 4493SOL    HW225113   1.119   2.670   0.279 -3.9661 -0.9745 -0.8722
 4494SOL     OW25114   4.579   4.479   5.497  0.3607  0.0449 -0.0839
 4494SOL    HW125115   4.603   4.527   5.576  0.4289 -0.5317  0.2466
 4494SOL    HW225116   4.556   4.548   5.434  0.3444  1.0122  0.9824
 4495SOL     OW25117   1.014   2.540   9.421  0.6123  0.0055  0.2830
 4495SOL    HW125118   0.978   2.627   9.441 -1.1510 -0.9398  1.1224
 4495SOL    HW225119   0.966   2.515   9.342  0.2204 -1.3369  0.9461
 4496SOL     OW25120   3.210   1.742   3.239  0.0952 -0.3741 -0.2042
 4496SOL    HW125121   3.291   1.783   3.208  0.4858 -0.9662  0.0348
 4496SOL    HW225122   3.131   1.782   3.202 -0.5227  1.2480  2.8982
 4497SOL     OW25123   3.647   3.006   7.410  0.1111  0.4599  0.4425
 4497SOL    HW125124   3.562   3.051   7.409 -0.6590 -0.9453  1.8265
 4497SOL    HW225125   3.626   2.914   7.426  0.6623  0.4745  1.2107
 4498SOL     OW25126   0.552   0.301   2.669 -0.1841 -0.2367  0.0162
 4498SOL    HW125127   0.585   0.378   2.623 -0.0634 -0.3917 -0.1531
 4498SOL    HW225128   0.553   0.330   2.761 -0.8451 -1.8601  0.5329
 4499SOL     OW25129   4.157   1.769   0.202  0.2592  0.0967  0.3947
 4499SOL    HW125130   4.225   1.805   0.260  0.9280  2.2903 -1.7771
 4499SOL    HW225131   4.101   1.732   0.271  1.8237  0.4859  1.8904
 4500SOL     OW25132   0.079   2.488   8.077  0.1922 -0.0324  0.2911
 4500SOL    HW125133   0.067   2.572   8.122  0.1152  0.7634 -1.2093
 4500SOL    HW225134   0.174   2.478   8.069  0.0621 -0.9464 -0.0062
 4501SOL     OW25135   1.748   3.712  16.938  0.4655 -0.3274 -0.2845
 4501SOL    HW125136   1.757   3.770  17.014 -1.5335 -1.7340  1.0140
 4501SOL    HW225137   1.831   3.664  16.938 -1.1790 -3.1416  1.2142
 4502SOL     OW25138   0.903   0.465   6.037  0.2029 -0.2979  0.3310
 4502SOL    HW125139   0.895   0.385   5.985  2.8835 -0.6716  0.4898
 4502SOL    HW225140   0.834   0.446   6.100 -0.1425 -3.9174 -1.1590
 4503SOL     OW25141   1.418   0.704   6.321 -0.3518 -0.1280 -0.1497
 4503SOL    HW125142   1.511   0.702   6.342  0.1087  1.0862 -2.0367
 4503SOL    HW225143   1.382   0.661   6.398  1.0505 -1.0703 -0.0189
 4504SOL     OW25144   0.949   1.733  14.649 -0.1697 -0.0240 -0.6398
 4504SOL    HW125145   0.984   1.784  14.576 -2.2617 -0.2288 -1.7902
 4504SOL    HW225146   1.032   1.694  14.677 -0.0630  0.5323 -0.1711
 4505SOL     OW25147   2.516   1.898   5.605  0.3022 -0.5619  0.2163
 4505SOL    HW125148   2.565   1.940   5.676  0.7360  0.5993 -0.7749
 4505SOL    HW225149   2.498   1.812   5.643  1.4887 -0.6833  0.5123
 4506SOL     OW25150   4.411   2.855   2.167 -0.7032  0.5598 -0.2224
 4506SOL    HW125151   4.472   2.903   2.223 -2.9012  4.1275 -0.9141
 4506SOL    HW225152   4.440   2.869   2.077  2.8025 -1.6584  0.5461
 4507SOL     OW25153   3.495   3.368  13.252  0.1977  0.5472  0.3277
 4507SOL    HW125154   3.434   3.427  13.207  0.6978  1.4362  0.8173
 4507SOL    HW225155   3.567   3.364  13.189 -0.4407 -1.9999 -0.2226
 4508SOL     OW25156   2.241   2.389   5.932 -0.0031  0.6475 -0.1531
 4508SOL    HW125157   2.230   2.465   5.989  0.0064 -0.8858  1.8908
 4508SOL    HW225158   2.207   2.429   5.852 -1.1718 -1.8270 -0.8954
 4509SOL     OW25159   1.920   3.302   8.634  0.0555  0.5177  0.4065
 4509SOL    HW125160   1.931   3.277   8.542 -0.3923  1.9870 -0.0422
 4509SOL    HW225161   2.011   3.308   8.663  0.2115 -0.2580  0.0716
 4510SOL     OW25162   0.776   4.589   3.014 -0.1699 -0.1798  0.2251
 4510SOL    HW125163   0.749   4.677   3.040  2.3806  0.3691  1.0583
 4510SOL    HW225164   0.812   4.556   3.097  1.6530  0.7143 -0.2228
 4511SOL     OW25165   0.306   0.511  16.874 -0.1015  0.0636  0.7764
 4511SOL    HW125166   0.366   0.580  16.903 -0.4365  0.6768  0.0147
 4511SOL    HW225167   0.374   0.449  16.847 -0.6023 -0.3040  0.3577
 4512SOL     OW25168   1.654   1.363   6.313  0.1370  0.0674 -0.3577
 4512SOL    HW125169   1.664   1.384   6.220 -0.5357 -0.1022 -0.4681
 4512SOL    HW225170   1.603   1.282   6.310 -2.3944  1.6462 -0.1479
 4513SOL     OW25171   3.975   1.623   2.661 -1.0320  0.3035 -0.0647
 4513SOL    HW125172   4.060   1.667   2.654 -0.1678 -1.5775 -1.4847
 4513SOL    HW225173   3.945   1.645   2.573 -0.6843 -0.2315 -0.3230
 4514SOL     OW25174   1.930   1.528  17.625 -0.5031  0.0492  0.3594
 4514SOL    HW125175   1.926   1.463  17.696  2.7790  0.8930  1.3113
 4514SOL    HW225176   1.863   1.502  17.562 -0.2292  0.7410 -0.2148
 4515SOL     OW25177   0.815   0.982  14.290  0.3650  0.2869 -0.3462
 4515SOL    HW125178   0.724   0.959  14.310 -0.4128  1.1943 -2.9268
 4515SOL    HW225179   0.850   0.894  14.301  1.4913  0.7360 -0.3248
 4516SOL     OW25180   1.796   2.063   7.259  0.0675 -0.3284  0.1690
 4516SOL    HW125181   1.816   1.975   7.227  1.4561 -0.0970  0.3781
 4516SOL    HW225182   1.865   2.081   7.323  1.2532 -0.5876 -1.0389
 4517SOL     OW25183   1.915   1.403   9.401 -0.3463 -0.5300 -0.0286
 4517SOL    HW125184   1.917   1.367   9.312  1.8715 -0.8302  0.1457
 4517SOL    HW225185   1.942   1.329   9.456 -0.4370 -0.1745  0.4967
 4518SOL     OW25186   0.552   3.172   4.596  0.0912 -0.1267 -0.6590
 4518SOL    HW125187   0.531   3.155   4.504 -0.3345 -0.1466 -0.5569
 4518SOL    HW225188   0.618   3.104   4.606 -1.0381 -1.2557 -0.8665
 4519SOL     OW25189   4.298   2.051   5.027  0.7155 -0.3849 -0.4842
 4519SOL    HW125190   4.394   2.046   5.034  0.7025  2.0426  1.6997
 4519SOL    HW225191   4.295   2.088   4.939  0.7703 -1.2663 -0.8567
 4520SOL     OW25192   3.117   3.967   5.178  0.1399  0.5308 -0.6037
 4520SOL    HW125193   3.114   4.060   5.157 -1.6731  0.7068  0.4185
 4520SOL    HW225194   3.208   3.945   5.198 -0.5222 -0.2873  1.5428
 4521SOL     OW25195   2.708   3.060   8.927 -0.2692 -0.2840  0.3929
 4521SOL    HW125196   2.693   2.966   8.931  0.3841 -0.3793  0.5187
 4521SOL    HW225197   2.801   3.063   8.949 -0.6588 -1.3583  2.2355
 4522SOL     OW25198   2.512   0.427   2.713 -0.4905 -0.1094 -0.8539
 4522SOL    HW125199   2.437   0.368   2.701  0.2778 -1.1872 -0.2792
 4522SOL    HW225200   2.572   0.353   2.721 -1.8198 -1.2203 -1.0219
 4523SOL     OW25201   3.865   3.462   0.003 -0.3840  0.5314  0.2945
 4523SOL    HW125202   3.849   3.473   0.097 -0.8626  1.1431  0.1457
 4523SOL    HW225203   3.960   3.460   0.011 -0.3058  1.9266 -0.2085
 4524SOL     OW25204   3.141   4.316   4.532  0.1923 -0.1908 -0.4028
 4524SOL    HW125205   3.217   4.307   4.475 -1.3442  0.7524 -2.6253
 4524SOL    HW225206   3.084   4.368   4.476  0.0547  1.0269  0.8639
 4525SOL     OW25207   3.271   2.423   1.312  0.1258 -0.8101 -0.4312
 4525SOL    HW125208   3.344   2.482   1.299 -1.7883  1.7745  0.5350
 4525SOL    HW225209   3.324   2.349   1.341 -1.9129 -0.5196  4.1482
 4526SOL     OW25210   3.900   3.527   7.154 -0.2712 -0.3587 -0.1877
 4526SOL    HW125211   3.963   3.504   7.223 -1.4970 -0.6725  0.8355
 4526SOL    HW225212   3.922   3.460   7.089  0.4630 -1.5808  1.3124
 4527SOL     OW25213   1.760   0.526   8.745 -0.3052  0.0992  0.2461
 4527SOL    HW125214   1.795   0.495   8.661 -1.0494 -2.7131  0.9847
 4527SOL    HW225215   1.708   0.599   8.711 -0.9649  0.1232  1.3255
 4528SOL     OW25216   1.648   0.923   9.943  0.2222  0.6931 -0.5803
 4528SOL    HW125217   1.578   0.877   9.988 -0.0674 -0.0311 -1.7671
 4528SOL    HW225218   1.614   0.949   9.857  2.7417  0.5171 -1.6351
 4529SOL     OW25219   3.849   3.279  10.225 -0.5992 -0.4321  0.2254
 4529SOL    HW125220   3.870   3.221  10.298 -1.1338 -0.3111  0.4744
 4529SOL    HW225221   3.860   3.365  10.266 -0.5955  1.1978 -3.1821
 4530SOL     OW25222   0.914   2.166   4.429 -0.6694  0.0549  0.3495
 4530SOL    HW125223   0.839   2.223   4.410 -0.3532 -0.3193 -2.1180
 4530SOL    HW225224   0.962   2.150   4.347 -2.2026 -1.1129 -0.3132
 4531SOL     OW25225   1.749   1.205   3.197  0.6836 -0.4322 -0.2670
 4531SOL    HW125226   1.710   1.256   3.126 -0.8054 -0.6135  0.4262
 4531SOL    HW225227   1.819   1.264   3.227 -0.3126  0.6816 -0.1422
 4532SOL     OW25228   0.560   1.092   7.103  0.3191  0.0988  0.1959
 4532SOL    HW125229   0.655   1.090   7.105  0.3721  0.7145 -2.0630
 4532SOL    HW225230   0.528   1.118   7.017 -1.3570 -2.3272  0.0640
 4533SOL     OW25231   0.906   4.379   5.189  0.1272 -0.7052  0.1553
 4533SOL    HW125232   0.938   4.332   5.112 -0.3809  1.5954 -1.4578
 4533SOL    HW225233   0.837   4.318   5.214  0.3688 -0.4426  1.4549
 4534SOL     OW25234   1.773   2.858   5.749  0.5476 -0.4067 -0.0403
 4534SOL    HW125235   1.845   2.902   5.703  1.3734 -1.9468 -0.1975
 4534SOL    HW225236   1.816   2.797   5.809  0.9039 -0.2837 -0.1716
 4535SOL     OW25237   3.863   3.207   8.144 -0.1200 -0.3156 -0.0358
 4535SOL    HW125238   3.921   3.279   8.169 -0.1714 -0.4210  0.3893
 4535SOL    HW225239   3.903   3.171   8.065  0.1089 -2.1835  0.9291
 4536SOL     OW25240   0.825   3.434   5.793  0.4141  0.4971  0.4087
 4536SOL    HW125241   0.875   3.363   5.751 -0.4338  0.8871 -1.2581
 4536SOL    HW225242   0.804   3.393   5.877  2.7597  0.3529  0.9276
 4537SOL     OW25243   4.652   0.935   5.434  0.0149  0.2447  0.0926
 4537SOL    HW125244   4.619   0.845   5.425  0.3090 -0.0649  2.1701
 4537SOL    HW225245   4.581   0.984   5.475  0.2962  0.6343  0.1146
 4538SOL     OW25246   2.695   1.907   8.110 -0.2656  0.4075  0.2287
 4538SOL    HW125247   2.599   1.904   8.115 -0.1419 -1.3294  1.7829
 4538SOL    HW225248   2.707   1.963   8.187  1.0157  0.9396 -0.3542
 4539SOL     OW25249   2.988   2.107   3.404 -0.1302  0.3034 -0.4203
 4539SOL    HW125250   2.911   2.089   3.457 -0.6871  0.4807 -1.1717
 4539SOL    HW225251   3.040   2.148   3.473  1.4004 -1.0349 -0.7658
 4540SOL     OW25252   1.715   3.195   8.018 -0.1506  0.5813  0.3093
 4540SOL    HW125253   1.752   3.218   8.104 -0.0387  1.3696  0.0469
 4540SOL    HW225254   1.670   3.112   8.030 -0.2096  0.2987 -2.0744
 4541SOL     OW25255   1.603   3.956   8.462 -0.8291  0.2388 -0.0114
 4541SOL    HW125256   1.559   4.040   8.446 -0.6301  1.0970  3.8190
 4541SOL    HW225257   1.657   3.979   8.538 -0.9428  1.1127 -0.1870
 4542SOL     OW25258   1.753   0.051   9.563  0.1641 -0.3186 -0.1136
 4542SOL    HW125259   1.733   0.135   9.521  0.0214 -1.0757 -1.5813
 4542SOL    HW225260   1.767   4.736   9.484 -0.3820 -0.1853 -0.2993
 4543SOL     OW25261   4.052   2.191   6.051  0.4769  0.6615  0.2468
 4543SOL    HW125262   4.090   2.127   5.990 -0.8309  0.8341 -0.7430
 4543SOL    HW225263   4.059   2.139   6.131  1.4924  1.2949  0.5737
 4544SOL     OW25264   1.263   1.299   1.894  0.3665  0.0796  0.1409
 4544SOL    HW125265   1.179   1.340   1.913  1.1696  1.1815  1.2922
 4544SOL    HW225266   1.310   1.369   1.849 -1.5293  0.7888 -0.7425
 4545SOL     OW25267   0.291   3.462  14.641 -0.2563  0.2380 -0.1491
 4545SOL    HW125268   0.358   3.456  14.709  0.2287 -0.8750 -0.7102
 4545SOL    HW225269   0.221   3.494  14.697 -0.3804  0.0287 -0.1855
 4546SOL     OW25270   3.132   1.473   4.274 -0.2883 -0.0913 -0.0018
 4546SOL    HW125271   3.078   1.537   4.227 -0.6521 -1.3534 -1.2676
 4546SOL    HW225272   3.122   1.490   4.368  2.4784 -0.8916  0.4472
 4547SOL     OW25273   1.555   4.232  15.099 -0.0801  0.0199  0.0265
 4547SOL    HW125274   1.618   4.289  15.057 -1.2153  0.1676 -1.4944
 4547SOL    HW225275   1.581   4.240  15.190 -1.9976 -2.8726  0.8506
 4548SOL     OW25276   3.656   2.803   9.566 -0.4635  0.3725  0.4612
 4548SOL    HW125277   3.710   2.735   9.526  1.2030  1.1914  1.2843
 4548SOL    HW225278   3.575   2.757   9.587  0.6700 -2.2126 -0.9365
 4549SOL     OW25279   3.954   0.245   4.865 -0.6087  0.3954  0.6746
 4549SOL    HW125280   3.886   0.264   4.930 -3.1830 -1.8079 -1.3817
 4549SOL    HW225281   3.914   0.163   4.838 -0.4526  1.2476 -2.1514
 4550SOL     OW25282   4.201   1.653   4.425  0.0885 -0.7785  0.2588
 4550SOL    HW125283   4.244   1.593   4.364 -1.3403 -0.2581 -1.2881
 4550SOL    HW225284   4.271   1.667   4.489  0.0159  0.0435  0.1631
 4551SOL     OW25285   4.066   3.931   7.070 -0.6043 -0.0177  0.2618
 4551SOL    HW125286   3.982   3.889   7.049 -0.3022 -0.3404 -0.2749
 4551SOL    HW225287   4.039   4.020   7.093 -0.3356 -0.5972  2.8828
 4552SOL     OW25288   3.115   2.038   7.153  0.1308 -0.2439 -0.1328
 4552SOL    HW125289   3.205   2.014   7.176  0.7186  2.7547  0.8261
 4552SOL    HW225290   3.069   1.967   7.196 -0.8240 -0.8270 -2.1401
 4553SOL     OW25291   0.926   2.399  11.447 -0.2818  0.0860 -0.1720
 4553SOL    HW125292   0.907   2.316  11.491  0.9250 -0.1193 -0.0475
 4553SOL    HW225293   0.842   2.405  11.401 -2.6078 -0.4239  4.0533
 4554SOL     OW25294   0.270   1.471   4.252 -0.4103  0.3178  0.1489
 4554SOL    HW125295   0.270   1.444   4.160 -0.9820  0.7462  0.0234
 4554SOL    HW225296   0.364   1.464   4.270 -0.0656  0.8737 -1.5001
 4555SOL     OW25297   2.950   1.931   6.597  0.3053 -0.1200 -0.6727
 4555SOL    HW125298   2.961   1.918   6.691  0.2920  1.8468 -0.4006
 4555SOL    HW225299   2.855   1.926   6.591  0.2591 -2.2497  1.5494
 4556SOL     OW25300   1.363   0.904  12.740 -0.4772 -0.2520 -0.7204
 4556SOL    HW125301   1.413   0.928  12.662  0.5488 -0.9253 -0.2702
 4556SOL    HW225302   1.393   0.976  12.795  1.7752 -2.6203  1.1664
 4557SOL     OW25303   2.002   2.215  13.078  0.0388 -0.2327  0.3710
 4557SOL    HW125304   1.942   2.154  13.122  0.5947 -1.6864 -0.8702
 4557SOL    HW225305   2.085   2.167  13.079  0.6048  0.7484  0.4679
 4558SOL     OW25306   1.426   1.370   7.713  0.1775  0.0945 -0.3183
 4558SOL    HW125307   1.447   1.314   7.787 -0.8193 -2.3994 -1.9342
 4558SOL    HW225308   1.330   1.374   7.719  0.1590 -1.6462  0.3112
 4559SOL     OW25309   2.578   3.452   7.654  0.1561  0.5930 -0.0677
 4559SOL    HW125310   2.505   3.433   7.595  0.6121  1.2205 -0.8265
 4559SOL    HW225311   2.581   3.547   7.644  0.1349  0.8779  2.5944
 4560SOL     OW25312   2.256   2.753   6.645  0.3196 -0.2306 -0.1636
 4560SOL    HW125313   2.324   2.798   6.594 -0.7335  1.2676 -0.2152
 4560SOL    HW225314   2.309   2.687   6.691 -0.2315 -0.4406  0.1631
 4561SOL     OW25315   0.385   4.342   8.606  0.1045  0.0765  0.8142
 4561SOL    HW125316   0.300   4.326   8.647 -1.0320 -0.4225 -1.7057
 4561SOL    HW225317   0.446   4.299   8.667  0.6278  0.4362  0.5464
 4562SOL     OW25318   4.446   1.708   8.489  0.4806  0.4480 -0.3800
 4562SOL    HW125319   4.447   1.696   8.394 -1.3503 -0.4134 -0.2963
 4562SOL    HW225320   4.525   1.757   8.512  0.8644 -0.1744 -0.3810
 4563SOL     OW25321   2.821   4.527   8.087 -0.1318  0.2984  0.1570
 4563SOL    HW125322   2.844   4.435   8.099  3.1047  0.6870 -3.0321
 4563SOL    HW225323   2.900   4.569   8.119 -0.1820  0.4283  0.1123
 4564SOL     OW25324   2.911   2.696   1.564  0.1638  0.0064 -0.4714
 4564SOL    HW125325   2.942   2.663   1.480 -3.0433  0.7137 -1.9625
 4564SOL    HW225326   2.889   2.622   1.621 -2.8100 -0.7957 -2.6341
 4565SOL     OW25327   2.770   2.337  17.602 -0.2384 -0.4216 -0.3374
 4565SOL    HW125328   2.738   2.314  17.515 -2.5155 -0.0564  0.4142
 4565SOL    HW225329   2.704   2.401  17.626 -0.5300 -0.5240 -0.8857
 4566SOL     OW25330   1.269   1.264  11.057  0.1737 -0.5093 -0.0112
 4566SOL    HW125331   1.178   1.291  11.045  0.2697  0.0348  0.5461
 4566SOL    HW225332   1.304   1.289  10.971  2.2224 -2.5719  0.2021
 4567SOL     OW25333   4.278   1.284   7.444 -0.1565  0.7337  0.4929
 4567SOL    HW125334   4.366   1.249   7.432  0.0718  0.6745  2.3352
 4567SOL    HW225335   4.280   1.323   7.531  4.7724  1.7138 -0.0606
 4568SOL     OW25336   3.180   2.943   4.519 -0.1265 -0.3864  0.3810
 4568SOL    HW125337   3.190   2.933   4.424 -0.8166 -0.6002  0.3361
 4568SOL    HW225338   3.160   2.854   4.546 -0.8571 -0.8226 -1.5847
 4569SOL     OW25339   3.038   3.108  10.363  0.1735  0.3579 -0.2963
 4569SOL    HW125340   3.015   3.068  10.280  1.7980  0.1153 -0.6163
 4569SOL    HW225341   3.070   3.194  10.336 -1.2344  0.6350 -1.0913
 4570SOL     OW25342   0.255   0.484   2.658 -0.1971 -0.2168 -0.5419
 4570SOL    HW125343   0.245   0.422   2.731 -1.2078 -1.9477 -2.1579
 4570SOL    HW225344   0.228   0.431   2.583  0.3807  0.3824 -1.1771
 4571SOL     OW25345   0.702   0.354   8.997 -0.1307 -0.7640  0.1820
 4571SOL    HW125346   0.672   0.264   8.987 -0.6294 -0.5619 -0.1258
 4571SOL    HW225347   0.653   0.386   8.922 -0.1118  0.4755  0.6993
 4572SOL     OW25348   2.510   0.711   3.263 -0.2562 -0.0726 -0.3615
 4572SOL    HW125349   2.557   0.665   3.193  0.3181 -0.2948  0.1626
 4572SOL    HW225350   2.498   0.638   3.324 -0.2962  0.2881  0.0648
 4573SOL     OW25351   0.350   3.255   5.124 -0.4034 -0.5740  0.0686
 4573SOL    HW125352   0.402   3.211   5.191 -0.7541 -2.2237 -0.7432
 4573SOL    HW225353   0.412   3.314   5.080  0.9351 -2.1294 -0.1274
 4574SOL     OW25354   4.513   1.438   6.289 -0.1034 -0.0933 -0.5777
 4574SOL    HW125355   4.595   1.468   6.251 -0.0741 -1.5909 -1.6966
 4574SOL    HW225356   4.451   1.510   6.275 -1.4403 -1.5071 -2.0098
 4575SOL     OW25357   2.760   1.621   8.922 -0.4100  0.1780  0.1689
 4575SOL    HW125358   2.769   1.532   8.955  2.7301  0.4846  0.1448
 4575SOL    HW225359   2.854   1.637   8.915 -0.3537 -0.0552  0.4064
 4576SOL     OW25360   1.126   0.867   7.272  0.3594 -0.1142  0.1703
 4576SOL    HW125361   1.070   0.938   7.241 -0.2070 -0.5926  0.1032
 4576SOL    HW225362   1.102   0.860   7.364 -2.0956  1.3817 -0.3632
 4577SOL     OW25363   4.562   3.646  15.382 -0.3375  0.2621 -0.2858
 4577SOL    HW125364   4.568   3.561  15.426  1.3671  1.1420  1.2045
 4577SOL    HW225365   4.614   3.622  15.306 -0.2151 -0.8598  0.1546
 4578SOL     OW25366   4.597   1.409   9.417  0.6171 -0.5747  0.0420
 4578SOL    HW125367   4.661   1.345   9.449  1.1929  1.2319  2.4556
 4578SOL    HW225368   4.533   1.414   9.488 -1.4811 -0.1095 -1.8836
 4579SOL     OW25369   4.638   4.542  16.666 -0.5203  0.1193  0.0916
 4579SOL    HW125370   4.678   4.480  16.727  2.0629  2.6900  1.0298
 4579SOL    HW225371   4.600   4.489  16.596  0.5184 -0.4225 -0.0611
 4580SOL     OW25372   1.307   3.229  12.363 -0.8378 -0.5370 -0.0516
 4580SOL    HW125373   1.347   3.234  12.276  1.8349 -2.5983  1.0586
 4580SOL    HW225374   1.214   3.212  12.349 -0.9457 -0.1934  0.2468
 4581SOL     OW25375   1.423   0.353  15.983  0.3515 -0.0396  0.6507
 4581SOL    HW125376   1.502   0.311  16.015 -0.3182 -0.9947  1.0444
 4581SOL    HW225377   1.457   0.443  15.982  0.8811 -0.2840 -2.1579
 4582SOL     OW25378   0.118   1.312   5.411  0.1201 -0.3587 -0.4692
 4582SOL    HW125379   0.134   1.219   5.429 -0.0858 -0.1342  0.9445
 4582SOL    HW225380   0.035   1.345   5.447  1.3126 -0.3326  2.2601
 4583SOL     OW25381   4.281   4.710   7.525 -0.7678 -0.4965 -0.5107
 4583SOL    HW125382   4.283   4.675   7.436  0.8389 -2.7931  0.4484
 4583SOL    HW225383   4.195   0.015   7.528 -0.1065  0.7685  0.3379
 4584SOL     OW25384   2.536   0.833  15.999  0.3085 -0.3310 -0.2879
 4584SOL    HW125385   2.582   0.903  15.953  0.5085 -0.3974 -0.1902
 4584SOL    HW225386   2.494   0.884  16.067 -0.1469  0.2814 -1.0256
 4585SOL     OW25387   1.991   3.148   8.356 -0.0015 -0.0613  0.3658
 4585SOL    HW125388   2.048   3.082   8.318  1.3821  1.3691 -0.0626
 4585SOL    HW225389   1.908   3.106   8.333 -0.3577 -0.8239  3.0371
 4586SOL     OW25390   2.814   3.783   8.905  0.8894 -1.0225  0.1862
 4586SOL    HW125391   2.774   3.697   8.890 -0.0403 -0.9333  2.0568
 4586SOL    HW225392   2.881   3.751   8.965  0.0867  0.6532  1.9789
 4587SOL     OW25393   2.877   1.480  12.277  0.4840  0.3681 -0.2544
 4587SOL    HW125394   2.870   1.384  12.276  1.5268  0.2931 -0.8122
 4587SOL    HW225395   2.940   1.493  12.206 -0.7884  3.7522 -0.7749
 4588SOL     OW25396   4.444   0.613   4.038 -0.5082 -0.0649 -0.5928
 4588SOL    HW125397   4.474   0.535   3.991  0.5305 -0.7844  1.2558
 4588SOL    HW225398   4.351   0.602   4.056 -0.3395 -0.0078  0.3025
 4589SOL     OW25399   1.224   0.112   6.723  0.0524 -0.5033 -0.4390
 4589SOL    HW125400   1.206   0.113   6.817  2.7837 -1.3779  0.1029
 4589SOL    HW225401   1.142   0.070   6.698  0.8460 -1.9386 -0.6935
 4590SOL     OW25402   2.918   0.108   6.148  0.2561  0.2542  0.6719
 4590SOL    HW125403   2.996   0.141   6.192 -0.6496  0.9890  1.7517
 4590SOL    HW225404   2.844   0.087   6.205 -0.3623  1.0353  0.1629
 4591SOL     OW25405   1.759   3.897   5.029 -0.6314 -0.1399  0.4936
 4591SOL    HW125406   1.806   3.933   5.104  1.4271  0.1395 -0.9327
 4591SOL    HW225407   1.698   3.971   5.024 -0.2606  0.1854  0.7389
 4592SOL     OW25408   2.623   3.586   6.077 -0.1989  0.4926  0.0642
 4592SOL    HW125409   2.638   3.679   6.058 -2.7300  1.0653  0.9001
 4592SOL    HW225410   2.641   3.582   6.171 -0.5296 -0.7829  0.0620
 4593SOL     OW25411   3.840   2.953  10.804 -0.2894 -0.1200 -0.7899
 4593SOL    HW125412   3.879   2.992  10.883  0.8700 -1.1468 -0.8520
 4593SOL    HW225413   3.863   3.019  10.739  0.8456 -2.4268 -2.7170
 4594SOL     OW25414   1.018   2.966   8.578  0.8497  1.0049 -0.2747
 4594SOL    HW125415   1.111   2.991   8.586  0.9927  0.1147  0.8216
 4594SOL    HW225416   1.018   2.927   8.490 -0.2544 -1.8368  1.0041
 4595SOL     OW25417   4.356   4.495   9.430 -0.0664 -0.6565  0.4495
 4595SOL    HW125418   4.369   4.405   9.399  3.1465  0.7085 -2.3193
 4595SOL    HW225419   4.384   4.490   9.521 -1.8599  2.0152  1.1322
 4596SOL     OW25420   3.108   1.965   7.572 -0.2231  0.3368  0.8777
 4596SOL    HW125421   3.108   2.059   7.553 -0.6014 -0.4505 -2.9845
 4596SOL    HW225422   3.068   1.929   7.493  1.5179  0.9425 -0.2874
 4597SOL     OW25423   0.289   2.443  14.002 -0.6284  0.3327 -0.1034
 4597SOL    HW125424   0.374   2.405  14.022 -0.8939 -0.9894 -1.4628
 4597SOL    HW225425   0.252   2.424  14.088 -1.5272 -0.0059 -0.5623
 4598SOL     OW25426   0.668   2.449   7.662 -0.0792  0.2139  0.1407
 4598SOL    HW125427   0.643   2.511   7.731  0.5902  0.2738  0.3253
 4598SOL    HW225428   0.713   2.504   7.597 -1.6791 -1.1315 -2.1082
 4599SOL     OW25429   2.434   0.421   7.908 -0.4565 -0.3107 -0.2641
 4599SOL    HW125430   2.481   0.353   7.860 -0.8684 -2.2458  2.0591
 4599SOL    HW225431   2.511   0.464   7.945 -1.4178 -0.1913  1.6347
 4600SOL     OW25432   2.463   4.240   1.909 -0.5568 -0.0359  0.4365
 4600SOL    HW125433   2.490   4.329   1.928  2.1824 -1.4591  3.1583
 4600SOL    HW225434   2.408   4.235   1.987 -1.5518  1.0528 -0.1968
 4601SOL     OW25435   0.010   1.657   2.572  0.3465  0.2966 -0.3587
 4601SOL    HW125436   0.037   1.749   2.582 -0.2729  0.2657  1.5680
 4601SOL    HW225437   0.001   1.628   2.663  1.4679 -2.2713 -1.0680
 4602SOL     OW25438   0.145   2.633   6.254 -0.0945 -0.0864  0.1921
 4602SOL    HW125439   0.189   2.579   6.188 -1.5077 -0.6964 -0.2529
 4602SOL    HW225440   0.218   2.691   6.274  0.6902 -0.4528 -1.5506
 4603SOL     OW25441   3.600   0.019   3.718  0.2422  0.1224  0.1639
 4603SOL    HW125442   3.608   0.114   3.717  2.1898 -0.0471  0.8397
 4603SOL    HW225443   3.666   4.729   3.781  1.6076 -0.2242 -1.4243
 4604SOL     OW25444   3.681   1.365   3.600  0.0650  0.0154  1.0849
 4604SOL    HW125445   3.662   1.456   3.624  0.7590  0.1600  1.0700
 4604SOL    HW225446   3.775   1.359   3.615  0.1049  0.1660  0.9085
 4605SOL     OW25447   2.528   0.665   8.497  0.2699  0.1169 -0.7843
 4605SOL    HW125448   2.477   0.675   8.578  1.7087  1.3749 -0.0402
 4605SOL    HW225449   2.619   0.670   8.527 -0.6403  0.7842  1.8584
 4606SOL     OW25450   0.387   3.618   9.863 -0.3644 -0.1528 -0.1984
 4606SOL    HW125451   0.399   3.525   9.842 -1.7451 -0.3419 -0.1249
 4606SOL    HW225452   0.299   3.637   9.833 -0.4558  2.3644  1.6990
 4607SOL     OW25453   0.255   1.015   8.926  0.0138 -0.0044  0.5122
 4607SOL    HW125454   0.240   0.988   9.017 -1.1881  2.9567  1.1804
 4607SOL    HW225455   0.194   1.087   8.913  0.1199  0.5224  2.9103
 4608SOL     OW25456   1.896   2.933   7.657  0.1932 -0.5801 -1.0199
 4608SOL    HW125457   1.860   2.963   7.574 -1.9136  0.4587  0.2748
 4608SOL    HW225458   1.972   2.991   7.659  0.3008 -0.7342 -0.3828
 4609SOL     OW25459   1.436   2.417  13.098  0.1375  0.9121 -0.5681
 4609SOL    HW125460   1.524   2.398  13.131 -1.0937 -1.8602  1.1721
 4609SOL    HW225461   1.399   2.329  13.108 -1.1362  1.7414  1.8905
 4610SOL     OW25462   4.560   1.787   8.128  0.1189 -0.2879 -0.0258
 4610SOL    HW125463   4.608   1.742   8.057  3.1054  2.5622  0.1758
 4610SOL    HW225464   4.490   1.725   8.147  0.7064 -0.9342  0.0451
 4611SOL     OW25465   4.374   1.317   3.124 -0.2300 -0.0454 -0.3404
 4611SOL    HW125466   4.316   1.264   3.069 -0.3867 -0.3406  0.1106
 4611SOL    HW225467   4.344   1.289   3.210 -2.4728 -0.3322 -1.2128
 4612SOL     OW25468   3.039   0.057  16.663  0.3328 -0.1111  0.2729
 4612SOL    HW125469   2.994   0.027  16.742  1.6587  0.5178  1.2671
 4612SOL    HW225470   2.982   0.130  16.640  1.4032 -0.0153 -2.0475
 4613SOL     OW25471   3.878   3.611   5.265 -0.3699  0.0741 -0.0502
 4613SOL    HW125472   3.970   3.634   5.275 -0.5659  1.3815 -1.2035
 4613SOL    HW225473   3.887   3.558   5.343  2.6754  0.6434 -0.0079
 4614SOL     OW25474   0.395   4.637  14.851 -0.1816 -0.3223 -0.0561
 4614SOL    HW125475   0.413   4.563  14.792  0.2703  1.3784 -2.0712
 4614SOL    HW225476   0.326   4.683  14.802  0.7026  2.5299  1.4053
 4615SOL     OW25477   3.979   1.687  17.694  0.3482 -0.2254  0.2212
 4615SOL    HW125478   4.016   1.747  17.628  1.5678 -1.5612 -0.3074
 4615SOL    HW225479   4.029   1.707   0.026  1.2262  2.0147 -0.8679
 4616SOL     OW25480   0.906   4.314   6.826 -0.2746  0.7556  0.2500
 4616SOL    HW125481   0.972   4.259   6.868 -1.0386 -0.6982 -0.4249
 4616SOL    HW225482   0.867   4.367   6.896 -0.4484  1.5908 -0.4826
 4617SOL     OW25483   4.063   2.442   4.126 -0.4257 -0.3602 -0.3679
 4617SOL    HW125484   4.074   2.400   4.041  0.6291 -2.0317  0.5925
 4617SOL    HW225485   4.099   2.377   4.186 -0.1460  0.2543  0.1235
 4618SOL     OW25486   4.467   0.058   0.932  0.3236 -0.0713  0.2425
 4618SOL    HW125487   4.423   4.727   0.882 -2.5962  0.8406  1.5593
 4618SOL    HW225488   4.433   0.036   1.019  3.1122 -1.4757  0.9540
 4619SOL     OW25489   0.573   0.896  14.390 -0.6525  0.1885 -0.2093
 4619SOL    HW125490   0.529   0.842  14.324 -0.1212  1.8125 -1.9061
 4619SOL    HW225491   0.529   0.981  14.380 -2.6071 -0.6015  1.5765
 4620SOL     OW25492   4.321   3.777   1.940 -0.9240 -0.4041 -0.0079
 4620SOL    HW125493   4.312   3.682   1.944  1.6962 -0.6539  0.1801
 4620SOL    HW225494   4.250   3.799   1.879  1.0768  1.6074 -1.6498
 4621SOL     OW25495   0.527   1.529  13.887 -0.1987  0.1747  0.0123
 4621SOL    HW125496   0.575   1.611  13.903 -0.1755  0.1727 -0.0469
 4621SOL    HW225497   0.439   1.563  13.902  0.0117  0.1850  1.2571
 4622SOL     OW25498   1.041   4.344   5.719 -0.2413 -0.3057  0.0622
 4622SOL    HW125499   1.127   4.310   5.743 -0.2037 -1.2563 -1.3968
 4622SOL    HW225500   1.033   4.317   5.627 -2.3346  2.0018 -0.4533
 4623SOL     OW25501   2.374   2.876   9.402 -0.2068 -0.7192 -0.0231
 4623SOL    HW125502   2.436   2.940   9.369 -0.3249  0.0311  1.2174
 4623SOL    HW225503   2.428   2.808   9.442  0.4787 -1.8727 -2.9175
 4624SOL     OW25504   1.870   0.575  16.374 -0.0712  0.2762  1.0484
 4624SOL    HW125505   1.819   0.623  16.309  0.2264 -0.8311  0.0046
 4624SOL    HW225506   1.961   0.602  16.368  0.5378 -1.6873  1.3908
 4625SOL     OW25507   4.262   2.063   8.102  0.4491  0.5151 -0.1150
 4625SOL    HW125508   4.200   2.002   8.061  0.6900 -0.2609  0.6722
 4625SOL    HW225509   4.202   2.114   8.156  0.9606  0.9836  0.0048
 4626SOL     OW25510   0.975   2.947   5.430  0.6320  0.4931 -0.2596
 4626SOL    HW125511   1.036   2.880   5.461 -0.3916 -0.6184 -0.6493
 4626SOL    HW225512   1.027   3.018   5.393 -1.5097  0.8877 -2.4755
 4627SOL     OW25513   3.685   4.088   8.802 -0.4193  1.1423  0.0844
 4627SOL    HW125514   3.747   4.159   8.788 -1.8296  2.4222  0.3447
 4627SOL    HW225515   3.695   4.072   8.896  1.3793 -0.9378 -0.4621
 4628SOL     OW25516   2.970   0.215  13.843  0.1485  0.3023 -0.0538
 4628SOL    HW125517   3.053   0.246  13.806  0.6018 -1.6520 -0.7033
 4628SOL    HW225518   2.986   0.124  13.870  2.8343  0.0801 -2.3718
 4629SOL     OW25519   4.323   3.170   3.690 -0.0426 -0.0832  0.0404
 4629SOL    HW125520   4.355   3.125   3.768 -3.3053  0.2063  1.5430
 4629SOL    HW225521   4.235   3.197   3.717 -0.3748  0.4575 -1.6059
 4630SOL     OW25522   3.015   4.654   4.540 -0.0248 -0.0883  0.3003
 4630SOL    HW125523   2.989   4.577   4.591 -0.2584 -0.4313 -0.3383
 4630SOL    HW225524   2.974   4.722   4.593 -0.2944  1.3923 -1.8069
 4631SOL     OW25525   2.468   3.472  10.822 -0.4095  1.1334  0.0197
 4631SOL    HW125526   2.419   3.542  10.780  1.6278  1.7658 -1.2687
 4631SOL    HW225527   2.554   3.496  10.789 -0.7623 -0.0889 -1.8404
 4632SOL     OW25528   2.318   0.889   5.347 -0.4107  0.4823 -0.0349
 4632SOL    HW125529   2.288   0.966   5.396 -0.3663  1.4233 -1.4705
 4632SOL    HW225530   2.373   0.921   5.276 -0.1161 -3.2688 -1.5092
 4633SOL     OW25531   1.890   0.581  16.951  0.1462 -0.5406  0.0644
 4633SOL    HW125532   1.863   0.505  16.900  0.7358  0.5001 -1.8201
 4633SOL    HW225533   1.956   0.598  16.883  0.8816 -3.8311 -0.0564
 4634SOL     OW25534   0.522   4.460   9.870  0.6880  0.0402  0.0641
 4634SOL    HW125535   0.600   4.514   9.857  0.7268  0.0040  0.1416
 4634SOL    HW225536   0.550   4.370   9.850 -0.7646 -0.5794  0.8129
 4635SOL     OW25537   1.531   3.381   3.977  0.0302  0.1591 -0.3435
 4635SOL    HW125538   1.625   3.382   3.960  0.1583  0.2995  0.3866
 4635SOL    HW225539   1.518   3.404   4.069 -1.8214  0.3318 -0.6478
 4636SOL     OW25540   4.473   0.606  13.745 -0.5222 -0.1739  0.0249
 4636SOL    HW125541   4.451   0.698  13.762 -0.0376  0.0154 -0.3738
 4636SOL    HW225542   4.566   0.605  13.768 -0.4547 -1.6436 -0.2770
 4637SOL     OW25543   1.823   0.646  16.641  0.1481 -0.0369  0.3457
 4637SOL    HW125544   1.817   0.623  16.548 -0.5284  1.5662 -0.0012
 4637SOL    HW225545   1.821   0.558  16.680 -1.1020 -0.5534 -0.8560
 4638SOL     OW25546   0.167   2.554   4.433  0.5125 -0.1841 -0.0157
 4638SOL    HW125547   0.105   2.526   4.500  0.4009  0.6965  0.2462
 4638SOL    HW225548   0.204   2.634   4.471  2.6532 -1.8209  1.3759
 4639SOL     OW25549   3.411   4.625   2.754 -0.0181  0.0354 -0.3550
 4639SOL    HW125550   3.496   4.651   2.791  0.2783  0.6869 -1.4740
 4639SOL    HW225551   3.386   4.539   2.788  1.4144 -0.7145 -1.1881
 4640SOL     OW25552   2.313   3.088   5.240  0.1523 -0.3922 -0.1685
 4640SOL    HW125553   2.237   3.146   5.243  1.5913  1.3956  2.0821
 4640SOL    HW225554   2.374   3.126   5.304  0.3395  0.2268 -0.7082
 4641SOL     OW25555   2.936   3.541   0.079 -0.4115  0.2936  0.0635
 4641SOL    HW125556   2.904   3.614   0.133 -3.3047 -0.6995 -0.3042
 4641SOL    HW225557   2.946   3.586  17.743 -2.7928 -0.1947 -0.4621
 4642SOL     OW25558   0.366   0.868   6.944 -0.4856 -0.2596 -0.2430
 4642SOL    HW125559   0.344   0.892   7.034 -2.1116  2.8177 -1.4517
 4642SOL    HW225560   0.295   0.905   6.892 -0.0139  0.9478 -0.0550
 4643SOL     OW25561   0.266   3.507  12.963  0.1656 -0.0377  0.8838
 4643SOL    HW125562   0.238   3.510  12.871 -1.2386  0.3792  1.3220
 4643SOL    HW225563   0.217   3.580  13.001  0.7463  0.7291  0.1651
 4644SOL     OW25564   0.989   0.085   5.474  0.0590 -0.2158  0.4188
 4644SOL    HW125565   1.015   4.732   5.489  2.2191  0.3322 -0.0514
 4644SOL    HW225566   1.061   0.113   5.419 -0.2858  0.7288  0.4436
 4645SOL     OW25567   3.734   1.369   0.356  0.2201  0.5001  0.3534
 4645SOL    HW125568   3.704   1.458   0.375  0.7132  0.9478 -0.9540
 4645SOL    HW225569   3.822   1.386   0.324  0.6133 -0.6946  0.8027
 4646SOL     OW25570   2.327   3.705  14.819 -0.0753  0.5100  0.1093
 4646SOL    HW125571   2.266   3.638  14.850  0.5514  0.0609  0.3854
 4646SOL    HW225572   2.409   3.676  14.861 -1.5108 -2.9115  0.5904
 4647SOL     OW25573   3.708   1.738   2.731  0.2771 -0.0463  0.6878
 4647SOL    HW125574   3.649   1.708   2.662  0.6363  1.2977 -0.1988
 4647SOL    HW225575   3.757   1.657   2.746  0.8698  0.5398  1.9280
 4648SOL     OW25576   1.779   3.432   1.141 -0.3516 -0.6523  0.3049
 4648SOL    HW125577   1.770   3.350   1.189 -0.3716  0.0619  1.5537
 4648SOL    HW225578   1.802   3.406   1.052  0.9820  2.0973 -0.1550
 4649SOL     OW25579   0.338   1.350   8.823  0.2846 -0.6457  0.4931
 4649SOL    HW125580   0.331   1.380   8.732 -0.9933 -2.7394 -0.1015
 4649SOL    HW225581   0.253   1.310   8.840  0.0475  1.3192  3.7888
 4650SOL     OW25582   3.098   3.120   7.180 -0.3577  0.1363 -0.5773
 4650SOL    HW125583   3.093   3.032   7.216  0.1959  1.3250  2.4609
 4650SOL    HW225584   3.193   3.128   7.177 -0.3788  0.1809 -1.0252
 4651SOL     OW25585   4.240   4.362   5.699  0.8845 -0.5810  0.3512
 4651SOL    HW125586   4.205   4.280   5.665  2.3333 -1.3284  0.6994
 4651SOL    HW225587   4.231   4.416   5.620  2.1127  0.2847  0.8051
 4652SOL     OW25588   0.459   3.090   2.729 -0.6201  0.6826  0.3158
 4652SOL    HW125589   0.407   3.130   2.660 -0.7486  1.3573  0.8061
 4652SOL    HW225590   0.511   3.022   2.685 -0.7947  0.7002  0.0807
 4653SOL     OW25591   1.950   1.499  13.951  0.1772  0.0938  0.6973
 4653SOL    HW125592   1.868   1.502  13.901  1.6957 -0.2095 -1.7673
 4653SOL    HW225593   1.918   1.443  14.022  1.2455  0.0860  1.1650
 4654SOL     OW25594   1.422   0.625  12.113 -0.6442 -0.4143 -0.1012
 4654SOL    HW125595   1.404   0.568  12.188  2.7314 -0.1477  0.8793
 4654SOL    HW225596   1.334   0.621  12.074 -1.1823 -0.3181  1.0879
 4655SOL     OW25597   0.275   1.163   6.282  0.3257  0.3289 -0.0724
 4655SOL    HW125598   0.366   1.192   6.290 -0.0088  1.2979  0.2240
 4655SOL    HW225599   0.263   1.160   6.187  0.9488 -0.2555 -0.1299
 4656SOL     OW25600   3.429   0.967   8.276  0.0692 -0.8509  0.1063
 4656SOL    HW125601   3.434   0.886   8.326 -0.2251 -1.6169 -1.0955
 4656SOL    HW225602   3.520   0.987   8.254  0.3586 -1.2641  0.9335
 4657SOL     OW25603   4.523   0.195  14.843 -0.0720  0.3936  0.2346
 4657SOL    HW125604   4.492   0.139  14.773 -0.1126  1.1795 -0.3686
 4657SOL    HW225605   4.485   0.141  14.913  3.5002 -2.7032 -0.2432
 4658SOL     OW25606   3.499   3.760   5.396 -0.4302 -0.1353  0.1000
 4658SOL    HW125607   3.537   3.838   5.357  0.7962 -1.0466 -0.5528
 4658SOL    HW225608   3.541   3.690   5.345  0.2181 -0.1647  0.6888
 4659SOL     OW25609   1.073   1.413  13.338 -0.2110  0.2600  0.0253
 4659SOL    HW125610   1.026   1.463  13.271  0.3814  1.5845  0.5904
 4659SOL    HW225611   1.067   1.328  13.295 -0.3882 -0.6339  1.8244
 4660SOL     OW25612   4.461   3.550   5.086 -0.2428 -0.2570  0.4736
 4660SOL    HW125613   4.423   3.638   5.082  2.5524  0.8847 -0.6982
 4660SOL    HW225614   4.395   3.493   5.126 -5.0186  1.0894 -5.4824
 4661SOL     OW25615   2.181   1.865  12.437  0.4643 -0.4303 -0.7842
 4661SOL    HW125616   2.212   1.916  12.363  1.3086  1.0636  0.6057
 4661SOL    HW225617   2.222   1.780  12.421  0.6846 -1.2934  4.2806
 4662SOL     OW25618   4.134   3.921   7.599  0.5452 -0.0290  0.5159
 4662SOL    HW125619   4.174   3.838   7.623  0.2123 -0.4006 -0.2209
 4662SOL    HW225620   4.101   3.950   7.685 -0.9363  0.0405 -0.0776
 4663SOL     OW25621   2.184   2.095   4.296 -0.1399 -0.0862 -0.3715
 4663SOL    HW125622   2.092   2.096   4.322  0.2712  1.5700  0.9961
 4663SOL    HW225623   2.212   2.022   4.352 -2.2091 -1.2957 -0.9252
 4664SOL     OW25624   1.795   2.426   7.332 -0.0661  0.2279 -0.2226
 4664SOL    HW125625   1.850   2.362   7.287 -0.4207  0.8419 -1.5189
 4664SOL    HW225626   1.732   2.366   7.371  1.3363 -0.6753  0.6619
 4665SOL     OW25627   0.936   2.010   3.586 -0.0500  0.4321 -0.0619
 4665SOL    HW125628   0.884   2.089   3.568 -0.2685  0.2287 -0.3174
 4665SOL    HW225629   0.971   1.993   3.499 -2.6614 -1.1020 -0.8240
 4666SOL     OW25630   2.172   1.460   4.065  0.4190  0.1605 -0.0143
 4666SOL    HW125631   2.131   1.507   3.992 -0.8188 -0.4789  0.2589
 4666SOL    HW225632   2.110   1.476   4.137  0.1549  0.5982 -0.3378
 4667SOL     OW25633   0.447   2.353   6.324 -0.4352 -0.2069  0.2071
 4667SOL    HW125634   0.364   2.305   6.322 -1.1843  1.1201  0.0254
 4667SOL    HW225635   0.412   2.435   6.358  0.2374  0.6426 -1.1368
 4668SOL     OW25636   4.326   3.596   8.241 -0.2599  0.1450 -0.4936
 4668SOL    HW125637   4.402   3.608   8.298 -0.8819  0.5207  0.2679
 4668SOL    HW225638   4.356   3.515   8.200  0.0518 -0.6450  1.3142
 4669SOL     OW25639   0.387   3.126  12.741 -0.2488  0.2885  0.0175
 4669SOL    HW125640   0.450   3.073  12.692 -1.4589 -0.4931 -0.6881
 4669SOL    HW225641   0.385   3.203  12.685  1.5772  0.8763  0.7743
 4670SOL     OW25642   4.150   1.753   7.344  0.4720  0.3030  0.4909
 4670SOL    HW125643   4.187   1.674   7.306  0.0808 -0.7343  2.2755
 4670SOL    HW225644   4.117   1.715   7.425  1.2662 -0.7926  0.2945
 4671SOL     OW25645   4.612   2.971   7.051  0.0526 -0.5147  0.1051
 4671SOL    HW125646   4.549   3.030   7.093  0.5168 -0.5941  0.9065
 4671SOL    HW225647   4.561   2.944   6.974 -0.6977  0.6022  0.2065
 4672SOL     OW25648   1.148   0.123   7.635 -0.5890 -0.1237  0.7093
 4672SOL    HW125649   1.238   0.115   7.605 -0.6910 -0.4884  0.4921
 4672SOL    HW225650   1.113   0.183   7.570  0.4620 -0.9310 -0.6014
 4673SOL     OW25651   1.757   3.181   8.807  0.3748  0.2497 -0.2080
 4673SOL    HW125652   1.814   3.131   8.866  0.8053 -0.8195 -1.5369
 4673SOL    HW225653   1.819   3.234   8.757 -0.0005  0.2521 -0.6588
 4674SOL     OW25654   0.080   3.895  12.614 -0.1830  0.4391 -0.5081
 4674SOL    HW125655   0.114   3.815  12.574 -2.0352  0.1669 -1.5722
 4674SOL    HW225656   0.113   3.962  12.555 -1.9058  0.4374 -1.4725
 4675SOL     OW25657   2.265   0.989  17.011 -0.0002  0.0458  0.3423
 4675SOL    HW125658   2.290   0.964  17.100 -1.3067  0.8214  0.9223
 4675SOL    HW225659   2.205   0.920  16.983  1.0644 -0.7383 -0.0247
 4676SOL     OW25660   4.440   2.050  11.504 -0.4238  0.2193  0.4803
 4676SOL    HW125661   4.427   2.132  11.551 -1.9699  0.6087 -0.6129
 4676SOL    HW225662   4.370   2.062  11.439  0.2898 -0.1482 -0.3645
 4677SOL     OW25663   0.647   2.163   3.243 -0.1034  0.4948  0.0747
 4677SOL    HW125664   0.594   2.165   3.164 -0.3694 -0.3540  0.2225
 4677SOL    HW225665   0.586   2.207   3.303 -1.5308 -1.0434 -0.2402
 4678SOL     OW25666   0.706   2.002   3.761 -0.0395 -0.1479  0.2531
 4678SOL    HW125667   0.631   2.013   3.702  0.3993 -1.3305 -0.5300
 4678SOL    HW225668   0.776   1.996   3.697 -1.3503 -0.9369 -1.1103
 4679SOL     OW25669   0.237   0.397   3.063 -0.1523  0.0942 -0.6364
 4679SOL    HW125670   0.196   0.328   3.115  0.1161 -1.2210 -2.1671
 4679SOL    HW225671   0.165   0.417   3.004  0.8615  3.4574 -0.7817
 4680SOL     OW25672   3.860   2.187   6.360  0.2348  0.4074  0.4468
 4680SOL    HW125673   3.779   2.162   6.405  0.7467  0.2816  1.3032
 4680SOL    HW225674   3.831   2.267   6.316  0.1214  0.1231  0.0019
 4681SOL     OW25675   2.264   3.587  14.257 -0.2733  0.0250 -0.1552
 4681SOL    HW125676   2.337   3.549  14.306  1.0839  2.7509 -0.0740
 4681SOL    HW225677   2.194   3.585  14.323  1.2488 -1.0274  1.4252
 4682SOL     OW25678   3.898   2.732  14.135 -0.7901  0.1216  0.2726
 4682SOL    HW125679   3.834   2.667  14.162 -0.7613 -0.0122  0.0201
 4682SOL    HW225680   3.849   2.792  14.078 -0.1447 -1.0009 -1.4600
 4683SOL     OW25681   1.753   1.984   4.083 -0.1638 -0.0445  0.3727
 4683SOL    HW125682   1.727   2.024   4.000  0.0710 -3.1504 -1.1910
 4683SOL    HW225683   1.833   1.934   4.069 -0.0530  0.3275 -0.2978
 4684SOL     OW25684   1.767   2.531  17.746 -0.5914  0.3964 -0.3645
 4684SOL    HW125685   1.723   2.586  17.681 -0.9591 -0.4750 -0.8599
 4684SOL    HW225686   1.856   2.565  17.747 -0.7530  0.8693 -2.1082
 4685SOL     OW25687   4.564   1.647  12.457 -0.3521 -0.3826 -0.2347
 4685SOL    HW125688   4.587   1.592  12.532 -1.5162 -0.9265 -0.2645
 4685SOL    HW225689   4.548   1.723  12.512 -0.5452  1.2837 -2.6143
 4686SOL     OW25690   0.622   3.992  12.737  0.3072  0.2694 -0.0902
 4686SOL    HW125691   0.568   4.071  12.739  1.4070  1.0291 -0.6596
 4686SOL    HW225692   0.694   4.017  12.680 -0.4747  0.0968 -1.1448
 4687SOL     OW25693   3.867   3.040   4.332 -0.1183  0.3007 -0.0383
 4687SOL    HW125694   3.886   3.049   4.238 -1.2101 -0.4777 -0.3353
 4687SOL    HW225695   3.933   2.980   4.366  1.0902  0.9644 -1.2206
 4688SOL     OW25696   1.637   1.767   1.929  0.3501 -0.1110  0.6486
 4688SOL    HW125697   1.717   1.819   1.929  1.3476 -1.6625 -1.3129
 4688SOL    HW225698   1.625   1.743   1.837  0.2533  1.3671  0.2871
 4689SOL     OW25699   3.155   1.003   3.282 -0.5860  0.1314  0.1012
 4689SOL    HW125700   3.102   0.953   3.344 -1.1088  2.1942  1.3059
 4689SOL    HW225701   3.119   0.976   3.197 -1.1768  3.3279 -0.6746
 4690SOL     OW25702   1.236   4.108   4.592 -0.2037 -0.2017 -0.6215
 4690SOL    HW125703   1.162   4.067   4.638 -1.0656  1.4063 -0.5620
 4690SOL    HW225704   1.245   4.180   4.654  1.6683 -0.9559 -0.0263
 4691SOL     OW25705   0.129   2.069   4.919 -0.4221 -0.2719  0.3949
 4691SOL    HW125706   0.136   2.055   4.825  5.3623 -0.1077  0.7562
 4691SOL    HW225707   0.202   2.129   4.936  0.0413 -0.3036 -1.5848
 4692SOL     OW25708   0.768   1.562   4.579  0.8632  0.1012  0.0323
 4692SOL    HW125709   0.788   1.480   4.625  0.0941  1.1887  2.3034
 4692SOL    HW225710   0.796   1.624   4.647  2.5192 -1.7115  0.9971
 4693SOL     OW25711   3.252   4.104   3.581  0.2081 -0.0938 -0.1521
 4693SOL    HW125712   3.169   4.139   3.613 -1.8149 -3.1602 -2.0253
 4693SOL    HW225713   3.308   4.140   3.650 -1.3934 -1.1455  1.7026
 4694SOL     OW25714   1.288   1.536   4.739  0.3570 -0.1527  0.0396
 4694SOL    HW125715   1.210   1.549   4.793  0.3982  0.3696 -0.0266
 4694SOL    HW225716   1.304   1.628   4.716  2.0019 -0.5890 -0.5844
 4695SOL     OW25717   1.590   2.173   4.468 -0.2326  0.2049  0.4341
 4695SOL    HW125718   1.640   2.124   4.533  1.0156  1.0659  0.1183
 4695SOL    HW225719   1.657   2.226   4.426 -2.5510  1.5200 -1.5991
 4696SOL     OW25720   0.350   4.123  10.433  0.2796 -0.2543 -0.5183
 4696SOL    HW125721   0.368   4.182  10.506 -2.1324 -1.1798  0.8273
 4696SOL    HW225722   0.383   4.177  10.362 -0.6805  1.7466  0.5761
 4697SOL     OW25723   1.566   2.347   8.353  0.3121 -0.4271 -0.2368
 4697SOL    HW125724   1.626   2.288   8.307  1.2220  0.5423 -0.2716
 4697SOL    HW225725   1.610   2.431   8.345  1.0064 -0.9368 -1.7825
 4698SOL     OW25726   1.336   3.222   5.952 -0.2029 -0.3088  0.4001
 4698SOL    HW125727   1.420   3.230   5.907 -0.1926 -0.2608  0.4268
 4698SOL    HW225728   1.347   3.306   5.998  0.4468  0.4468 -1.1407
 4699SOL     OW25729   1.217   0.308   1.037 -0.0193  0.1954  0.5038
 4699SOL    HW125730   1.291   0.265   0.993  1.7443  3.2464  0.5024
 4699SOL    HW225731   1.199   0.393   0.997  1.3237  0.0272 -0.4865
 4700SOL     OW25732   0.243   0.668   3.650  0.2589  0.2555 -0.3548
 4700SOL    HW125733   0.216   0.721   3.725 -1.0872  0.2462 -0.8268
 4700SOL    HW225734   0.328   0.704   3.625  0.6598 -0.7337 -0.4258
 4701SOL     OW25735   4.046   0.792   1.753 -0.0431  0.3758  0.1356
 4701SOL    HW125736   3.990   0.720   1.783  1.2604 -0.8219 -0.2594
 4701SOL    HW225737   4.128   0.771   1.798  0.9149  2.2947 -0.7174
 4702SOL     OW25738   0.785   3.422   4.664 -0.0278  0.0970 -0.3051
 4702SOL    HW125739   0.808   3.514   4.681  0.3106  0.7947 -4.3842
 4702SOL    HW225740   0.850   3.417   4.593  2.0367  1.0439  1.5102
 4703SOL     OW25741   4.178   2.839  10.092 -0.2278 -0.1811  0.5682
 4703SOL    HW125742   4.258   2.851  10.144  0.5538  1.9146 -1.1341
 4703SOL    HW225743   4.182   2.746  10.071  2.8718  0.4105 -1.4137
 4704SOL     OW25744   1.429   3.029   6.697 -0.0469 -0.0864  0.0791
 4704SOL    HW125745   1.474   3.065   6.773 -0.2542 -0.8707  0.5663
 4704SOL    HW225746   1.392   2.953   6.742 -1.0946  0.1895 -0.3019
 4705SOL     OW25747   2.497   1.286  13.079 -0.2993  0.0522 -0.2587
 4705SOL    HW125748   2.420   1.300  13.132 -0.6792 -2.9962 -0.0351
 4705SOL    HW225749   2.478   1.337  13.000 -1.0121  0.6555  0.3043
 4706SOL     OW25750   0.539   2.693  12.570 -0.0356  0.3304 -0.0694
 4706SOL    HW125751   0.445   2.676  12.573  0.1834 -0.3611  2.5043
 4706SOL    HW225752   0.572   2.650  12.491 -1.2271 -1.0042  0.1753
 4707SOL     OW25753   1.029   1.434   7.319  0.3915  0.3000  0.1561
 4707SOL    HW125754   1.076   1.479   7.388  0.7024  1.3946 -0.7731
 4707SOL    HW225755   1.049   1.498   7.251 -0.5885  0.0432 -0.3863
 4708SOL     OW25756   4.348   1.428   9.893  0.1728  0.0711  0.1328
 4708SOL    HW125757   4.402   1.350   9.892 -0.3772 -0.3213  0.5654
 4708SOL    HW225758   4.395   1.502   9.854  1.7801  1.1086  4.0453
 4709SOL     OW25759   0.457   1.274   3.731  0.4041  0.3813 -0.6333
 4709SOL    HW125760   0.438   1.186   3.764 -0.4236  0.9115  0.2713
 4709SOL    HW225761   0.445   1.321   3.813  0.9250 -1.9993  0.8114
 4710SOL     OW25762   3.377   3.050   2.431 -0.4396 -0.1977  0.2968
 4710SOL    HW125763   3.441   3.083   2.369 -1.0720 -0.4198 -0.4762
 4710SOL    HW225764   3.291   3.063   2.390 -0.6618 -0.9552  0.5097
 4711SOL     OW25765   3.377   1.837  16.370 -0.1088 -0.7635  0.1189
 4711SOL    HW125766   3.436   1.789  16.428 -0.5632  0.6559  1.7531
 4711SOL    HW225767   3.298   1.854  16.421  1.4071  0.8129  1.9490
 4712SOL     OW25768   0.995   4.602  11.128  0.5274 -0.1420  0.2065
 4712SOL    HW125769   1.030   4.562  11.049  0.5937 -1.2725  0.8001
 4712SOL    HW225770   1.049   4.678  11.147  0.5421 -0.1717  0.2836
 4713SOL     OW25771   0.035   4.340  11.720  0.2679  0.2114  0.2841
 4713SOL    HW125772   4.689   4.376  11.690 -1.0868 -0.1366  3.6359
 4713SOL    HW225773   0.081   4.424  11.718  0.8168 -0.1735 -2.5257
 4714SOL     OW25774   2.497   2.566   6.262 -0.3223  0.2259  0.0296
 4714SOL    HW125775   2.502   2.497   6.196  1.7774 -1.8107  2.3357
 4714SOL    HW225776   2.476   2.640   6.205 -2.6804  0.5453  1.3016
 4715SOL     OW25777   1.332   4.504   5.339 -0.7562  0.1493 -0.3002
 4715SOL    HW125778   1.356   4.497   5.431 -0.2340 -1.6756 -0.5677
 4715SOL    HW225779   1.397   4.450   5.294 -0.0409  0.1057  0.7735
 4716SOL     OW25780   3.324   4.310  13.331 -0.4725 -0.2422 -0.4284
 4716SOL    HW125781   3.253   4.258  13.368 -1.5858  1.8653  0.3583
 4716SOL    HW225782   3.289   4.394  13.301  0.7003 -0.2870 -1.9382
 4717SOL     OW25783   1.167   0.581   1.727 -0.4127 -0.1608  0.3316
 4717SOL    HW125784   1.180   0.644   1.656 -1.2276 -0.2587  0.0911
 4717SOL    HW225785   1.149   0.635   1.803 -0.1985  1.5684 -0.8578
 4718SOL     OW25786   0.845   4.222   2.859  0.2543 -0.0650  0.1442
 4718SOL    HW125787   0.878   4.140   2.895 -1.4599 -1.4074 -1.3168
 4718SOL    HW225788   0.750   4.208   2.865 -0.0066  1.6171  0.0377
 4719SOL     OW25789   0.626   4.551   3.738  0.0182 -0.6091 -0.1307
 4719SOL    HW125790   0.539   4.512   3.729  0.1299 -0.8424 -0.2092
 4719SOL    HW225791   0.686   4.476   3.732 -1.3345 -1.8409  1.9270
 4720SOL     OW25792   0.322   0.029   8.677 -0.1019  0.6405  1.0568
 4720SOL    HW125793   0.280   4.731   8.598 -0.3120 -0.1857  1.5384
 4720SOL    HW225794   0.387   0.080   8.629  0.3979  0.0324  1.0906
 4721SOL     OW25795   0.321   1.594   6.688  0.1303  0.0776 -0.2374
 4721SOL    HW125796   0.387   1.546   6.739 -0.1034 -0.6254 -0.5932
 4721SOL    HW225797   0.347   1.683   6.710 -0.7336  0.3928 -0.4969
 4722SOL     OW25798   0.457   2.408   8.613 -0.4348 -0.0343  0.2613
 4722SOL    HW125799   0.420   2.491   8.582 -0.3994  1.0368  2.9987
 4722SOL    HW225800   0.394   2.369   8.674  0.2421  1.4677  1.9269
 4723SOL     OW25801   2.922   1.453   5.497  0.4606 -0.2046  0.6218
 4723SOL    HW125802   2.847   1.464   5.439 -0.8251 -3.7729  1.5774
 4723SOL    HW225803   2.917   1.532   5.550  0.8348  0.0413  0.2855
 4724SOL     OW25804   2.287   2.515  13.540  0.1986 -0.6027  0.2507
 4724SOL    HW125805   2.356   2.507  13.474 -0.6468  0.9419 -0.8047
 4724SOL    HW225806   2.204   2.523  13.494 -0.9117 -1.5269  2.0975
 4725SOL     OW25807   1.974   0.423   9.792  0.0076  0.1903  0.4478
 4725SOL    HW125808   1.975   0.426   9.696  1.0435 -0.9147  0.4186
 4725SOL    HW225809   2.062   0.390   9.813  0.3074 -0.3832 -1.6662
 4726SOL     OW25810   2.668   2.240  14.081 -0.4142  0.1562  0.6811
 4726SOL    HW125811   2.758   2.227  14.110 -0.6618  0.9765  1.8000
 4726SOL    HW225812   2.641   2.327  14.107 -0.8942  0.6877 -1.5565
 4727SOL     OW25813   2.896   0.030   0.712 -0.2322 -0.1238  0.1369
 4727SOL    HW125814   2.837   0.079   0.770 -2.1209 -0.6840 -1.2956
 4727SOL    HW225815   2.888   0.096   0.642  0.7008 -2.0092 -1.7387
 4728SOL     OW25816   3.380   3.974   5.229  0.3461 -0.1092 -0.5743
 4728SOL    HW125817   3.430   3.923   5.165  1.4132 -0.9592  0.9163
 4728SOL    HW225818   3.423   4.057   5.211 -1.8815  0.7816 -1.8170
 4729SOL     OW25819   4.287   3.620   5.754 -0.2401  0.9066 -0.1708
 4729SOL    HW125820   4.257   3.548   5.810 -0.2512 -0.3842 -1.8361
 4729SOL    HW225821   4.376   3.597   5.725 -0.8044 -0.3134 -0.9458
 4730SOL     OW25822   4.572   0.666  11.510 -0.0824 -0.4335  0.2668
 4730SOL    HW125823   4.489   0.703  11.539  0.0824 -0.4887  0.8077
 4730SOL    HW225824   4.633   0.692  11.579  0.3881 -0.9965  0.0687
 4731SOL     OW25825   0.970   2.718  15.054  0.5348  1.7109 -0.0295
 4731SOL    HW125826   0.917   2.780  15.004  0.6176  0.7207 -1.3487
 4731SOL    HW225827   0.906   2.655  15.090  2.4563  1.2658  2.6305
 4732SOL     OW25828   0.558   1.821   8.301 -0.4251  0.2039 -0.5352
 4732SOL    HW125829   0.550   1.764   8.224  0.9086 -1.1732  0.3318
 4732SOL    HW225830   0.518   1.903   8.275  3.2238  1.9298 -0.7252
 4733SOL     OW25831   4.310   3.840   3.826 -0.2087 -0.1521  0.4570
 4733SOL    HW125832   4.330   3.863   3.735 -0.7906 -1.4161  0.0259
 4733SOL    HW225833   4.360   3.760   3.841 -1.8610 -1.6852 -2.5245
 4734SOL     OW25834   0.735   1.139   3.006  0.0900 -0.0904 -0.2569
 4734SOL    HW125835   0.659   1.136   3.064  2.0330 -0.7184  2.2695
 4734SOL    HW225836   0.802   1.166   3.070 -0.0843 -0.2968  0.0144
 4735SOL     OW25837   4.693   4.636  11.639  0.0626 -0.2885  0.0569
 4735SOL    HW125838   0.011   4.590  11.576  0.4227 -2.2273  1.8012
 4735SOL    HW225839   0.015   4.677  11.701  0.2245 -0.7982  0.2424
 4736SOL     OW25840   4.209   4.292   2.295  0.0757 -0.0492  0.6362
 4736SOL    HW125841   4.170   4.365   2.343 -1.5505  0.2067 -1.0677
 4736SOL    HW225842   4.304   4.300   2.310 -0.2039  1.3779  1.6189
 4737SOL     OW25843   4.309   3.580  16.244 -0.1217 -0.3395  0.4376
 4737SOL    HW125844   4.281   3.670  16.263  3.6511  1.1564 -1.0627
 4737SOL    HW225845   4.229   3.534  16.268  0.4157 -1.3415  0.3317
 4738SOL     OW25846   2.291   4.287  11.943  0.1672  0.1876 -0.0113
 4738SOL    HW125847   2.339   4.313  11.865 -0.3659 -0.2002 -0.4729
 4738SOL    HW225848   2.331   4.200  11.955 -0.8840 -0.1907  0.7940
 4739SOL     OW25849   2.412   0.553  14.667 -0.5256  0.0014 -0.5689
 4739SOL    HW125850   2.477   0.490  14.697  0.6649  1.8401  0.6834
 4739SOL    HW225851   2.335   0.496  14.670  0.0965 -0.9486 -2.1153
 4740SOL     OW25852   3.740   1.662   6.868 -0.3018 -0.1194 -0.6216
 4740SOL    HW125853   3.701   1.638   6.953  0.1479 -1.4369 -0.7849
 4740SOL    HW225854   3.756   1.755   6.883  0.2711  0.1283 -2.8398
 4741SOL     OW25855   2.456   4.652   2.821 -0.2934  0.0954  0.3536
 4741SOL    HW125856   2.470   4.641   2.727 -0.1043 -0.8606  0.4947
 4741SOL    HW225857   2.371   4.696   2.827 -1.0627 -1.3696  0.4992
 4742SOL     OW25858   4.037   2.453  14.258 -0.0251  0.6563 -0.3974
 4742SOL    HW125859   4.061   2.431  14.169 -3.2681 -2.2458 -0.5720
 4742SOL    HW225860   4.073   2.540  14.274 -0.6073  0.6205  1.1700
 4743SOL     OW25861   1.215   0.056   5.323  0.2716  0.0021 -0.2268
 4743SOL    HW125862   1.261   0.109   5.387 -2.4954 -0.7220  2.3845
 4743SOL    HW225863   1.244   4.704   5.341  1.4425  0.4631  0.1383
 4744SOL     OW25864   4.673   2.803   2.531  1.0130  0.1069 -0.0487
 4744SOL    HW125865   4.637   2.731   2.480 -0.1739  0.0581  0.8431
 4744SOL    HW225866   4.672   2.767   2.620  1.2804 -0.0576 -0.1142
 4745SOL     OW25867   4.241   0.568   8.126 -0.7306 -0.0362  0.0465
 4745SOL    HW125868   4.261   0.500   8.190  0.1200 -2.1355 -2.4379
 4745SOL    HW225869   4.326   0.612   8.125 -0.9106  0.3130  0.1436
 4746SOL     OW25870   2.360   2.098  11.315  0.2008  0.1867 -0.0274
 4746SOL    HW125871   2.366   2.082  11.409 -1.0963 -1.0001 -0.1471
 4746SOL    HW225872   2.389   2.015  11.276 -1.9754 -0.3985 -0.4008
 4747SOL     OW25873   0.510   2.001  16.618  0.5143  0.2159 -0.5134
 4747SOL    HW125874   0.591   2.053  16.613  1.6223 -1.2003  3.0164
 4747SOL    HW225875   0.469   2.033  16.538 -0.9343  1.9855  0.9302
 4748SOL     OW25876   2.006   0.170   2.984 -0.1419 -0.8689  0.6966
 4748SOL    HW125877   1.967   0.226   2.917  1.4828 -2.1071 -1.2973
 4748SOL    HW225878   2.054   0.104   2.934  0.9303 -0.4623  1.1863
 4749SOL     OW25879   0.487   4.253  10.242  0.0516  0.3363 -0.2854
 4749SOL    HW125880   0.513   4.186  10.179  1.6384  0.5218  0.1763
 4749SOL    HW225881   0.554   4.320  10.231  0.3437  0.0250 -0.3687
 4750SOL     OW25882   3.724   0.897  14.122  0.5803 -0.6560  0.3290
 4750SOL    HW125883   3.814   0.875  14.100  0.8920  1.8195 -0.9426
 4750SOL    HW225884   3.709   0.830  14.188  0.5513  0.6416  1.6661
 4751SOL     OW25885   1.323   4.489  12.700  0.0394  0.1708  0.0559
 4751SOL    HW125886   1.387   4.481  12.629 -0.1442  0.6025 -0.1540
 4751SOL    HW225887   1.244   4.523  12.659  0.4751  0.9614 -0.1250
 4752SOL     OW25888   0.207   2.881  13.064 -0.0684 -0.2231  0.1476
 4752SOL    HW125889   0.209   2.786  13.079 -1.7337 -0.7229 -2.8559
 4752SOL    HW225890   0.116   2.909  13.073 -0.4009 -1.1210 -0.4202
 4753SOL     OW25891   2.991   1.149   4.571  0.0896 -0.4414  0.0290
 4753SOL    HW125892   2.949   1.137   4.656 -0.2106  1.3576  0.1413
 4753SOL    HW225893   3.070   1.190   4.604 -1.0260  1.8744 -0.1380
 4754SOL     OW25894   3.361   4.210   3.147  0.4160 -0.2068  0.4787
 4754SOL    HW125895   3.284   4.212   3.205 -0.8048 -0.6189 -1.1262
 4754SOL    HW225896   3.350   4.129   3.098  1.4982  0.8274 -1.4359
 4755SOL     OW25897   3.615   1.598   0.460 -0.1479 -0.3549 -0.3946
 4755SOL    HW125898   3.552   1.554   0.516  1.2903  0.7716  2.0866
 4755SOL    HW225899   3.641   1.675   0.510  1.5802 -1.0719 -0.1927
 4756SOL     OW25900   1.927   2.695   7.796 -0.0497 -0.5348  0.0854
 4756SOL    HW125901   1.892   2.764   7.740  0.6438  1.0061  1.5657
 4756SOL    HW225902   1.934   2.748   7.875  0.3567 -1.9986  1.0403
 4757SOL     OW25903   2.076   0.052  11.451 -0.1853  0.7958  0.4489
 4757SOL    HW125904   2.114   0.041  11.364  1.8167 -1.0930  1.5304
 4757SOL    HW225905   2.105   0.142  11.467  2.1239  0.3502 -1.2849
 4758SOL     OW25906   4.606   0.995   6.709 -0.1957 -0.6753 -0.8911
 4758SOL    HW125907   4.530   0.939   6.723 -1.0249  0.1859 -1.9569
 4758SOL    HW225908   4.600   1.012   6.615 -1.2971 -0.1412 -0.7237
 4759SOL     OW25909   1.847   3.739   1.205  0.3530  0.7331  0.2780
 4759SOL    HW125910   1.829   3.781   1.289  0.4169  1.2475  0.0309
 4759SOL    HW225911   1.792   3.795   1.151 -2.5227 -1.6134  0.7836
 4760SOL     OW25912   1.608   2.166  15.783  0.5538  0.0211  0.4987
 4760SOL    HW125913   1.653   2.201  15.706 -1.0991 -0.5221 -0.6893
 4760SOL    HW225914   1.537   2.228  15.794 -1.4235 -2.0797 -0.5653
 4761SOL     OW25915   3.320   4.326   7.050 -0.0565 -0.4310  0.2317
 4761SOL    HW125916   3.362   4.345   7.134 -0.1565  1.4396 -0.1512
 4761SOL    HW225917   3.345   4.234   7.042 -2.4964 -1.0334 -0.3711
 4762SOL     OW25918   0.671   3.752   2.649 -0.0872 -0.4161 -0.3726
 4762SOL    HW125919   0.722   3.822   2.606  1.5920 -0.7203  1.1482
 4762SOL    HW225920   0.605   3.739   2.581 -2.4452  0.7259  1.7294
 4763SOL     OW25921   0.837   3.927  15.695 -0.3284 -0.0119  0.0058
 4763SOL    HW125922   0.889   3.890  15.767  0.9851  2.1766  0.1876
 4763SOL    HW225923   0.768   3.860  15.690 -0.4688  0.0699  0.8426
 4764SOL     OW25924   3.402   1.076   5.590 -0.1548  0.7666 -0.2483
 4764SOL    HW125925   3.442   0.989   5.581  0.1252  0.9222 -0.5172
 4764SOL    HW225926   3.308   1.054   5.591 -0.1335  0.6365 -0.9985
 4765SOL     OW25927   2.717   2.876  12.469  0.7716  0.2176  0.3209
 4765SOL    HW125928   2.685   2.947  12.415  0.7380 -0.3565 -0.4180
 4765SOL    HW225929   2.641   2.857  12.525  1.1700 -1.3583  0.3295
 4766SOL     OW25930   3.567   1.039  17.292 -0.0383 -0.0392  0.2601
 4766SOL    HW125931   3.536   0.963  17.243 -0.2604 -0.4234  1.0155
 4766SOL    HW225932   3.643   1.010  17.342  0.0314 -1.1353 -0.4942
 4767SOL     OW25933   2.283   4.237   7.637 -0.2596 -0.1053  0.5318
 4767SOL    HW125934   2.331   4.259   7.557  0.3421  0.1104  0.9538
 4767SOL    HW225935   2.204   4.285   7.612 -0.2642 -0.6907 -0.5630
 4768SOL     OW25936   2.243   1.122   9.483 -0.1261 -0.2769 -0.7454
 4768SOL    HW125937   2.320   1.066   9.485 -1.4950 -2.1273 -0.6647
 4768SOL    HW225938   2.199   1.076   9.411  2.4703  0.1214 -2.5722
 4769SOL     OW25939   0.172   2.735  16.238  0.2504  0.3211 -0.3668
 4769SOL    HW125940   0.190   2.829  16.232 -0.1191  0.2343 -2.7331
 4769SOL    HW225941   0.102   2.742  16.302 -1.7297  0.0821 -2.5109
 4770SOL     OW25942   1.090   2.355   1.671  0.3447  0.7089  0.7847
 4770SOL    HW125943   1.084   2.377   1.578  2.0679  1.6505  0.9033
 4770SOL    HW225944   1.031   2.279   1.666  0.9062  0.3938 -1.0368
 4771SOL     OW25945   3.354   0.280   3.148  0.7845 -0.7733 -0.0929
 4771SOL    HW125946   3.303   0.333   3.210  1.9761 -0.8218  0.9282
 4771SOL    HW225947   3.425   0.241   3.199  1.0334  2.1531  1.8256
 4772SOL     OW25948   1.323   0.671   5.174 -0.1061  0.6211 -0.5414
 4772SOL    HW125949   1.352   0.589   5.133  0.7698 -0.6701  2.6672
 4772SOL    HW225950   1.407   0.716   5.184  0.2783 -0.6494  1.9016
 4773SOL     OW25951   1.730   3.598   4.054 -0.0596  0.6859  0.3157
 4773SOL    HW125952   1.656   3.592   4.115  1.1139  1.9157  1.8794
 4773SOL    HW225953   1.798   3.591   4.121 -0.0718  0.1056  0.2718
 4774SOL     OW25954   3.198   3.346   3.054  0.1156  0.1672  0.4560
 4774SOL    HW125955   3.259   3.351   2.981  1.1974  1.7655  1.4632
 4774SOL    HW225956   3.178   3.437   3.078 -0.0431 -0.6478  3.4002
 4775SOL     OW25957   1.852   3.135   2.961  0.3493  0.7365 -0.2057
 4775SOL    HW125958   1.791   3.079   3.010  2.0492 -2.3384 -1.5602
 4775SOL    HW225959   1.807   3.217   2.981 -1.6581 -0.7734  1.5204
 4776SOL     OW25960   0.999   0.143   5.144  0.2224  0.1384 -0.1572
 4776SOL    HW125961   0.975   0.053   5.121 -1.0567  0.0543  1.4379
 4776SOL    HW225962   1.066   0.123   5.209  0.3590  2.4624  0.4243
 4777SOL     OW25963   0.813   2.714   6.273  0.4504  0.3694  0.2704
 4777SOL    HW125964   0.885   2.776   6.286 -0.7370  1.7497  0.2128
 4777SOL    HW225965   0.818   2.680   6.183  3.2770 -0.2649  0.6674
 4778SOL     OW25966   3.025   0.271   3.543 -0.5377 -0.3218 -0.5586
 4778SOL    HW125967   3.036   0.177   3.532 -4.2032 -0.8016 -0.2449
 4778SOL    HW225968   3.059   0.284   3.632  0.5157  0.7090 -1.1090
 4779SOL     OW25969   2.931   1.975   5.927 -0.0487 -0.2077  0.1082
 4779SOL    HW125970   2.885   1.915   5.986 -0.8204 -1.2832 -1.5693
 4779SOL    HW225971   2.985   1.917   5.873 -0.0252 -0.8419  0.8195
 4780SOL     OW25972   2.174   2.383   5.258  0.2122  0.5480 -0.3875
 4780SOL    HW125973   2.103   2.362   5.197  0.0416 -0.0790  0.0290
 4780SOL    HW225974   2.129   2.413   5.337  0.8523 -1.0332  0.5875
 4781SOL     OW25975   3.801   3.805   1.548  0.2170  0.2649  0.0944
 4781SOL    HW125976   3.874   3.853   1.588 -0.0255 -1.1179  2.1777
 4781SOL    HW225977   3.781   3.862   1.473  0.9265 -1.4671 -1.4288
 4782SOL     OW25978   3.467   3.737   8.730 -0.7319  0.1421  0.4833
 4782SOL    HW125979   3.450   3.685   8.652  1.0388  0.1018  0.1194
 4782SOL    HW225980   3.484   3.820   8.686 -0.2723 -0.5217 -0.5795
 4783SOL     OW25981   3.680   4.489   6.612 -0.3956  0.0103 -0.0940
 4783SOL    HW125982   3.648   4.579   6.625 -0.3925 -0.2915  2.0472
 4783SOL    HW225983   3.745   4.488   6.682 -2.1323  0.0894  1.5329
 4784SOL     OW25984   0.166   3.769   8.107 -0.3111  0.4236 -0.0010
 4784SOL    HW125985   0.112   3.786   8.030  0.7657 -1.0899 -1.0965
 4784SOL    HW225986   0.244   3.734   8.065  1.0889  1.0067  2.1447
 4785SOL     OW25987   4.171   2.946   1.801 -0.4025 -0.0866  0.3730
 4785SOL    HW125988   4.176   2.908   1.888  0.8516  1.8235  1.1250
 4785SOL    HW225989   4.078   2.931   1.780 -0.4022  2.8597 -1.8968
 4786SOL     OW25990   2.303   2.507   6.885  0.5257  0.0688 -0.0350
 4786SOL    HW125991   2.365   2.559   6.834  0.5804  1.7143  1.6991
 4786SOL    HW225992   2.293   2.421   6.843 -3.2064  0.5040 -0.0220
 4787SOL     OW25993   3.438   4.584  16.929 -0.3680  0.0014 -0.3789
 4787SOL    HW125994   3.434   4.538  16.845  1.4139 -0.3346 -0.2863
 4787SOL    HW225995   3.369   4.538  16.978 -0.2605 -0.9991 -1.1739
 4788SOL     OW25996   0.559   4.600   7.529  0.0654 -0.2634 -0.3602
 4788SOL    HW125997   0.531   4.509   7.536 -1.9273  0.2903 -0.9575
 4788SOL    HW225998   0.502   4.641   7.594 -0.0069 -1.2996  0.2302
 4789SOL     OW25999   0.837   3.767   8.438  0.4258  0.4085 -0.3335
 4789SOL    HW126000   0.874   3.682   8.461  1.9498  0.9219 -0.8533
 4789SOL    HW226001   0.882   3.778   8.354 -2.1511  2.2999 -1.4820
 4790SOL     OW26002   3.428   1.698   5.838  0.3068 -0.5239 -0.3633
 4790SOL    HW126003   3.404   1.627   5.898  1.1014 -0.6353 -0.1793
 4790SOL    HW226004   3.506   1.736   5.879  0.6303 -2.2590  0.6634
 4791SOL     OW26005   0.735   1.661   6.800  0.0625 -0.2810 -0.5662
 4791SOL    HW126006   0.719   1.746   6.758  0.8509  0.7082  1.1563
 4791SOL    HW226007   0.789   1.622   6.732  0.5780  1.2741 -1.0638
 4792SOL     OW26008   3.806   0.493  15.873 -0.2395  0.8138  0.1332
 4792SOL    HW126009   3.725   0.512  15.826 -0.9397 -1.4310  0.4123
 4792SOL    HW226010   3.833   0.415  15.824 -2.4365  0.6197 -0.7512
 4793SOL     OW26011   2.771   4.542   4.868  0.2854 -0.3286  0.4500
 4793SOL    HW126012   2.779   4.633   4.894 -0.4304 -0.0172 -0.4233
 4793SOL    HW226013   2.686   4.516   4.903 -0.7470  1.7195 -0.5669
 4794SOL     OW26014   4.303   0.554   0.178  0.0974  0.0340 -0.2136
 4794SOL    HW126015   4.346   0.572   0.261 -0.4991  1.2667 -0.1689
 4794SOL    HW226016   4.370   0.502   0.133 -0.1757 -0.9416  0.5415
 4795SOL     OW26017   3.395   1.940   8.237  0.0697 -0.2962 -0.0382
 4795SOL    HW126018   3.357   1.873   8.180 -0.6281 -1.7730  2.1589
 4795SOL    HW226019   3.329   1.956   8.304  0.1616 -0.2020  0.0311
 4796SOL     OW26020   1.407   2.561   2.588  0.0583 -0.3821  0.4388
 4796SOL    HW126021   1.369   2.632   2.640  1.3032  1.0199 -0.5638
 4796SOL    HW226022   1.456   2.615   2.527  1.0064 -2.6536 -0.8266
 4797SOL     OW26023   0.033   0.537   5.822 -0.3812  0.3835 -0.0390
 4797SOL    HW126024   0.085   0.569   5.895 -0.3068  0.1056  0.0306
 4797SOL    HW226025   0.021   0.612   5.764  1.6960  1.9261  1.5187
 4798SOL     OW26026   4.501   0.225   4.066 -0.0584  0.1517 -0.6119
 4798SOL    HW126027   4.496   0.279   3.987  1.9237  0.1856 -0.7223
 4798SOL    HW226028   4.451   0.149   4.035 -1.0337  0.9860 -1.0670
 4799SOL     OW26029   4.098   0.570   7.347 -0.1221  0.4710  0.4462
 4799SOL    HW126030   4.027   0.628   7.375  0.0431  0.6067  0.5851
 4799SOL    HW226031   4.174   0.608   7.392  1.3035  1.9591 -3.2635
 4800SOL     OW26032   3.257   2.316   3.784  0.2605  0.5409  0.4565
 4800SOL    HW126033   3.271   2.369   3.706 -1.2598 -1.3866 -1.1317
 4800SOL    HW226034   3.350   2.301   3.802  0.5732  1.8867 -0.0682
 4801SOL     OW26035   2.225   2.079  11.053 -0.1620 -0.0932 -0.2599
 4801SOL    HW126036   2.319   2.058  11.056 -0.1961 -0.7303 -4.0239
 4801SOL    HW226037   2.223   2.173  11.034  0.4199  0.5221  2.6622
 4802SOL     OW26038   4.662   2.363   5.632 -0.6514 -0.6648  0.1626
 4802SOL    HW126039   4.591   2.424   5.613 -0.4359  0.2190  2.2085
 4802SOL    HW226040   4.611   2.302   5.684  0.0774 -1.2140  0.2337
 4803SOL     OW26041   1.418   0.696   4.240 -0.3162 -0.1398  0.5109
 4803SOL    HW126042   1.391   0.752   4.313  1.4393  0.3659  0.7666
 4803SOL    HW226043   1.413   0.609   4.278  0.2954  1.0113  3.1986
 4804SOL     OW26044   0.998   4.520   1.636  0.1879 -0.0267 -0.0090
 4804SOL    HW126045   0.994   4.616   1.640 -0.3246 -0.0334 -0.3103
 4804SOL    HW226046   0.929   4.505   1.571 -0.7036  0.1364  0.9172
 4805SOL     OW26047   0.184   0.853   4.275 -0.2030 -0.2025  0.2484
 4805SOL    HW126048   0.251   0.858   4.343 -0.1254 -1.2209  0.2550
 4805SOL    HW226049   0.138   0.771   4.295 -1.0585 -0.5191 -2.9467
 4806SOL     OW26050   4.384   1.531   0.422 -0.0702  0.0059 -0.5424
 4806SOL    HW126051   4.368   1.437   0.415 -0.0193 -0.0003 -0.5745
 4806SOL    HW226052   4.403   1.542   0.516 -1.3256  2.2503 -0.5689
 4807SOL     OW26053   4.678   0.805  15.050  0.1386  0.3240  0.1378
 4807SOL    HW126054   4.638   0.777  14.968  0.0650 -0.6791  0.5178
 4807SOL    HW226055   4.626   0.885  15.055  2.9103  2.0870  0.5505
 4808SOL     OW26056   2.296   4.207   8.612  0.3797  0.0925  0.7546
 4808SOL    HW126057   2.312   4.164   8.528 -1.8120 -1.0342  0.9162
 4808SOL    HW226058   2.369   4.170   8.662  0.0630  0.6675  1.6533
 4809SOL     OW26059   0.040   4.330   6.918  0.1930  1.0644 -0.4138
 4809SOL    HW126060   4.698   4.330   6.865  1.3486  0.7017 -2.1699
 4809SOL    HW226061   0.036   4.241   6.952  2.3667  1.5365  1.1225
 4810SOL     OW26062   1.246   0.389   9.755 -0.0220 -0.6499 -0.2418
 4810SOL    HW126063   1.190   0.460   9.786 -1.6241 -1.7365 -0.6306
 4810SOL    HW226064   1.305   0.379   9.830  0.3082  0.4696 -0.3486
 4811SOL     OW26065   3.579   0.821   2.106 -0.5910  0.1758  0.0928
 4811SOL    HW126066   3.565   0.806   2.199 -1.0539  1.2880  0.2100
 4811SOL    HW226067   3.500   0.787   2.063  0.8931  0.0577 -2.5768
 4812SOL     OW26068   3.972   3.678   2.203 -0.3231  0.2846  0.0885
 4812SOL    HW126069   3.964   3.770   2.180 -3.0153  0.2646  0.9071
 4812SOL    HW226070   3.977   3.676   2.299 -0.6781  3.3435  0.1526
 4813SOL     OW26071   1.774   2.408   2.273 -0.2468 -0.0183 -0.0123
 4813SOL    HW126072   1.777   2.330   2.217  0.6393  0.9499 -1.3059
 4813SOL    HW226073   1.683   2.432   2.254 -0.6950 -1.6843  0.0477
 4814SOL     OW26074   0.376   0.896   6.133 -0.0465 -0.0727 -0.2189
 4814SOL    HW126075   0.436   0.834   6.176 -0.1906 -0.1775 -0.1705
 4814SOL    HW226076   0.432   0.958   6.086  1.6657 -0.6093  1.0936
 4815SOL     OW26077   2.427   1.115   4.081 -0.1004  0.0655 -0.9464
 4815SOL    HW126078   2.418   1.100   3.987 -0.2399 -1.3015 -0.7016
 4815SOL    HW226079   2.514   1.081   4.104  0.7528  2.2199 -0.8698
 4816SOL     OW26080   1.889   1.683   4.188 -0.2412 -0.2494 -0.2459
 4816SOL    HW126081   1.935   1.737   4.123 -1.0462 -2.8783 -2.9669
 4816SOL    HW226082   1.803   1.679   4.146 -0.9989 -0.6934  1.3566
 4817SOL     OW26083   0.322   3.922   4.172  0.1186  0.1893  0.4195
 4817SOL    HW126084   0.235   3.955   4.152  0.9832  0.4999 -2.8323
 4817SOL    HW226085   0.321   3.882   4.260 -2.5283 -1.4999 -0.3799
 4818SOL     OW26086   2.305   3.022   4.951  0.6177 -0.1287  0.6213
 4818SOL    HW126087   2.292   3.063   5.037  0.5771  0.4320  0.3532
 4818SOL    HW226088   2.241   3.068   4.896 -0.4963 -1.8955  0.4413
 4819SOL     OW26089   2.476   3.503   1.542 -0.3861  0.0007  0.2527
 4819SOL    HW126090   2.513   3.414   1.542  0.4729  0.3583 -0.8054
 4819SOL    HW226091   2.460   3.520   1.449 -1.9997  0.5766  0.6381
 4820SOL     OW26092   0.183   4.106   7.574 -0.4022 -0.3807  0.1179
 4820SOL    HW126093   0.171   4.100   7.669  1.3997  0.7968  0.4087
 4820SOL    HW226094   0.131   4.031   7.543  0.3284 -0.1969 -1.5372
 4821SOL     OW26095   3.156   2.721   4.679 -0.5372 -0.2168 -0.2982
 4821SOL    HW126096   3.220   2.740   4.747 -1.2450 -2.3934  0.9580
 4821SOL    HW226097   3.078   2.699   4.729  0.4527  0.8800  1.7158
 4822SOL     OW26098   4.659   0.499  13.191  0.0962 -0.2126 -0.5102
 4822SOL    HW126099   4.576   0.468  13.226  0.1307 -0.3003 -0.5061
 4822SOL    HW226100   4.654   0.584  13.235  0.8154 -1.2198  1.5407
 4823SOL     OW26101   3.889   0.167   5.870  0.3707 -0.0582 -0.4211
 4823SOL    HW126102   3.891   0.258   5.897  2.0049 -0.9507  2.4495
 4823SOL    HW226103   3.975   0.145   5.905  0.6122 -0.6551 -1.4064
 4824SOL     OW26104   0.007   0.810   8.920 -0.1298 -0.2822  0.0728
 4824SOL    HW126105   4.676   0.873   8.897  0.1533  0.3505  0.9893
 4824SOL    HW226106   0.059   0.792   8.841 -0.6052  2.7591 -0.9451
 4825SOL     OW26107   4.319   0.328   5.090  0.3973  0.2347 -0.2607
 4825SOL    HW126108   4.398   0.307   5.039  0.8649  0.7620  0.2407
 4825SOL    HW226109   4.278   0.390   5.029 -1.3161  1.0673  1.7751
 4826SOL     OW26110   2.381   3.693   5.264 -0.2626  0.9753 -0.3703
 4826SOL    HW126111   2.346   3.698   5.175  0.1037  1.8541 -0.4648
 4826SOL    HW226112   2.434   3.614   5.267  1.4831  2.2023  1.4108
 4827SOL     OW26113   2.917   2.137   2.431  0.4144  0.6864  0.1228
 4827SOL    HW126114   2.916   2.185   2.513  0.0803  1.1807 -0.1759
 4827SOL    HW226115   2.945   2.052   2.467 -0.6361  0.3103  0.0433
 4828SOL     OW26116   0.894   1.584   2.280 -0.6812 -0.2389  0.1783
 4828SOL    HW126117   0.889   1.678   2.264 -1.6825 -0.4800 -0.9049
 4828SOL    HW226118   0.862   1.585   2.370  0.4157  0.7316  0.5596
 4829SOL     OW26119   2.071   2.295   8.737 -0.6916 -0.0948 -0.3681
 4829SOL    HW126120   2.136   2.325   8.801  0.5922 -2.0481 -0.7612
 4829SOL    HW226121   2.071   2.372   8.681 -1.4518  0.0029 -0.2366
 4830SOL     OW26122   0.832   4.665   2.515  0.0457  0.8985  0.3188
 4830SOL    HW126123   0.750   4.659   2.564  0.9810  0.3927  1.7963
 4830SOL    HW226124   0.890   4.706   2.579 -1.4619  1.7965  1.1068
 4831SOL     OW26125   2.841   0.262   9.057 -1.1943  0.0274 -0.2245
 4831SOL    HW126126   2.853   0.312   9.138 -3.1421 -1.6746  1.1130
 4831SOL    HW226127   2.765   0.311   9.027 -1.7368 -1.5883 -1.4934
 4832SOL     OW26128   2.338   1.742   3.519  0.0956 -0.8294 -0.2377
 4832SOL    HW126129   2.431   1.746   3.541 -0.1235 -1.0525  0.7253
 4832SOL    HW226130   2.312   1.657   3.553 -1.0725 -1.4005 -2.5452
 4833SOL     OW26131   0.471   3.708   4.176  0.3939 -0.8535 -0.9512
 4833SOL    HW126132   0.405   3.777   4.175 -0.3331 -1.5383 -0.3765
 4833SOL    HW226133   0.554   3.749   4.202  0.0990 -0.1803 -1.0871
 4834SOL     OW26134   4.649   2.589   2.723 -0.0937  0.5607  0.0716
 4834SOL    HW126135   4.655   2.629   2.810 -0.9065 -2.2962  1.4116
 4834SOL    HW226136   4.556   2.568   2.718  0.0554 -0.1217  0.1843
 4835SOL     OW26137   3.672   1.286  17.140  0.5582 -0.5556 -0.2567
 4835SOL    HW126138   3.608   1.217  17.162  1.4991 -1.2816  0.2088
 4835SOL    HW226139   3.747   1.233  17.113  0.3840 -0.8435 -0.1815
 4836SOL     OW26140   1.862   4.650   1.849  0.0909  0.0000 -0.3602
 4836SOL    HW126141   1.783   4.676   1.896 -1.2380  0.0356 -2.6098
 4836SOL    HW226142   1.854   4.697   1.766 -0.5672  3.1119  1.4773
 4837SOL     OW26143   4.347   0.227  12.802 -0.4129  0.2813 -0.4419
 4837SOL    HW126144   4.337   0.288  12.875  1.1833 -1.3848  1.1713
 4837SOL    HW226145   4.441   0.237  12.787 -0.4438 -3.3596 -3.1818
 4838SOL     OW26146   1.402   2.235   6.313  0.2135  0.1559  0.1409
 4838SOL    HW126147   1.432   2.246   6.403 -2.4617 -0.9409  1.1615
 4838SOL    HW226148   1.382   2.142   6.298  0.5533  0.1166 -0.0756
 4839SOL     OW26149   4.407   1.397   9.597  0.4331  0.1943  0.3254
 4839SOL    HW126150   4.329   1.350   9.565  2.2338 -0.8280 -2.5167
 4839SOL    HW226151   4.411   1.374   9.690  0.4113  1.4065  0.6244
 4840SOL     OW26152   2.592   2.119   9.720 -0.3660 -0.2612  0.5817
 4840SOL    HW126153   2.565   2.044   9.668  0.1256  0.8217 -1.2161
 4840SOL    HW226154   2.630   2.077   9.797 -1.5943 -0.1488  1.2441
 4841SOL     OW26155   2.620   3.811   1.960  0.6875  0.7674  0.0747
 4841SOL    HW126156   2.571   3.816   1.878 -0.0025 -1.3690  0.3669
 4841SOL    HW226157   2.584   3.881   2.015 -0.1882  1.3940 -1.3003
 4842SOL     OW26158   2.532   2.262   7.810 -0.0195  0.5765 -0.1780
 4842SOL    HW126159   2.603   2.199   7.828 -0.6454  0.2649  1.1572
 4842SOL    HW226160   2.537   2.323   7.883  0.7338 -0.3703  0.5788
 4843SOL     OW26161   1.298   1.305  15.704 -0.3070 -0.4582  0.1739
 4843SOL    HW126162   1.216   1.310  15.654 -0.1134 -0.6540 -0.1636
 4843SOL    HW226163   1.275   1.222  15.746 -2.5024  0.9701  1.8090
 4844SOL     OW26164   0.407   3.373   7.737 -0.0236 -0.1221  0.0536
 4844SOL    HW126165   0.340   3.334   7.680  0.8145 -3.1700  1.1536
 4844SOL    HW226166   0.491   3.361   7.693 -1.3794 -1.0192 -2.2885
 4845SOL     OW26167   4.150   1.525   6.807 -0.2043  0.0407 -0.2137
 4845SOL    HW126168   4.219   1.531   6.873  0.8366  0.8827 -1.3902
 4845SOL    HW226169   4.090   1.589   6.845 -0.5791 -0.0506 -0.6569
 4846SOL     OW26170   4.222   4.167   1.576 -0.3471 -0.0766  0.5314
 4846SOL    HW126171   4.258   4.247   1.616  2.4125 -0.2153 -1.6433
 4846SOL    HW226172   4.292   4.104   1.592  0.9794  1.1008 -0.5659
 4847SOL     OW26173   1.890   1.608   7.614  0.3711  0.6053 -0.4298
 4847SOL    HW126174   1.985   1.617   7.605  0.4689 -0.6375 -0.5629
 4847SOL    HW226175   1.867   1.697   7.641 -0.1517  0.0502  0.9696
 4848SOL     OW26176   0.109   4.684   2.727 -0.2765  0.3331 -0.2208
 4848SOL    HW126177   0.100   0.040   2.709 -0.0791  0.8271  2.2338
 4848SOL    HW226178   0.065   4.686   2.812  1.4332 -2.3017  0.7194
 4849SOL     OW26179   3.883   3.146   7.313  0.4095  0.1916  0.5691
 4849SOL    HW126180   3.818   3.080   7.336 -0.1286  1.1797  1.8695
 4849SOL    HW226181   3.954   3.085   7.294  1.1998  1.7283 -1.4072
 4850SOL     OW26182   3.842   3.476   4.275 -0.0384 -0.1019  0.0394
 4850SOL    HW126183   3.883   3.399   4.315 -1.6544 -0.3108  1.2958
 4850SOL    HW226184   3.910   3.543   4.287 -1.2557  0.9785  0.8800
 4851SOL     OW26185   2.101   2.448   6.542  0.0252 -0.2516 -0.4185
 4851SOL    HW126186   2.188   2.485   6.526 -0.2269  0.5316  0.0090
 4851SOL    HW226187   2.115   2.394   6.620 -2.0956 -1.0553 -0.6119
 4852SOL     OW26188   4.223   4.078  17.103 -0.3024  0.5458  0.0919
 4852SOL    HW126189   4.255   4.114  17.186 -0.7861  1.1773  0.0051
 4852SOL    HW226190   4.235   4.152  17.043  1.9844 -0.1992 -0.3917
 4853SOL     OW26191   2.693   3.685   7.488 -0.1325  0.0199 -0.1475
 4853SOL    HW126192   2.654   3.729   7.412  0.4227  1.3867  0.3677
 4853SOL    HW226193   2.647   3.736   7.555  2.2919  1.9182  0.0699
 4854SOL     OW26194   1.507   2.725  15.544 -0.1831 -0.2843  0.1663
 4854SOL    HW126195   1.506   2.636  15.579 -0.1347 -0.4019 -0.1360
 4854SOL    HW226196   1.558   2.770  15.612 -1.5138  0.9239  0.3715
 4855SOL     OW26197   1.667   1.607   9.067 -0.0054  0.2799  0.3327
 4855SOL    HW126198   1.758   1.578   9.055 -0.3351 -0.2883 -0.8068
 4855SOL    HW226199   1.619   1.525   9.057  0.6833 -0.1579  0.5816
 4856SOL     OW26200   4.268   2.555   7.592  0.4303 -0.4949 -0.7914
 4856SOL    HW126201   4.197   2.497   7.566 -0.2702  0.0016  0.0054
 4856SOL    HW226202   4.338   2.533   7.530  0.3690 -0.2509 -0.9493
 4857SOL     OW26203   2.089   2.658   8.211 -0.3049  0.0068 -0.0003
 4857SOL    HW126204   2.159   2.673   8.147 -1.8303 -0.9870 -1.9227
 4857SOL    HW226205   2.091   2.750   8.234 -0.1619  0.1094 -0.4182
 4858SOL     OW26206   4.128   1.820   4.736 -0.0086 -0.0471  0.1733
 4858SOL    HW126207   4.152   1.775   4.817  2.4736 -0.8314 -1.0009
 4858SOL    HW226208   4.040   1.783   4.725 -0.4480  1.0388 -0.0361
 4859SOL     OW26209   0.096   3.189   3.193  0.2164 -0.4662  0.2676
 4859SOL    HW126210   0.043   3.113   3.168  0.7228 -0.4748 -0.7828
 4859SOL    HW226211   0.124   3.171   3.283 -0.7713 -0.4070  0.5863
 4860SOL     OW26212   4.220   2.793   9.490  0.1009 -0.3476  0.0554
 4860SOL    HW126213   4.254   2.752   9.570  0.0742  0.0864  0.2846
 4860SOL    HW226214   4.243   2.884   9.505  0.3586 -0.0466 -2.1499
 4861SOL     OW26215   1.853   1.940   7.502 -0.1529  0.0603  0.0122
 4861SOL    HW126216   1.797   1.895   7.439  3.2297 -4.0801 -0.0461
 4861SOL    HW226217   1.811   1.920   7.585 -1.5532  1.8238 -0.2798
 4862SOL     OW26218   0.951   1.046   3.977 -0.3153  0.4753 -0.2108
 4862SOL    HW126219   0.877   0.986   3.988 -0.1835  0.0077 -1.8722
 4862SOL    HW226220   1.022   0.983   3.963  2.4339  3.7083 -0.7953
 4863SOL     OW26221   0.320   3.053  10.383 -0.3984 -0.4517  0.3628
 4863SOL    HW126222   0.229   3.044  10.413 -0.0542 -0.5142  1.3819
 4863SOL    HW226223   0.354   3.127  10.434 -0.0078 -1.4550  1.5528
 4864SOL     OW26224   4.303   0.746   1.868  0.1152  0.1107 -0.4767
 4864SOL    HW126225   4.330   0.654   1.874  0.7506  0.4010  1.0055
 4864SOL    HW226226   4.382   0.787   1.901  1.0899 -1.8652 -0.3440
 4865SOL     OW26227   1.733   4.737   6.602 -0.8165  0.6247 -0.1125
 4865SOL    HW126228   1.677   4.659   6.596 -0.5132  0.3597  0.5678
 4865SOL    HW226229   1.736   0.030   6.511 -0.3053  1.4366  0.1764
 4866SOL     OW26230   3.553   0.878   3.375  0.1386  0.2814 -0.0104
 4866SOL    HW126231   3.609   0.911   3.305  1.6121 -0.8764  0.6248
 4866SOL    HW226232   3.568   0.939   3.446 -1.6589  1.1418 -0.3839
 4867SOL     OW26233   4.528   0.948   3.992 -0.1001  0.2774 -0.1249
 4867SOL    HW126234   4.507   0.935   4.084  1.4896  3.2846  0.6379
 4867SOL    HW226235   4.456   0.899   3.951 -1.0878 -1.5171  3.7640
 4868SOL     OW26236   3.117   4.546   7.308 -0.1705  0.0399  0.2408
 4868SOL    HW126237   3.076   4.485   7.247  4.0208 -2.2306 -0.2908
 4868SOL    HW226238   3.040   4.556   7.364 -1.0672 -0.2723 -0.9369
 4869SOL     OW26239   0.283   1.853   7.090 -0.1781  0.2182  0.2082
 4869SOL    HW126240   0.246   1.843   7.002  1.4034 -0.3774 -0.3853
 4869SOL    HW226241   0.296   1.947   7.097 -0.6000  0.3649 -0.9582
 4870SOL     OW26242   3.308   0.487   6.512  0.3661  0.0221 -0.2785
 4870SOL    HW126243   3.289   0.566   6.562  1.6511  0.4947 -0.5350
 4870SOL    HW226244   3.234   0.429   6.529 -1.4446  2.4761  0.0145
 4871SOL     OW26245   4.057   4.496   9.415 -0.5826 -0.1724 -0.5862
 4871SOL    HW126246   4.013   4.503   9.500 -1.3959  1.2114 -1.1237
 4871SOL    HW226247   4.022   4.411   9.388 -0.5015 -1.0319  2.0003
 4872SOL     OW26248   3.617   2.198   4.268 -0.9569 -0.4919 -0.7271
 4872SOL    HW126249   3.654   2.232   4.187  2.6707 -1.7718  0.3426
 4872SOL    HW226250   3.527   2.220   4.249 -1.6948 -1.9163  1.0421
 4873SOL     OW26251   4.710   1.142   9.225  0.3220 -0.1137 -0.3516
 4873SOL    HW126252   0.063   1.147   9.256 -1.0129 -0.9442  3.6278
 4873SOL    HW226253   4.707   1.046   9.222 -0.5210 -0.1609  1.8911
 4874SOL     OW26254   0.703   4.712   4.956 -0.3921  0.2649  0.4409
 4874SOL    HW126255   0.715   4.678   4.868 -1.1478 -2.5938  1.4372
 4874SOL    HW226256   0.781   4.679   5.002 -1.1697 -0.2727  1.3659
 4875SOL     OW26257   2.392   4.483   5.237  0.3854 -0.3955  0.1033
 4875SOL    HW126258   2.487   4.481   5.250  0.5511 -0.3901 -1.1229
 4875SOL    HW226259   2.360   4.499   5.326  0.3001 -2.9992  0.5309
 4876SOL     OW26260   3.836   0.046  16.323  0.2437 -0.1694 -0.3573
 4876SOL    HW126261   3.867   4.728  16.395 -0.3439 -2.5455 -1.9205
 4876SOL    HW226262   3.855   4.722  16.251  1.7672 -2.3287  1.8675
 4877SOL     OW26263   2.339   2.484   2.001  0.3266 -0.5621  0.5584
 4877SOL    HW126264   2.398   2.474   1.927 -1.9197 -0.5154 -1.2419
 4877SOL    HW226265   2.261   2.495   1.946 -0.0556 -1.2168  0.9610
 4878SOL     OW26266   0.585   2.181   5.101  0.6987 -0.3389 -0.2937
 4878SOL    HW126267   0.629   2.266   5.107  1.2469 -0.5703 -1.0459
 4878SOL    HW226268   0.616   2.150   5.187  2.7445 -1.7433 -1.5363
 4879SOL     OW26269   1.691   4.058   6.901 -0.2615 -0.0563  0.4250
 4879SOL    HW126270   1.661   4.143   6.934 -2.8910 -0.3671 -1.1324
 4879SOL    HW226271   1.627   4.006   6.950  1.8403 -0.4681  2.7207
 4880SOL     OW26272   4.568   0.046   2.106 -0.7016  0.1681  0.6183
 4880SOL    HW126273   4.645   0.038   2.050 -0.5385 -2.1913  1.1941
 4880SOL    HW226274   4.495   0.056   2.045 -2.5749 -0.9978  2.6460
 4881SOL     OW26275   1.815   2.352   6.219 -0.1947 -0.4862  0.4518
 4881SOL    HW126276   1.845   2.439   6.243 -0.0694 -1.2048  2.8485
 4881SOL    HW226277   1.852   2.295   6.286  1.3044 -0.9816 -0.7804
 4882SOL     OW26278   2.626   0.356   4.939 -0.0360 -0.4235 -0.2179
 4882SOL    HW126279   2.593   0.380   5.026  2.0608  1.6357  0.0295
 4882SOL    HW226280   2.548   0.307   4.914 -1.2765  0.1726  2.4675
 4883SOL     OW26281   0.678   2.702   3.807  0.1285 -0.3038  0.4670
 4883SOL    HW126282   0.717   2.782   3.842  0.1876 -0.8724  1.7032
 4883SOL    HW226283   0.613   2.736   3.746  0.1811 -1.1856 -0.0716
 4884SOL     OW26284   3.392   1.051   1.804 -0.1033 -0.2006 -0.0978
 4884SOL    HW126285   3.462   0.997   1.768 -0.3955 -0.6757  0.0482
 4884SOL    HW226286   3.379   1.004   1.886  0.1044 -1.1426 -0.6054
 4885SOL     OW26287   4.400   0.151   8.981 -0.4859  0.2936 -0.4810
 4885SOL    HW126288   4.477   0.125   9.031 -1.2419 -1.3203 -0.1742
 4885SOL    HW226289   4.438   0.197   8.906  0.0528  3.3706  1.6765
 4886SOL     OW26290   3.371   3.435   6.746  0.1421  0.5362  0.6835
 4886SOL    HW126291   3.309   3.398   6.809  0.4976 -0.0085  0.7152
 4886SOL    HW226292   3.449   3.430   6.801  0.3736 -0.6021  0.2551
 4887SOL     OW26293   2.172   0.606   6.422 -0.3024  0.1293 -0.2669
 4887SOL    HW126294   2.230   0.531   6.416 -0.0600  0.4055 -1.3430
 4887SOL    HW226295   2.082   0.573   6.432 -1.2059  1.5993 -3.6962
 4888SOL     OW26296   4.508   1.883   7.028  0.4451  0.0695  0.7136
 4888SOL    HW126297   4.442   1.907   7.092  1.5393  0.7899  1.5620
 4888SOL    HW226298   4.494   1.789   7.013 -0.4957  0.3430 -0.1147
 4889SOL     OW26299   1.155   1.296   8.694 -0.2101  0.3675  0.4611
 4889SOL    HW126300   1.076   1.243   8.699  0.2168  0.0316  3.3170
 4889SOL    HW226301   1.179   1.292   8.786 -1.8550 -1.2535  0.8208
 4890SOL     OW26302   1.207   4.524   6.814 -0.4294  0.0397 -0.4760
 4890SOL    HW126303   1.174   4.597   6.867  0.7818 -0.9990  1.7356
 4890SOL    HW226304   1.211   4.443   6.866 -1.8959 -0.3292 -0.9286
 4891SOL     OW26305   1.750   1.032   5.895 -0.3604  0.2682  0.1304
 4891SOL    HW126306   1.665   1.025   5.852 -0.1564 -1.1469 -0.0150
 4891SOL    HW226307   1.745   1.122   5.930 -0.1331  0.5148 -0.4680
 4892SOL     OW26308   0.704   1.277   2.434 -0.0362  0.0161 -0.3256
 4892SOL    HW126309   0.690   1.370   2.449  0.4830  0.1539 -0.7265
 4892SOL    HW226310   0.694   1.284   2.339 -1.2009  0.2082 -0.1838
 4893SOL     OW26311   1.506   0.639   8.178 -0.3630  0.2908  0.5982
 4893SOL    HW126312   1.456   0.704   8.128 -1.0242  0.0330  0.9176
 4893SOL    HW226313   1.438   0.635   8.246  2.0041 -0.1831  2.9676
 4894SOL     OW26314   0.316   2.439   7.536 -0.0441 -0.0706 -0.5815
 4894SOL    HW126315   0.271   2.504   7.589  0.2721 -1.1596  1.0042
 4894SOL    HW226316   0.373   2.387   7.592 -3.6012 -1.6128  1.5535
 4895SOL     OW26317   4.714   0.296   0.839  0.0800 -0.4996  0.1351
 4895SOL    HW126318   4.621   0.304   0.860 -0.6419  0.1055 -3.4082
 4895SOL    HW226319   0.010   0.383   0.862  0.3152 -1.4219  3.2930
 4896SOL     OW26320   2.499   4.568   8.460 -0.1411  0.2146 -0.1886
 4896SOL    HW126321   2.587   4.569   8.498 -0.2721  1.1362  0.0951
 4896SOL    HW226322   2.463   4.639   8.513 -1.6273 -0.6018 -0.1296
 4897SOL     OW26323   0.093   1.939   5.149 -0.5640 -0.3457  0.6834
 4897SOL    HW126324   0.121   1.978   5.067 -0.2386 -1.8994  0.0523
 4897SOL    HW226325   0.020   1.997   5.171 -0.7192 -0.3000  0.0317
 4898SOL     OW26326   0.577   1.183   5.377 -0.0985 -0.3686 -0.3329
 4898SOL    HW126327   0.546   1.115   5.317 -2.6631  0.9665 -0.5072
 4898SOL    HW226328   0.513   1.254   5.372  1.0956  0.7442  0.1056
 4899SOL     OW26329   3.962   0.363   0.467  0.3134  0.4710 -0.1752
 4899SOL    HW126330   3.900   0.297   0.498 -0.8440  0.5048 -2.3704
 4899SOL    HW226331   4.042   0.333   0.510  0.0368 -0.6500 -0.4578
 4900SOL     OW26332   0.194   0.766   8.073  0.1777  0.2171  0.2736
 4900SOL    HW126333   0.114   0.760   8.126  0.3868 -3.2951  0.1528
 4900SOL    HW226334   0.192   0.683   8.025 -1.4318  0.0503  0.6281
 4901SOL     OW26335   3.150   1.594   4.887 -0.2450 -0.3706  0.9170
 4901SOL    HW126336   3.222   1.558   4.836 -1.7019 -1.3450 -0.4837
 4901SOL    HW226337   3.168   1.686   4.869 -0.2306 -0.6377 -0.4044
 4902SOL     OW26338   1.348   3.664   0.722  0.7676  0.3009  0.6170
 4902SOL    HW126339   1.412   3.647   0.653 -0.8731 -0.7222 -0.6445
 4902SOL    HW226340   1.325   3.757   0.722 -0.6168 -0.0312  1.2369
 4903SOL     OW26341   2.914   2.114   8.515 -0.2097  0.1159  0.4465
 4903SOL    HW126342   2.977   2.124   8.444  0.6775  0.5723  1.2823
 4903SOL    HW226343   2.973   2.089   8.587 -0.2807 -0.6846  0.2285
 4904SOL     OW26344   2.211   3.348   8.641  0.0402  0.1265  0.2196
 4904SOL    HW126345   2.286   3.304   8.602 -1.1610 -0.2445 -1.6712
 4904SOL    HW226346   2.246   3.366   8.728 -0.9104 -1.1080  0.8612
 4905SOL     OW26347   2.378   3.175   6.552  0.2782  0.3426 -0.5062
 4905SOL    HW126348   2.410   3.084   6.550  0.6493  0.4691 -0.4589
 4905SOL    HW226349   2.447   3.231   6.589  0.3285  0.5586 -0.9330
 4906SOL     OW26350   4.116   4.415   7.192  0.7265  0.4024  0.1553
 4906SOL    HW126351   4.062   4.476   7.142 -2.4545 -2.2766  0.3062
 4906SOL    HW226352   4.173   4.375   7.126 -0.8294  0.1575 -1.0563
 4907SOL     OW26353   2.509   4.006   2.143 -0.6274 -0.1788  0.5736
 4907SOL    HW126354   2.446   4.072   2.114  0.3129  0.7639  0.7029
 4907SOL    HW226355   2.571   4.055   2.197  1.6746 -0.9210 -1.3651
 4908SOL     OW26356   2.778   1.923   3.637  0.0185  0.2949 -0.4427
 4908SOL    HW126357   2.872   1.916   3.621 -0.3361 -0.9382 -1.9757
 4908SOL    HW226358   2.782   1.883   3.724  2.7630  1.2657 -0.1174
 4909SOL     OW26359   4.127   3.480   2.601 -0.6307 -0.2623 -0.4844
 4909SOL    HW126360   4.173   3.434   2.530 -0.1423 -1.7416  0.7951
 4909SOL    HW226361   4.194   3.549   2.606 -0.3942 -0.5926  1.0684
 4910SOL     OW26362   3.209   2.735   8.462  0.5465 -0.1509  0.1313
 4910SOL    HW126363   3.167   2.671   8.520  0.6592 -1.2928 -1.0360
 4910SOL    HW226364   3.166   2.818   8.481  0.3349 -0.0839 -0.6297
 4911SOL     OW26365   2.038   3.920   9.547 -0.3004  0.0040 -0.2808
 4911SOL    HW126366   2.072   4.009   9.540  0.4661 -0.1527  1.5736
 4911SOL    HW226367   2.047   3.899   9.640  1.0553 -0.4741 -0.5139
 4912SOL     OW26368   3.121   2.812  16.259 -0.1029 -0.1131 -0.2107
 4912SOL    HW126369   3.148   2.900  16.233 -0.0731  0.6394  2.3292
 4912SOL    HW226370   3.118   2.768  16.174 -0.3896  1.2827 -0.9224
 4913SOL     OW26371   4.632   1.969  16.035 -0.5834 -0.4377  0.0116
 4913SOL    HW126372   4.674   1.914  16.101 -0.4961 -1.6933 -1.0881
 4913SOL    HW226373   4.709   2.019  16.010 -0.9466  0.2588  0.2610
 4914SOL     OW26374   4.715   0.985  17.422  0.2227 -0.2314 -0.4446
 4914SOL    HW126375   0.023   0.931  17.358  0.0961  0.9527 -1.5305
 4914SOL    HW226376   0.035   1.061  17.434 -2.2569  1.6291 -0.3554
 4915SOL     OW26377   4.691   1.082   4.614  0.2566 -0.2727  0.4672
 4915SOL    HW126378   4.719   1.058   4.702 -0.8069 -1.6286  0.4409
 4915SOL    HW226379   4.627   1.151   4.628 -0.3655 -1.1107  1.6687
 4916SOL     OW26380   0.311   1.053  13.626 -0.4755 -0.3539 -0.0833
 4916SOL    HW126381   0.340   1.142  13.610  0.3401 -0.6095 -0.0199
 4916SOL    HW226382   0.296   1.055  13.721 -0.6820  1.7437 -0.1564
 4917SOL     OW26383   1.488   1.886   2.783  0.4920 -0.3846 -0.4111
 4917SOL    HW126384   1.424   1.905   2.714  0.7339 -0.4404 -0.6515
 4917SOL    HW226385   1.456   1.938   2.857  1.3946  0.1795 -0.4129
 4918SOL     OW26386   4.479   0.800   0.886  0.5164 -0.5843  0.5670
 4918SOL    HW126387   4.529   0.854   0.946 -0.0438 -1.0502  1.4487
 4918SOL    HW226388   4.477   0.861   0.812 -0.4136 -1.7147 -0.3527
 4919SOL     OW26389   3.835   3.718   6.537 -0.4024 -0.1328 -0.1976
 4919SOL    HW126390   3.925   3.686   6.528  0.2225  0.5872  3.6739
 4919SOL    HW226391   3.845   3.812   6.554  0.1605  0.1824 -2.1657
 4920SOL     OW26392   2.907   1.128   4.048 -0.0653  0.6097 -0.2227
 4920SOL    HW126393   2.994   1.088   4.054 -0.6423 -0.6683 -0.4757
 4920SOL    HW226394   2.900   1.147   4.141 -0.6198 -0.3275 -0.0846
 4921SOL     OW26395   4.226   0.240   9.982 -0.0075  0.6246 -0.0893
 4921SOL    HW126396   4.274   0.323   9.982  1.9594 -0.4992  1.0109
 4921SOL    HW226397   4.295   0.179   9.957 -1.9931 -0.6013 -2.5061
 4922SOL     OW26398   0.071   0.343   8.605 -0.1282 -0.2660 -0.1942
 4922SOL    HW126399   0.032   0.265   8.567  0.7807 -0.9199  0.2083
 4922SOL    HW226400   0.079   0.308   8.694  2.8746 -1.5889 -0.9650
 4923SOL     OW26401   1.186   4.496   5.080 -0.0452 -0.2593  0.3799
 4923SOL    HW126402   1.228   4.412   5.060 -0.5092 -0.1884 -0.8645
 4923SOL    HW226403   1.251   4.522   5.145  2.4059  0.1965 -2.2222
 4924SOL     OW26404   4.022   1.195   7.395 -0.1397  0.3286 -0.2007
 4924SOL    HW126405   3.999   1.269   7.451  1.0936  0.0680  0.6504
 4924SOL    HW226406   4.117   1.197   7.404 -0.1517 -1.7078  0.2974
 4925SOL     OW26407   4.652   1.881   2.095 -0.2158 -0.4862 -0.3893
 4925SOL    HW126408   4.634   1.962   2.046  0.7570 -0.0640 -0.0333
 4925SOL    HW226409   4.565   1.871   2.134  0.0925 -0.1665  0.3778
 4926SOL     OW26410   4.183   4.464   5.457  0.3025  0.0788  0.5788
 4926SOL    HW126411   4.115   4.443   5.393  0.7735 -0.8327  0.3877
 4926SOL    HW226412   4.233   4.527   5.406  1.2512  1.4835  3.2209
 4927SOL     OW26413   3.148   1.652   7.958 -0.2031  0.1394 -0.4510
 4927SOL    HW126414   3.080   1.681   8.020  0.7931 -1.1416  1.2433
 4927SOL    HW226415   3.106   1.667   7.873  0.7092  2.8132 -0.4209
 4928SOL     OW26416   3.744   0.366  10.855 -0.4996 -0.0462  0.2202
 4928SOL    HW126417   3.801   0.407  10.789 -0.0147 -0.0448  0.6375
 4928SOL    HW226418   3.812   0.323  10.908 -1.3388 -0.2367  1.1409
 4929SOL     OW26419   2.800   0.119   1.121 -0.4445  0.3253 -0.2671
 4929SOL    HW126420   2.810   0.202   1.075  0.4502 -0.0956 -0.8399
 4929SOL    HW226421   2.835   0.138   1.208  3.4800 -0.6407 -1.6026
 4930SOL     OW26422   0.118   1.527  16.885 -0.7116  0.5215  0.2232
 4930SOL    HW126423   0.108   1.537  16.790  1.0847 -0.2245 -0.0418
 4930SOL    HW226424   0.176   1.601  16.904 -1.1163  0.7819  0.4433
 4931SOL     OW26425   0.120   3.363   1.536  0.0305  0.0405  0.4917
 4931SOL    HW126426   0.166   3.387   1.456 -0.6260  0.6555  0.3014
 4931SOL    HW226427   0.131   3.439   1.592  0.0042  0.9654 -0.7603
 4932SOL     OW26428   2.469   2.867   6.525  0.2053 -0.0344  0.0581
 4932SOL    HW126429   2.511   2.908   6.449 -1.8862 -0.7685 -1.5016
 4932SOL    HW226430   2.523   2.788   6.536 -1.5978 -1.3270 -0.2892
 4933SOL     OW26431   1.521   2.463  15.645 -0.4419 -0.4786  0.1732
 4933SOL    HW126432   1.599   2.415  15.619 -2.3563 -1.8419 -3.0520
 4933SOL    HW226433   1.497   2.444  15.736  1.1770 -2.1039  0.2581
 4934SOL     OW26434   3.398   2.573   1.732  0.7471 -0.5632 -0.3191
 4934SOL    HW126435   3.385   2.530   1.816  1.2549 -1.2263 -0.5801
 4934SOL    HW226436   3.369   2.497   1.681 -1.7941 -0.9000  1.6262
 4935SOL     OW26437   4.569   4.443   7.312  0.1418  0.3639  0.5220
 4935SOL    HW126438   4.560   4.483   7.399  0.0204 -2.6893  1.9185
 4935SOL    HW226439   4.492   4.482   7.271  1.1939  2.3923  0.5220
 4936SOL     OW26440   0.405   2.935   6.707  0.0961  0.6604  0.2400
 4936SOL    HW126441   0.411   2.915   6.800  2.8271  1.0299  0.1609
 4936SOL    HW226442   0.478   2.996   6.692 -0.7885  0.9652 -2.8789
 4937SOL     OW26443   2.057   2.741   4.367  0.3720 -0.6644 -0.3848
 4937SOL    HW126444   2.153   2.741   4.363  0.3612  0.1715 -0.6548
 4937SOL    HW226445   2.040   2.742   4.461 -1.9962  0.2896 -0.8271
 4938SOL     OW26446   4.332   4.487   4.124 -0.0331  0.2091 -0.1708
 4938SOL    HW126447   4.265   4.546   4.157  0.3322 -0.7606  2.2781
 4938SOL    HW226448   4.379   4.462   4.204  0.2519 -3.1275 -1.3703
 4939SOL     OW26449   3.745   4.635   3.932  0.1036  0.5394  0.4557
 4939SOL    HW126450   3.691   4.624   4.010 -0.2203 -1.9389 -0.1006
 4939SOL    HW226451   3.827   4.665   3.972  0.5910  1.7232 -1.4176
 4940SOL     OW26452   1.238   0.041   3.925  0.1246  0.3985 -0.2221
 4940SOL    HW126453   1.143   0.048   3.931  0.2057  1.1363  0.2096
 4940SOL    HW226454   1.248   4.686   3.906 -0.8131  0.5985 -1.7261
 4941SOL     OW26455   0.991   1.830   5.985 -0.1665 -0.3348  0.5858
 4941SOL    HW126456   1.038   1.867   6.059  0.9183  0.8017 -0.6750
 4941SOL    HW226457   0.913   1.885   5.974 -0.8699 -1.2066  1.1466
 4942SOL     OW26458   3.760   0.198   5.466  0.4346 -0.1210  0.2437
 4942SOL    HW126459   3.806   0.131   5.516 -0.8228 -0.9112  0.3552
 4942SOL    HW226460   3.830   0.226   5.408 -0.6714 -1.6047 -1.8165
 4943SOL     OW26461   4.594   0.372  16.786 -0.3586  0.1305 -0.2277
 4943SOL    HW126462   4.649   0.406  16.856  0.3848  0.7416 -1.1226
 4943SOL    HW226463   4.517   0.429  16.781 -1.9063 -1.8577  0.8547
 4944SOL     OW26464   1.440   2.313   6.941  0.7221 -0.0222 -0.5057
 4944SOL    HW126465   1.361   2.316   6.887 -0.3986 -0.4508  1.0954
 4944SOL    HW226466   1.498   2.272   6.878  1.6760 -0.8701  0.9208
 4945SOL     OW26467   1.760   2.518   7.629  0.3285  0.3024  0.1136
 4945SOL    HW126468   1.822   2.515   7.557 -0.6338 -0.0534 -0.7108
 4945SOL    HW226469   1.815   2.546   7.702  0.1016 -0.2176  0.4886
 4946SOL     OW26470   0.581   1.932  12.999 -0.5790  0.7207  0.4199
 4946SOL    HW126471   0.669   1.961  12.972  0.6523 -1.7397  1.8556
 4946SOL    HW226472   0.547   2.000  13.058 -0.5575  0.5500  0.6265
 4947SOL     OW26473   0.384   4.362   7.373  0.5368 -0.4603 -0.0226
 4947SOL    HW126474   0.426   4.285   7.334  3.0381  0.6149  0.5125
 4947SOL    HW226475   0.366   4.415   7.296  0.3797  0.0613  0.3705
 4948SOL     OW26476   3.842   0.981   8.168  0.1239 -0.1821 -0.0365
 4948SOL    HW126477   3.784   0.906   8.150  0.7155 -0.8907  1.0579
 4948SOL    HW226478   3.832   1.001   8.261 -2.7409 -0.6648 -0.2350
 4949SOL     OW26479   2.558   4.620   2.544 -0.1371 -0.4215 -0.1274
 4949SOL    HW126480   2.586   4.542   2.591  1.5486 -0.6169 -1.4154
 4949SOL    HW226481   2.542   4.584   2.456 -0.1712 -0.4072 -0.1266
 4950SOL     OW26482   4.665   3.829   3.665 -0.3207  0.4392 -0.2939
 4950SOL    HW126483   4.623   3.859   3.584 -0.1006  0.7925 -0.2795
 4950SOL    HW226484   4.672   3.913   3.711 -0.8176 -0.3205  1.1723
 4951SOL     OW26485   3.312   1.571  15.202 -0.1743 -0.0582  0.2033
 4951SOL    HW126486   3.265   1.540  15.280 -1.1730 -0.3667 -0.5231
 4951SOL    HW226487   3.398   1.536  15.226 -0.3155  0.5139  1.5225
 4952SOL     OW26488   0.433   0.019   4.646 -0.4735 -0.1363  0.4048
 4952SOL    HW126489   0.437   0.014   4.551  0.4512 -0.9121  0.4861
 4952SOL    HW226490   0.407   4.670   4.679 -1.7082  0.5001  1.0860
 4953SOL     OW26491   0.907   0.003   7.697 -0.0742 -0.0545  0.6478
 4953SOL    HW126492   0.897   4.706   7.608 -0.4440 -0.7072  0.9402
 4953SOL    HW226493   0.989   0.048   7.678 -0.8523  1.7383  1.5742
 4954SOL     OW26494   3.492   2.283   7.363  0.0972 -0.1539  0.0741
 4954SOL    HW126495   3.460   2.200   7.329 -0.1624 -0.8281  1.9685
 4954SOL    HW226496   3.549   2.261   7.436 -0.1217  1.1798  0.6559
 4955SOL     OW26497   2.760   0.223   5.341  0.0461  0.0078  0.0158
 4955SOL    HW126498   2.832   0.286   5.346 -1.0060  0.9896  3.3355
 4955SOL    HW226499   2.688   0.281   5.315  1.3069  1.6427  0.1562
 4956SOL     OW26500   3.201   0.544   7.266 -0.0308  0.0794  0.5638
 4956SOL    HW126501   3.227   0.510   7.351  1.2602  0.4013  0.2928
 4956SOL    HW226502   3.270   0.602   7.234 -0.4680  1.2195  1.6845
 4957SOL     OW26503   4.143   0.282   1.274  0.0438  0.7056 -0.0249
 4957SOL    HW126504   4.048   0.274   1.279  0.2982 -1.2505  1.7944
 4957SOL    HW226505   4.161   0.357   1.331 -1.4796  1.1253 -0.0996
 4958SOL     OW26506   0.081   0.749   2.109 -0.0574  0.1891 -0.0541
 4958SOL    HW126507   0.039   0.704   2.182  2.1682 -0.8559  0.5798
 4958SOL    HW226508   0.115   0.680   2.051 -3.1404 -1.6008  0.2132
 4959SOL     OW26509   0.644   3.494  12.778  0.4069 -0.1377 -0.0024
 4959SOL    HW126510   0.564   3.443  12.786  0.6955 -0.7415 -0.9799
 4959SOL    HW226511   0.710   3.434  12.813 -0.0333  0.2068  1.4522
 4960SOL     OW26512   2.157   1.506   4.579 -0.4058  0.3588 -0.2702
 4960SOL    HW126513   2.141   1.530   4.487  0.2086  0.9106 -0.2364
 4960SOL    HW226514   2.245   1.468   4.571 -0.4203  0.2655  0.0397
 4961SOL     OW26515   1.733   3.165   1.552  0.3317 -0.0084  0.5648
 4961SOL    HW126516   1.818   3.208   1.566  0.0854  0.6835 -0.1195
 4961SOL    HW226517   1.751   3.132   1.464 -0.7679 -0.1403  0.3993
 4962SOL     OW26518   3.566   1.663   3.054 -0.6359  0.3156  0.3015
 4962SOL    HW126519   3.512   1.584   3.059  0.9647 -0.9460 -1.9536
 4962SOL    HW226520   3.652   1.627   3.032 -0.9021  0.7539 -1.4430
 4963SOL     OW26521   3.779   4.075   5.065  0.0252 -0.2394  0.5499
 4963SOL    HW126522   3.794   4.128   5.143  1.0696 -2.4313  1.8243
 4963SOL    HW226523   3.830   4.130   5.005 -2.2710  1.2092 -0.0755
 4964SOL     OW26524   0.715   1.732   7.309  0.2923 -0.2026 -0.0494
 4964SOL    HW126525   0.748   1.731   7.219  1.2712  0.5411  0.3079
 4964SOL    HW226526   0.734   1.824   7.324  0.7317 -0.4376  0.8032
 4965SOL     OW26527   4.653   2.927   9.796 -0.2999  0.4536 -0.1633
 4965SOL    HW126528   4.709   2.946   9.871 -1.5223  0.8007  0.6515
 4965SOL    HW226529   4.678   3.003   9.743  0.5891  0.2389 -0.0536
 4966SOL     OW26530   2.833   1.636   1.541 -0.2215  0.1572  0.1928
 4966SOL    HW126531   2.866   1.689   1.614 -2.7689 -0.0917  1.5283
 4966SOL    HW226532   2.846   1.700   1.472 -0.0938  0.0419  0.1101
 4967SOL     OW26533   3.155   4.320   1.566  0.5500 -0.0804 -0.4458
 4967SOL    HW126534   3.063   4.314   1.592  0.5265  0.8976 -0.2902
 4967SOL    HW226535   3.173   4.408   1.600  0.6360  0.4372 -1.8349
 4968SOL     OW26536   3.496   1.280   4.584 -0.4357 -0.0460 -0.1103
 4968SOL    HW126537   3.491   1.306   4.492  0.7202 -0.2033 -0.2158
 4968SOL    HW226538   3.525   1.188   4.587 -1.1015 -0.2755 -0.8579
 4969SOL     OW26539   2.768   0.430  13.970  0.2860 -0.0555 -0.1854
 4969SOL    HW126540   2.859   0.462  13.967  0.9024 -1.6564  1.7323
 4969SOL    HW226541   2.744   0.449  14.060 -1.5426 -2.8706 -0.1105
 4970SOL     OW26542   1.718   3.582   6.309  0.1787 -0.5854  0.3400
 4970SOL    HW126543   1.631   3.544   6.325 -0.3040 -0.0376 -0.9885
 4970SOL    HW226544   1.750   3.531   6.236  0.7323 -0.2052  0.3156
 4971SOL     OW26545   0.509   0.854   4.042 -0.1066  0.5701 -0.3183
 4971SOL    HW126546   0.597   0.830   4.013  0.7441  1.5348  1.4756
 4971SOL    HW226547   0.506   0.840   4.137  2.3617 -0.6219 -0.4226
 4972SOL     OW26548   1.994   4.506   0.398 -0.4032 -0.2547  0.0927
 4972SOL    HW126549   1.927   4.438   0.403  1.8207 -2.4690  0.3795
 4972SOL    HW226550   2.063   4.458   0.351  0.8603  0.6623  1.0268
 4973SOL     OW26551   1.285   2.450   2.011  0.5039  0.4380 -0.4572
 4973SOL    HW126552   1.327   2.471   1.927 -0.0319 -0.6095 -0.9880
 4973SOL    HW226553   1.362   2.446   2.067  0.7232 -0.4872 -0.8152
 4974SOL     OW26554   1.087   2.198   7.053  0.6876  0.0887  0.8740
 4974SOL    HW126555   1.161   2.205   7.113  0.3254  1.9578  1.1055
 4974SOL    HW226556   1.008   2.201   7.105  0.6416 -2.0005  0.9207
 4975SOL     OW26557   3.884   2.968   2.423  0.1790  0.6601 -0.3316
 4975SOL    HW126558   3.978   2.976   2.436  0.7993 -2.5665 -2.6148
 4975SOL    HW226559   3.882   2.977   2.328  1.0450 -0.5491 -0.4695
 4976SOL     OW26560   2.860   2.083   5.491 -0.0970 -0.1686 -0.1824
 4976SOL    HW126561   2.845   2.036   5.408 -0.8185 -0.2900  0.0177
 4976SOL    HW226562   2.923   2.017   5.522  0.4754 -0.6964 -2.4550
 4977SOL     OW26563   3.084   2.613  12.775 -0.2684  0.2318 -0.3256
 4977SOL    HW126564   3.035   2.649  12.701  0.2904 -0.7018 -1.1481
 4977SOL    HW226565   3.020   2.550  12.809 -1.1435  0.3286 -1.8202
 4978SOL     OW26566   0.375   4.185   0.937  0.1833  0.9367 -0.0800
 4978SOL    HW126567   0.335   4.128   1.002 -0.1222  0.0635 -1.0441
 4978SOL    HW226568   0.377   4.144   0.850  0.6472  2.1385 -0.6513
 4979SOL     OW26569   0.886   1.786   8.148 -0.3246  0.6268 -0.0335
 4979SOL    HW126570   0.848   1.858   8.199 -0.4435 -0.6244  1.6494
 4979SOL    HW226571   0.971   1.785   8.192 -1.0704  0.2118  1.3986
 4980SOL     OW26572   3.686   3.364  14.630 -0.2974 -0.4569  0.1970
 4980SOL    HW126573   3.649   3.358  14.543  0.4801 -3.1372  0.0591
 4980SOL    HW226574   3.761   3.304  14.627  1.3107  1.6560 -1.6910
 4981SOL     OW26575   3.449   4.266   3.448  0.3509 -0.1363  0.1022
 4981SOL    HW126576   3.497   4.228   3.522 -0.1983  1.4038  1.2473
 4981SOL    HW226577   3.384   4.197   3.434 -0.3826  0.7993 -1.0679
 4982SOL     OW26578   2.188   2.917   2.015  0.3233 -0.4258  0.8264
 4982SOL    HW126579   2.155   2.969   2.088 -2.4846 -2.6033  1.1425
 4982SOL    HW226580   2.104   2.895   1.973  1.7370 -1.0992 -1.6232
 4983SOL     OW26581   2.024   0.171   3.637  0.2582  0.2912  0.2861
 4983SOL    HW126582   2.013   0.230   3.711 -2.0809 -0.4668  0.5294
 4983SOL    HW226583   2.023   0.232   3.563  1.0451  0.2176  0.2129
 4984SOL     OW26584   0.372   0.511   4.122 -0.1259  0.8151 -0.3239
 4984SOL    HW126585   0.399   0.573   4.190  1.7218  0.5373 -0.8065
 4984SOL    HW226586   0.318   0.571   4.071 -1.3249 -0.0422 -0.0640
 4985SOL     OW26587   3.580   4.148   7.448 -0.2845  0.1466  0.1012
 4985SOL    HW126588   3.556   4.238   7.472  3.6092  1.1684  0.2510
 4985SOL    HW226589   3.567   4.100   7.530 -1.9797 -1.6536 -1.2562
 4986SOL     OW26590   1.202   4.401  17.277  0.3823 -0.0404  0.6050
 4986SOL    HW126591   1.141   4.371  17.345 -0.7391 -2.1033 -1.3238
 4986SOL    HW226592   1.160   4.355  17.205 -1.8272  3.0150 -0.0253
 4987SOL     OW26593   1.496   3.025   3.611  0.0477  0.3948 -0.0296
 4987SOL    HW126594   1.414   3.023   3.562  0.7005 -1.2203 -1.0665
 4987SOL    HW226595   1.494   3.117   3.639 -2.2029  0.9684 -2.0769
 4988SOL     OW26596   1.747   3.891   4.180 -0.3011 -0.3124 -0.3704
 4988SOL    HW126597   1.798   3.817   4.148  0.7397 -0.4119  1.5018
 4988SOL    HW226598   1.766   3.881   4.274 -0.8891 -1.3659 -0.3734
 4989SOL     OW26599   1.541   4.002   7.133  0.0745 -0.0702  0.2102
 4989SOL    HW126600   1.544   4.093   7.163 -0.1933 -0.1621  0.5225
 4989SOL    HW226601   1.604   3.964   7.194  0.6881  2.4233  1.1202
 4990SOL     OW26602   1.844   0.632   7.232  0.6186 -0.0949  0.1429
 4990SOL    HW126603   1.835   0.581   7.312 -0.9475 -0.5394 -0.3313
 4990SOL    HW226604   1.910   0.586   7.180  0.8514 -2.9272  3.0000
 4991SOL     OW26605   4.701   3.529   0.525 -1.1045  0.2029 -0.1131
 4991SOL    HW126606   4.658   3.490   0.601 -2.2864 -0.5757 -1.1715
 4991SOL    HW226607   0.007   3.451   0.489 -3.7126 -0.0874 -2.6507
 4992SOL     OW26608   1.585   3.319   5.863  0.4276 -0.1234 -0.1810
 4992SOL    HW126609   1.660   3.261   5.848  1.0223 -0.1098  2.8668
 4992SOL    HW226610   1.629   3.390   5.910  0.1531  0.4052 -0.7144
 4993SOL     OW26611   0.134   3.319   6.813  0.0825  0.1579  0.2479
 4993SOL    HW126612   0.158   3.234   6.849 -1.4746 -0.4146 -0.0470
 4993SOL    HW226613   0.136   3.383   6.884 -1.9820  0.6641 -0.1238
 4994SOL     OW26614   3.492   2.075   3.396  0.4631  0.3691 -0.4799
 4994SOL    HW126615   3.507   2.014   3.324  1.7162 -1.1531  1.0816
 4994SOL    HW226616   3.527   2.161   3.373 -1.7312  2.0858  2.6333
 4995SOL     OW26617   2.997   1.603   2.416 -0.0267 -0.1208  0.2688
 4995SOL    HW126618   3.026   1.513   2.409  0.1245 -0.0622  0.1512
 4995SOL    HW226619   3.075   1.658   2.410 -0.3542  0.5516  2.1292
 4996SOL     OW26620   4.551   3.576   4.486 -0.1248  0.1969  0.1181
 4996SOL    HW126621   4.593   3.569   4.400  1.3265 -1.7095  0.9977
 4996SOL    HW226622   4.572   3.666   4.510  1.3900  0.2065 -1.2509
 4997SOL     OW26623   4.373   2.387   8.851 -0.9872  0.0045 -0.5248
 4997SOL    HW126624   4.292   2.380   8.900 -0.2090 -1.1603  0.5829
 4997SOL    HW226625   4.402   2.300   8.876  0.6316  0.7804  0.3497
 4998SOL     OW26626   4.452   0.163   7.644 -0.1758 -0.4455 -0.0914
 4998SOL    HW126627   4.490   0.128   7.725  1.3785 -0.7611 -0.9677
 4998SOL    HW226628   4.391   0.093   7.620 -0.2813  0.4372 -2.4041
 4999SOL     OW26629   2.227   4.629  16.527  0.4279 -0.1834  0.3197
 4999SOL    HW126630   2.229   4.704  16.587  0.2722 -0.1133  0.2369
 4999SOL    HW226631   2.315   4.638  16.490  0.5309 -1.6705  0.1944
 5000SOL     OW26632   4.475   4.508   6.926 -0.1688 -0.2734  0.0647
 5000SOL    HW126633   4.461   4.431   6.980  1.0466 -0.6262 -0.1282
 5000SOL    HW226634   4.511   4.465   6.849 -0.5000  1.1970 -0.9094
 5001SOL     OW26635   1.264   0.236   8.794  0.0114 -0.2512  0.2281
 5001SOL    HW126636   1.275   0.213   8.886 -0.0352 -3.7047 -0.6378
 5001SOL    HW226637   1.332   0.188   8.746 -0.5000 -5.4036  4.7350
 5002SOL     OW26638   4.303   2.013   4.716 -0.1936 -0.2199  0.6134
 5002SOL    HW126639   4.238   1.945   4.697  0.4825 -0.8254  0.4731
 5002SOL    HW226640   4.328   2.029   4.625  0.1975 -0.8980  0.5957
 5003SOL     OW26641   1.808   2.901   4.348  0.2689 -0.0291 -0.5062
 5003SOL    HW126642   1.875   2.832   4.343  0.0004 -0.1935 -1.8457
 5003SOL    HW226643   1.861   2.981   4.340  3.2086 -1.7324  1.8201
 5004SOL     OW26644   2.696   2.942   3.304  0.1604 -0.4724  0.4065
 5004SOL    HW126645   2.618   2.974   3.349 -1.5623 -3.9343 -0.1666
 5004SOL    HW226646   2.759   2.978   3.366  0.9042  1.3232 -1.4024
 5005SOL     OW26647   2.425   1.553   8.952  0.1963 -0.4354  0.2189
 5005SOL    HW126648   2.478   1.488   8.906  0.3288  1.3171 -2.0528
 5005SOL    HW226649   2.385   1.501   9.022  1.1539 -0.5259  0.7046
 5006SOL     OW26650   1.426   0.937   8.685 -0.1416  0.1139  0.2025
 5006SOL    HW126651   1.342   0.940   8.731  2.1232 -0.1132  4.3021
 5006SOL    HW226652   1.438   1.032   8.674  1.9170 -0.4271 -2.0239
 5007SOL     OW26653   1.755   3.852   2.505  0.5238  0.3962 -0.1392
 5007SOL    HW126654   1.698   3.913   2.553  2.0782  2.5049 -0.9799
 5007SOL    HW226655   1.712   3.826   2.424  0.8873 -1.1675  0.1658
 5008SOL     OW26656   3.322   3.175  15.514  0.4501 -0.0214 -0.2266
 5008SOL    HW126657   3.405   3.132  15.493 -0.0096 -1.8038  1.5977
 5008SOL    HW226658   3.334   3.188  15.608 -0.3006  0.6707 -0.2315
 5009SOL     OW26659   3.323   2.661   3.061  0.2066  0.1975 -0.2116
 5009SOL    HW126660   3.315   2.723   2.989  1.1519  0.1550 -0.3536
 5009SOL    HW226661   3.411   2.627   3.049 -0.2070 -0.2963 -1.7923
 5010SOL     OW26662   4.456   1.073  14.853  0.6530  0.2762 -0.9920
 5010SOL    HW126663   4.456   1.118  14.938  0.5134 -0.4191 -0.6246
 5010SOL    HW226664   4.545   1.071  14.819  0.7947  0.2018 -0.6186
 5011SOL     OW26665   1.898   4.685  12.869 -0.1119 -0.2199  0.1247
 5011SOL    HW126666   1.826   4.625  12.845  1.2418 -1.6794 -0.2731
 5011SOL    HW226667   1.880   0.019  12.808 -1.4710 -0.0327  0.7415
 5012SOL     OW26668   1.020   2.308   8.264  0.5838  0.1688 -0.9928
 5012SOL    HW126669   1.020   2.291   8.358 -3.0544  1.2517 -0.7966
 5012SOL    HW226670   1.112   2.334   8.259  1.0983 -1.5416 -0.3119
 5013SOL     OW26671   0.813   3.703   7.373 -0.3558  0.4825 -0.2589
 5013SOL    HW126672   0.865   3.650   7.434  0.0856  0.8912 -0.2884
 5013SOL    HW226673   0.749   3.737   7.437 -0.2001 -2.5128  1.4898
 5014SOL     OW26674   4.398   2.302   2.926  0.0229  0.4882 -0.3672
 5014SOL    HW126675   4.321   2.260   2.965 -0.2335 -0.0476 -1.4625
 5014SOL    HW226676   4.369   2.386   2.891 -0.0639  1.0271  1.0059
 5015SOL     OW26677   2.328   4.735   8.581 -0.3414  0.2926  1.1794
 5015SOL    HW126678   2.269   4.694   8.518  0.8006  0.8065 -0.2175
 5015SOL    HW226679   2.326   4.670   8.651  0.4661  1.2818  2.1077
 5016SOL     OW26680   2.339   4.314  10.994 -0.3819 -0.3298 -0.4296
 5016SOL    HW126681   2.257   4.316  10.944 -0.3336  0.0206 -0.4982
 5016SOL    HW226682   2.304   4.303  11.082  0.3657  0.6706 -0.0030
 5017SOL     OW26683   4.085   1.045   7.745  0.0076 -0.0963  0.7261
 5017SOL    HW126684   4.087   1.079   7.835  3.6506 -1.7593  1.2664
 5017SOL    HW226685   4.177   1.056   7.721  0.5133 -1.5700  1.9903
 5018SOL     OW26686   4.265   1.460   4.697 -0.0319  0.8194 -0.1727
 5018SOL    HW126687   4.290   1.536   4.645  0.0140  2.1537  1.8031
 5018SOL    HW226688   4.239   1.491   4.784  1.9104  0.8577  0.3895
 5019SOL     OW26689   1.607   0.718   2.195 -0.0443 -0.1111  0.2039
 5019SOL    HW126690   1.662   0.789   2.227 -0.5318  0.3606 -0.0189
 5019SOL    HW226691   1.580   0.689   2.283 -1.2221 -0.4692 -0.2725
 5020SOL     OW26692   4.397   3.046   9.676 -0.2584  0.0571  0.2168
 5020SOL    HW126693   4.468   3.000   9.722 -0.8524  0.5633  1.6507
 5020SOL    HW226694   4.327   3.051   9.741  0.2087 -1.3436  0.8413
 5021SOL     OW26695   3.539   1.800   5.594  0.0494  0.0228  0.0318
 5021SOL    HW126696   3.507   1.740   5.661  0.4455 -1.3911 -1.0613
 5021SOL    HW226697   3.602   1.758   5.537  1.0983 -0.0752  1.2754
 5022SOL     OW26698   4.374   3.053   7.187  0.3617  0.6976  0.8536
 5022SOL    HW126699   4.302   3.091   7.137 -0.7105  0.5499  2.2706
 5022SOL    HW226700   4.351   3.076   7.277  2.2195 -0.0637  1.5277
 5023SOL     OW26701   0.557   3.513  17.330  0.4678 -0.0457 -0.0615
 5023SOL    HW126702   0.625   3.556  17.277  1.4988 -0.8328  0.6467
 5023SOL    HW226703   0.607   3.480  17.404 -0.1204 -2.1595 -0.6075
 5024SOL     OW26704   3.264   3.443   3.901 -0.3743  0.3022 -0.6296
 5024SOL    HW126705   3.319   3.365   3.887 -0.5460  0.5852 -2.8991
 5024SOL    HW226706   3.292   3.460   3.991  1.3467 -0.2665 -1.0445
 5025SOL     OW26707   4.087   0.994   8.034  0.2788  0.3432  0.2844
 5025SOL    HW126708   4.111   0.911   7.994  0.5940  0.6933 -0.2536
 5025SOL    HW226709   4.012   0.969   8.088  0.3368  3.2966  1.7746
 5026SOL     OW26710   3.574   2.156   1.905  0.4579  0.0646 -0.3025
 5026SOL    HW126711   3.503   2.154   1.841 -1.0193  1.4843  1.2631
 5026SOL    HW226712   3.619   2.076   1.880 -0.7726 -0.2142 -1.5962
 5027SOL     OW26713   0.856   4.475   7.055 -0.0667  0.0435  0.6644
 5027SOL    HW126714   0.813   4.555   7.025 -0.3980 -0.3131  0.1698
 5027SOL    HW226715   0.805   4.450   7.132 -0.9738  0.0840  0.0785
 5028SOL     OW26716   4.448   1.606   6.794 -0.0309  0.3034 -0.6301
 5028SOL    HW126717   4.389   1.681   6.796 -0.1455  0.2448 -1.6711
 5028SOL    HW226718   4.446   1.584   6.887 -0.3333 -0.2357 -0.7691
 5029SOL     OW26719   3.581   1.103   4.966  0.1490 -0.2694  0.0248
 5029SOL    HW126720   3.638   1.027   4.980 -0.5251 -0.3468  2.3054
 5029SOL    HW226721   3.598   1.118   4.873  0.1706 -0.8960 -0.0725
 5030SOL     OW26722   1.155   1.251   4.794  0.8076 -0.7035  0.2732
 5030SOL    HW126723   1.228   1.311   4.779 -0.5622  0.6665 -0.9741
 5030SOL    HW226724   1.171   1.205   4.712  0.5005 -0.1238 -0.1144
 5031SOL     OW26725   2.655   1.623   5.879 -0.2799 -0.2194  0.0450
 5031SOL    HW126726   2.655   1.624   5.784 -2.2621  0.1225  0.0470
 5031SOL    HW226727   2.561   1.631   5.898 -0.3684  0.6938 -0.7920
 5032SOL     OW26728   3.526   4.071   7.072  0.0265  0.1452  0.6650
 5032SOL    HW126729   3.557   4.029   6.992  0.9076  1.4627  0.3245
 5032SOL    HW226730   3.460   4.008   7.101  2.2878 -1.6548  1.9817
 5033SOL     OW26731   3.910   2.410   8.839  0.2115  0.0894 -0.0566
 5033SOL    HW126732   3.840   2.442   8.783  0.3627  2.4048  1.0805
 5033SOL    HW226733   3.861   2.360   8.904 -1.0140  0.7150 -0.4950
 5034SOL     OW26734   2.226   3.528   3.242  0.0875 -0.8008  0.7849
 5034SOL    HW126735   2.319   3.534   3.220 -0.4657 -0.9657 -1.5748
 5034SOL    HW226736   2.199   3.475   3.166 -0.0749 -0.2993  0.4947
 5035SOL     OW26737   2.008   3.071   4.484  0.5726  0.0043 -0.3693
 5035SOL    HW126738   2.040   3.037   4.568 -0.3150  1.9420  0.7562
 5035SOL    HW226739   2.073   3.137   4.458  1.4426 -0.2403  1.1855
 5036SOL     OW26740   3.156   4.028   7.072  0.3042  0.3073  0.1342
 5036SOL    HW126741   3.167   4.075   7.155  2.3359  2.6386 -1.4577
 5036SOL    HW226742   3.158   3.937   7.101 -0.2281 -0.0151 -0.8069
 5037SOL     OW26743   3.496   2.199   8.074 -0.1050 -0.1026 -0.3032
 5037SOL    HW126744   3.452   2.114   8.082 -0.9219  0.3396 -0.0964
 5037SOL    HW226745   3.462   2.241   8.153 -3.1859  0.1870 -1.8009
 5038SOL     OW26746   3.055   0.311   3.836  0.0996  0.0540 -0.0755
 5038SOL    HW126747   3.056   0.257   3.916 -1.0369  1.6703  1.0248
 5038SOL    HW226748   2.961   0.311   3.821 -0.0405 -0.2088  0.8052
 5039SOL     OW26749   3.994   1.238   1.160  0.4758 -0.9771  0.0490
 5039SOL    HW126750   4.011   1.165   1.100  2.1666  1.3513 -2.3267
 5039SOL    HW226751   3.920   1.201   1.207  0.4284  0.6545  1.2656
 5040SOL     OW26752   3.997   2.316   0.076 -0.2607  0.4955 -0.3627
 5040SOL    HW126753   4.079   2.268   0.063  0.9326  2.6787 -0.8464
 5040SOL    HW226754   3.939   2.240   0.078  1.0606 -0.4638  1.2719
 5041SOL     OW26755   4.354   0.577   3.457  0.2627 -0.2720  0.6185
 5041SOL    HW126756   4.333   0.502   3.513  0.2935 -0.6826  0.0757
 5041SOL    HW226757   4.425   0.540   3.405 -1.1235 -0.7920 -0.8937
 5042SOL     OW26758   2.941   3.229  11.818 -0.6565 -0.6955  0.0156
 5042SOL    HW126759   3.030   3.207  11.792 -1.3379 -2.1027 -1.1242
 5042SOL    HW226760   2.895   3.169  11.760 -3.5004 -0.1556  1.6898
 5043SOL     OW26761   1.442   0.642   0.850  0.6076  0.1219  0.6859
 5043SOL    HW126762   1.423   0.593   0.770 -1.2943  1.7338  0.1450
 5043SOL    HW226763   1.509   0.704   0.822 -0.3866  0.1782 -1.5073
 5044SOL     OW26764   1.143   0.619  11.959 -0.3242 -0.0413  0.4763
 5044SOL    HW126765   1.112   0.705  11.987 -0.5967  0.2181 -0.6258
 5044SOL    HW226766   1.118   0.578  12.042 -0.6658  0.7906  0.7866
 5045SOL     OW26767   2.914   3.252   6.915 -0.2751  0.5826  0.0961
 5045SOL    HW126768   2.978   3.230   6.982 -0.7965 -0.5597  0.2196
 5045SOL    HW226769   2.950   3.331   6.873  1.9095 -0.2699  0.3531
 5046SOL     OW26770   3.704   1.404   6.218  0.0184  0.4139  0.0331
 5046SOL    HW126771   3.652   1.436   6.144  0.0457  1.1779  0.3473
 5046SOL    HW226772   3.704   1.481   6.274 -2.0827 -0.9580  1.8673
 5047SOL     OW26773   4.222   0.658   5.380  0.0508  0.4341 -0.0311
 5047SOL    HW126774   4.303   0.619   5.346  0.6614 -0.8841  2.9899
 5047SOL    HW226775   4.210   0.603   5.457  1.1582 -0.1703 -0.2886
 5048SOL     OW26776   4.347   1.647   1.850 -0.1473 -0.1853  0.0595
 5048SOL    HW126777   4.327   1.668   1.759 -0.8028  0.4494  0.3479
 5048SOL    HW226778   4.387   1.731   1.876 -0.8051  0.8431 -2.2894
 5049SOL     OW26779   4.553   0.087  13.317  0.0469  0.3369 -0.6140
 5049SOL    HW126780   4.572   0.132  13.235  1.4132  0.7798 -0.0628
 5049SOL    HW226781   4.482   0.029  13.288 -0.9585  0.9475  0.6291
 5050SOL     OW26782   3.650   0.370  11.749  0.2007  0.2842  0.5201
 5050SOL    HW126783   3.597   0.305  11.796  2.6761 -0.0231  2.9388
 5050SOL    HW226784   3.734   0.325  11.758 -1.0744 -2.1479  0.2841
 5051SOL     OW26785   1.868   4.470   5.766 -0.0039 -0.2658 -0.0524
 5051SOL    HW126786   1.963   4.463   5.758 -0.0092 -0.4044 -0.0059
 5051SOL    HW226787   1.836   4.455   5.677  2.7050 -0.6221 -0.9728
 5052SOL     OW26788   3.186   2.419   4.673  0.6708  0.3576 -0.2456
 5052SOL    HW126789   3.094   2.415   4.649  1.0182  1.6517 -1.8650
 5052SOL    HW226790   3.191   2.514   4.666  3.3380  0.0147 -3.4877
 5053SOL     OW26791   4.598   2.055   4.522  0.0466  0.4592 -0.4663
 5053SOL    HW126792   4.585   1.960   4.517 -0.8977  0.6395 -1.4788
 5053SOL    HW226793   4.678   2.076   4.475  2.0300  1.4343  3.3723
 5054SOL     OW26794   1.471   3.520   6.808 -0.2619  0.5338  0.1406
 5054SOL    HW126795   1.548   3.501   6.863 -0.0690  0.6811 -0.0789
 5054SOL    HW226796   1.521   3.558   6.736  1.6913  0.9640  1.7098
 5055SOL     OW26797   1.961   1.497  12.875 -0.1782 -0.0803 -0.1926
 5055SOL    HW126798   2.046   1.512  12.833  0.0740  0.6551  0.5837
 5055SOL    HW226799   1.964   1.412  12.919  0.3872 -0.1896 -0.4440
 5056SOL     OW26800   3.680   2.753  15.441 -0.0726  0.2046 -0.0708
 5056SOL    HW126801   3.605   2.714  15.395  0.5687 -1.8155  0.6067
 5056SOL    HW226802   3.751   2.740  15.379  1.3303  1.0156  1.3485
 5057SOL     OW26803   0.579   3.436  13.248  0.8006 -0.5025  0.6530
 5057SOL    HW126804   0.663   3.416  13.206  0.7635  3.7527 -1.4544
 5057SOL    HW226805   0.587   3.400  13.336 -0.6320  1.9192  1.7794
 5058SOL     OW26806   3.449   4.350   6.051  0.7304 -0.7655  0.2027
 5058SOL    HW126807   3.438   4.392   5.966 -0.6544 -1.8608 -0.1660
 5058SOL    HW226808   3.369   4.373   6.098  0.5800 -0.0577 -0.4090
 5059SOL     OW26809   4.102   4.165  14.790  0.1241 -0.5084 -0.6644
 5059SOL    HW126810   4.008   4.166  14.771 -0.5528  0.0705  2.6281
 5059SOL    HW226811   4.110   4.235  14.854 -0.4997  0.2042 -1.3723
 5060SOL     OW26812   1.540   4.370   6.629 -0.0353  0.8123  0.5512
 5060SOL    HW126813   1.547   4.455   6.673  1.4228  1.5041 -1.0032
 5060SOL    HW226814   1.481   4.392   6.557  0.2326 -1.5643 -0.3748
 5061SOL     OW26815   4.073   2.242  11.140 -0.0687  0.5230 -0.5606
 5061SOL    HW126816   4.099   2.324  11.098 -1.8995  0.1281 -2.5275
 5061SOL    HW226817   3.990   2.269  11.181  0.6169  1.0290  0.4829
 5062SOL     OW26818   1.049   3.442   1.512  0.0926  0.0833 -0.2521
 5062SOL    HW126819   1.141   3.460   1.530 -0.1530  0.7390  0.3650
 5062SOL    HW226820   1.013   3.531   1.519 -0.9971 -0.2417 -1.6938
 5063SOL     OW26821   4.337   4.431   2.889  0.2142  0.1872 -0.1426
 5063SOL    HW126822   4.323   4.388   2.973  1.9064 -1.2176 -0.5815
 5063SOL    HW226823   4.425   4.464   2.904 -0.3978  0.9201  1.8740
 5064SOL     OW26824   1.737   0.930   2.297 -0.3314  0.5986  0.0112
 5064SOL    HW126825   1.802   0.971   2.240 -1.2713  2.9952  0.6811
 5064SOL    HW226826   1.659   0.983   2.281 -0.4507  0.8398  1.4459
 5065SOL     OW26827   0.046   4.092   5.379  0.2506  0.0636  0.6887
 5065SOL    HW126828   0.002   4.139   5.309  3.5370  0.6797 -0.9845
 5065SOL    HW226829   0.105   4.155   5.421  0.0176  1.0629 -0.5085
 5066SOL     OW26830   2.024   1.342   8.940  0.4097 -0.1920  0.4218
 5066SOL    HW126831   2.030   1.294   8.857 -2.1053 -0.7759  0.5757
 5066SOL    HW226832   2.110   1.319   8.975  0.8239 -0.6544 -0.8759
 5067SOL     OW26833   1.720   3.409   5.238  0.3118 -0.0791 -0.4387
 5067SOL    HW126834   1.709   3.467   5.162 -0.7408 -0.0148 -0.2401
 5067SOL    HW226835   1.649   3.434   5.297 -0.0054  1.1112 -1.3304
 5068SOL     OW26836   2.976   1.677   1.027 -0.0530  0.0209 -0.1558
 5068SOL    HW126837   2.996   1.591   0.990  2.5562 -0.7702  3.1625
 5068SOL    HW226838   2.911   1.651   1.092 -0.2277  0.3124 -0.2117
 5069SOL     OW26839   3.545   2.821   6.859  0.6806 -0.4602  0.4669
 5069SOL    HW126840   3.620   2.778   6.817  0.4954  0.0545 -0.3965
 5069SOL    HW226841   3.481   2.833   6.789 -0.6184 -0.6815  1.6231
 5070SOL     OW26842   1.774   4.040   8.696  0.2294 -0.2362  0.0499
 5070SOL    HW126843   1.734   4.068   8.778 -0.0464  0.7342 -0.4055
 5070SOL    HW226844   1.860   4.080   8.705  0.1215  0.1471 -0.6323
 5071SOL     OW26845   4.679   0.506   8.960 -0.6569  0.0827  0.5208
 5071SOL    HW126846   4.722   0.592   8.970 -1.4868  0.7473 -1.6418
 5071SOL    HW226847   4.600   0.519   9.012  0.3162  1.7749  1.6029
 5072SOL     OW26848   1.658   0.566   4.411 -0.5770 -0.1880 -0.2390
 5072SOL    HW126849   1.678   0.609   4.328 -1.1727 -3.5152 -2.0677
 5072SOL    HW226850   1.745   0.559   4.450 -0.8686 -0.4597  0.3729
 5073SOL     OW26851   0.780   2.916  16.291  0.5051 -0.0638  0.3240
 5073SOL    HW126852   0.807   2.901  16.382  0.9092  1.7835  0.5065
 5073SOL    HW226853   0.858   2.950  16.248 -0.1320 -0.0056 -0.7831
 5074SOL     OW26854   3.327   4.213  15.225 -0.0574 -0.5223 -0.2490
 5074SOL    HW126855   3.341   4.307  15.238  1.5064 -0.4774 -2.2277
 5074SOL    HW226856   3.395   4.172  15.277 -0.8243 -0.8240  0.5068
 5075SOL     OW26857   0.380   3.079   2.249 -0.1878  0.3868 -0.5786
 5075SOL    HW126858   0.471   3.054   2.264 -0.0873  1.0786 -0.0679
 5075SOL    HW226859   0.355   3.131   2.325 -0.7821 -0.7709  0.0273
 5076SOL     OW26860   3.935   2.033   3.672  0.1208 -0.0206  0.4815
 5076SOL    HW126861   3.871   1.965   3.694 -0.9557  1.6298  2.4071
 5076SOL    HW226862   3.967   2.019   3.583  0.3097 -0.9013  0.6902
 5077SOL     OW26863   0.499   1.195   9.331 -0.2416  0.2481 -0.6669
 5077SOL    HW126864   0.505   1.290   9.319  1.2595  0.2465  0.0830
 5077SOL    HW226865   0.542   1.159   9.254  1.2414 -0.5199  0.5234
 5078SOL     OW26866   2.536   2.333   0.114  0.6030  0.0301  0.0621
 5078SOL    HW126867   2.566   2.332   0.023 -0.2644  0.1612 -0.2205
 5078SOL    HW226868   2.524   2.238   0.118  0.8573 -0.0866 -1.7478
 5079SOL     OW26869   1.136   2.596   8.301 -0.0460 -0.4656 -0.3154
 5079SOL    HW126870   1.224   2.556   8.299  0.8078  1.3699  1.0150
 5079SOL    HW226871   1.100   2.571   8.386 -0.1953 -2.1127 -0.8649
 5080SOL     OW26872   0.601   4.659   9.516 -0.7872  0.1722  0.0123
 5080SOL    HW126873   0.576   4.687   9.604  1.2113  0.1427  0.5743
 5080SOL    HW226874   0.620   0.010   9.482 -0.9199  0.5301  0.8739
 5081SOL     OW26875   0.200   3.495   5.896  0.1232  0.3334 -0.7138
 5081SOL    HW126876   0.132   3.539   5.947  0.2621 -1.9270  1.4087
 5081SOL    HW226877   0.201   3.528   5.806  2.7010  0.2504 -0.7116
 5082SOL     OW26878   0.646   2.512   8.784 -0.8622  0.3014 -0.5423
 5082SOL    HW126879   0.581   2.461   8.736 -1.2082  1.4227 -1.2592
 5082SOL    HW226880   0.678   2.578   8.722  2.4346 -0.4357  0.3581
 5083SOL     OW26881   0.667   3.558   7.198 -0.3023  0.2988 -0.3087
 5083SOL    HW126882   0.682   3.607   7.117 -1.6090 -0.0032 -0.7430
 5083SOL    HW226883   0.704   3.617   7.264  0.0744  0.9229 -1.0763
 5084SOL     OW26884   3.669   4.282   7.172  0.1840 -0.0588  0.4497
 5084SOL    HW126885   3.601   4.217   7.157 -0.3983  0.9543 -1.3503
 5084SOL    HW226886   3.703   4.256   7.257  2.0598  0.6187 -0.0925
 5085SOL     OW26887   2.276   0.864   6.514  0.2433  0.6724 -0.2022
 5085SOL    HW126888   2.200   0.814   6.544  1.9632 -1.1609  1.1410
 5085SOL    HW226889   2.278   0.931   6.583 -1.4149 -1.4957  1.9701
 5086SOL     OW26890   0.109   3.313   6.198 -0.4968 -0.2382  0.2911
 5086SOL    HW126891   0.119   3.217   6.193  2.5111  0.0352  0.9268
 5086SOL    HW226892   0.190   3.349   6.162 -1.4548  0.6466 -0.9845
 5087SOL     OW26893   0.380   2.439   4.309 -0.1251 -0.3734 -0.1698
 5087SOL    HW126894   0.378   2.482   4.224  1.8275  1.9125  0.9187
 5087SOL    HW226895   0.306   2.485   4.350  0.9094  1.0273  0.1399
 5088SOL     OW26896   1.443   0.459   3.149  0.5105  0.5854  0.1453
 5088SOL    HW126897   1.351   0.484   3.143  0.6542  1.3855  1.2007
 5088SOL    HW226898   1.444   0.374   3.193 -1.1034  0.3738 -0.2308
 5089SOL     OW26899   2.747   4.101  11.239 -0.2275  0.1841  0.1801
 5089SOL    HW126900   2.705   4.114  11.324 -0.1252  5.1213 -0.4946
 5089SOL    HW226901   2.693   4.158  11.183 -0.5727 -0.0325  0.2943
 5090SOL     OW26902   2.535   3.831   1.699 -0.5152  0.1464 -0.0486
 5090SOL    HW126903   2.618   3.792   1.674  0.2094  2.1668 -0.7392
 5090SOL    HW226904   2.546   3.923   1.676  1.4030 -0.6858 -2.4454
 5091SOL     OW26905   3.635   1.061   7.419 -0.9505  0.0365 -0.0631
 5091SOL    HW126906   3.589   0.986   7.456 -0.4292  0.1593  0.8336
 5091SOL    HW226907   3.712   1.073   7.474  0.6479  0.4687 -2.3691
 5092SOL     OW26908   2.922   1.356   2.661  0.2570 -0.0054  0.0010
 5092SOL    HW126909   2.953   1.369   2.751  0.1672  1.6045 -0.2143
 5092SOL    HW226910   2.827   1.351   2.675  0.5268 -0.4865  1.6410
 5093SOL     OW26911   1.912   1.921   8.860 -0.1782 -0.1999 -0.0415
 5093SOL    HW126912   1.983   1.858   8.851  1.1511  1.3241 -0.2056
 5093SOL    HW226913   1.850   1.873   8.915 -0.6963 -0.6878 -1.0549
 5094SOL     OW26914   3.387   3.749   5.653  0.1640  0.2878  0.6016
 5094SOL    HW126915   3.433   3.668   5.676 -1.7605 -0.8357  0.4636
 5094SOL    HW226916   3.415   3.767   5.563  0.2594  0.9944  0.7682
 5095SOL     OW26917   1.938   1.584   9.024 -0.2930  0.0416 -0.2278
 5095SOL    HW126918   2.002   1.613   9.089  1.0294  0.8481 -1.8688
 5095SOL    HW226919   1.969   1.496   9.003  0.3482 -0.0833  1.2932
 5096SOL     OW26920   1.583   2.889  11.406 -0.3155  0.0394  0.0127
 5096SOL    HW126921   1.590   2.807  11.454  1.1338 -0.6438 -1.3731
 5096SOL    HW226922   1.491   2.891  11.379 -0.6868 -0.6584  1.2494
 5097SOL     OW26923   1.261   1.622  17.416 -0.2320 -0.4295 -0.2283
 5097SOL    HW126924   1.230   1.709  17.440  1.6797  0.5480 -1.2425
 5097SOL    HW226925   1.261   1.576  17.500  0.3742 -0.4855 -0.2550
 5098SOL     OW26926   3.025   2.003   1.384 -0.2856  0.2598 -1.0138
 5098SOL    HW126927   2.982   1.921   1.359 -1.6256  0.1777  1.5023
 5098SOL    HW226928   3.067   1.966   1.462 -1.5099  0.7516 -0.1213
 5099SOL     OW26929   3.304   1.161   4.936 -0.3252 -0.0325 -0.6739
 5099SOL    HW126930   3.386   1.211   4.932  0.2919 -1.0177 -0.1486
 5099SOL    HW226931   3.336   1.078   4.971 -0.7733 -0.1271 -0.4849
 5100SOL     OW26932   0.481   3.131  16.120 -0.2789  0.2900 -0.4334
 5100SOL    HW126933   0.518   3.188  16.186  0.9921  0.1401 -1.0257
 5100SOL    HW226934   0.504   3.164  16.033  0.7363 -0.6370 -0.5211
 5101SOL     OW26935   1.974   4.242   3.627  0.3603  0.6373 -0.0602
 5101SOL    HW126936   1.880   4.224   3.627  0.2004  1.4902 -0.0959
 5101SOL    HW226937   1.981   4.337   3.637 -1.0422  0.6697  0.5783
 5102SOL     OW26938   0.688   1.253  15.235  0.8300  0.1053 -0.4349
 5102SOL    HW126939   0.754   1.246  15.305 -0.2188 -1.3537  0.4137
 5102SOL    HW226940   0.728   1.298  15.160 -1.3037 -1.0500 -2.2456
 5103SOL     OW26941   1.217   3.454   3.579 -0.2778  0.1016 -0.6421
 5103SOL    HW126942   1.147   3.405   3.623  0.2206 -1.6272 -1.7632
 5103SOL    HW226943   1.259   3.501   3.650 -1.0792  1.6935 -1.2156
 5104SOL     OW26944   0.259   2.569   2.445 -0.2605 -0.4040 -0.1296
 5104SOL    HW126945   0.308   2.651   2.444 -0.3199 -0.3931 -2.1082
 5104SOL    HW226946   0.199   2.582   2.518 -0.6323 -0.7144 -0.3780
 5105SOL     OW26947   2.781   1.447   9.601  0.2182 -0.2194 -0.0586
 5105SOL    HW126948   2.769   1.411   9.513 -1.4255  2.0110 -0.7393
 5105SOL    HW226949   2.823   1.529   9.575 -0.1649 -0.4211 -1.3569
 5106SOL     OW26950   1.181   0.969   8.811  0.1870 -0.1433 -0.0083
 5106SOL    HW126951   1.151   0.943   8.897 -0.0528  1.9586  0.5621
 5106SOL    HW226952   1.100   0.962   8.760  0.1067 -0.2062  0.1299
 5107SOL     OW26953   1.902   0.430  15.573 -0.4285 -0.1746 -0.3997
 5107SOL    HW126954   1.940   0.342  15.576 -0.4457 -0.2214 -1.5452
 5107SOL    HW226955   1.942   0.478  15.501  2.4090 -3.3431 -0.9299
 5108SOL     OW26956   3.943   0.585  11.602 -0.1148  0.3022 -0.1602
 5108SOL    HW126957   4.032   0.553  11.589 -0.4033 -1.6493  2.6877
 5108SOL    HW226958   3.905   0.504  11.570  1.0244 -0.2560 -0.0934
 5109SOL     OW26959   3.631   1.322   7.730  0.3478 -0.3367 -0.1103
 5109SOL    HW126960   3.669   1.356   7.649  1.5186 -1.4909 -0.0325
 5109SOL    HW226961   3.550   1.373   7.733 -0.5410 -1.7748  0.2432
 5110SOL     OW26962   2.811   4.482   0.721 -0.8478 -0.2166  0.4339
 5110SOL    HW126963   2.829   4.574   0.739 -0.4748 -0.5924  2.0810
 5110SOL    HW226964   2.891   4.452   0.765 -0.6053  1.1214  0.9075
 5111SOL     OW26965   3.939   4.155   5.313  0.2154 -0.5346 -0.3261
 5111SOL    HW126966   3.910   4.160   5.404 -1.6346  3.2199 -1.1449
 5111SOL    HW226967   3.946   4.247   5.289  0.6483 -0.3553  0.4734
 5112SOL     OW26968   2.142   1.585  14.818 -0.2210 -0.0974 -0.2744
 5112SOL    HW126969   2.182   1.662  14.859 -4.1845  1.0891  1.3068
 5112SOL    HW226970   2.169   1.596  14.727  1.3049  0.6773  0.2778
 5113SOL     OW26971   3.133   4.683  10.265  0.5023  0.0880 -0.3382
 5113SOL    HW126972   3.198   4.648  10.205  1.7980  1.3699  0.3151
 5113SOL    HW226973   3.191   4.731  10.325  0.0491  0.0620  0.1238
 5114SOL     OW26974   2.948   1.940  10.960  0.1455 -0.3202  0.3931
 5114SOL    HW126975   3.038   1.910  10.952 -0.1623 -1.0353 -0.3800
 5114SOL    HW226976   2.966   1.998  11.034 -1.2351  0.9548 -0.2614
 5115SOL     OW26977   3.436   1.951  16.830 -0.1086  0.0450 -0.1969
 5115SOL    HW126978   3.459   1.923  16.742  1.0598 -0.6148  0.3116
 5115SOL    HW226979   3.473   2.039  16.838 -0.1170  0.1434 -1.3200
 5116SOL     OW26980   2.210   3.680   3.449  0.4860 -0.2863 -0.3798
 5116SOL    HW126981   2.224   3.609   3.387  0.6764 -0.7979  0.2568
 5116SOL    HW226982   2.209   3.759   3.394  1.1135 -0.8966 -1.2573
 5117SOL     OW26983   3.529   1.383   5.382  0.1190  0.2580  0.0891
 5117SOL    HW126984   3.516   1.374   5.288  0.8848 -0.2957  0.0401
 5117SOL    HW226985   3.625   1.385   5.386  0.2156 -0.4093 -1.9563
 5118SOL     OW26986   1.865   0.477   1.770 -0.4765 -0.3877 -0.1655
 5118SOL    HW126987   1.889   0.522   1.851 -0.2000 -0.4867 -0.1931
 5118SOL    HW226988   1.938   0.502   1.714  1.5265  1.2312  3.1391
 5119SOL     OW26989   1.297   0.188   3.673 -0.2260  0.1485  0.4613
 5119SOL    HW126990   1.309   0.141   3.591  1.4048 -1.2897  1.5100
 5119SOL    HW226991   1.218   0.144   3.706 -0.2701  0.3843  0.6698
 5120SOL     OW26992   3.579   0.977  16.302 -0.5111 -0.2596 -0.1412
 5120SOL    HW126993   3.580   0.996  16.208 -1.0178  1.5444  0.2248
 5120SOL    HW226994   3.511   0.910  16.303 -0.6042 -0.1844 -1.1857
 5121SOL     OW26995   4.615   2.987   1.455  0.0078  0.6801  0.0950
 5121SOL    HW126996   4.645   3.034   1.378 -0.5586  0.1838 -0.4330
 5121SOL    HW226997   4.569   2.910   1.420  1.0662  0.0417  0.1176
 5122SOL     OW26998   2.169   2.234   3.050  0.2401  0.0159 -0.9125
 5122SOL    HW126999   2.104   2.256   2.984  1.8574  1.6264 -1.9769
 5122SOL    HW227000   2.250   2.236   2.998  0.6275 -0.4082 -0.3198
 5123SOL     OW27001   3.273   2.641   2.347 -0.0992  0.0881  0.2687
 5123SOL    HW127002   3.261   2.624   2.440  0.8592  2.5389  0.8656
 5123SOL    HW227003   3.302   2.733   2.353 -0.0727  0.0556  0.6742
 5124SOL     OW27004   1.854   0.410  17.148 -0.3791  0.0007  0.0149
 5124SOL    HW127005   1.791   0.367  17.090 -0.1840 -1.6390  1.0271
 5124SOL    HW227006   1.863   0.489  17.093 -2.8728 -1.5670 -2.6377
 5125SOL     OW27007   1.081   2.077  15.021 -0.3049  0.2428 -0.2886
 5125SOL    HW127008   1.031   2.155  14.999 -1.6793 -0.7429 -0.6158
 5125SOL    HW227009   1.118   2.105  15.105 -0.9405 -0.8197  0.3517
 5126SOL     OW27010   3.175   0.606   8.806 -0.8803  0.3640 -0.7648
 5126SOL    HW127011   3.178   0.698   8.781 -1.4250  0.5785 -0.0424
 5126SOL    HW227012   3.266   0.585   8.785 -0.7549 -1.8059  1.8077
 5127SOL     OW27013   2.752   2.183   6.219 -0.1712 -0.5068  0.0503
 5127SOL    HW127014   2.770   2.277   6.228  0.3896 -0.1990 -4.2010
 5127SOL    HW227015   2.822   2.158   6.158 -2.0470 -0.7193 -1.9930
 5128SOL     OW27016   3.608   2.197   2.777  0.0393 -0.1311 -0.0512
 5128SOL    HW127017   3.641   2.118   2.821 -0.1401 -0.7984 -1.1272
 5128SOL    HW227018   3.522   2.156   2.766  0.1643 -0.7920  1.3856
 5129SOL     OW27019   1.791   3.342   3.859  0.3209 -0.7463  0.4476
 5129SOL    HW127020   1.782   3.302   3.773  2.9678  0.9087 -0.5932
 5129SOL    HW227021   1.811   3.433   3.838 -1.4983 -0.5376 -0.3466
 5130SOL     OW27022   3.511   2.243   9.092  0.8334 -0.1521  0.6184
 5130SOL    HW127023   3.538   2.205   9.175 -0.9608 -1.2191  0.6924
 5130SOL    HW227024   3.427   2.285   9.110  1.0851  1.1751 -1.2649
 5131SOL     OW27025   1.226   2.417   7.650 -0.6603  0.0146 -0.1223
 5131SOL    HW127026   1.291   2.466   7.599 -1.9020  0.0881 -1.6085
 5131SOL    HW227027   1.150   2.459   7.610 -0.7584 -0.5988 -0.5788
 5132SOL     OW27028   2.233   0.027   8.930 -0.2286  0.0436 -0.1155
 5132SOL    HW127029   2.309   0.079   8.904  0.2936 -0.6460  0.0381
 5132SOL    HW227030   2.265   4.727   9.012  0.2509 -2.0304 -1.2593
 5133SOL     OW27031   2.743   1.619   2.845  0.2962  0.0331 -0.3641
 5133SOL    HW127032   2.752   1.639   2.751  1.7796 -1.3414 -0.5353
 5133SOL    HW227033   2.662   1.668   2.856  0.9705  0.8260  1.0776
 5134SOL     OW27034   0.650   1.381   7.087 -0.6024 -0.3709 -0.7458
 5134SOL    HW127035   0.598   1.309   7.124  2.3154 -2.1709 -0.1242
 5134SOL    HW227036   0.653   1.444   7.159 -1.8001 -1.4593  0.2604
 5135SOL     OW27037   4.632   0.272   7.454  0.0632 -0.0438 -0.0665
 5135SOL    HW127038   4.635   0.357   7.498 -1.0068 -0.6691  1.2112
 5135SOL    HW227039   4.558   0.229   7.498 -0.1062 -0.3956 -0.6954
 5136SOL     OW27040   0.584   0.723   2.879 -0.4746 -0.3954  0.3709
 5136SOL    HW127041   0.566   0.817   2.868 -0.8221 -0.3917  0.9784
 5136SOL    HW227042   0.670   0.724   2.837 -0.4584  3.2190  0.4727
 5137SOL     OW27043   1.778   1.727   8.026 -0.5699 -0.2688  0.4745
 5137SOL    HW127044   1.804   1.636   8.015  1.1177  0.0221  2.0001
 5137SOL    HW227045   1.768   1.728   8.121 -1.4735 -1.0083  0.3832
 5138SOL     OW27046   0.316   4.549   2.890  0.2303 -0.0282 -0.7359
 5138SOL    HW127047   0.251   4.605   2.847  1.5250  0.8481 -1.5714
 5138SOL    HW227048   0.352   4.492   2.822 -0.0665  0.6487 -1.4675
 5139SOL     OW27049   0.954   0.243   9.715  0.0232 -0.2090 -0.1841
 5139SOL    HW127050   0.872   0.221   9.670 -2.0699  1.0736  3.0403
 5139SOL    HW227051   1.000   0.300   9.653  1.7476 -2.1952 -0.7539
 5140SOL     OW27052   1.669   4.102   8.934  0.6185  0.3775 -0.6720
 5140SOL    HW127053   1.603   4.156   8.891 -0.9872  0.6050  2.1166
 5140SOL    HW227054   1.637   4.100   9.024  2.2535 -0.4040 -0.1019
 5141SOL     OW27055   4.585   3.352   6.734 -0.1545  0.0828 -0.0253
 5141SOL    HW127056   4.670   3.314   6.753 -1.2916 -2.7777 -0.6653
 5141SOL    HW227057   4.531   3.279   6.763  1.6053 -0.6810  1.3081
 5142SOL     OW27058   3.995   1.928   8.333  0.9480 -0.0004 -0.5450
 5142SOL    HW127059   4.041   2.011   8.325  0.8641  0.0323 -0.6786
 5142SOL    HW227060   3.992   1.933   8.428 -1.8117  0.8031 -0.6822
 5143SOL     OW27061   1.842   3.315   7.359 -0.4366 -0.1797  0.7104
 5143SOL    HW127062   1.851   3.330   7.265 -0.4905  3.4204  1.2679
 5143SOL    HW227063   1.755   3.353   7.374  0.1149  1.7126 -0.8919
 5144SOL     OW27064   3.077   1.387   9.475  0.2604  0.6799 -0.1096
 5144SOL    HW127065   3.120   1.301   9.480 -1.8238 -0.3207  0.6658
 5144SOL    HW227066   3.101   1.431   9.556 -1.7965  0.9480  0.3533
 5145SOL     OW27067   0.690   3.712   6.970  0.2777  0.1608  0.3569
 5145SOL    HW127068   0.705   3.677   6.882  0.4848 -1.5621  1.0778
 5145SOL    HW227069   0.772   3.760   6.978 -0.9715  2.4445 -0.2908
 5146SOL     OW27070   3.050   2.573   3.681 -0.5086 -0.0557 -0.7550
 5146SOL    HW127071   3.015   2.498   3.729 -1.2362 -0.2605 -1.6133
 5146SOL    HW227072   3.145   2.558   3.681 -0.1620  2.1150 -1.5323
 5147SOL     OW27073   3.025   3.346   6.553 -0.2095 -0.3258  0.9107
 5147SOL    HW127074   3.037   3.390   6.637  2.2151 -0.8709  0.8510
 5147SOL    HW227075   2.942   3.301   6.568  1.6843 -3.4509  2.0329
 5148SOL     OW27076   1.905   2.564   6.380 -0.1026  0.5760 -0.1556
 5148SOL    HW127077   1.957   2.642   6.365 -0.4259  0.3398 -2.5262
 5148SOL    HW227078   1.968   2.516   6.434  3.5090  0.1116 -4.7836
 5149SOL     OW27079   4.545   1.038  16.962  0.3213 -0.0119  0.3939
 5149SOL    HW127080   4.529   1.082  17.045  2.1290  1.2370  0.0539
 5149SOL    HW227081   4.556   1.110  16.901 -1.6482 -0.9457 -1.0734
 5150SOL     OW27082   2.330   4.164   5.291 -0.1117  0.0455 -0.4007
 5150SOL    HW127083   2.395   4.225   5.326  0.9895 -1.1951 -0.2634
 5150SOL    HW227084   2.268   4.168   5.365  0.2353  0.9672 -0.1687
 5151SOL     OW27085   2.901   1.180   3.252  0.2806 -0.2720 -0.5987
 5151SOL    HW127086   2.976   1.131   3.219  1.7461  0.5658  1.5010
 5151SOL    HW227087   2.898   1.144   3.341  0.0529  0.0471 -0.4784
 5152SOL     OW27088   3.571   1.300   5.944 -0.4343  0.0459  0.0200
 5152SOL    HW127089   3.516   1.376   5.926  1.8683  1.5756 -0.6546
 5152SOL    HW227090   3.505   1.231   5.948 -0.0333 -0.2865  0.9354
 5153SOL     OW27091   0.130   2.590   9.481  0.2267 -0.4160 -0.6994
 5153SOL    HW127092   0.038   2.603   9.505 -0.4775 -0.8821 -3.2123
 5153SOL    HW227093   0.172   2.556   9.560  0.3764  0.1873 -0.5207
 5154SOL     OW27094   1.652   1.138  17.409  0.4049  0.2598  0.8000
 5154SOL    HW127095   1.558   1.122  17.404  0.7414 -1.5768  0.5305
 5154SOL    HW227096   1.688   1.078  17.344 -0.1194  0.0057  0.7488
 5155SOL     OW27097   4.379   0.899   2.503  0.1962  0.0541 -0.0735
 5155SOL    HW127098   4.340   0.975   2.546  0.4085  1.3991 -2.2330
 5155SOL    HW227099   4.417   0.857   2.580 -2.3802 -0.9487  0.6544
 5156SOL     OW27100   0.917   1.304  12.788  0.5891 -0.3406 -0.1764
 5156SOL    HW127101   0.937   1.374  12.851  0.1419  0.0147 -0.4356
 5156SOL    HW227102   0.948   1.341  12.705  0.0772  1.0275  0.2387
 5157SOL     OW27103   3.263   4.639   8.385  0.3200 -0.5881  0.0599
 5157SOL    HW127104   3.272   4.545   8.371  2.2354 -0.7041  2.0865
 5157SOL    HW227105   3.216   4.649   8.302  0.1815 -0.7508  0.1193
 5158SOL     OW27106   4.089   1.442   6.415  0.2330  0.2783 -0.1170
 5158SOL    HW127107   4.044   1.365   6.378  1.8260 -1.7837  2.3051
 5158SOL    HW227108   4.177   1.406   6.424  0.4544  0.1848 -2.4682
 5159SOL     OW27109   3.722   1.224   3.359  0.1630 -0.4616 -0.3433
 5159SOL    HW127110   3.694   1.166   3.288  1.7722 -1.3255 -0.2645
 5159SOL    HW227111   3.712   1.171   3.438  1.3264 -0.1826 -0.0102
 5160SOL     OW27112   2.168   1.547  14.103  0.2139  0.1203 -0.5681
 5160SOL    HW127113   2.145   1.596  14.183  0.5252 -1.5084  0.5204
 5160SOL    HW227114   2.082   1.532  14.064 -0.1698  0.2138  0.2361
 5161SOL     OW27115   4.140   2.653   9.241  0.1872  0.0062  0.1249
 5161SOL    HW127116   4.153   2.704   9.321 -1.5392 -1.2458  1.1979
 5161SOL    HW227117   4.081   2.587   9.278  0.7029 -1.1217 -1.0824
 5162SOL     OW27118   0.893   0.964   8.059 -0.1331  0.2390  0.0184
 5162SOL    HW127119   0.966   0.904   8.047 -0.4413 -0.1623  0.1296
 5162SOL    HW227120   0.835   0.927   7.992  0.9723 -0.4837 -0.5465
 5163SOL     OW27121   0.685   1.480   3.606 -0.2422  0.0085 -0.2269
 5163SOL    HW127122   0.722   1.568   3.609  1.6459 -0.8519  1.6556
 5163SOL    HW227123   0.601   1.482   3.653 -0.2302 -0.7839 -0.1768
 5164SOL     OW27124   3.588   0.389  17.153  0.1371  0.0799 -0.0827
 5164SOL    HW127125   3.645   0.312  17.160 -1.1647 -0.8910 -0.0976
 5164SOL    HW227126   3.648   0.448  17.108  0.9259  0.1251  1.0388
 5165SOL     OW27127   0.987   3.986   0.445 -0.0036  0.0492  0.0073
 5165SOL    HW127128   1.022   3.943   0.523 -0.2146  0.8778  0.5483
 5165SOL    HW227129   0.896   3.957   0.443 -0.4915  1.6525 -1.1035
 5166SOL     OW27130   1.795   3.870   4.758 -0.5087 -0.8579  0.0953
 5166SOL    HW127131   1.887   3.846   4.749 -0.6235 -1.2941  0.0724
 5166SOL    HW227132   1.790   3.883   4.852 -0.5052  0.8363 -0.1242
 5167SOL     OW27133   2.676   1.034  15.887  0.2245 -0.1580 -0.2373
 5167SOL    HW127134   2.697   1.086  15.810  1.5303 -1.2409 -0.6099
 5167SOL    HW227135   2.668   1.104  15.952 -1.2511  0.2232 -0.8397
 5168SOL     OW27136   3.292   4.030  12.430  0.2389 -0.6101  0.1879
 5168SOL    HW127137   3.287   4.061  12.521 -0.6513 -0.0130 -0.0601
 5168SOL    HW227138   3.197   4.035  12.422  0.5397  0.3689 -2.6859
 5169SOL     OW27139   1.682   3.159   9.662 -0.0786 -0.1732 -0.2102
 5169SOL    HW127140   1.595   3.198   9.674 -0.7065 -1.9095  0.8367
 5169SOL    HW227141   1.723   3.224   9.604  1.3912  0.0054  1.0159
 5170SOL     OW27142   3.101   0.855   8.433 -0.6789  0.1083 -1.0630
 5170SOL    HW127143   3.077   0.893   8.349  1.4664  1.0153 -1.2377
 5170SOL    HW227144   3.162   0.922   8.461  0.7514 -0.9249 -1.7420
 5171SOL     OW27145   4.064   2.963   3.672  0.7953 -0.0927  0.0024
 5171SOL    HW127146   4.155   2.953   3.645  0.6578 -1.2246 -0.0116
 5171SOL    HW227147   4.050   3.058   3.665 -0.9265 -0.2497  1.3394
 5172SOL     OW27148   4.203   0.457   2.877 -0.4637  0.0554 -0.0506
 5172SOL    HW127149   4.185   0.373   2.837  0.5780 -0.8935  1.4484
 5172SOL    HW227150   4.202   0.508   2.797 -1.4078 -0.0647 -0.1117
 5173SOL     OW27151   2.717   0.868   4.739 -0.1651 -0.0920  0.2606
 5173SOL    HW127152   2.713   0.773   4.725  3.1632 -0.4194  1.4557
 5173SOL    HW227153   2.628   0.895   4.758  0.2619 -0.4653  2.7415
 5174SOL     OW27154   2.894   2.938   9.378  0.3265  0.1144  0.1940
 5174SOL    HW127155   2.975   2.903   9.341 -0.0369 -1.3684  0.7635
 5174SOL    HW227156   2.923   3.029   9.384 -0.1161  0.2191  0.7998
 5175SOL     OW27157   1.402   4.409   6.376 -0.3027  0.9640  0.2431
 5175SOL    HW127158   1.441   4.437   6.293  2.2453 -1.0716  0.7530
 5175SOL    HW227159   1.336   4.477   6.391 -1.2020  0.0002  0.5877
 5176SOL     OW27160   4.196   4.075   8.061  0.0707  0.0926 -0.0281
 5176SOL    HW127161   4.259   4.099   8.129  1.0149  1.5711 -1.4505
 5176SOL    HW227162   4.198   3.979   8.067 -1.5731 -0.0922 -2.5259
 5177SOL     OW27163   4.604   0.935   1.754  0.2601  0.0716 -0.1476
 5177SOL    HW127164   4.656   0.882   1.693  0.8181 -1.2041  1.4385
 5177SOL    HW227165   4.574   0.877   1.824 -0.8408 -0.8684 -1.4002
 5178SOL     OW27166   4.273   4.021   4.351 -0.3528 -0.3533  0.0447
 5178SOL    HW127167   4.269   3.996   4.443 -0.3078  2.1312  0.7077
 5178SOL    HW227168   4.231   3.941   4.320  0.6949 -0.9254  0.1250
 5179SOL     OW27169   2.901   4.574   7.455 -0.4549 -0.5401 -0.0816
 5179SOL    HW127170   2.892   4.529   7.539 -0.0521 -1.1265 -0.3492
 5179SOL    HW227171   2.819   4.604   7.416 -0.1758 -0.1114 -0.3371
 5180SOL     OW27172   0.835   3.891   5.346  0.2006 -0.6097 -0.2804
 5180SOL    HW127173   0.808   3.967   5.398  0.0563  0.5259 -2.0034
 5180SOL    HW227174   0.760   3.833   5.336 -0.9636  1.1530 -1.8099
 5181SOL     OW27175   0.282   3.231   3.917  0.2213  0.0609 -0.3035
 5181SOL    HW127176   0.212   3.229   3.851  2.2266  1.0021 -2.4527
 5181SOL    HW227177   0.254   3.173   3.988  0.0521 -0.0652 -0.4709
 5182SOL     OW27178   4.382   3.900   3.550 -0.2021  0.3441  0.1819
 5182SOL    HW127179   4.319   3.971   3.538  0.6526  1.0955  0.1839
 5182SOL    HW227180   4.425   3.890   3.465 -0.8586  0.8930 -0.2133
 5183SOL     OW27181   3.741   1.976   2.891 -0.4419  0.2346 -0.8607
 5183SOL    HW127182   3.759   1.978   2.985  0.8507  1.2527 -1.1288
 5183SOL    HW227183   3.753   1.884   2.866 -1.9012 -0.6374  1.5949
 5184SOL     OW27184   0.051   3.879   7.467  0.3980 -0.7888 -0.9619
 5184SOL    HW127185   4.693   3.869   7.459  0.0952  1.0247  0.3743
 5184SOL    HW227186   0.095   3.820   7.406  1.0543  0.5389 -1.7731
 5185SOL     OW27187   2.922   4.671  14.477 -0.6710  0.3542 -0.0890
 5185SOL    HW127188   2.959   4.585  14.493 -2.6263 -0.5017 -0.2212
 5185SOL    HW227189   2.877   4.695  14.559  0.1141 -2.4993  1.1490
 5186SOL     OW27190   0.307   2.468   7.088 -0.2488  0.2636  0.1918
 5186SOL    HW127191   0.211   2.464   7.088 -0.2710  0.5708 -1.5052
 5186SOL    HW227192   0.319   2.562   7.075 -0.6070  0.0088 -1.9871
 5187SOL     OW27193   1.868   1.915   6.131  0.0010  0.0200 -0.1565
 5187SOL    HW127194   1.836   1.948   6.216  0.6659 -1.1766  0.5507
 5187SOL    HW227195   1.964   1.917   6.134  0.0003  0.4503 -0.3340
 5188SOL     OW27196   3.710   0.343   9.058  0.2274 -0.7732  0.5704
 5188SOL    HW127197   3.711   0.387   9.143 -0.5567 -1.6432  1.0350
 5188SOL    HW227198   3.779   0.280   9.074  0.7890  0.3284  2.5569
 5189SOL     OW27199   0.495   1.584   6.402 -0.1658  0.5124  0.4614
 5189SOL    HW127200   0.518   1.652   6.339  0.8947  0.0308  0.3297
 5189SOL    HW227201   0.453   1.633   6.473  1.0253  4.2661 -1.4354
 5190SOL     OW27202   4.512   2.629   7.118 -0.1534 -0.0685  0.3844
 5190SOL    HW127203   4.461   2.683   7.178 -0.9349  0.0502 -0.3995
 5190SOL    HW227204   4.471   2.657   7.037 -0.1110 -2.4758 -0.4824
 5191SOL     OW27205   3.269   1.323   5.877  0.0322 -0.6781 -0.7748
 5191SOL    HW127206   3.242   1.232   5.891  0.6189 -0.4526  1.7575
 5191SOL    HW227207   3.305   1.331   5.789  0.2791 -0.1415 -0.6249
 5192SOL     OW27208   4.521   2.984   8.486 -0.3491  0.0486  0.0107
 5192SOL    HW127209   4.450   3.042   8.459 -0.7279 -0.3149  0.2157
 5192SOL    HW227210   4.590   3.048   8.504  0.1074 -0.4889  0.2067
 5193SOL     OW27211   3.065   0.088   5.056 -0.1346  0.0597  0.3693
 5193SOL    HW127212   2.972   0.072   5.072 -0.4808  0.7818 -0.8852
 5193SOL    HW227213   3.083   0.176   5.089  1.3396 -1.4319  3.5492
 5194SOL     OW27214   3.562   3.962   5.780 -0.4498  0.2634 -0.0384
 5194SOL    HW127215   3.549   3.870   5.754 -0.4210 -0.2516  1.7202
 5194SOL    HW227216   3.528   4.015   5.708 -1.2365  1.3952  1.1697
 5195SOL     OW27217   3.320   1.809  15.055 -0.0154 -0.1476  0.2940
 5195SOL    HW127218   3.325   1.733  15.114 -1.9174  1.6193  2.7703
 5195SOL    HW227219   3.414   1.817  15.044 -0.2389 -0.1553 -1.6186
 5196SOL     OW27220   4.109   1.583   6.169 -0.7551 -0.4626 -0.1231
 5196SOL    HW127221   4.066   1.541   6.244  0.5927 -0.9052  0.3922
 5196SOL    HW227222   4.193   1.605   6.210 -0.4266  1.3835 -1.7718
 5197SOL     OW27223   4.275   1.411  16.572  0.3422  0.7892 -0.1318
 5197SOL    HW127224   4.350   1.356  16.595 -0.8826  0.2143  2.5174
 5197SOL    HW227225   4.264   1.398  16.478 -1.2053 -1.9340  0.4463
 5198SOL     OW27226   1.243   0.900   1.895 -0.0399  0.1459 -0.1961
 5198SOL    HW127227   1.292   0.883   1.975 -1.1703 -2.4045 -0.0544
 5198SOL    HW227228   1.313   0.913   1.831 -0.6999  1.9282 -0.5601
 5199SOL     OW27229   3.724   0.362   6.821  1.0914 -0.6896  0.1981
 5199SOL    HW127230   3.783   0.314   6.762  0.5374 -0.3480 -0.6408
 5199SOL    HW227231   3.787   0.382   6.890  0.5019  0.8358  0.2789
 5200SOL     OW27232   2.869   0.726   2.212 -0.0480  0.4361 -0.1379
 5200SOL    HW127233   2.832   0.777   2.140 -0.4421 -0.3810 -0.5077
 5200SOL    HW227234   2.833   0.769   2.290  0.0347  0.2394  0.0092
 5201SOL     OW27235   3.844   3.564   9.232 -0.4034  0.4341 -0.2846
 5201SOL    HW127236   3.916   3.517   9.273  0.4904  2.4612  0.5077
 5201SOL    HW227237   3.765   3.514   9.253 -1.0509  1.6793  0.2370
 5202SOL     OW27238   4.649   1.779   3.437 -0.2684 -0.2787 -0.4943
 5202SOL    HW127239   4.629   1.720   3.364  1.5542 -2.0470  0.4401
 5202SOL    HW227240   4.635   1.861   3.390  0.4819 -0.3206 -0.8001
 5203SOL     OW27241   4.737   1.090  14.268  0.5559 -0.5314 -0.2993
 5203SOL    HW127242   4.678   1.111  14.195 -2.1737 -0.7052  1.8461
 5203SOL    HW227243   0.022   1.000  14.248  0.4318 -0.4595 -0.7580
 5204SOL     OW27244   4.362   0.818   3.771 -0.0835  0.5129 -0.1336
 5204SOL    HW127245   4.319   0.733   3.769 -1.3717  1.1887 -0.6502
 5204SOL    HW227246   4.446   0.787   3.737  0.0270 -2.1367  2.5016
 5205SOL     OW27247   2.176   1.928   1.339 -0.6230  0.2296 -0.3610
 5205SOL    HW127248   2.213   1.936   1.427 -2.2523 -0.8433  0.4096
 5205SOL    HW227249   2.103   1.870   1.359 -1.4138  1.3807  0.0994
 5206SOL     OW27250   2.383   2.024   2.398 -0.0297  0.3146  0.1881
 5206SOL    HW127251   2.460   2.056   2.445  1.2418 -1.3532 -0.7399
 5206SOL    HW227252   2.404   1.934   2.373  1.6995  0.6717  0.3608
 5207SOL     OW27253   0.204   4.011   3.876 -0.7828  0.0691 -0.6990
 5207SOL    HW127254   0.204   4.009   3.972  2.0129 -2.0370 -0.7619
 5207SOL    HW227255   0.268   4.082   3.865 -1.0685  0.6852  1.6366
 5208SOL     OW27256   3.938   4.656   8.564  0.1010 -0.3274 -0.0435
 5208SOL    HW127257   3.971   0.002   8.598  1.3356 -1.2053  0.9261
 5208SOL    HW227258   4.002   4.643   8.495 -1.7078 -0.1281 -1.7618
 5209SOL     OW27259   0.364   0.149   2.574 -0.3270 -0.0430 -0.0609
 5209SOL    HW127260   0.448   0.192   2.590  0.0939 -0.8920 -0.0137
 5209SOL    HW227261   0.378   0.054   2.577  0.4461  0.1354  2.0904
 5210SOL     OW27262   2.096   3.599   1.049 -0.2405  0.1438  0.6671
 5210SOL    HW127263   2.113   3.593   0.955  0.7761 -1.7260  0.9725
 5210SOL    HW227264   2.158   3.534   1.083 -1.3222 -1.4962 -0.5576
 5211SOL     OW27265   2.142   0.321   8.257 -0.1891 -0.2011 -0.1716
 5211SOL    HW127266   2.206   0.321   8.328 -2.4806 -1.3554  1.8926
 5211SOL    HW227267   2.187   0.356   8.180  0.1544  0.2052  0.2214
 5212SOL     OW27268   1.170   0.721  16.178 -0.7779  0.2009 -0.1116
 5212SOL    HW127269   1.143   0.783  16.247  1.1093  2.5245 -1.4678
 5212SOL    HW227270   1.091   0.690  16.134 -1.1732  1.1882 -0.1112
 5213SOL     OW27271   0.332   4.589   2.474  0.1289  0.1158  0.2273
 5213SOL    HW127272   0.245   4.630   2.480 -0.2240 -0.8754  1.9161
 5213SOL    HW227273   0.315   4.550   2.388  1.1054  3.6742 -1.5538
 5214SOL     OW27274   0.232   4.612   2.089  0.4206 -0.2021 -0.0097
 5214SOL    HW127275   0.142   4.583   2.074  0.8486 -2.4710  1.8056
 5214SOL    HW227276   0.264   4.627   2.000 -0.5231  1.0831 -0.1276
 5215SOL     OW27277   4.249   1.689   2.864 -0.1823 -0.3893 -0.4085
 5215SOL    HW127278   4.316   1.632   2.827 -0.6207 -0.1087 -1.6227
 5215SOL    HW227279   4.251   1.771   2.815 -3.0847 -0.3203 -0.4130
 5216SOL     OW27280   1.884   2.457  11.712  0.2732  0.6584 -0.5900
 5216SOL    HW127281   1.949   2.519  11.744  0.4938  0.1119  0.0168
 5216SOL    HW227282   1.944   2.410  11.654  0.5637  0.0906  0.1780
 5217SOL     OW27283   1.504   4.272   0.402 -0.1889 -0.1356  0.0623
 5217SOL    HW127284   1.539   4.299   0.487  0.0305 -1.3929  0.3653
 5217SOL    HW227285   1.418   4.313   0.410 -0.1417 -0.0790  0.2769
 5218SOL     OW27286   0.869   4.666  14.733  0.0991 -0.2743  0.7405
 5218SOL    HW127287   0.876   4.725  14.808  2.4031  1.5491 -0.8741
 5218SOL    HW227288   0.938   4.692  14.672 -1.0981  3.5969  0.9861
 5219SOL     OW27289   2.864   3.699   7.897 -0.1939  0.0872  0.0240
 5219SOL    HW127290   2.790   3.646   7.868 -0.8078  0.2468  1.2964
 5219SOL    HW227291   2.911   3.711   7.815  0.3332 -0.4998  0.2461
 5220SOL     OW27292   3.739   0.694  14.283  0.3809  0.7132  0.0482
 5220SOL    HW127293   3.760   0.681  14.375 -1.0602  0.7127  0.3699
 5220SOL    HW227294   3.661   0.638  14.278  0.2243  1.0423 -1.3556
 5221SOL     OW27295   0.728   2.722   2.775 -0.3300 -0.7802 -0.9342
 5221SOL    HW127296   0.728   2.778   2.852  1.7606 -2.6083  0.3900
 5221SOL    HW227297   0.697   2.640   2.813  1.0950 -1.2098 -0.6874
 5222SOL     OW27298   2.569   0.789   7.411 -0.0170 -0.3072 -0.0069
 5222SOL    HW127299   2.548   0.728   7.340  0.1158 -2.6024  1.9008
 5222SOL    HW227300   2.661   0.764   7.422 -0.3056 -1.1659  0.4386
 5223SOL     OW27301   1.303   0.241   9.065 -0.0965  0.6070 -0.4625
 5223SOL    HW127302   1.260   0.318   9.102 -0.0475  0.8809 -0.9808
 5223SOL    HW227303   1.388   0.284   9.058  0.4059 -0.3800 -0.4369
 5224SOL     OW27304   0.221   3.377   6.539  0.3230  0.1219 -0.3661
 5224SOL    HW127305   0.233   3.291   6.498  0.7825 -0.3409  0.7449
 5224SOL    HW227306   0.196   3.354   6.628 -1.4834  3.2517 -0.0628
 5225SOL     OW27307   3.869   0.577   2.497  0.2579 -0.6753  0.1948
 5225SOL    HW127308   3.787   0.612   2.461  0.6235 -0.4371 -0.4198
 5225SOL    HW227309   3.866   0.491   2.538 -0.8977  0.0721  1.6796
 5226SOL     OW27310   1.082   0.889  13.477  0.1473 -0.9224  0.1293
 5226SOL    HW127311   1.009   0.947  13.500  2.2649  1.2738  1.3254
 5226SOL    HW227312   1.153   0.914  13.537 -2.0409  0.7335  2.0531
 5227SOL     OW27313   3.764   2.049  17.102  0.8466 -0.3669  0.3739
 5227SOL    HW127314   3.803   2.004  17.028  0.8984  1.1261 -0.5146
 5227SOL    HW227315   3.782   1.987  17.172 -0.7849 -2.4186 -1.0279
 5228SOL     OW27316   2.910   3.957   8.692 -0.0006  0.4749  0.6040
 5228SOL    HW127317   2.844   3.921   8.751 -0.9364  0.3167 -0.5377
 5228SOL    HW227318   2.989   3.906   8.712 -0.5020 -1.1304 -1.4427
 5229SOL     OW27319   4.531   3.403   8.509  0.4459 -0.0614  0.2728
 5229SOL    HW127320   4.538   3.497   8.497  0.7545 -0.1695 -0.3741
 5229SOL    HW227321   4.501   3.377   8.421  1.0371 -0.6082  0.2316
 5230SOL     OW27322   1.781   2.098   3.835 -0.2193  0.4635  0.6092
 5230SOL    HW127323   1.785   2.178   3.784 -3.9581 -0.5179 -1.2224
 5230SOL    HW227324   1.807   2.026   3.777  2.6121  1.6394  0.4506
 5231SOL     OW27325   4.696   4.017   5.618 -0.2565  0.5167  0.1147
 5231SOL    HW127326   4.687   4.048   5.528  2.2152  0.5927 -0.1008
 5231SOL    HW227327   0.030   4.076   5.642  0.8382 -0.6711 -0.1928
 5232SOL     OW27328   3.142   2.809   0.229  0.3268 -0.2296  0.3787
 5232SOL    HW127329   3.219   2.784   0.177  0.1561 -0.6792  0.3434
 5232SOL    HW227330   3.131   2.734   0.288 -3.6393 -1.1587 -1.5417
 5233SOL     OW27331   3.104   3.394  11.591 -0.7609  0.1223 -0.6058
 5233SOL    HW127332   3.137   3.331  11.655 -0.7701  0.4142 -0.3148
 5233SOL    HW227333   3.031   3.346  11.552 -2.8447  0.9482  2.2554
 5234SOL     OW27334   3.110   1.995   8.669  0.4064 -0.2897 -0.7791
 5234SOL    HW127335   3.088   1.919   8.615 -2.7096 -1.1137  1.6850
 5234SOL    HW227336   3.149   1.947   8.741 -1.0448  1.4083  1.1287
 5235SOL     OW27337   0.543   3.573   5.124  0.1845  0.1845  0.0305
 5235SOL    HW127338   0.570   3.596   5.213  0.4483 -0.5405  0.1385
 5235SOL    HW227339   0.593   3.493   5.110  1.2288  0.9339 -0.4708
 5236SOL     OW27340   3.133   3.658   1.696 -0.5013  0.1108  0.3817
 5236SOL    HW127341   3.115   3.744   1.735  0.4673 -0.2444  1.5802
 5236SOL    HW227342   3.075   3.612   1.757 -0.8536 -1.5182 -1.1823
 5237SOL     OW27343   3.588   2.485   1.455  0.3355  0.2426  0.7739
 5237SOL    HW127344   3.589   2.489   1.359  1.4726  0.6462  0.8055
 5237SOL    HW227345   3.544   2.402   1.471 -0.9868  0.7858  0.0330
 5238SOL     OW27346   1.206   2.522   5.777 -0.0615  0.2198  0.3517
 5238SOL    HW127347   1.291   2.512   5.819  1.2764  0.5813 -2.3082
 5238SOL    HW227348   1.238   2.594   5.723  0.1331 -0.7932 -0.8655
 5239SOL     OW27349   1.259   0.428   6.054  0.1300 -0.2279  0.2674
 5239SOL    HW127350   1.318   0.447   5.982 -0.0696  0.6474  0.3308
 5239SOL    HW227351   1.209   0.510   6.060 -0.6925 -0.4058 -4.1898
 5240SOL     OW27352   1.634   1.923   0.391 -0.1992  0.0159  0.1773
 5240SOL    HW127353   1.640   1.954   0.300 -0.5729  1.1377  0.5312
 5240SOL    HW227354   1.642   1.828   0.385  0.0747 -0.1993  4.1880
 5241SOL     OW27355   1.468   3.760   5.100  0.3920 -0.0159 -0.3206
 5241SOL    HW127356   1.542   3.739   5.044 -0.9752 -0.6951 -1.8536
 5241SOL    HW227357   1.404   3.694   5.075  0.8100 -0.7232  0.4950
 5242SOL     OW27358   1.030   0.630   2.000  0.4311 -0.0844 -0.1007
 5242SOL    HW127359   1.060   0.684   2.074 -1.7520 -0.9830  1.4559
 5242SOL    HW227360   1.038   0.541   2.032 -2.7817 -0.5773 -0.7204
 5243SOL     OW27361   3.775   0.161   3.512 -0.0150  0.1618 -0.3417
 5243SOL    HW127362   3.776   0.195   3.602 -0.8193  2.8305 -1.3513
 5243SOL    HW227363   3.817   0.076   3.521 -0.2575  0.0969  0.2120
 5244SOL     OW27364   0.524   1.425   4.302 -0.4371  0.7675  0.0401
 5244SOL    HW127365   0.564   1.402   4.218  0.6664 -1.2299  1.1121
 5244SOL    HW227366   0.569   1.363   4.360 -2.7975  1.4185  2.5745
 5245SOL     OW27367   1.507   4.213   1.600 -0.1924 -0.1780 -0.3356
 5245SOL    HW127368   1.591   4.204   1.646 -0.8718  0.2188  0.9732
 5245SOL    HW227369   1.504   4.126   1.561 -1.1630 -0.4135  0.2838
 5246SOL     OW27370   3.689   3.411   2.847 -0.1264  0.4749 -0.4735
 5246SOL    HW127371   3.598   3.382   2.837  0.2988 -0.5207 -1.4704
 5246SOL    HW227372   3.709   3.431   2.756  2.3357 -0.4243 -0.1407
 5247SOL     OW27373   1.695   2.516   8.864  0.6407  0.1376 -0.2605
 5247SOL    HW127374   1.707   2.535   8.771 -2.0997  0.4791 -0.5479
 5247SOL    HW227375   1.653   2.598   8.892 -0.4402 -0.4660 -0.1411
 5248SOL     OW27376   4.665   0.790   5.144  0.7126  0.2051  0.8849
 5248SOL    HW127377   4.582   0.773   5.098 -0.7650  2.0809  2.8557
 5248SOL    HW227378   4.695   0.699   5.150  1.8277  0.5831  0.9164
 5249SOL     OW27379   3.977   2.368   1.728  0.1998 -0.0169  0.7511
 5249SOL    HW127380   3.990   2.462   1.743  3.3344 -0.2324 -0.5476
 5249SOL    HW227381   3.923   2.343   1.803  0.1878 -0.0511  0.7308
 5250SOL     OW27382   2.130   3.873  14.899 -0.3122 -0.0365  1.0715
 5250SOL    HW127383   2.050   3.826  14.921  0.1455 -0.1468  2.4895
 5250SOL    HW227384   2.172   3.800  14.853 -0.6945  0.4896 -0.1085
 5251SOL     OW27385   3.005   0.133   7.445  0.2374 -0.5400 -0.6862
 5251SOL    HW127386   3.050   0.148   7.362  0.8032 -0.2765 -0.3291
 5251SOL    HW227387   2.972   0.043   7.445 -3.2004  0.7054  1.0479
 5252SOL     OW27388   3.461   0.562  13.063 -0.4470  0.0494 -0.2503
 5252SOL    HW127389   3.520   0.578  13.137 -0.8781  0.8411 -0.0733
 5252SOL    HW227390   3.426   0.481  13.098  1.2459 -1.0553 -1.0915
 5253SOL     OW27391   3.050   4.078  16.661 -0.0226 -0.8725  0.3374
 5253SOL    HW127392   3.071   4.095  16.753 -4.9665  1.8670  0.9408
 5253SOL    HW227393   3.138   4.054  16.632 -0.7894 -1.0904 -1.8130
 5254SOL     OW27394   4.395   0.474   9.557  0.7129  0.7082  0.7829
 5254SOL    HW127395   4.321   0.433   9.600  1.2264 -2.3474 -1.1980
 5254SOL    HW227396   4.434   0.480   9.644  2.8271 -0.3941 -0.0728
 5255SOL     OW27397   1.154   3.116  10.781  0.3194  0.2776  0.2414
 5255SOL    HW127398   1.157   3.111  10.877 -0.7709 -0.4724  0.2402
 5255SOL    HW227399   1.102   3.195  10.771 -0.8716 -0.5215  0.0761
 5256SOL     OW27400   2.636   2.787   2.691 -0.9401  0.2654 -0.0917
 5256SOL    HW127401   2.714   2.843   2.693 -1.2090  0.6105  1.3292
 5256SOL    HW227402   2.656   2.730   2.766 -1.1694 -0.3530 -0.5003
 5257SOL     OW27403   1.804   4.659  15.977 -0.2035  0.2896  0.1502
 5257SOL    HW127404   1.852   0.005  15.981  1.2087 -0.5675  0.9979
 5257SOL    HW227405   1.857   4.615  16.043 -0.6428 -1.7987 -0.9143
 5258SOL     OW27406   2.921   2.450   7.809  0.4921  0.1664  0.1897
 5258SOL    HW127407   2.975   2.521   7.843  1.1546  0.2847 -1.0946
 5258SOL    HW227408   2.874   2.426   7.889  1.4590  1.0336  1.0164
 5259SOL     OW27409   4.668   2.361  14.244 -0.3610 -0.0193 -0.0741
 5259SOL    HW127410   0.022   2.343  14.268  0.4759  1.5101 -2.1146
 5259SOL    HW227411   4.632   2.382  14.330 -0.1214 -0.0499  0.0318
 5260SOL     OW27412   0.029   3.781   5.480  0.6308  0.0244  0.0863
 5260SOL    HW127413   4.732   3.718   5.544  0.6398  1.1030  1.1368
 5260SOL    HW227414   0.031   3.862   5.530 -0.5999  0.5049 -0.6530
 5261SOL     OW27415   0.751   1.257  15.529 -0.1739  0.3126  0.2256
 5261SOL    HW127416   0.669   1.208  15.515 -1.0173  1.6311  0.5646
 5261SOL    HW227417   0.735   1.320  15.600  0.0992  2.6914 -1.8491
 5262SOL     OW27418   3.407   4.011   7.736  0.1208 -0.1115 -0.5512
 5262SOL    HW127419   3.373   4.090   7.778 -1.3058 -1.1150  0.1918
 5262SOL    HW227420   3.501   4.023   7.726 -0.0001  0.3054 -1.1772
 5263SOL     OW27421   1.343   0.397   8.109  0.2159  0.2315 -0.0456
 5263SOL    HW127422   1.293   0.452   8.049  0.9071  2.7305  1.6562
 5263SOL    HW227423   1.312   0.428   8.195  1.3972  2.0406 -0.2628
 5264SOL     OW27424   0.433   4.531   1.443  0.2025 -0.4835 -0.1525
 5264SOL    HW127425   0.358   4.589   1.459  2.2135  1.8398  0.8965
 5264SOL    HW227426   0.474   4.522   1.529  1.1742  3.5234 -0.1827
 5265SOL     OW27427   4.414   1.364   8.547 -0.2011 -0.3687  0.0214
 5265SOL    HW127428   4.407   1.326   8.635 -2.1535 -1.5163 -0.6183
 5265SOL    HW227429   4.475   1.434   8.572 -0.0090  0.5322 -2.9342
 5266SOL     OW27430   0.359   1.965   2.188 -0.1451  0.1178 -0.0631
 5266SOL    HW127431   0.401   1.929   2.266  1.1034 -0.7244 -1.1158
 5266SOL    HW227432   0.393   1.903   2.123 -1.5112  0.0186 -0.6905
 5267SOL     OW27433   2.333   2.409   4.982 -0.3845  0.0929 -0.5994
 5267SOL    HW127434   2.385   2.355   5.041 -0.1512 -0.0152 -0.9077
 5267SOL    HW227435   2.360   2.374   4.897  0.0751 -1.7316  0.3029
 5268SOL     OW27436   1.224   0.563   5.661  0.1783  0.3505 -0.2250
 5268SOL    HW127437   1.169   0.625   5.614  1.3239  0.2583 -1.6790
 5268SOL    HW227438   1.157   0.495   5.674  0.8830 -0.6844 -1.9660
 5269SOL     OW27439   2.503   1.127   9.694 -0.6562  0.0039 -0.0629
 5269SOL    HW127440   2.482   1.098   9.783 -0.8783 -1.9289 -0.7472
 5269SOL    HW227441   2.472   1.058   9.636  1.1054 -2.4139  1.9168
 5270SOL     OW27442   0.575   2.892  16.126  0.3581  0.2038  0.1435
 5270SOL    HW127443   0.549   2.983  16.134 -1.6079 -0.4241  0.8208
 5270SOL    HW227444   0.655   2.895  16.179 -2.1561  0.7829  3.9297
 5271SOL     OW27445   1.558   0.008   5.928 -0.4989 -0.3501  0.0058
 5271SOL    HW127446   1.566   0.012   6.023  1.6347  0.8668 -0.2240
 5271SOL    HW227447   1.576   0.099   5.905  0.1769 -0.1398  1.3744
 5272SOL     OW27448   0.908   1.243   4.169 -0.0056 -0.2202 -0.3075
 5272SOL    HW127449   0.985   1.240   4.226 -0.9695  1.5390  1.1073
 5272SOL    HW227450   0.936   1.180   4.103  0.1719 -0.4541 -0.0079
 5273SOL     OW27451   2.561   0.465   0.790  0.1777  0.0400  0.0678
 5273SOL    HW127452   2.592   0.514   0.866 -1.9306  2.8844 -0.9188
 5273SOL    HW227453   2.645   0.438   0.755 -0.2831  0.5628 -1.4117
 5274SOL     OW27454   2.905   4.272   8.007  0.4028 -0.3966  0.3159
 5274SOL    HW127455   2.940   4.262   7.918 -0.3067 -0.3092  0.0319
 5274SOL    HW227456   2.830   4.212   8.006 -1.7795  2.4104 -1.3724
 5275SOL     OW27457   3.342   1.132  10.618 -0.3803 -0.1210 -0.3539
 5275SOL    HW127458   3.263   1.079  10.616  0.3565 -1.1550 -1.4449
 5275SOL    HW227459   3.376   1.123  10.708  0.6246  2.5978 -0.4548
 5276SOL     OW27460   0.103   0.402   5.437  0.0567  0.5624  0.3038
 5276SOL    HW127461   0.035   0.381   5.373  2.1406 -0.4739 -1.5382
 5276SOL    HW227462   0.068   0.479   5.483 -2.3410 -0.2521 -0.1331
 5277SOL     OW27463   2.766   2.386  11.638  0.2018 -0.0884 -0.8395
 5277SOL    HW127464   2.722   2.404  11.722  0.0619  0.7609 -1.0887
 5277SOL    HW227465   2.855   2.372  11.670 -0.7106 -0.5036  1.5478
 5278SOL     OW27466   3.541   2.611   9.314  0.7834 -0.1368  0.2576
 5278SOL    HW127467   3.576   2.569   9.235  0.8606  0.5033 -0.0488
 5278SOL    HW227468   3.619   2.588   9.365 -0.2492 -0.5353  1.6556
 5279SOL     OW27469   4.390   2.509   2.071 -0.2543  0.1076  0.5667
 5279SOL    HW127470   4.362   2.526   1.981 -3.6153  1.6529  1.9006
 5279SOL    HW227471   4.315   2.466   2.111 -0.4916  2.5498  2.6762
 5280SOL     OW27472   3.474   0.277  14.526 -0.6401  0.0877 -0.3176
 5280SOL    HW127473   3.513   0.287  14.439 -2.2494  1.7115 -0.8318
 5280SOL    HW227474   3.553   0.279  14.580 -0.6131  1.9850 -0.4391
 5281SOL     OW27475   1.215   0.354   5.407 -0.4760  0.1793 -0.0420
 5281SOL    HW127476   1.127   0.386   5.387 -0.3310  1.2173  0.9457
 5281SOL    HW227477   1.218   0.373   5.501  1.4955  1.5128 -0.3675
 5282SOL     OW27478   2.927   0.182   7.728  0.6163  0.3255 -0.3201
 5282SOL    HW127479   2.971   0.154   7.648 -0.8677  2.1588 -1.7881
 5282SOL    HW227480   2.913   0.097   7.769 -0.1664  1.1738  1.1849
 5283SOL     OW27481   3.143   3.678   6.916 -0.4451  0.3341  1.0825
 5283SOL    HW127482   3.132   3.627   6.996  0.2835  0.5200  1.3002
 5283SOL    HW227483   3.234   3.708   6.926 -0.9956  1.7941  1.8229
 5284SOL     OW27484   3.787   2.129   8.986 -0.6568  0.4144  0.7741
 5284SOL    HW127485   3.756   2.039   8.980  0.9865 -0.1754  1.0901
 5284SOL    HW227486   3.721   2.158   8.923  0.1313 -0.9270 -0.6807
 5285SOL     OW27487   3.772   2.465  12.372  0.6370 -0.2521 -0.1106
 5285SOL    HW127488   3.808   2.388  12.328 -1.9310 -2.0893  0.9662
 5285SOL    HW227489   3.752   2.525  12.301 -0.7108  0.0647  0.5394
 5286SOL     OW27490   4.671   0.243   4.731  0.0181 -0.2494 -0.0339
 5286SOL    HW127491   4.730   0.168   4.736 -0.9780 -1.0049  0.5447
 5286SOL    HW227492   4.686   0.258   4.638  1.5545  1.2216  0.4643
 5287SOL     OW27493   0.320   2.520   6.064  0.0740 -0.4013  0.3102
 5287SOL    HW127494   0.413   2.529   6.088 -0.0055  2.0886 -0.2945
 5287SOL    HW227495   0.324   2.472   5.981  1.0683  0.0816  0.0715
 5288SOL     OW27496   4.153   2.188   4.245  0.1736  0.3934  0.0329
 5288SOL    HW127497   4.191   2.140   4.172  1.2475  3.1633 -1.2253
 5288SOL    HW227498   4.165   2.117   4.308 -0.1706  0.0714 -0.2646
 5289SOL     OW27499   4.595   3.014   6.279 -0.0717 -0.6318 -0.1460
 5289SOL    HW127500   4.564   3.098   6.313 -2.1018 -1.9518  1.2550
 5289SOL    HW227501   4.619   3.035   6.189  1.3665  1.0502  0.6176
 5290SOL     OW27502   3.530   1.220   6.894  0.3230 -0.0652  0.2485
 5290SOL    HW127503   3.567   1.308   6.889 -1.0664  0.5146  0.2516
 5290SOL    HW227504   3.616   1.192   6.926  2.1266  3.6727 -1.2634
 5291SOL     OW27505   2.327   0.472   6.681 -0.2511  0.7992 -0.3351
 5291SOL    HW127506   2.262   0.403   6.666 -1.9614  2.2596  0.2443
 5291SOL    HW227507   2.280   0.523   6.747 -1.2434 -3.4451  2.2451
 5292SOL     OW27508   2.408   1.692  16.661  0.9501 -0.7899 -0.6874
 5292SOL    HW127509   2.368   1.606  16.673 -0.6822  0.0263 -0.2069
 5292SOL    HW227510   2.497   1.672  16.689  0.8687 -1.0055 -0.5864
 5293SOL     OW27511   2.435   1.864   5.312 -0.0251 -0.0264 -0.4455
 5293SOL    HW127512   2.477   1.896   5.392 -0.2970  0.1863 -0.3858
 5293SOL    HW227513   2.362   1.823   5.359  0.9641  0.0698  1.1614
 5294SOL     OW27514   0.672   1.703  15.078 -0.3297 -0.1241  0.6421
 5294SOL    HW127515   0.718   1.745  15.005  1.7839 -0.4855  1.7705
 5294SOL    HW227516   0.658   1.780  15.132 -1.2222  1.4502 -1.8259
 5295SOL     OW27517   3.233   3.720   3.315  0.5569 -0.2499  0.1331
 5295SOL    HW127518   3.305   3.696   3.256  0.6440  1.1143 -0.3061
 5295SOL    HW227519   3.215   3.804   3.273  1.4318  0.3624  0.9718
 5296SOL     OW27520   4.095   2.718   5.949 -0.3501  0.2956 -0.0743
 5296SOL    HW127521   4.003   2.745   5.953 -0.0114  1.6957 -1.5764
 5296SOL    HW227522   4.091   2.639   6.003  0.4524 -0.6534 -1.4098
 5297SOL     OW27523   4.188   0.332   9.055  0.8160  0.1742 -0.2273
 5297SOL    HW127524   4.219   0.253   9.011  0.4983  0.9798 -1.8973
 5297SOL    HW227525   4.203   0.309   9.147  0.4500 -0.4965 -0.3399
 5298SOL     OW27526   3.715   0.336   7.594  0.0527  0.2353  0.0310
 5298SOL    HW127527   3.810   0.322   7.591  0.0923  0.4167  0.5299
 5298SOL    HW227528   3.717   0.429   7.614  0.4306  0.4544 -0.9892
 5299SOL     OW27529   0.771   1.381   7.432  0.0907  0.3877 -0.2508
 5299SOL    HW127530   0.705   1.439   7.395  0.1477  2.0709  2.2731
 5299SOL    HW227531   0.851   1.433   7.421  0.0765  0.6264  0.7049
 5300SOL     OW27532   4.541   3.481   3.413 -0.2708  0.4837 -0.2598
 5300SOL    HW127533   4.461   3.459   3.462 -2.1829  5.6652 -1.0541
 5300SOL    HW227534   4.594   3.408   3.447  1.4773  2.6227  1.5720
 5301SOL     OW27535   1.343   1.329   2.455  0.1217 -0.1262 -0.3882
 5301SOL    HW127536   1.352   1.424   2.447  0.4669 -0.0332  1.0194
 5301SOL    HW227537   1.254   1.316   2.424 -0.6435  0.3543  1.6595
 5302SOL     OW27538   0.512   3.281   0.775  0.0177 -0.1895  0.6055
 5302SOL    HW127539   0.451   3.250   0.842 -2.2335  1.5324 -0.6437
 5302SOL    HW227540   0.562   3.347   0.825 -1.1994  0.0251  1.5391
 5303SOL     OW27541   1.187   2.247   6.795 -0.3206  0.5910 -0.0252
 5303SOL    HW127542   1.142   2.219   6.875 -0.2765 -1.1009 -0.5960
 5303SOL    HW227543   1.124   2.220   6.729  1.3645 -0.3572 -1.2213
 5304SOL     OW27544   3.917   4.251   8.765  0.4688 -0.3232  0.3555
 5304SOL    HW127545   3.884   4.309   8.834 -1.8793  0.2127 -1.2178
 5304SOL    HW227546   3.906   4.307   8.688  0.4510  1.0890  1.3814
 5305SOL     OW27547   0.890   1.201   6.134 -0.6040  0.2487 -0.6292
 5305SOL    HW127548   0.912   1.176   6.224 -0.2541 -0.5279 -0.9331
 5305SOL    HW227549   0.886   1.113   6.098  1.1916 -0.1438  0.1269
 5306SOL     OW27550   2.622   3.790   9.601 -0.6822 -0.1439  0.5182
 5306SOL    HW127551   2.558   3.790   9.530 -1.8988 -0.8848  1.6098
 5306SOL    HW227552   2.662   3.873   9.576  0.3743 -0.5076  1.0158
 5307SOL     OW27553   1.237   3.819   2.883 -0.3191 -0.3670  0.6326
 5307SOL    HW127554   1.213   3.912   2.880  2.9348  0.4710  0.0434
 5307SOL    HW227555   1.288   3.814   2.964 -1.8218  1.2930  1.6892
 5308SOL     OW27556   0.674   1.737   7.970 -0.3824  0.7989 -0.1376
 5308SOL    HW127557   0.747   1.769   8.022 -0.6159 -0.3337  0.8760
 5308SOL    HW227558   0.651   1.818   7.924  2.8535  0.0645 -3.1140
 5309SOL     OW27559   2.269   2.627   2.221 -0.1984  0.2018 -0.1483
 5309SOL    HW127560   2.311   2.578   2.150 -1.8470 -0.5282 -0.6186
 5309SOL    HW227561   2.180   2.594   2.216 -0.7377  1.7779 -1.3200
 5310SOL     OW27562   1.643   4.105   6.087  0.9117  0.4673  0.0294
 5310SOL    HW127563   1.679   4.024   6.050  1.7533  0.8541 -0.0106
 5310SOL    HW227564   1.711   4.115   6.154  1.5158 -1.7496 -0.2315
 5311SOL     OW27565   1.046   3.064   2.992 -0.1288 -0.6873 -0.4601
 5311SOL    HW127566   1.128   3.065   3.041 -0.1663 -2.2832 -0.3882
 5311SOL    HW227567   0.986   3.108   3.053  1.0637  0.9242 -0.4516
 5312SOL     OW27568   4.125   1.165   1.581  0.4149  0.2695 -0.4437
 5312SOL    HW127569   4.210   1.127   1.603  0.6570  0.0757 -1.7128
 5312SOL    HW227570   4.057   1.109   1.618 -0.9299  1.5806 -0.9350
 5313SOL     OW27571   0.232   1.124  14.660  0.0694  0.0945  0.9107
 5313SOL    HW127572   0.258   1.035  14.636  2.2388  1.1211 -0.5499
 5313SOL    HW227573   0.230   1.113  14.755 -0.6836  0.1965  0.9033
 5314SOL     OW27574   3.668   4.499   7.380  0.3151 -0.6320  0.2539
 5314SOL    HW127575   3.647   4.454   7.298  0.7264  0.8606 -0.6748
 5314SOL    HW227576   3.614   4.456   7.446 -1.1603 -0.1847 -0.6722
 5315SOL     OW27577   2.576   2.538   7.529  0.0778  0.2943 -0.6255
 5315SOL    HW127578   2.550   2.560   7.619 -0.8738  0.6690 -0.9932
 5315SOL    HW227579   2.537   2.450   7.525 -1.5211  1.0354 -1.5471
 5316SOL     OW27580   4.234   0.827   1.053  0.1349  1.1835  0.0188
 5316SOL    HW127581   4.322   0.822   1.014  0.6145  2.8274  0.8902
 5316SOL    HW227582   4.207   0.736   1.043 -0.6259  1.4286 -0.1865
 5317SOL     OW27583   2.539   3.945   4.891  0.5231  0.1828 -0.0781
 5317SOL    HW127584   2.599   3.871   4.889 -0.4674 -0.5748 -1.7699
 5317SOL    HW227585   2.522   3.953   4.985 -1.5052  0.5428 -0.4571
 5318SOL     OW27586   3.258   0.641   8.375 -0.1020  0.7889  0.6845
 5318SOL    HW127587   3.181   0.697   8.368  0.1694  0.8958 -1.5126
 5318SOL    HW227588   3.268   0.597   8.291  0.5172  0.1964  1.0666
 5319SOL     OW27589   1.998   0.076  10.018  0.0238 -0.4542 -0.5069
 5319SOL    HW127590   2.081   0.073  10.066  0.0951  1.2074 -0.5576
 5319SOL    HW227591   1.970   0.165  10.036 -2.8000 -1.0967 -1.7265
 5320SOL     OW27592   1.703   4.161   3.545 -0.7373  0.2592  0.4309
 5320SOL    HW127593   1.663   4.152   3.632  2.6468  0.6798  2.0317
 5320SOL    HW227594   1.735   4.074   3.521 -1.0719  0.6880 -1.5680
 5321SOL     OW27595   0.035   3.646   2.271  0.0044 -0.4211  0.2950
 5321SOL    HW127596   4.715   3.659   2.195  1.1894  2.0792 -0.1604
 5321SOL    HW227597   4.714   3.589   2.321 -1.6449 -0.2466 -1.3875
 5322SOL     OW27598   2.138   3.072   7.638  0.1099  0.8130 -0.8595
 5322SOL    HW127599   2.067   3.110   7.587 -0.5860 -0.7277 -1.0394
 5322SOL    HW227600   2.182   3.005   7.585 -0.4000 -0.6691  0.6117
 5323SOL     OW27601   0.765   3.442   5.519  0.1881 -0.4488 -0.0692
 5323SOL    HW127602   0.670   3.443   5.533  0.0185 -2.0572 -0.9954
 5323SOL    HW227603   0.802   3.453   5.607  0.0226 -1.0953  0.0822
 5324SOL     OW27604   1.211   0.288   6.503 -0.1615 -0.3213 -0.6075
 5324SOL    HW127605   1.288   0.318   6.551  0.8557 -0.6388 -2.0544
 5324SOL    HW227606   1.167   0.243   6.576 -1.6795  0.4618 -1.0460
 5325SOL     OW27607   1.603   2.540   5.790 -0.6292  0.4169  0.5949
 5325SOL    HW127608   1.572   2.487   5.863  1.2786 -0.3621  0.8266
 5325SOL    HW227609   1.695   2.514   5.793 -1.4634 -2.3699  1.7198
 5326SOL     OW27610   3.312   1.342   1.071  0.3008  0.4990 -0.5378
 5326SOL    HW127611   3.303   1.425   1.025  1.4136  0.4182 -0.9072
 5326SOL    HW227612   3.312   1.276   1.001  1.3118 -1.3514  1.1875
 5327SOL     OW27613   3.965   0.222   7.911 -0.7551  0.1345 -0.0492
 5327SOL    HW127614   3.976   0.229   7.816  2.5622 -0.7081  0.2684
 5327SOL    HW227615   4.045   0.177   7.938 -1.9138 -2.7584 -1.3733
 5328SOL     OW27616   3.963   1.792  12.567 -0.1199 -0.0624 -0.0054
 5328SOL    HW127617   3.973   1.777  12.473 -0.8918  1.1266 -0.2734
 5328SOL    HW227618   3.884   1.844  12.576  1.9643  3.7522 -3.9480
 5329SOL     OW27619   1.837   3.072  14.000  0.0375  0.0908 -0.6582
 5329SOL    HW127620   1.894   3.148  13.989  0.1380  0.0036 -0.7522
 5329SOL    HW227621   1.754   3.108  13.970 -0.1771  0.9909  1.0307
 5330SOL     OW27622   4.503   1.221   2.748  0.2095  0.0031  0.7245
 5330SOL    HW127623   4.582   1.188   2.704 -1.8320  0.0479 -2.9346
 5330SOL    HW227624   4.486   1.301   2.697  0.6217  0.2816  1.0235
 5331SOL     OW27625   1.317   0.870   9.304 -0.1512 -0.2527 -0.3410
 5331SOL    HW127626   1.321   0.816   9.383  0.0372 -0.0722 -0.2290
 5331SOL    HW227627   1.340   0.953   9.345 -0.7574  0.1027 -0.7300
 5332SOL     OW27628   0.834   1.387  16.055  0.0612  0.0821 -0.8536
 5332SOL    HW127629   0.927   1.408  16.048  0.2813 -0.7777 -0.5716
 5332SOL    HW227630   0.832   1.297  16.021 -3.3828  0.4263 -1.5559
 5333SOL     OW27631   2.055   0.540   6.138 -0.3062  0.4467 -0.1649
 5333SOL    HW127632   2.107   0.575   6.066  0.0419 -0.8179 -0.5276
 5333SOL    HW227633   2.111   0.571   6.209  1.3926 -1.2136 -0.7739
 5334SOL     OW27634   4.079   2.223   8.683  0.1087  0.4623  0.0075
 5334SOL    HW127635   4.040   2.275   8.753 -0.2637 -0.8968  0.7945
 5334SOL    HW227636   4.117   2.293   8.629  0.4898  0.1887 -0.0808
 5335SOL     OW27637   1.646   0.073   8.634 -0.1002  0.1780  0.2459
 5335SOL    HW127638   1.593   0.004   8.594  1.4328  0.0166 -1.5122
 5335SOL    HW227639   1.689   0.017   8.699 -3.1950 -0.6820  1.5323
 5336SOL     OW27640   4.202   4.127   3.277  0.0479 -0.1857  0.0226
 5336SOL    HW127641   4.230   4.036   3.266  0.0736 -0.4657  2.5119
 5336SOL    HW227642   4.150   4.119   3.357  1.9257  1.6059  1.4224
 5337SOL     OW27643   4.013   0.774   2.984  0.1249  0.3593 -0.2706
 5337SOL    HW127644   4.084   0.812   2.933 -0.4333  2.0835  0.2372
 5337SOL    HW227645   4.074   0.719   3.033 -1.3178 -1.7423 -0.8226
 5338SOL     OW27646   2.056   1.030   9.242  0.3381 -0.5479 -0.0580
 5338SOL    HW127647   2.082   1.043   9.151 -1.6062 -2.8697 -0.9498
 5338SOL    HW227648   1.976   1.082   9.242  0.0236 -1.0565 -2.5279
 5339SOL     OW27649   3.621   4.089   0.461 -0.3326 -0.1003  0.1654
 5339SOL    HW127650   3.598   4.158   0.523 -1.9053  1.9992 -2.7656
 5339SOL    HW227651   3.690   4.133   0.411  1.1507 -1.0363  1.3927
 5340SOL     OW27652   1.441   1.950   2.339 -0.4854 -0.5548  0.0198
 5340SOL    HW127653   1.411   1.921   2.253 -1.9727 -0.7397  0.6022
 5340SOL    HW227654   1.519   1.895   2.350  0.1905  0.3293 -0.2963
 5341SOL     OW27655   2.103   2.416   3.724  0.0501  0.6173 -0.3256
 5341SOL    HW127656   2.187   2.377   3.699 -1.0103 -0.8994 -1.5524
 5341SOL    HW227657   2.062   2.346   3.774  1.6648 -1.0770 -1.3849
 5342SOL     OW27658   2.935   2.811  12.290 -0.2012 -0.2255  0.0594
 5342SOL    HW127659   2.870   2.842  12.354  0.7441 -0.9489  1.3533
 5342SOL    HW227660   2.890   2.742  12.242 -1.4069  1.5280 -1.3232
 5343SOL     OW27661   3.102   1.463   4.527 -0.3593  0.3706 -0.5206
 5343SOL    HW127662   3.010   1.439   4.529  0.0263 -0.8900  1.8588
 5343SOL    HW227663   3.135   1.404   4.595  0.8416  0.2182 -1.2344
 5344SOL     OW27664   0.457   0.976   0.093  0.3189 -0.6876 -0.1776
 5344SOL    HW127665   0.366   1.003   0.095 -0.1563 -2.2554 -0.5901
 5344SOL    HW227666   0.463   0.962  17.746 -0.5121  1.6680 -0.5626
 5345SOL     OW27667   1.023   2.950   0.166  0.0015  0.5286 -0.4736
 5345SOL    HW127668   1.039   2.894   0.242  0.8841 -0.2307 -1.2167
 5345SOL    HW227669   0.957   2.900   0.117 -0.3910  0.8735 -0.2964
 5346SOL     OW27670   1.855   1.564   1.809 -0.5001  0.6405 -0.0923
 5346SOL    HW127671   1.912   1.500   1.851 -1.1488  1.1925  1.6337
 5346SOL    HW227672   1.769   1.521   1.808 -0.1527 -0.0893  1.7623
 5347SOL     OW27673   4.203   2.121  17.564 -0.4401 -0.0853 -0.1768
 5347SOL    HW127674   4.152   2.048  17.529  1.5980 -1.7229  0.2075
 5347SOL    HW227675   4.264   2.139  17.492 -0.8669 -0.0247 -0.5227
 5348SOL     OW27676   3.524   4.403   7.588 -0.0951  0.0124  0.1760
 5348SOL    HW127677   3.536   4.498   7.589  3.2868 -0.4170 -0.7825
 5348SOL    HW227678   3.433   4.405   7.616 -0.5380 -0.0176 -1.2438
 5349SOL     OW27679   2.191   4.714  12.822 -0.2625 -0.0787 -0.2678
 5349SOL    HW127680   2.232   4.689  12.740  2.3518 -1.6645  1.5179
 5349SOL    HW227681   2.101   4.684  12.806  0.2444  0.3784 -3.8284
 5350SOL     OW27682   1.586   2.210   7.321  0.1750 -0.2731 -0.3357
 5350SOL    HW127683   1.649   2.147   7.288  0.2785  0.5553 -1.7343
 5350SOL    HW227684   1.569   2.164   7.404 -0.4177  0.3144 -0.1285
 5351SOL     OW27685   3.193   0.305   4.530  0.6638 -0.0783  0.8502
 5351SOL    HW127686   3.180   0.278   4.621 -3.8532  1.3465  0.6571
 5351SOL    HW227687   3.110   0.285   4.487 -0.1075  0.9258  1.8719
 5352SOL     OW27688   0.793   4.471   1.485 -0.4525 -0.2665  0.2195
 5352SOL    HW127689   0.783   4.411   1.412 -0.8525 -1.2144  1.0656
 5352SOL    HW227690   0.715   4.455   1.538 -1.2344 -0.8439 -1.1109
 5353SOL     OW27691   2.121   2.616   5.035  0.0775 -0.4027 -0.2539
 5353SOL    HW127692   2.169   2.666   4.969 -2.5750 -0.4481 -2.1849
 5353SOL    HW227693   2.167   2.534   5.018  1.7236  0.0245  2.1511
 5354SOL     OW27694   3.216   0.773   3.705 -0.0264 -0.0689  0.7018
 5354SOL    HW127695   3.289   0.745   3.760  0.5407 -2.7554 -1.3714
 5354SOL    HW227696   3.142   0.764   3.765 -0.4207  1.7584  0.4660
 5355SOL     OW27697   2.363   0.149   0.621  0.1103 -0.2540 -0.5496
 5355SOL    HW127698   2.392   0.234   0.588  2.0005 -0.9472 -0.6492
 5355SOL    HW227699   2.444   0.099   0.633  0.9279  1.3605  0.5363
 5356SOL     OW27700   0.199   1.888  14.997 -0.2067 -0.2311 -0.6761
 5356SOL    HW127701   0.147   1.817  15.033 -0.1667 -0.3372 -0.8279
 5356SOL    HW227702   0.161   1.971  15.026 -0.6293 -0.3561 -0.8733
 5357SOL     OW27703   0.375   2.979   8.822  0.0787  0.0029 -0.6826
 5357SOL    HW127704   0.369   2.887   8.849  0.8478  0.2889  0.4747
 5357SOL    HW227705   0.291   3.011   8.853 -0.6178 -2.1690 -0.3360
 5358SOL     OW27706   2.478   0.139   5.712 -0.3035  0.0022 -0.5824
 5358SOL    HW127707   2.462   0.097   5.627 -0.4976  0.6504 -0.8681
 5358SOL    HW227708   2.457   0.230   5.691  1.9094  0.4707 -0.7280
 5359SOL     OW27709   3.812   3.304   6.732  0.0062  0.0028 -0.4428
 5359SOL    HW127710   3.745   3.288   6.799  0.4061  2.0687  0.4706
 5359SOL    HW227711   3.753   3.335   6.663 -1.5947 -0.1449  0.8415
 5360SOL     OW27712   1.889   3.525   2.123  0.2166  0.0942 -0.1817
 5360SOL    HW127713   1.800   3.548   2.097 -0.5854 -2.1814  0.5335
 5360SOL    HW227714   1.897   3.575   2.204 -1.1749 -1.7600  1.0874
 5361SOL     OW27715   1.733   1.191   7.811 -0.5269 -0.0088  0.1843
 5361SOL    HW127716   1.644   1.155   7.815  0.0507 -1.2870  1.5571
 5361SOL    HW227717   1.765   1.146   7.734  0.7194  2.9066 -0.9893
 5362SOL     OW27718   4.455   4.282   4.817 -0.0567 -0.0284  0.1193
 5362SOL    HW127719   4.549   4.269   4.827  0.4847  1.5631 -2.9189
 5362SOL    HW227720   4.416   4.201   4.850 -0.0980  0.5175  1.4044
 5363SOL     OW27721   2.366   4.601   3.327 -0.1272  0.6830  0.3683
 5363SOL    HW127722   2.455   4.614   3.360  0.3334  0.4090 -0.7591
 5363SOL    HW227723   2.327   4.669   3.382 -0.6499  0.1242  0.6914
 5364SOL     OW27724   3.126   2.664   7.512  0.2818  0.2162 -0.2072
 5364SOL    HW127725   3.152   2.670   7.604 -2.2992  0.6140  0.4949
 5364SOL    HW227726   3.198   2.607   7.489 -0.0232  0.3406 -1.4848
 5365SOL     OW27727   0.507   2.212   3.846  0.3472 -0.3487  0.2208
 5365SOL    HW127728   0.430   2.164   3.876  0.4245 -0.8304 -0.3452
 5365SOL    HW227729   0.578   2.174   3.898  0.1174 -1.5172 -0.3183
 5366SOL     OW27730   4.256   0.675   1.519 -0.0157 -0.0003 -0.0758
 5366SOL    HW127731   4.296   0.761   1.531 -0.4077  0.5991 -3.0985
 5366SOL    HW227732   4.233   0.648   1.607 -0.6256  2.5475  0.5444
 5367SOL     OW27733   2.070   2.058   1.998 -0.0148 -0.4208  0.3361
 5367SOL    HW127734   2.161   2.056   2.026  0.3125  1.0696 -0.5686
 5367SOL    HW227735   2.064   2.143   1.954 -1.2796 -0.2000  0.9428
 5368SOL     OW27736   4.357   2.239  14.632  0.1882  0.4908 -0.3870
 5368SOL    HW127737   4.288   2.207  14.573 -0.4253 -0.3730  0.8027
 5368SOL    HW227738   4.416   2.287  14.574 -0.4156  2.3204  0.5142
 5369SOL     OW27739   1.825   0.020   1.570  0.1935  0.4658 -0.1092
 5369SOL    HW127740   1.819   4.665   1.543  1.2567  0.9668 -2.1028
 5369SOL    HW227741   1.785   0.066   1.497  1.4044  0.2609 -0.9147
 5370SOL     OW27742   3.122   1.747   4.610 -0.4213 -0.0119 -0.3670
 5370SOL    HW127743   3.094   1.760   4.520  0.0374  1.1062 -0.3420
 5370SOL    HW227744   3.124   1.651   4.615  0.8743  0.0274 -0.1121
 5371SOL     OW27745   2.548   2.662   9.454 -0.3606 -0.1526  0.2971
 5371SOL    HW127746   2.608   2.712   9.398 -0.9680  1.0773  0.7376
 5371SOL    HW227747   2.622   2.620   9.497 -0.7926 -1.6217 -0.4198
 5372SOL     OW27748   2.677   0.202   9.773  0.0688 -0.2642  0.1072
 5372SOL    HW127749   2.652   0.110   9.779  2.1869 -1.1550 -4.3292
 5372SOL    HW227750   2.625   0.242   9.843 -3.7748  2.1187 -4.1042
 5373SOL     OW27751   0.148   2.899   6.994  0.2010  0.2236 -0.1264
 5373SOL    HW127752   0.071   2.905   7.052  0.6707 -1.2093  0.6568
 5373SOL    HW227753   0.116   2.967   6.935  0.0388 -0.1963 -0.5276
 5374SOL     OW27754   3.305   1.506  13.232 -0.0559  0.2657  0.0780
 5374SOL    HW127755   3.321   1.415  13.207 -1.1610  0.4839 -1.4429
 5374SOL    HW227756   3.295   1.550  13.148 -0.9430  1.2855  0.7288
 5375SOL     OW27757   2.825   4.537   6.924  0.1768 -0.2027  0.2437
 5375SOL    HW127758   2.848   4.567   6.836  0.5506 -0.6464  0.1869
 5375SOL    HW227759   2.778   4.457   6.899 -0.5399  0.2770  0.0814
 5376SOL     OW27760   1.157   2.206   4.667  0.2256  0.3084 -0.5333
 5376SOL    HW127761   1.128   2.226   4.756 -0.6395  1.4655 -1.0683
 5376SOL    HW227762   1.138   2.112   4.658 -2.7420  0.6218  2.2650
 5377SOL     OW27763   2.064   0.254  15.721 -0.1307  0.1377  0.2565
 5377SOL    HW127764   2.108   0.338  15.712 -0.9654  0.5704  0.2527
 5377SOL    HW227765   2.122   0.210  15.659  0.4280 -0.7831  1.4408
 5378SOL     OW27766   0.976   2.601  17.287 -0.1811  1.3061  0.2106
 5378SOL    HW127767   1.037   2.625  17.217  0.8332 -1.3401  0.2176
 5378SOL    HW227768   0.922   2.543  17.233  1.8836 -1.4686  1.1887
 5379SOL     OW27769   2.549   0.799   7.863 -0.6261  0.4431  0.7260
 5379SOL    HW127770   2.543   0.731   7.930 -0.1386 -0.0318  0.2959
 5379SOL    HW227771   2.461   0.813   7.828 -1.2171 -1.7834  1.3052
 5380SOL     OW27772   4.727   0.354   3.701  0.3593 -0.0356 -0.5302
 5380SOL    HW127773   4.692   0.428   3.651  0.7476  0.2040 -0.4487
 5380SOL    HW227774   0.054   0.318   3.641  0.4834 -1.3444  0.3981
 5381SOL     OW27775   4.121   0.447  10.743  0.2849  0.5802 -0.2114
 5381SOL    HW127776   4.085   0.534  10.727 -1.4851 -0.2721 -0.9428
 5381SOL    HW227777   4.117   0.448  10.838  1.0343  1.5188 -0.1924
 5382SOL     OW27778   2.007   3.023   4.108 -0.6376 -0.1307 -0.5404
 5382SOL    HW127779   1.912   3.029   4.103 -0.5546  1.9207  0.3406
 5382SOL    HW227780   2.030   3.110   4.077  1.2841 -0.7628 -0.9091
 5383SOL     OW27781   3.034   3.603   8.571 -0.0531  0.2145  0.0856
 5383SOL    HW127782   3.072   3.690   8.580  0.0764 -0.1328  3.1437
 5383SOL    HW227783   3.109   3.553   8.603 -1.5782 -2.0947  0.0671
 5384SOL     OW27784   1.194   3.703   9.118 -0.5735  0.4606 -0.2749
 5384SOL    HW127785   1.151   3.776   9.162  1.3385  0.6804  1.2033
 5384SOL    HW227786   1.258   3.687   9.187 -0.2264  0.2611 -0.6422
 5385SOL     OW27787   3.090   3.586   4.281  0.1868  0.2697  0.1597
 5385SOL    HW127788   3.029   3.518   4.252  1.1749 -1.2876  1.6772
 5385SOL    HW227789   3.043   3.621   4.356 -1.4166  2.3129 -1.8177
 5386SOL     OW27790   4.157   1.457   0.100 -0.3068 -0.6725  0.2031
 5386SOL    HW127791   4.230   1.516   0.120 -1.8036  0.7970  1.4059
 5386SOL    HW227792   4.179   1.417   0.017 -1.4866 -2.0464  0.5551
 5387SOL     OW27793   0.714   4.657   5.879 -0.3434  0.0416 -0.1379
 5387SOL    HW127794   0.801   4.636   5.846  0.2941 -0.2112  1.7161
 5387SOL    HW227795   0.657   4.597   5.832  1.2737 -0.8134 -0.9784
 5388SOL     OW27796   3.344   0.946   5.076  0.0763 -0.0648 -0.0427
 5388SOL    HW127797   3.289   0.956   5.154 -2.2302 -0.8196 -1.5630
 5388SOL    HW227798   3.433   0.944   5.112  0.8824  0.4579 -1.9654
 5389SOL     OW27799   4.030   4.001   7.831 -0.0135  0.1112 -0.2553
 5389SOL    HW127800   3.955   3.969   7.883 -0.3805  0.5618 -0.5055
 5389SOL    HW227801   4.073   4.042   7.906  0.3573 -0.6862 -0.0333
 5390SOL     OW27802   2.453   2.310  10.025 -0.3256  0.1452 -0.6318
 5390SOL    HW127803   2.475   2.234  10.079 -0.0970  1.2007  0.7790
 5390SOL    HW227804   2.401   2.362  10.086 -0.1038 -0.9149  0.4522
 5391SOL     OW27805   2.087   1.160   4.597 -0.0536  0.1464 -0.2588
 5391SOL    HW127806   2.125   1.207   4.523 -0.3287  0.3521 -0.2710
 5391SOL    HW227807   1.997   1.190   4.586 -0.1022  0.1565  0.1689
 5392SOL     OW27808   0.380   4.234   1.385 -0.4952  0.1028  0.4929
 5392SOL    HW127809   0.411   4.320   1.356 -1.1439 -0.1368 -0.8978
 5392SOL    HW227810   0.314   4.225   1.317  1.7885 -1.1559 -1.5480
 5393SOL     OW27811   2.357   2.212   6.830  0.7883 -0.0727 -0.4088
 5393SOL    HW127812   2.426   2.261   6.875  1.0747 -0.5637 -0.3075
 5393SOL    HW227813   2.381   2.120   6.837  0.3470  0.0175  2.0650
 5394SOL     OW27814   2.241   2.809  12.777  0.1892  0.4599  0.4382
 5394SOL    HW127815   2.161   2.802  12.724 -0.4327  0.4219  1.3962
 5394SOL    HW227816   2.213   2.754  12.850  0.9462 -0.7428 -0.1681
 5395SOL     OW27817   2.841   3.083   8.576 -0.4549 -0.1101 -0.1242
 5395SOL    HW127818   2.782   3.149   8.612 -1.2385 -0.7744 -0.1967
 5395SOL    HW227819   2.797   3.064   8.494 -0.3951 -0.8609  0.0112
 5396SOL     OW27820   3.523   0.121   7.534 -0.3237 -0.0129  0.6116
 5396SOL    HW127821   3.562   0.163   7.457 -0.2522 -1.2496 -0.0249
 5396SOL    HW227822   3.601   0.086   7.578 -0.5640 -2.1552 -0.6990
 5397SOL     OW27823   1.409   3.923  10.786 -0.3081 -0.4079  0.1477
 5397SOL    HW127824   1.334   3.923  10.727  0.0878 -2.0465 -0.3329
 5397SOL    HW227825   1.439   4.014  10.795  1.2750 -0.8896 -0.4267
 5398SOL     OW27826   2.844   1.411   9.330 -0.2240 -0.2443  0.3605
 5398SOL    HW127827   2.896   1.418   9.410 -0.5936  1.7424  0.4347
 5398SOL    HW227828   2.867   1.327   9.292  2.1590  1.5680 -2.1924
 5399SOL     OW27829   4.590   2.992   2.331 -0.1184 -0.1598  0.1094
 5399SOL    HW127830   4.619   2.974   2.420 -0.5259  0.3476  0.3407
 5399SOL    HW227831   4.672   3.012   2.285  0.9468  0.8003  2.4181
 5400SOL     OW27832   4.369   3.812   6.588 -0.1401  0.1389  0.0375
 5400SOL    HW127833   4.451   3.766   6.567 -1.5979 -0.2548 -4.6018
 5400SOL    HW227834   4.349   3.869   6.514  0.2044 -0.0488 -0.2001
 5401SOL     OW27835   0.524   2.068   7.185  0.0762 -0.6685 -0.0339
 5401SOL    HW127836   0.463   2.113   7.127  1.7023  2.6874  0.8123
 5401SOL    HW227837   0.598   2.048   7.128 -1.3944 -0.6796 -1.9346
 5402SOL     OW27838   2.154   3.300   5.542  1.2651  0.1809  0.5720
 5402SOL    HW127839   2.228   3.260   5.496  1.4344  1.6527 -0.4455
 5402SOL    HW227840   2.184   3.384   5.576 -0.8495  0.0525  2.7078
 5403SOL     OW27841   1.359   4.461   8.401 -0.1761 -0.3202  0.0513
 5403SOL    HW127842   1.383   4.526   8.467  1.0632 -1.8366  1.0767
 5403SOL    HW227843   1.410   4.488   8.324  3.5395 -0.4780  2.4774
 5404SOL     OW27844   2.937   4.013   3.020 -0.5027 -0.4274 -0.0128
 5404SOL    HW127845   2.867   3.974   2.967 -1.2162 -0.8301  1.2281
 5404SOL    HW227846   2.914   4.105   3.033  0.6338 -0.4963  2.3386
 5405SOL     OW27847   4.263   0.126  10.255  0.0726 -0.0539 -0.0387
 5405SOL    HW127848   4.250   0.160  10.344  0.5898  1.2340 -0.4612
 5405SOL    HW227849   4.228   0.191  10.194  0.0042 -0.6305 -0.6138
 5406SOL     OW27850   2.506   4.644   3.732  0.1111 -0.1383  0.5453
 5406SOL    HW127851   2.417   4.675   3.716 -0.0222 -1.0302 -0.3965
 5406SOL    HW227852   2.512   4.580   3.661  1.7257  0.9121 -0.2773
 5407SOL     OW27853   2.575   0.144  10.920 -0.2935  0.0495  0.2145
 5407SOL    HW127854   2.537   0.056  10.923  1.4295 -0.7011  0.2228
 5407SOL    HW227855   2.553   0.166  11.010 -0.2391  1.4388 -0.1198
 5408SOL     OW27856   2.803   0.156   5.601 -0.2934 -0.2375 -0.0065
 5408SOL    HW127857   2.781   0.170   5.509  1.0982 -0.3153 -0.3489
 5408SOL    HW227858   2.803   0.060   5.596 -1.7848 -0.1125 -2.2764
 5409SOL     OW27859   3.411   4.283  13.069  0.5903 -0.6109 -0.0163
 5409SOL    HW127860   3.372   4.286  13.157 -0.0447 -2.2620 -0.2511
 5409SOL    HW227861   3.333   4.266  13.016 -0.3984  1.0368  0.8884
 5410SOL     OW27862   2.461   0.269   9.351  0.6814 -0.0698 -0.4142
 5410SOL    HW127863   2.402   0.286   9.425 -1.0540 -0.2069 -1.7676
 5410SOL    HW227864   2.507   0.187   9.367 -1.7871 -1.6155 -1.1381
 5411SOL     OW27865   1.970   2.216   7.495  0.9065  0.0414  0.0554
 5411SOL    HW127866   2.030   2.228   7.569  0.0212 -0.5316  0.8692
 5411SOL    HW227867   1.888   2.201   7.541  0.6846 -0.1793 -0.4209
 5412SOL     OW27868   0.826   2.307   3.123 -0.1128 -0.1876 -0.7307
 5412SOL    HW127869   0.773   2.247   3.175  0.3016  1.5379  1.7023
 5412SOL    HW227870   0.816   2.274   3.034  0.6121 -1.7811 -0.2180
 5413SOL     OW27871   4.255   2.275  15.265  0.0397 -0.4840 -0.2551
 5413SOL    HW127872   4.325   2.217  15.237  1.4654 -0.1492  2.6188
 5413SOL    HW227873   4.178   2.220  15.246 -1.1388  0.6317  1.3167
 5414SOL     OW27874   0.932   4.158  10.558 -0.8491 -0.3798  0.0611
 5414SOL    HW127875   0.960   4.209  10.634 -0.7434 -3.1758  1.8863
 5414SOL    HW227876   0.837   4.170  10.569 -0.5960 -0.0230  1.7436
 5415SOL     OW27877   3.815   2.582   7.452  0.0758  0.1719  0.3962
 5415SOL    HW127878   3.809   2.507   7.394  0.7794 -1.5234  2.4918
 5415SOL    HW227879   3.885   2.553   7.510  0.4861  0.4814  0.0524
 5416SOL     OW27880   0.822   4.008   9.730 -0.5699  0.3927  0.1148
 5416SOL    HW127881   0.788   3.919   9.738  0.8003 -0.0552  0.9280
 5416SOL    HW227882   0.911   4.012   9.764 -0.2211  1.5609 -0.9278
 5417SOL     OW27883   4.234   2.138  11.332 -0.2307  0.1746 -0.4898
 5417SOL    HW127884   4.262   2.222  11.368  0.0181  0.2519 -0.8540
 5417SOL    HW227885   4.172   2.166  11.264  1.0822 -1.9103 -2.5730
 5418SOL     OW27886   1.675   3.740  12.063 -0.0397  0.0807  0.5642
 5418SOL    HW127887   1.583   3.737  12.087 -0.0912  0.1268  0.3768
 5418SOL    HW227888   1.707   3.663  12.110  1.9605 -0.3043 -1.3890
 5419SOL     OW27889   0.293   2.701   2.033 -0.0730 -0.2677 -0.1395
 5419SOL    HW127890   0.305   2.791   2.003 -1.6062  0.5884  1.8514
 5419SOL    HW227891   0.382   2.669   2.019  0.5450  1.0031  0.8575
 5420SOL     OW27892   3.393   3.526   1.629  0.0676  0.3306  0.3747
 5420SOL    HW127893   3.440   3.579   1.565  0.8423  1.3871  1.8133
 5420SOL    HW227894   3.324   3.585   1.660 -1.2847 -0.5472 -1.0084
 5421SOL     OW27895   1.757   1.847   7.758 -0.1202 -0.1703  0.3782
 5421SOL    HW127896   1.740   1.776   7.820 -0.4479 -0.2996  0.1420
 5421SOL    HW227897   1.726   1.925   7.804  1.3074 -1.0243  2.7586
 5422SOL     OW27898   3.824   4.606   5.099 -0.3583  0.9226 -0.0372
 5422SOL    HW127899   3.852   4.645   5.016  0.4158  0.1102 -0.1546
 5422SOL    HW227900   3.869   4.668   5.157 -0.2364  1.0927 -0.3100
 5423SOL     OW27901   1.298   2.168   7.241  0.1771 -0.5393 -0.1683
 5423SOL    HW127902   1.265   2.145   7.328  0.9770 -0.5151  0.1433
 5423SOL    HW227903   1.373   2.224   7.259 -2.5663  2.9626  0.2723
 5424SOL     OW27904   3.361   3.695   3.778 -0.0239  0.3756  0.0567
 5424SOL    HW127905   3.337   3.613   3.820  0.6848  1.5163  2.6586
 5424SOL    HW227906   3.376   3.750   3.855  2.6478 -0.4836  0.1343
 5425SOL     OW27907   1.433   1.299   6.679 -0.2005 -0.6512 -0.1347
 5425SOL    HW127908   1.424   1.226   6.740 -0.9744  1.4003  2.1911
 5425SOL    HW227909   1.430   1.379   6.731 -1.3201 -0.8137  0.0489
 5426SOL     OW27910   3.619   0.918   1.711  0.2074 -0.0597  0.1147
 5426SOL    HW127911   3.594   0.861   1.638 -1.3369  2.1401 -1.0580
 5426SOL    HW227912   3.638   1.000   1.666 -1.5201 -1.2199 -2.7548
 5427SOL     OW27913   3.939   2.134   7.778 -0.3191 -0.8792 -0.0455
 5427SOL    HW127914   4.025   2.172   7.759  0.2179 -2.5768 -1.0823
 5427SOL    HW227915   3.875   2.177   7.722  0.9520  1.2548  0.1292
 5428SOL     OW27916   4.462   1.775   5.793 -0.1212 -0.1769 -0.6082
 5428SOL    HW127917   4.509   1.724   5.858 -0.1548  3.8444  2.5977
 5428SOL    HW227918   4.409   1.712   5.745  1.6833 -1.5392 -0.8256
 5429SOL     OW27919   1.025   3.327   8.776 -0.5750 -0.1233  0.2724
 5429SOL    HW127920   1.088   3.304   8.844 -1.9543 -0.0433  1.5718
 5429SOL    HW227921   1.051   3.418   8.763 -0.9187 -0.1435 -0.5560
 5430SOL     OW27922   4.358   2.697   8.055  0.3803 -0.0501 -0.0366
 5430SOL    HW127923   4.399   2.646   7.985  1.5365  1.1386 -0.2134
 5430SOL    HW227924   4.433   2.727   8.108  0.8912 -0.5437 -0.4834
 5431SOL     OW27925   2.613   1.401   3.175  0.0190 -0.2568  0.4874
 5431SOL    HW127926   2.649   1.487   3.150  1.9676 -0.3578  2.8928
 5431SOL    HW227927   2.584   1.430   3.262 -0.0694 -1.4288  0.8398
 5432SOL     OW27928   0.474   3.450   5.566  0.2436  0.5728  1.3801
 5432SOL    HW127929   0.421   3.517   5.522 -2.3174 -1.2896  1.6075
 5432SOL    HW227930   0.442   3.373   5.518 -1.5956  1.4215  1.2508
 5433SOL     OW27931   0.608   4.489   7.848 -0.1473 -0.0207 -0.1600
 5433SOL    HW127932   0.696   4.526   7.847 -0.2253  0.1503 -0.5313
 5433SOL    HW227933   0.593   4.460   7.758 -0.5062 -1.9221  0.5149
 5434SOL     OW27934   2.806   3.795   9.809 -0.0090 -0.5626  0.4931
 5434SOL    HW127935   2.869   3.765   9.744 -0.8945 -2.0073  0.2948
 5434SOL    HW227936   2.735   3.776   9.748  1.0650  0.3297 -1.0619
 5435SOL     OW27937   1.247   4.617   7.805  0.2365 -0.2654  0.1671
 5435SOL    HW127938   1.214   4.697   7.764 -1.1339 -0.7634  0.3149
 5435SOL    HW227939   1.264   4.654   7.892  2.5864  1.1388 -0.8866
 5436SOL     OW27940   1.177   1.199   3.006 -0.4037 -0.1522 -0.3528
 5436SOL    HW127941   1.109   1.260   2.976 -1.6355 -1.3976 -0.1016
 5436SOL    HW227942   1.217   1.250   3.077 -2.9223 -0.3366  1.2304
 5437SOL     OW27943   0.403   1.796   7.346 -0.6783 -0.1564  0.2095
 5437SOL    HW127944   0.428   1.888   7.362 -2.0918  0.5059 -1.4116
 5437SOL    HW227945   0.383   1.802   7.253  0.6955  0.2668 -0.0651
 5438SOL     OW27946   4.491   4.510   3.199  0.7987 -0.5081 -0.0792
 5438SOL    HW127947   4.462   4.419   3.192 -0.0778 -0.1030 -1.7157
 5438SOL    HW227948   4.502   4.536   3.108 -0.0550  1.1810  0.2850
 5439SOL     OW27949   0.860   2.599   5.597 -0.0552  0.4074 -0.1111
 5439SOL    HW127950   0.787   2.643   5.554 -0.0096  1.1600  0.5977
 5439SOL    HW227951   0.877   2.512   5.560  0.9301  0.0167  1.2747
 5440SOL     OW27952   3.880   1.885   7.200 -0.2464 -0.0780  0.1578
 5440SOL    HW127953   3.789   1.862   7.184 -0.6275  2.1094 -0.7138
 5440SOL    HW227954   3.926   1.801   7.204  0.0205  0.0738  0.2791
 5441SOL     OW27955   2.554   3.277  11.007  0.7022  0.0642  0.3348
 5441SOL    HW127956   2.532   3.343  10.942 -1.5732 -1.3786 -0.3678
 5441SOL    HW227957   2.508   3.208  10.959  1.6241 -0.3838  0.0900
 5442SOL     OW27958   2.502   1.108   7.957  0.0536  0.2422  0.0601
 5442SOL    HW127959   2.589   1.076   7.932 -0.2482 -0.2750 -0.3077
 5442SOL    HW227960   2.443   1.036   7.936 -0.3130  0.7227 -0.5339
 5443SOL     OW27961   2.715   2.122  14.994 -0.3995  0.5863 -0.1998
 5443SOL    HW127962   2.783   2.188  14.983 -0.9540  1.2315  0.1951
 5443SOL    HW227963   2.750   2.042  14.954 -0.1438  0.3811  0.4309
 5444SOL     OW27964   3.281   3.489   8.720  0.0766 -0.3027  0.0598
 5444SOL    HW127965   3.360   3.524   8.678 -1.0938  1.4227 -0.7087
 5444SOL    HW227966   3.300   3.523   8.808  0.4487 -0.3266 -0.0105
 5445SOL     OW27967   1.539   1.449  16.336 -0.1160 -0.4095  0.1273
 5445SOL    HW127968   1.588   1.531  16.336  0.2980 -0.6531 -2.5574
 5445SOL    HW227969   1.476   1.454  16.408  0.7517 -0.8618  0.9309
 5446SOL     OW27970   3.381   2.057   2.773 -0.1649 -0.1041 -0.2221
 5446SOL    HW127971   3.289   2.056   2.748 -0.0649 -0.5107 -0.5726
 5446SOL    HW227972   3.393   1.963   2.783  1.2070  0.0946  0.0834
 5447SOL     OW27973   0.249   3.574  11.929  0.2907  0.4417  0.4085
 5447SOL    HW127974   0.263   3.608  12.018  2.0998  0.6148  0.0670
 5447SOL    HW227975   0.277   3.484  11.946  0.2589  0.3008 -0.2882
 5448SOL     OW27976   0.168   0.320   5.724  0.5685 -0.3292  0.1487
 5448SOL    HW127977   0.205   0.348   5.641  0.9581  0.6002  0.6295
 5448SOL    HW227978   0.112   0.394   5.749 -1.1782 -1.6924  0.2684
 5449SOL     OW27979   2.332   1.928   3.302 -0.3452  0.2126  0.1739
 5449SOL    HW127980   2.242   1.942   3.273 -0.2653 -1.6666 -0.9923
 5449SOL    HW227981   2.322   1.866   3.374 -0.3099 -0.1158 -0.1053
 5450SOL     OW27982   1.755   2.105   5.969  0.1361 -0.0895  0.2558
 5450SOL    HW127983   1.794   2.047   6.034 -1.0966 -1.1881  0.0068
 5450SOL    HW227984   1.811   2.182   5.977  0.2028  0.1299 -2.3749
 5451SOL     OW27985   4.041   1.361   7.169  0.0610  0.1286  0.2969
 5451SOL    HW127986   4.080   1.297   7.229 -0.2408 -1.3432 -1.0837
 5451SOL    HW227987   4.058   1.311   7.089 -1.1101  1.1653 -0.5968
 5452SOL     OW27988   1.869   2.705  16.868  0.2375  0.2044 -0.2276
 5452SOL    HW127989   1.793   2.718  16.811  0.0847 -2.8536 -0.6955
 5452SOL    HW227990   1.934   2.724  16.800 -0.6556 -3.7015 -2.1687
 5453SOL     OW27991   0.957   1.844  13.954 -0.0998  0.3523 -0.3732
 5453SOL    HW127992   1.034   1.888  13.918 -0.5898  2.3866  1.1220
 5453SOL    HW227993   0.997   1.766  13.992 -2.4666  0.1897  1.7398
 5454SOL     OW27994   1.807   1.167  14.046 -0.4383 -0.3784 -0.9293
 5454SOL    HW127995   1.836   1.249  14.087 -4.5394  0.6044 -0.0315
 5454SOL    HW227996   1.718   1.154  14.077 -1.1160  3.3130 -1.2288
 5455SOL     OW27997   3.339   0.811   4.810  0.4551 -0.4565  0.2288
 5455SOL    HW127998   3.280   0.739   4.833  0.2850 -0.1507  0.7440
 5455SOL    HW227999   3.360   0.843   4.897 -0.8920 -0.0542  0.4046
 5456SOL     OW28000   1.082   2.205   9.332  0.1417  0.3485 -0.8119
 5456SOL    HW128001   1.165   2.204   9.380 -0.5679  2.2600  0.4786
 5456SOL    HW228002   1.019   2.217   9.403  0.0974  1.7003 -1.0771
 5457SOL     OW28003   0.325   0.002   7.590  0.7106 -0.4676  0.5491
 5457SOL    HW128004   0.230   4.733   7.587  0.6986 -0.6792  1.3823
 5457SOL    HW228005   0.348   0.076   7.646  0.8311  2.1096 -2.9147
 5458SOL     OW28006   0.463   2.458   2.291  0.3353  0.7522  0.6096
 5458SOL    HW128007   0.433   2.367   2.293  1.6936  0.2950  0.2557
 5458SOL    HW228008   0.386   2.504   2.325 -1.0384 -1.0541 -0.0762
 5459SOL     OW28009   2.461   0.210   8.866  0.0580 -0.1762 -0.1139
 5459SOL    HW128010   2.443   0.264   8.789 -0.6585 -0.4134 -0.1164
 5459SOL    HW228011   2.478   0.271   8.937 -0.7185  0.5227 -0.5328
 5460SOL     OW28012   4.464   2.281  15.965 -0.6267 -0.0050 -0.3984
 5460SOL    HW128013   4.384   2.330  15.983 -0.2102  0.7471 -0.5744
 5460SOL    HW228014   4.516   2.318  16.037 -1.5140 -1.8788  1.1852
 5461SOL     OW28015   3.667   4.093   6.377  0.0469  0.0933  0.6375
 5461SOL    HW128016   3.627   4.166   6.425 -1.8885 -0.8808  0.5290
 5461SOL    HW228017   3.585   4.043   6.373 -0.7887  1.6281 -1.2651
 5462SOL     OW28018   3.903   2.942   1.707 -0.9830  0.4764  0.5339
 5462SOL    HW128019   3.857   3.007   1.760 -0.9907  0.2950  0.7492
 5462SOL    HW228020   3.864   2.969   1.623 -1.2804 -0.3228  0.4159
 5463SOL     OW28021   2.099   1.820  16.430  0.4631 -0.5451 -0.5489
 5463SOL    HW128022   2.044   1.863  16.495  0.0793 -3.6572  1.2081
 5463SOL    HW228023   2.049   1.841  16.352 -0.7602  0.5624  0.5349
 5464SOL     OW28024   1.328   3.277   9.388  0.3140 -0.4951  0.3350
 5464SOL    HW128025   1.395   3.334   9.350 -1.1497  2.3045  1.9086
 5464SOL    HW228026   1.303   3.227   9.310  1.3838  1.6653 -1.3864
 5465SOL     OW28027   4.638   0.818  14.478 -0.0312 -0.0978  0.5193
 5465SOL    HW128028   4.657   0.822  14.385 -0.6894  0.6576  0.4161
 5465SOL    HW228029   4.671   0.732  14.507 -2.2937  0.0393  3.5059
 5466SOL     OW28030   3.611   0.530  15.406  0.3251 -0.1570 -0.4195
 5466SOL    HW128031   3.634   0.599  15.343 -1.2086  0.4751 -0.2794
 5466SOL    HW228032   3.538   0.498  15.354 -0.4084 -1.1992  1.2400
 5467SOL     OW28033   1.118   3.175   9.135 -0.0853 -0.2017  0.1715
 5467SOL    HW128034   1.148   3.170   9.044  1.8393 -2.0791  0.9119
 5467SOL    HW228035   1.076   3.261   9.138 -1.2584 -0.6480 -3.3590
 5468SOL     OW28036   1.588   0.186   4.930  0.0609 -0.1034  0.2129
 5468SOL    HW128037   1.496   0.210   4.940  0.0309 -0.4027  0.6277
 5468SOL    HW228038   1.632   0.269   4.949 -0.1939 -0.5511  2.6701
 5469SOL     OW28039   0.869   1.279  12.097  0.3161  0.4145  0.1684
 5469SOL    HW128040   0.874   1.339  12.022 -0.7811 -0.4419 -0.6024
 5469SOL    HW228041   0.791   1.225  12.084  0.1498  0.2134  2.1296
 5470SOL     OW28042   2.700   0.973  15.441  0.3612 -0.7100 -0.4577
 5470SOL    HW128043   2.619   0.990  15.393  0.1397 -1.0581 -0.2075
 5470SOL    HW228044   2.663   0.919  15.511 -1.8929  1.3550 -0.0719
 5471SOL     OW28045   3.626   2.049   8.318 -0.1497  0.2892 -0.1750
 5471SOL    HW128046   3.569   2.126   8.321 -1.5514 -0.6745 -2.5285
 5471SOL    HW228047   3.555   1.988   8.298 -0.2399  1.2001 -2.5598
 5472SOL     OW28048   2.370   1.903  15.642 -0.2201 -0.6033 -0.7297
 5472SOL    HW128049   2.336   1.861  15.563  0.7426  2.2292 -2.6668
 5472SOL    HW228050   2.459   1.921  15.613  0.4534 -3.3423 -0.3546
 5473SOL     OW28051   1.575   0.587  11.269 -0.0600 -0.2766 -0.3234
 5473SOL    HW128052   1.571   0.524  11.342  1.2069 -1.0624 -0.9415
 5473SOL    HW228053   1.527   0.663  11.302  0.3927  0.0099 -0.3278
 5474SOL     OW28054   1.751   3.238   3.628  0.2889 -0.2600 -0.0976
 5474SOL    HW128055   1.799   3.275   3.554 -2.0386 -2.1108 -2.5285
 5474SOL    HW228056   1.661   3.250   3.600  1.0250 -0.7353 -2.6594
 5475SOL     OW28057   2.064   3.983  10.021  0.3303 -0.0003  0.2433
 5475SOL    HW128058   2.008   4.014  10.093  2.3734  2.5548  0.7531
 5475SOL    HW228059   2.075   4.057   9.961  0.9628 -1.0657 -0.9442
 5476SOL     OW28060   2.248   4.560   9.705 -0.1814 -0.6384 -0.3275
 5476SOL    HW128061   2.291   4.645   9.719 -1.5740 -0.1574  1.0518
 5476SOL    HW228062   2.326   4.505   9.705 -0.0255 -0.4368 -3.4629
 5477SOL     OW28063   3.991   2.836   4.491 -0.1384 -0.5978  0.7227
 5477SOL    HW128064   4.051   2.848   4.565  1.0252 -0.2655 -0.2787
 5477SOL    HW228065   3.964   2.745   4.504 -2.0141  0.2580  2.7944
 5478SOL     OW28066   3.220   0.961   8.978 -0.1396 -0.1975 -0.0213
 5478SOL    HW128067   3.154   0.963   9.048 -1.3141 -1.2194 -1.0879
 5478SOL    HW228068   3.164   0.928   8.907 -0.2211  1.6453 -0.8208
 5479SOL     OW28069   1.719   2.775  12.459 -0.6459 -0.4452  0.3656
 5479SOL    HW128070   1.779   2.732  12.520  1.9428  1.1937 -1.0381
 5479SOL    HW228071   1.687   2.850  12.510  0.6433  0.2396  0.1720
 5480SOL     OW28072   3.222   2.064  15.047  0.2845 -0.3329 -0.2170
 5480SOL    HW128073   3.264   1.981  15.068 -0.7058 -1.1098 -1.2953
 5480SOL    HW228074   3.280   2.105  14.982  0.1331  0.6801  0.2809
 5481SOL     OW28075   2.239   3.695   7.893 -0.1408  0.4675 -0.2651
 5481SOL    HW128076   2.243   3.666   7.802  0.1042 -0.9473  0.1979
 5481SOL    HW228077   2.147   3.721   7.905 -0.3381 -0.1428 -0.4724
 5482SOL     OW28078   0.880   4.230  10.283  0.0501 -0.0536 -0.0560
 5482SOL    HW128079   0.896   4.312  10.328  1.5570 -0.0083 -0.6886
 5482SOL    HW228080   0.921   4.169  10.345 -0.3030 -1.2722 -1.0229
 5483SOL     OW28081   0.936   1.651   9.200 -0.1510  0.0270 -0.5115
 5483SOL    HW128082   0.953   1.726   9.258  1.0758  0.1319 -1.0236
 5483SOL    HW228083   0.927   1.584   9.268  1.4509  0.0147 -0.3107
 5484SOL     OW28084   2.265   1.330  16.453 -0.3460 -0.5592  0.6226
 5484SOL    HW128085   2.217   1.392  16.398  2.1433  0.5589 -0.3185
 5484SOL    HW228086   2.193   1.278  16.489  0.5972 -2.6844 -0.6132
 5485SOL     OW28087   3.438   3.042  10.895 -0.0859  0.4024 -0.4511
 5485SOL    HW128088   3.500   3.006  10.959 -0.0272  3.0667  1.0104
 5485SOL    HW228089   3.378   3.097  10.946 -1.3134 -0.4977 -0.9161
 5486SOL     OW28090   1.282   4.672   4.876  0.1438 -0.4275  0.0626
 5486SOL    HW128091   1.258   4.614   4.948 -2.1371  1.8506  1.1122
 5486SOL    HW228092   1.276   0.022   4.916  0.1810  0.5393 -2.0486
 5487SOL     OW28093   0.016   0.086   8.483 -0.0396  0.0273  0.0747
 5487SOL    HW128094   4.680   0.068   8.542 -0.1635 -1.3072 -0.4773
 5487SOL    HW228095   0.047   4.732   8.480  1.7536  0.6140  1.0776
 5488SOL     OW28096   3.967   4.620   7.657 -0.8045 -0.1140 -0.1550
 5488SOL    HW128097   3.978   4.630   7.562  1.1343 -0.1275  0.0625
 5488SOL    HW228098   4.015   4.538   7.671 -0.6313  0.3453  1.8899
 5489SOL     OW28099   2.615   2.808   4.871  0.1393  0.0323 -0.3656
 5489SOL    HW128100   2.543   2.839   4.816 -0.3401  0.2250  0.3633
 5489SOL    HW228101   2.680   2.865   4.830 -0.3070 -0.4213 -1.6871
 5490SOL     OW28102   2.670   4.607   2.975 -0.0595 -0.2167  0.2043
 5490SOL    HW128103   2.627   4.530   3.013 -2.2094  1.0469  0.3619
 5490SOL    HW228104   2.601   4.635   2.916 -0.8386 -0.6743  0.8890
 5491SOL     OW28105   3.890   1.764  14.125  0.3309  0.1655 -0.1876
 5491SOL    HW128106   3.891   1.672  14.152  0.3509  0.2533  0.1086
 5491SOL    HW228107   3.970   1.760  14.072 -0.3157 -1.4694 -1.0246
 5492SOL     OW28108   1.747   1.963   6.367 -0.7917 -0.3922 -0.6459
 5492SOL    HW128109   1.778   2.023   6.434  2.3960 -1.4002 -1.2091
 5492SOL    HW228110   1.661   1.938   6.399  0.6903  0.5579  4.0190
 5493SOL     OW28111   3.996   0.826  14.053  0.6081 -0.1432  0.1553
 5493SOL    HW128112   4.057   0.890  14.091 -2.0693  2.2905  0.3249
 5493SOL    HW228113   4.051   0.758  14.013 -1.1683 -1.9325  0.8143
 5494SOL     OW28114   4.650   3.218   2.949 -0.2442 -0.1128  0.0083
 5494SOL    HW128115   4.671   3.234   2.857 -0.1765  0.5919  0.1409
 5494SOL    HW228116   4.658   3.124   2.963 -1.3426  0.0381  1.7003
 5495SOL     OW28117   4.093   0.799   7.107  0.0861 -0.1745  0.4192
 5495SOL    HW128118   4.013   0.754   7.135  0.6196 -2.0893 -1.1593
 5495SOL    HW228119   4.140   0.819   7.188  1.4274 -0.1220 -0.3802
 5496SOL     OW28120   1.585   1.941   3.085  0.4684 -0.3272  0.8162
 5496SOL    HW128121   1.675   1.966   3.102 -0.0533  0.1361  2.9811
 5496SOL    HW228122   1.550   1.970   3.170 -0.8777  0.6829 -0.0858
 5497SOL     OW28123   4.731   1.635   2.834  0.8231  0.2821  0.0582
 5497SOL    HW128124   4.676   1.577   2.886  1.3835  0.3433  0.7225
 5497SOL    HW228125   0.080   1.606   2.864 -0.0987 -0.4463  2.0089
 5498SOL     OW28126   3.215   1.095   8.166 -0.1868  0.1308  0.4712
 5498SOL    HW128127   3.260   1.163   8.116  0.0099 -0.3268  0.0209
 5498SOL    HW228128   3.290   1.042   8.193  1.1837  0.5662 -2.4138
 5499SOL     OW28129   3.154   3.693   7.335 -0.0011  0.4963 -0.2460
 5499SOL    HW128130   3.117   3.781   7.338  1.8386  1.2001  2.4061
 5499SOL    HW228131   3.210   3.686   7.412  0.6048  1.6519 -0.5789
 5500SOL     OW28132   4.267   0.625   2.675  0.2290  0.1705 -0.0656
 5500SOL    HW128133   4.285   0.714   2.707  2.5470 -0.9000  1.6543
 5500SOL    HW228134   4.216   0.645   2.597 -2.9747 -1.8381  1.4807
 5501SOL     OW28135   1.624   2.447   9.218  0.0979 -0.1596 -0.0645
 5501SOL    HW128136   1.558   2.379   9.226 -0.5462  0.3088 -1.3364
 5501SOL    HW228137   1.577   2.510   9.163 -0.7520 -1.3733 -0.7157
 5502SOL     OW28138   0.130   4.492   5.228 -0.1252  0.1025 -0.1340
 5502SOL    HW128139   0.211   4.513   5.275 -1.0981  1.2239  1.0232
 5502SOL    HW228140   0.091   4.579   5.229 -0.3014  0.0123  0.7908
 5503SOL     OW28141   2.099   4.168   6.399  0.3628 -0.1111 -0.3209
 5503SOL    HW128142   2.094   4.112   6.477  0.3025  2.4337  1.4874
 5503SOL    HW228143   2.181   4.215   6.410  0.5728  0.2421 -3.3075
 5504SOL     OW28144   3.692   1.023   0.164  0.1214  0.5924  0.0244
 5504SOL    HW128145   3.773   1.025   0.112  0.1943 -1.7239  0.0688
 5504SOL    HW228146   3.650   1.105   0.138  2.6611  1.6744 -0.6658
 5505SOL     OW28147   1.985   2.971   1.860  0.4516  0.0555  0.3924
 5505SOL    HW128148   2.063   2.998   1.810  0.3376  1.5703  1.0396
 5505SOL    HW228149   1.927   3.044   1.839 -0.8256 -0.3327  2.6752
 5506SOL     OW28150   1.395   1.136  12.886 -0.2955  0.3854 -0.5664
 5506SOL    HW128151   1.342   1.140  12.966 -0.9157  1.2511 -1.0141
 5506SOL    HW228152   1.452   1.213  12.880 -0.6938  0.6678 -0.7382
 5507SOL     OW28153   1.991   2.866  15.321 -0.2730 -0.2067 -0.3871
 5507SOL    HW128154   1.910   2.847  15.368 -1.2334  3.8489 -0.4215
 5507SOL    HW228155   2.054   2.848  15.390 -0.7920  0.4372  0.2519
 5508SOL     OW28156   2.563   0.116  14.589  0.0895 -0.1297  0.0475
 5508SOL    HW128157   2.551   0.046  14.524  0.7174 -1.3133  1.2109
 5508SOL    HW228158   2.474   0.151  14.583  0.5378  1.1940  1.2841
 5509SOL     OW28159   0.467   1.091  12.573  0.0560  0.1982 -0.3774
 5509SOL    HW128160   0.431   1.025  12.632 -1.5415  0.4018 -1.1207
 5509SOL    HW228161   0.538   1.130  12.625  0.5380 -0.9306 -0.1779
 5510SOL     OW28162   0.489   1.281  13.897  0.3441  0.1114 -0.1944
 5510SOL    HW128163   0.577   1.257  13.868  0.4171 -0.4012  0.4487
 5510SOL    HW228164   0.503   1.375  13.887  3.1306 -0.3682 -0.7763
 5511SOL     OW28165   0.535   3.769   6.650 -0.2933 -0.4145 -0.4924
 5511SOL    HW128166   0.525   3.848   6.597 -1.8561  0.1695  0.6713
 5511SOL    HW228167   0.558   3.696   6.592  1.3198  0.7375 -1.2849
 5512SOL     OW28168   0.987   1.534   8.747  0.1240  0.4227 -0.1889
 5512SOL    HW128169   0.990   1.450   8.794 -0.4597 -0.1377 -1.1603
 5512SOL    HW228170   1.073   1.563   8.778 -1.1969  1.8775  2.0677
 5513SOL     OW28171   3.779   2.852  10.439  0.6665 -0.0160 -0.6789
 5513SOL    HW128172   3.748   2.941  10.448 -0.4886 -0.5352  0.4539
 5513SOL    HW228173   3.849   2.866  10.375  1.3398  0.5056  0.1744
 5514SOL     OW28174   3.964   0.765   3.512  0.7788  0.4550  0.8184
 5514SOL    HW128175   3.926   0.687   3.553  0.7554  0.4851  0.8535
 5514SOL    HW228176   3.913   0.833   3.555  0.6603 -0.3885  2.0085
 5515SOL     OW28177   3.375   4.246  17.331  0.2181 -0.2337 -0.0483
 5515SOL    HW128178   3.444   4.312  17.337  1.7837 -1.6790 -2.1583
 5515SOL    HW228179   3.431   4.175  17.299 -1.1519 -0.8167 -1.1668
 5516SOL     OW28180   1.431   4.509  10.359 -0.1052 -0.0201 -0.0989
 5516SOL    HW128181   1.364   4.561  10.402 -0.8674  0.7003 -2.1974
 5516SOL    HW228182   1.400   4.519  10.269 -1.4220  0.4398  0.4100
 5517SOL     OW28183   1.744   3.429   7.860 -0.2945 -0.0945 -0.0265
 5517SOL    HW128184   1.749   3.345   7.905 -1.1363  0.2891  0.7589
 5517SOL    HW228185   1.777   3.401   7.774 -1.9151  0.8229 -0.9351
 5518SOL     OW28186   3.038   2.923   3.282 -0.5992 -0.0274 -0.5672
 5518SOL    HW128187   3.007   2.989   3.344  2.3101  0.0278  0.8304
 5518SOL    HW228188   3.029   2.837   3.322  1.3487 -0.9460 -2.1547
 5519SOL     OW28189   2.046   1.089   5.462 -0.2984  1.0006 -0.1896
 5519SOL    HW128190   2.112   1.072   5.529 -1.3045  1.5463  0.9475
 5519SOL    HW228191   1.967   1.120   5.506 -1.3828 -0.3994 -1.1582
 5520SOL     OW28192   0.177   0.873   1.512 -0.4792 -0.1889 -1.0627
 5520SOL    HW128193   0.176   0.926   1.592  0.2703  0.2815 -1.3606
 5520SOL    HW228194   0.100   0.911   1.470 -1.3081  0.1236  0.7083
 5521SOL     OW28195   3.150   1.458   6.083 -0.3407 -0.2487  0.1222
 5521SOL    HW128196   3.063   1.432   6.055  0.3719 -0.3882 -1.9978
 5521SOL    HW228197   3.198   1.415   6.012 -1.6206 -0.8917 -0.3520
 5522SOL     OW28198   1.749   3.746   2.806 -0.0415 -0.1605  0.6192
 5522SOL    HW128199   1.799   3.771   2.729  2.2789 -1.6663  1.6499
 5522SOL    HW228200   1.662   3.756   2.767  0.0631  1.2452  0.7511
 5523SOL     OW28201   1.737   4.629   8.839  0.3940  0.5605  0.0089
 5523SOL    HW128202   1.760   4.696   8.904 -2.0760  0.3195  1.1249
 5523SOL    HW228203   1.686   4.574   8.899 -0.5891 -1.3345 -2.5592
 5524SOL     OW28204   3.857   1.853  15.261  0.5609 -0.3773  0.2609
 5524SOL    HW128205   3.949   1.877  15.251  0.6297 -0.0482  1.7430
 5524SOL    HW228206   3.824   1.891  15.179 -0.2361  0.5502  0.9993
 5525SOL     OW28207   3.951   0.909   4.797 -0.1838 -0.1680  0.3976
 5525SOL    HW128208   3.936   0.998   4.765 -0.6482  0.5027  2.4590
 5525SOL    HW228209   3.933   0.916   4.891  1.9766 -0.8994  0.8448
 5526SOL     OW28210   1.222   1.069   4.570  0.0510  0.0700 -0.2218
 5526SOL    HW128211   1.301   1.121   4.556 -1.5483  1.9346 -2.2809
 5526SOL    HW228212   1.243   0.986   4.527  0.0381  1.0889 -2.1964
 5527SOL     OW28213   3.971   1.273   2.642  0.1203  0.2351  0.4439
 5527SOL    HW128214   4.040   1.317   2.691  0.5065  1.7974 -1.5234
 5527SOL    HW228215   3.977   1.310   2.554  0.7707  0.6021  0.6484
 5528SOL     OW28216   0.683   4.176  13.398 -0.3009 -0.0245  0.3758
 5528SOL    HW128217   0.672   4.271  13.399  1.3983  0.1801 -0.2680
 5528SOL    HW228218   0.771   4.154  13.429 -0.9512 -2.1093  0.7371
 5529SOL     OW28219   2.600   2.301   4.936 -0.1406  0.2994 -0.7596
 5529SOL    HW128220   2.656   2.333   5.007 -0.6719  0.8038 -0.5639
 5529SOL    HW228221   2.640   2.215   4.923 -1.3244 -0.1836 -1.2490
 5530SOL     OW28222   3.808   0.711   5.516  0.0715  0.0555  0.0340
 5530SOL    HW128223   3.773   0.761   5.590  0.2261 -0.4857  0.4641
 5530SOL    HW228224   3.841   0.634   5.560  0.5993 -0.5818 -1.4842
 5531SOL     OW28225   2.452   4.237   6.304 -0.1141 -0.0303  0.0333
 5531SOL    HW128226   2.522   4.219   6.367  1.3655  1.0949 -1.2869
 5531SOL    HW228227   2.405   4.314   6.335  0.5268  0.5811 -0.5007
 5532SOL     OW28228   3.170   0.311   9.338 -0.3962  0.1575  0.1126
 5532SOL    HW128229   3.084   0.313   9.296 -0.1042  0.4049 -0.4738
 5532SOL    HW228230   3.209   0.242   9.284  3.2541  3.4588 -1.4583
 5533SOL     OW28231   0.534   3.255  15.860 -0.1582  0.2461 -0.0010
 5533SOL    HW128232   0.618   3.301  15.864 -0.3056  0.3587  1.9240
 5533SOL    HW228233   0.477   3.319  15.819 -0.5729  0.9866  1.7265
 5534SOL     OW28234   0.894   2.870   8.810  0.2620 -0.0084 -0.2862
 5534SOL    HW128235   0.961   2.883   8.743  0.7355 -2.5384 -0.3240
 5534SOL    HW228236   0.810   2.867   8.765  1.1548 -3.7503 -1.7215
 5535SOL     OW28237   3.317   1.690   5.202 -0.2255  0.9033  0.4715
 5535SOL    HW128238   3.260   1.648   5.138  1.1206 -0.6296  0.2973
 5535SOL    HW228239   3.356   1.767   5.160  0.2581  1.3942  1.8082
 5536SOL     OW28240   4.284   0.526   3.783 -0.2726 -0.3325  0.0842
 5536SOL    HW128241   4.234   0.520   3.864 -0.5094 -1.6961 -0.1719
 5536SOL    HW228242   4.225   0.473   3.729 -0.1723  0.1326 -0.4855
 5537SOL     OW28243   2.415   1.086  10.378  0.1278 -0.6102 -0.0481
 5537SOL    HW128244   2.466   1.006  10.362 -1.1808 -1.7335  1.3178
 5537SOL    HW228245   2.446   1.135  10.302 -0.9989  1.7763  1.0515
 5538SOL     OW28246   2.227   0.880   1.496 -0.1700  0.3951 -0.4105
 5538SOL    HW128247   2.322   0.897   1.499 -0.1031  0.0165 -0.4150
 5538SOL    HW228248   2.194   0.967   1.475  0.9290  0.3760 -2.2231
 5539SOL     OW28249   2.212   3.708   5.040 -0.9644  0.2000 -0.2890
 5539SOL    HW128250   2.202   3.631   4.984  0.2047 -0.1027 -0.1002
 5539SOL    HW228251   2.227   3.771   4.970  1.2831  0.3740  0.3510
 5540SOL     OW28252   1.646   0.226   3.251  0.6634  0.4077  0.1060
 5540SOL    HW128253   1.735   0.200   3.276  1.0341  0.4170 -1.2095
 5540SOL    HW228254   1.621   0.163   3.183  2.7672  0.1098 -0.3770
 5541SOL     OW28255   4.229   2.709  15.216 -0.3769 -0.0039  0.2703
 5541SOL    HW128256   4.286   2.784  15.234  0.0126 -0.1371 -0.4529
 5541SOL    HW228257   4.174   2.737  15.143 -1.1218 -0.6964  0.5633
 5542SOL     OW28258   3.948   0.537   5.155  0.3728  0.9589  0.0384
 5542SOL    HW128259   4.042   0.536   5.174  0.1904 -0.8513  0.8404
 5542SOL    HW228260   3.952   0.567   5.064 -1.5434 -2.5219 -1.1891
 5543SOL     OW28261   2.465   2.354  13.863  0.3106  0.0769 -0.1129
 5543SOL    HW128262   2.559   2.359  13.842  0.2212  2.7724  0.1675
 5543SOL    HW228263   2.434   2.443  13.848  0.3662 -0.1187 -1.3832
 5544SOL     OW28264   4.580   0.245  15.910 -0.0222 -0.2308  0.2437
 5544SOL    HW128265   4.621   0.320  15.954 -0.9479 -0.7773  2.0630
 5544SOL    HW228266   4.550   0.193  15.985 -0.4309  1.8584  1.5381
 5545SOL     OW28267   1.689   0.061  10.466  0.1084 -0.5224 -0.3791
 5545SOL    HW128268   1.747   4.723  10.479 -1.3364 -1.5872 -0.0257
 5545SOL    HW228269   1.728   0.112  10.395 -1.1929  0.4736 -0.3645
 5546SOL     OW28270   1.079   2.193   6.123 -0.4277 -0.2486  0.4919
 5546SOL    HW128271   1.004   2.225   6.073  1.1918 -0.2174 -1.9372
 5546SOL    HW228272   1.134   2.271   6.131  2.1612 -1.8838 -1.3528
 5547SOL     OW28273   0.422   3.744  12.671  0.6868 -0.0278 -0.5165
 5547SOL    HW128274   0.479   3.814  12.638  0.3202 -0.2106 -1.5445
 5547SOL    HW228275   0.421   3.771  12.763  2.2249 -0.6829 -0.2958
 5548SOL     OW28276   4.731   3.498   2.722 -0.0480  0.1334  0.0238
 5548SOL    HW128277   4.708   3.522   2.812  1.8868  1.4753  0.1515
 5548SOL    HW228278   0.056   3.568   2.703  0.0714  0.3897  1.3596
 5549SOL     OW28279   2.996   0.523   7.024  0.1471 -0.5521 -0.3856
 5549SOL    HW128280   2.905   0.553   7.019 -0.0273 -0.5203  2.9579
 5549SOL    HW228281   3.031   0.570   7.100 -1.2172 -1.1103  0.6112
 5550SOL     OW28282   4.176   1.870  16.758 -0.4371  0.4922  0.3702
 5550SOL    HW128283   4.251   1.839  16.810 -0.7847 -2.0299 -0.6100
 5550SOL    HW228284   4.174   1.820  16.676  0.5502  2.0135 -0.5712
 5551SOL     OW28285   0.020   3.429   8.775 -0.3225  0.1495  0.3502
 5551SOL    HW128286   0.068   3.413   8.693  1.1807  0.7827  1.1082
 5551SOL    HW228287   4.707   3.347   8.771  2.4882 -1.5217 -1.0903
 5552SOL     OW28288   0.145   1.045  12.728 -0.3811 -0.2727 -0.7824
 5552SOL    HW128289   0.215   1.019  12.788 -1.4135  3.4054  1.9689
 5552SOL    HW228290   0.118   1.125  12.772  0.0831 -0.4139 -0.2324
 5553SOL     OW28291   4.420   0.795   6.747  0.0313 -0.3238 -0.2276
 5553SOL    HW128292   4.462   0.817   6.830  1.3176  0.3504 -1.0636
 5553SOL    HW228293   4.329   0.806   6.773  0.0083  1.5604 -1.1353
 5554SOL     OW28294   2.471   2.749   0.310 -0.5775 -0.0322 -0.0744
 5554SOL    HW128295   2.522   2.763   0.230  2.6656 -2.2424  1.5997
 5554SOL    HW228296   2.479   2.659   0.342  2.0703  0.3892  0.4409
 5555SOL     OW28297   1.127   4.644  15.792 -0.8012 -0.3297  0.5459
 5555SOL    HW128298   1.179   4.584  15.739  2.4956  0.4511  2.8839
 5555SOL    HW228299   1.167   4.652  15.878 -1.2742 -1.3984  0.8656
 5556SOL     OW28300   1.697   1.843   2.295  0.1069  0.7272  0.0677
 5556SOL    HW128301   1.778   1.799   2.267 -0.5313 -0.6664  0.3763
 5556SOL    HW228302   1.698   1.921   2.240 -1.0248  2.0924  1.9880
 5557SOL     OW28303   2.728   3.795   3.326 -0.3762  0.6792  0.1726
 5557SOL    HW128304   2.733   3.793   3.422  0.1365 -0.3207  0.1273
 5557SOL    HW228305   2.755   3.706   3.306 -1.1192  0.7725 -1.2473
 5558SOL     OW28306   1.859   4.208   7.681  0.9154  0.2163  0.0080
 5558SOL    HW128307   1.853   4.127   7.630  1.5437  1.2745 -1.7362
 5558SOL    HW228308   1.765   4.226   7.682  0.5884 -1.4574  0.4685
 5559SOL     OW28309   4.475   4.147   3.679  0.7745 -0.3113 -0.8888
 5559SOL    HW128310   4.559   4.168   3.719  0.6363  0.5842 -1.0695
 5559SOL    HW228311   4.504   4.091   3.608  0.7662 -1.2884 -0.1350
 5560SOL     OW28312   3.094   1.385   6.472  0.8699 -0.5078  0.2200
 5560SOL    HW128313   3.113   1.467   6.425  0.7548 -1.0561 -0.7880
 5560SOL    HW228314   3.032   1.350   6.408  0.7546  1.4270 -0.7366
 5561SOL     OW28315   4.423   4.653  16.610 -0.0101  0.2065 -0.0432
 5561SOL    HW128316   4.509   4.643  16.652  0.1325  3.3786  0.4532
 5561SOL    HW228317   4.434   0.009  16.595  0.5041 -0.5661 -4.2676
 5562SOL     OW28318   4.271   2.253   6.326  0.3283 -0.4979  0.2124
 5562SOL    HW128319   4.284   2.347   6.316 -1.8913 -0.3490 -1.1039
 5562SOL    HW228320   4.322   2.225   6.250  3.5030 -2.4875  3.0802
 5563SOL     OW28321   3.214   2.156  16.550 -0.7477 -0.0929 -0.5410
 5563SOL    HW128322   3.151   2.124  16.486  0.7441 -0.3509 -1.8955
 5563SOL    HW228323   3.254   2.226  16.499 -1.6361  0.9623  0.2152
 5564SOL     OW28324   3.445   0.662   6.071 -0.3525 -0.1603 -0.3874
 5564SOL    HW128325   3.362   0.661   6.119 -0.7835 -0.9307 -1.1432
 5564SOL    HW228326   3.495   0.736   6.105  1.6835 -1.5992 -0.2586
 5565SOL     OW28327   1.032   0.087   2.882 -0.3286  0.7281 -0.1765
 5565SOL    HW128328   1.089   0.164   2.891 -1.3797  1.5272 -0.3893
 5565SOL    HW228329   0.956   0.124   2.838 -1.1059  0.7722  1.2127
 5566SOL     OW28330   1.846   3.010   9.352  0.5212 -0.1353 -0.6416
 5566SOL    HW128331   1.752   3.022   9.338  0.6836  1.0473 -0.6763
 5566SOL    HW228332   1.877   3.097   9.330  3.0226 -1.6949 -3.1848
 5567SOL     OW28333   1.991   4.224   9.634 -0.4282 -0.2844  0.7505
 5567SOL    HW128334   1.925   4.176   9.683 -0.4915 -1.0946 -0.1362
 5567SOL    HW228335   1.971   4.316   9.652 -0.8592 -0.4916  1.3299
 5568SOL     OW28336   1.696   0.030   9.828 -0.1903 -0.1042 -0.0481
 5568SOL    HW128337   1.686   0.124   9.812  0.7194  0.2166  1.2263
 5568SOL    HW228338   1.762   0.006   9.763 -1.2476  1.3289 -1.6423
 5569SOL     OW28339   2.389   1.619  10.307 -0.3253  0.5205 -0.4938
 5569SOL    HW128340   2.411   1.585  10.394 -0.5326  2.9815  0.5371
 5569SOL    HW228341   2.358   1.541  10.262 -1.0533  0.7299 -0.3618
 5570SOL     OW28342   0.309   2.354  13.335 -0.0582 -0.4053 -0.6621
 5570SOL    HW128343   0.243   2.421  13.315 -0.4770 -0.8045 -0.6072
 5570SOL    HW228344   0.355   2.349  13.251  0.7192 -0.6413 -0.2154
 5571SOL     OW28345   1.079   3.219   1.789  0.3917 -0.3877 -0.2040
 5571SOL    HW128346   1.145   3.160   1.753 -0.5632 -2.0371  0.7407
 5571SOL    HW228347   0.998   3.168   1.788  0.2075 -0.0941 -0.2541
 5572SOL     OW28348   1.135   1.182   0.888 -0.2260  0.3926 -0.1663
 5572SOL    HW128349   1.227   1.156   0.883  0.1919  1.8170  0.0934
 5572SOL    HW228350   1.124   1.272   0.857  1.2944  0.7901  0.4728
 5573SOL     OW28351   1.603   4.159  11.081 -0.3124 -0.2600  0.4233
 5573SOL    HW128352   1.625   4.139  11.172  1.4850 -1.3912 -0.2616
 5573SOL    HW228353   1.510   4.171  11.064  0.0583 -1.0612 -2.0715
 5574SOL     OW28354   3.600   3.550   3.827 -0.3146 -0.4581  0.5065
 5574SOL    HW128355   3.640   3.464   3.827  0.8921  0.1317 -2.2796
 5574SOL    HW228356   3.571   3.563   3.918 -0.0656  1.4275  0.3233
 5575SOL     OW28357   2.127   3.695   9.387  0.4110  0.0577  0.5917
 5575SOL    HW128358   2.099   3.767   9.443  0.5107  1.1438 -0.7895
 5575SOL    HW228359   2.166   3.625   9.440  0.9310  1.7019  2.3818
 5576SOL     OW28360   3.768   0.169   4.217 -0.4799 -0.1078 -0.2936
 5576SOL    HW128361   3.707   0.229   4.174  0.1824  0.7685  0.0112
 5576SOL    HW228362   3.760   0.191   4.309  0.8776  0.5425 -0.3399
 5577SOL     OW28363   2.189   0.880  14.711  0.6623  0.8388  0.0073
 5577SOL    HW128364   2.217   0.828  14.636 -0.7057  1.2123 -0.7597
 5577SOL    HW228365   2.111   0.832  14.739  0.6962  0.9976  0.3853
 5578SOL     OW28366   4.715   2.676   1.000  0.1500  0.1349 -0.1705
 5578SOL    HW128367   0.034   2.599   1.000  0.1597  0.1472 -0.8504
 5578SOL    HW228368   4.652   2.648   1.067 -0.0572  3.1160  0.9041
 5579SOL     OW28369   2.687   0.872   3.431  0.2839 -0.6473 -0.0141
 5579SOL    HW128370   2.675   0.792   3.483 -2.7554 -1.1802 -1.5573
 5579SOL    HW228371   2.639   0.864   3.349 -0.4549  0.9692  0.2704
 5580SOL     OW28372   1.427   1.427   3.951 -0.4517  0.0074 -0.7180
 5580SOL    HW128373   1.344   1.381   3.964 -0.2069 -0.3563 -0.4474
 5580SOL    HW228374   1.402   1.513   3.985  0.3329 -0.5073  1.1546
 5581SOL     OW28375   4.519   1.571   8.717  0.0776  0.0021  0.7847
 5581SOL    HW128376   4.432   1.577   8.756 -0.5775 -0.3027 -0.6525
 5581SOL    HW228377   4.519   1.640   8.651  0.6477 -1.8424 -1.1387
 5582SOL     OW28378   4.171   3.297   7.734  0.0230 -0.2523  0.3483
 5582SOL    HW128379   4.126   3.294   7.649  2.1647 -0.3715 -0.7679
 5582SOL    HW228380   4.119   3.369   7.771  1.2650  0.0249  1.5519
 5583SOL     OW28381   2.096   3.555   2.648  0.3841  0.6291  0.4158
 5583SOL    HW128382   2.115   3.479   2.593  3.8471 -0.0539  2.5772
 5583SOL    HW228383   2.041   3.520   2.719  2.0037  1.6463  2.1771
 5584SOL     OW28384   2.438   4.239   9.218 -0.2334  0.6845  0.4308
 5584SOL    HW128385   2.527   4.206   9.202 -0.3346  1.0429 -0.8764
 5584SOL    HW228386   2.377   4.184   9.168  0.6452 -0.2787  0.4119
 5585SOL     OW28387   1.028   2.634   6.872  0.0553  0.9272  0.2977
 5585SOL    HW128388   1.091   2.678   6.815 -0.2989  2.0856  0.7946
 5585SOL    HW228389   1.092   2.605   6.937  0.3995  2.9147  0.8561
 5586SOL     OW28390   2.043   0.564  15.789  0.4789 -0.0440 -0.8918
 5586SOL    HW128391   2.111   0.530  15.730  1.5117 -0.2551  0.4197
 5586SOL    HW228392   1.969   0.526  15.741 -0.1723  0.9890 -0.6976
 5587SOL     OW28393   2.913   0.384   7.477 -0.3199  0.1890  0.2888
 5587SOL    HW128394   2.922   0.290   7.462 -0.1416  0.1195  0.8399
 5587SOL    HW228395   3.003   0.400   7.507 -0.2319  1.0420 -0.4319
 5588SOL     OW28396   2.495   3.869  10.168 -0.1006  0.4890 -0.4221
 5588SOL    HW128397   2.433   3.839  10.101  0.4165  2.2546 -1.6949
 5588SOL    HW228398   2.580   3.861  10.125 -0.1285 -1.3232 -0.1261
 5589SOL     OW28399   4.027   2.373   6.761 -0.0182 -0.0974  0.0598
 5589SOL    HW128400   4.118   2.402   6.763  0.2330 -0.8741 -0.0493
 5589SOL    HW228401   4.028   2.300   6.699  0.7204 -0.6975  0.7912
 5590SOL     OW28402   1.865   3.457   5.683  0.4561 -0.0602 -1.0264
 5590SOL    HW128403   1.858   3.369   5.647 -0.5117 -1.1000  1.7923
 5590SOL    HW228404   1.866   3.499   5.596  2.2109  3.2273  0.5587
 5591SOL     OW28405   1.361   0.328   2.071  0.3742  0.1118 -0.1484
 5591SOL    HW128406   1.279   0.365   2.104  0.3992 -0.3446  0.4263
 5591SOL    HW228407   1.378   0.255   2.131  1.0868  0.0598 -0.4110
 5592SOL     OW28408   0.855   0.866   6.947 -0.6957 -0.2972 -0.0338
 5592SOL    HW128409   0.764   0.838   6.962 -0.7096 -0.4435 -0.3892
 5592SOL    HW228410   0.838   0.951   6.986  2.7343 -0.5790  2.0951
 5593SOL     OW28411   1.204   2.638   1.775  0.2567 -0.0236  0.5709
 5593SOL    HW128412   1.175   2.714   1.824 -0.3770  0.6447 -0.8316
 5593SOL    HW228413   1.155   2.571   1.822 -1.2453  0.7312  0.0581
 5594SOL     OW28414   1.345   0.990   3.869  0.1351  0.3724 -0.0561
 5594SOL    HW128415   1.265   0.937   3.874 -0.1015  0.9277  2.1505
 5594SOL    HW228416   1.368   0.974   3.778 -4.2281  0.8464 -1.2538
 5595SOL     OW28417   4.373   1.733  16.889 -0.3554 -0.0245 -0.0715
 5595SOL    HW128418   4.376   1.647  16.931  0.2990 -0.9262 -1.9876
 5595SOL    HW228419   4.449   1.780  16.923 -0.0234 -1.1185  0.6898
 5596SOL     OW28420   1.563   3.482   2.864 -0.0054  0.0981 -0.0245
 5596SOL    HW128421   1.483   3.446   2.826 -1.5253  1.9721  1.3931
 5596SOL    HW228422   1.552   3.568   2.824  4.1508  1.1042  0.9243
 5597SOL     OW28423   2.010   0.977  16.119  0.3696 -0.2346 -0.1935
 5597SOL    HW128424   2.033   1.065  16.147 -0.1166  0.3161 -1.5429
 5597SOL    HW228425   1.925   0.996  16.080 -0.2241 -3.0471 -0.2881
 5598SOL     OW28426   3.617   3.070   4.444  0.1417  0.1490  0.4759
 5598SOL    HW128427   3.708   3.067   4.413  0.9526  0.5198  2.8236
 5598SOL    HW228428   3.579   3.035   4.364  1.0974  0.2814 -0.0407
 5599SOL     OW28429   0.098   0.739  17.587  0.2783  0.0352  0.5409
 5599SOL    HW128430   0.043   0.734  17.509  1.0189 -1.4804  0.1193
 5599SOL    HW228431   0.149   0.814  17.555 -3.5338  2.1478 -0.6142
 5600SOL     OW28432   2.663   1.251   9.164  0.3304  0.1614  0.0223
 5600SOL    HW128433   2.600   1.213   9.103 -1.1234  2.7026 -0.0522
 5600SOL    HW228434   2.618   1.335   9.176 -1.9700 -1.2756  1.4471
 5601SOL     OW28435   2.189   2.562   7.820 -0.3339 -0.1241  0.1023
 5601SOL    HW128436   2.178   2.472   7.851  0.9226 -0.6219 -0.9048
 5601SOL    HW228437   2.099   2.583   7.797 -0.0555  0.0034 -0.8724
 5602SOL     OW28438   2.487   3.558   6.539 -0.0191  0.3626  0.0129
 5602SOL    HW128439   2.477   3.643   6.496  2.8057 -0.0653 -1.4583
 5602SOL    HW228440   2.538   3.515   6.471  0.4982  1.4729 -0.2891
 5603SOL     OW28441   0.363   0.825  15.374  0.1814  0.6340  0.2119
 5603SOL    HW128442   0.298   0.847  15.308 -0.6645  2.7350  1.7407
 5603SOL    HW228443   0.320   0.742  15.396 -0.6406  0.8730 -0.5381
 5604SOL     OW28444   1.938   2.213   3.614  0.2491  0.0290  0.4858
 5604SOL    HW128445   1.942   2.129   3.568  0.3024  0.1170  0.3314
 5604SOL    HW228446   1.927   2.279   3.546 -1.1647  1.4666  2.1252
 5605SOL     OW28447   0.028   0.353   4.484  0.1178  0.2844 -0.3210
 5605SOL    HW128448   0.007   0.445   4.501  1.0938  0.1064  1.8762
 5605SOL    HW228449   4.737   0.344   4.394  1.7921 -1.5169 -0.6619
 5606SOL     OW28450   1.497   4.444   2.643  0.2821  0.2122 -1.1649
 5606SOL    HW128451   1.456   4.529   2.655 -3.9644 -2.1903  1.2223
 5606SOL    HW228452   1.420   4.389   2.631 -0.0123  0.4485 -0.3263
 5607SOL     OW28453   3.593   0.503   4.266 -0.1475  0.5331 -0.2939
 5607SOL    HW128454   3.587   0.594   4.237 -2.4204  1.1231  1.9903
 5607SOL    HW228455   3.499   0.487   4.275 -0.3347  1.3534 -0.7921
 5608SOL     OW28456   4.029   3.239   4.973  0.2821 -0.1730  0.4813
 5608SOL    HW128457   4.035   3.151   4.936  0.0244 -0.1699  0.4312
 5608SOL    HW228458   4.122   3.258   4.983  0.3043 -0.0349  0.0182
 5609SOL     OW28459   4.716   0.201   3.110  0.2845 -0.2717  0.6849
 5609SOL    HW128460   4.697   0.295   3.111  1.7770 -0.0053  2.5389
 5609SOL    HW228461   4.644   0.175   3.168  0.1297  0.0546  0.6407
 5610SOL     OW28462   1.512   3.536   1.461 -0.0256 -0.2487  0.2005
 5610SOL    HW128463   1.522   3.550   1.367  1.4568  1.0509  0.5588
 5610SOL    HW228464   1.603   3.528   1.492 -0.5098  0.3320  1.7620
 5611SOL     OW28465   0.493   2.739   9.518 -0.0604  0.4104 -0.0253
 5611SOL    HW128466   0.417   2.735   9.575 -0.2818 -2.3187 -0.4933
 5611SOL    HW228467   0.461   2.797   9.449 -0.2810  1.4908  0.9958
 5612SOL     OW28468   0.315   3.279   0.571  0.1673  0.4099 -0.1602
 5612SOL    HW128469   0.312   3.185   0.588 -2.2342 -0.0271 -3.1681
 5612SOL    HW228470   0.399   3.305   0.610 -1.6940  2.0797  2.7844
 5613SOL     OW28471   0.358   0.846   4.506 -0.4878  0.3614 -0.7862
 5613SOL    HW128472   0.376   0.939   4.489  0.4612  0.0910 -1.2348
 5613SOL    HW228473   0.337   0.848   4.600  0.5280 -2.1307 -0.5151
 5614SOL     OW28474   0.656   0.698  15.291 -0.2201  0.1193 -0.1140
 5614SOL    HW128475   0.729   0.641  15.315 -0.8648 -0.9252 -0.6577
 5614SOL    HW228476   0.587   0.634  15.277 -1.8733  1.8354  0.1857
 5615SOL     OW28477   3.125   0.919   1.443 -0.2351 -0.2986  0.1821
 5615SOL    HW128478   3.198   0.861   1.466  0.4002  0.7342  0.7867
 5615SOL    HW228479   3.169   1.003   1.456 -0.0089 -0.7278  2.2151
 5616SOL     OW28480   0.539   3.048   3.917  0.0161  0.5713 -0.2473
 5616SOL    HW128481   0.566   3.104   3.990  0.0458 -0.7618  0.7671
 5616SOL    HW228482   0.526   3.108   3.843  0.3470 -1.1765 -1.7168
 5617SOL     OW28483   2.671   0.597   4.719 -0.0180  0.0428  0.1957
 5617SOL    HW128484   2.658   0.605   4.625  0.1598 -2.1884 -0.0314
 5617SOL    HW228485   2.714   0.511   4.717  0.6901  0.3952  0.3166
 5618SOL     OW28486   0.408   2.876   3.761 -0.1565 -0.5318 -0.1031
 5618SOL    HW128487   0.447   2.945   3.814 -0.3224 -1.0834  0.7405
 5618SOL    HW228488   0.411   2.912   3.673  0.8080 -1.0710 -0.2825
 5619SOL     OW28489   2.996   4.237  14.488 -0.2853 -0.8371  0.0910
 5619SOL    HW128490   3.020   4.205  14.401 -1.9710 -1.7055 -0.0493
 5619SOL    HW228491   2.909   4.196  14.486 -0.4180 -0.5515  0.0493
 5620SOL     OW28492   2.737   0.341  10.801 -0.2645  0.4085  0.2025
 5620SOL    HW128493   2.702   0.410  10.858 -0.6736  0.6960 -0.3953
 5620SOL    HW228494   2.684   0.264  10.820  0.7293 -0.3749 -0.2390
 5621SOL     OW28495   1.640   2.798   3.614 -0.5882 -0.2332  0.0473
 5621SOL    HW128496   1.603   2.886   3.626 -2.7524 -1.0061 -0.8679
 5621SOL    HW228497   1.707   2.805   3.546 -0.5644  1.9841  0.2883
 5622SOL     OW28498   2.902   2.816   7.583 -0.2814  0.5779 -0.7097
 5622SOL    HW128499   2.825   2.829   7.528 -0.3628  2.0462 -0.2726
 5622SOL    HW228500   2.959   2.758   7.533  0.1338  0.7938 -0.4927
 5623SOL     OW28501   4.467   2.573   5.536  0.4727  0.6188 -0.0770
 5623SOL    HW128502   4.377   2.562   5.568  1.2409 -0.2261  1.7399
 5623SOL    HW228503   4.482   2.664   5.563  1.9164  0.7849 -1.4327
 5624SOL     OW28504   0.202   1.723   8.576 -0.3974  0.3293  0.3885
 5624SOL    HW128505   0.205   1.644   8.629 -0.8701  0.6137  0.8486
 5624SOL    HW228506   0.274   1.773   8.615 -0.0579  1.4613 -1.7187
 5625SOL     OW28507   3.201   1.089   1.150 -0.1717 -0.3501  0.7113
 5625SOL    HW128508   3.275   1.045   1.192 -0.8721 -0.6523  1.6119
 5625SOL    HW228509   3.177   1.159   1.211 -1.3772  0.2069 -0.4015
 5626SOL     OW28510   4.469   2.431  14.445  0.3187 -0.6197 -0.1307
 5626SOL    HW128511   4.408   2.498  14.415  0.7890  0.7118  1.8924
 5626SOL    HW228512   4.509   2.472  14.522 -0.0742  0.3227 -0.4359
 5627SOL     OW28513   3.177   1.755   1.433  0.3628  0.7236 -0.2211
 5627SOL    HW128514   3.235   1.830   1.442 -1.3715  1.7205  2.3819
 5627SOL    HW228515   3.153   1.757   1.340  0.7541 -0.4063 -0.3595
 5628SOL     OW28516   0.638   3.225   8.273 -0.1198  0.2739 -0.2724
 5628SOL    HW128517   0.545   3.240   8.261 -0.2996  0.0772  0.9538
 5628SOL    HW228518   0.644   3.254   8.364 -1.5738  1.5595 -0.5922
 5629SOL     OW28519   2.107   0.222   2.231  0.1875 -0.2228 -0.8032
 5629SOL    HW128520   2.038   0.288   2.234  0.5463  0.1499 -0.7060
 5629SOL    HW228521   2.055   0.143   2.217  0.7316 -0.7789  0.3154
 5630SOL     OW28522   1.205   4.249   8.301  0.1636 -0.0055  0.2711
 5630SOL    HW128523   1.237   4.179   8.358 -1.5055  0.5038  1.8572
 5630SOL    HW228524   1.248   4.327   8.335  0.6274  0.0751 -0.5131
 5631SOL     OW28525   4.362   4.650  13.588 -0.4081 -0.1566  0.5645
 5631SOL    HW128526   4.417   4.585  13.633 -1.5386  1.6911  4.5314
 5631SOL    HW228527   4.321   4.586  13.529  0.6252  1.1375 -1.5726
 5632SOL     OW28528   4.561   2.722   4.203  0.2126 -0.0045  0.2018
 5632SOL    HW128529   4.571   2.781   4.278  0.5326  0.9376 -0.5873
 5632SOL    HW228530   4.504   2.655   4.239 -0.3985 -0.1256 -1.0093
 5633SOL     OW28531   3.971   2.924  10.261 -0.3757  0.0177 -0.6554
 5633SOL    HW128532   4.023   3.000  10.289 -1.0924  0.2974 -0.0807
 5633SOL    HW228533   4.030   2.886  10.196  1.4941  1.1644  0.3935
 5634SOL     OW28534   1.633   2.799   9.310 -0.0937  0.5688  0.5323
 5634SOL    HW128535   1.549   2.754   9.304 -1.2542  2.4997  2.0632
 5634SOL    HW228536   1.610   2.882   9.267 -1.5366 -0.2296 -0.2610
 5635SOL     OW28537   2.301   0.755  15.525  0.3505 -0.2515  0.0818
 5635SOL    HW128538   2.252   0.773  15.605 -0.7265  0.8810 -0.8364
 5635SOL    HW228539   2.226   0.743  15.467 -0.2376 -1.5147  1.1093
 5636SOL     OW28540   2.715   0.723   5.936 -0.3666 -0.1040  0.5757
 5636SOL    HW128541   2.726   0.717   6.031 -1.6359 -1.3082  0.6468
 5636SOL    HW228542   2.682   0.635   5.918 -0.0322 -0.0821 -0.1542
 5637SOL     OW28543   3.188   3.426   6.357  0.0699 -0.2664 -0.4610
 5637SOL    HW128544   3.116   3.489   6.349  0.8929  0.7639  0.1804
 5637SOL    HW228545   3.161   3.366   6.427  1.0352  1.3698  1.3348
 5638SOL     OW28546   0.780   1.554  11.510 -0.6068 -0.1010  0.4702
 5638SOL    HW128547   0.686   1.567  11.497 -0.2759  0.0720 -1.6779
 5638SOL    HW228548   0.807   1.615  11.579  0.0434  0.5420 -0.3372
 5639SOL     OW28549   4.251   3.680   7.648  0.1474 -0.5675 -0.1795
 5639SOL    HW128550   4.307   3.606   7.625 -0.1103 -1.3697  1.7719
 5639SOL    HW228551   4.173   3.643   7.607 -0.3911 -1.9904  2.1499
 5640SOL     OW28552   1.549   2.770   2.468 -0.6767  0.0755  0.2555
 5640SOL    HW128553   1.631   2.787   2.515 -0.4267 -0.3775 -0.0190
 5640SOL    HW228554   1.539   2.864   2.453 -1.3393  0.0624  0.6042
 5641SOL     OW28555   3.297   3.834  15.966  0.4893  0.5502  0.6777
 5641SOL    HW128556   3.202   3.844  15.955  0.3681 -1.7685 -0.3101
 5641SOL    HW228557   3.310   3.769  15.897 -1.1997  0.7371  0.1836
 5642SOL     OW28558   3.307   2.967   6.691  0.3969 -0.6291  0.6823
 5642SOL    HW128559   3.365   2.995   6.620 -0.4917 -1.4485 -0.3719
 5642SOL    HW228560   3.241   2.908   6.655  0.3648  0.0442 -0.3645
 5643SOL     OW28561   1.559   2.827   2.930  0.3064  0.0885  0.5928
 5643SOL    HW128562   1.567   2.736   2.960  1.2382 -0.7330 -2.2113
 5643SOL    HW228563   1.620   2.874   2.987 -2.2237  2.4684  1.3369
 5644SOL     OW28564   4.569   0.296  15.645 -0.5438  0.5562 -0.2513
 5644SOL    HW128565   4.534   0.216  15.606 -2.6820  0.4453  1.8871
 5644SOL    HW228566   4.558   0.267  15.736  1.8149 -1.1954 -0.5302
 5645SOL     OW28567   1.325   1.666   4.030  0.0413  0.4730 -0.2654
 5645SOL    HW128568   1.231   1.678   4.043 -0.1174 -1.6553  0.5730
 5645SOL    HW228569   1.357   1.756   4.032  0.8216  0.1723  0.6702
 5646SOL     OW28570   2.357   1.915  16.141  0.1850  0.1975  0.1487
 5646SOL    HW128571   2.410   1.993  16.160  0.0052  0.6637 -1.2595
 5646SOL    HW228572   2.401   1.888  16.060 -0.3503 -0.2831  0.0211
 5647SOL     OW28573   2.681   2.415   1.539  0.0584 -0.0452  0.0654
 5647SOL    HW128574   2.753   2.444   1.594 -0.4795 -1.5326  1.5430
 5647SOL    HW228575   2.714   2.333   1.501 -0.5710 -0.2750  0.0076
 5648SOL     OW28576   0.388   3.259  10.535 -0.6146 -0.3398 -0.0527
 5648SOL    HW128577   0.453   3.317  10.495 -0.9331 -2.0242 -3.0765
 5648SOL    HW228578   0.426   3.251  10.622 -1.0274 -2.3747 -0.0539
 5649SOL     OW28579   1.012   4.223  12.604  0.1613 -0.7773  0.6121
 5649SOL    HW128580   0.999   4.232  12.698  0.4218  1.2671  0.4342
 5649SOL    HW228581   0.992   4.312  12.578  0.9203 -0.7117  0.2461
 5650SOL     OW28582   4.148   1.967   9.387 -0.4053 -0.5629  0.5314
 5650SOL    HW128583   4.243   1.982   9.391 -0.8287  2.2452  0.4409
 5650SOL    HW228584   4.144   1.893   9.327  3.1423  0.5795 -1.1000
 5651SOL     OW28585   1.324   1.312   7.259 -0.4400 -0.3456  0.2885
 5651SOL    HW128586   1.349   1.368   7.333  0.4015 -1.4095  0.8133
 5651SOL    HW228587   1.260   1.257   7.305 -1.0489  0.9719  1.0140
 5652SOL     OW28588   2.605   0.677   4.474 -0.0652  0.0525  0.0466
 5652SOL    HW128589   2.681   0.718   4.433 -0.1041 -1.4958 -1.6008
 5652SOL    HW228590   2.581   0.611   4.408 -0.2785 -2.0133  2.2009
 5653SOL     OW28591   3.808   0.364   1.858 -0.2518 -0.1774  0.3040
 5653SOL    HW128592   3.755   0.435   1.895  0.2716 -0.0588  0.8229
 5653SOL    HW228593   3.781   0.300   1.924 -0.2749  0.4643  0.9192
 5654SOL     OW28594   2.060   0.605   0.257 -0.1544  0.0371  0.2533
 5654SOL    HW128595   2.004   0.677   0.286 -0.8397 -0.5487  0.4094
 5654SOL    HW228596   2.105   0.643   0.182 -0.6548  0.2303  0.0554
 5655SOL     OW28597   4.043   3.241   9.995  0.1328 -0.0903 -0.1114
 5655SOL    HW128598   4.091   3.288  10.062  0.4549 -0.3419 -0.1653
 5655SOL    HW228599   3.962   3.236  10.047  0.8391  1.6803  1.1431
 5656SOL     OW28600   0.465   2.105  12.170 -0.2498  0.2586  0.2839
 5656SOL    HW128601   0.373   2.093  12.145  0.5241  0.3520 -2.7129
 5656SOL    HW228602   0.482   2.045  12.242  0.4257  0.3213  0.1700
 5657SOL     OW28603   1.520   2.102   9.398 -0.5622  0.0657  0.7096
 5657SOL    HW128604   1.470   2.184   9.395 -0.8570 -0.1039  1.0548
 5657SOL    HW228605   1.466   2.048   9.341 -2.5654  1.5600  1.1722
 5658SOL     OW28606   1.937   0.873   5.345 -0.2585  0.0689 -0.0302
 5658SOL    HW128607   1.921   0.931   5.270 -0.3058  0.8221  0.5539
 5658SOL    HW228608   1.972   0.935   5.410  0.9231 -0.0201 -0.5773
 5659SOL     OW28609   4.529   3.254   6.438  0.3345 -0.0518  0.1974
 5659SOL    HW128610   4.533   3.286   6.529 -0.1354 -0.4122  0.3489
 5659SOL    HW228611   4.571   3.326   6.393 -0.4151  0.9644  1.1158
 5660SOL     OW28612   2.509   0.769  14.499 -0.2243  0.5357  0.2996
 5660SOL    HW128613   2.443   0.760  14.431 -0.6346 -2.3128  1.0927
 5660SOL    HW228614   2.495   0.696  14.559  0.5114 -0.2871 -0.5383
 5661SOL     OW28615   0.693   3.661   3.911 -0.7583  0.5171  0.0246
 5661SOL    HW128616   0.770   3.717   3.899 -0.1725 -0.7148 -1.9862
 5661SOL    HW228617   0.687   3.657   4.006 -0.7597 -1.4177 -0.0525
 5662SOL     OW28618   4.440   3.053   8.827 -0.0461  0.6690  0.2530
 5662SOL    HW128619   4.355   3.071   8.787 -0.4311  0.0486  0.7870
 5662SOL    HW228620   4.472   3.141   8.808  2.9218 -0.3485  0.5049
 5663SOL     OW28621   3.343   2.529   7.460  0.4607 -0.2628 -0.1306
 5663SOL    HW128622   3.414   2.536   7.524 -0.4983 -1.8336  1.1163
 5663SOL    HW228623   3.389   2.465   7.406 -0.7350 -1.1726 -0.0695
 5664SOL     OW28624   3.590   0.992   5.357  0.0163  0.1077  0.4569
 5664SOL    HW128625   3.547   1.051   5.418  0.2675 -0.8948  1.6066
 5664SOL    HW228626   3.599   0.911   5.407 -1.0587 -0.6656 -0.5805
 5665SOL     OW28627   1.525   4.034   4.681  0.2238  0.3211 -0.3004
 5665SOL    HW128628   1.609   4.039   4.726  0.0344  0.1086  0.0760
 5665SOL    HW228629   1.472   3.989   4.748 -1.2098  0.8415 -1.0750
 5666SOL     OW28630   2.599   2.990   2.237  0.0857 -0.0482  0.1754
 5666SOL    HW128631   2.540   3.025   2.170  2.7087  0.2829 -1.9706
 5666SOL    HW228632   2.546   2.929   2.288  1.0186  2.4273  4.0825
 5667SOL     OW28633   3.650   4.515  15.673  0.5090  0.0117  0.1013
 5667SOL    HW128634   3.606   4.566  15.742 -2.0533 -1.9722 -0.0830
 5667SOL    HW228635   3.620   4.557  15.592  3.6918  0.9585 -0.5750
 5668SOL     OW28636   0.164   1.564  15.340  0.2048  0.1272  0.4302
 5668SOL    HW128637   0.178   1.470  15.329 -0.5627  0.1782 -1.0064
 5668SOL    HW228638   0.252   1.597  15.321  0.6777 -1.5685 -0.3906
 5669SOL     OW28639   0.097   3.838   9.138 -0.0439 -0.0292 -0.0768
 5669SOL    HW128640   0.179   3.884   9.120  0.8818 -1.8512 -0.4473
 5669SOL    HW228641   0.083   3.775   9.067 -0.1535  0.1300 -0.1966
 5670SOL     OW28642   3.750   1.760   8.248  0.0705 -0.6491 -0.4724
 5670SOL    HW128643   3.733   1.851   8.271  0.4543 -0.7590  0.2483
 5670SOL    HW228644   3.846   1.752   8.247  0.2577  1.7359 -0.6803
 5671SOL     OW28645   0.823   1.446   6.230 -0.3605 -0.2454  0.6463
 5671SOL    HW128646   0.860   1.365   6.194  0.3834  0.4539 -0.1668
 5671SOL    HW228647   0.908   1.487   6.250 -0.2986  0.4711 -1.0438
 5672SOL     OW28648   3.523   0.807   7.801  0.3518  0.2692  0.0574
 5672SOL    HW128649   3.441   0.760   7.791  0.1114  0.5409  0.7423
 5672SOL    HW228650   3.497   0.899   7.808 -0.6258 -0.3274  3.9520
 5673SOL     OW28651   3.078   3.159   8.142  0.1244 -0.0814  0.5365
 5673SOL    HW128652   3.093   3.167   8.048  0.9021  1.0821  0.7597
 5673SOL    HW228653   2.995   3.207   8.146 -0.1376 -0.6005  1.4025
 5674SOL     OW28654   4.169   1.944   5.936  0.3236  0.4109  0.6242
 5674SOL    HW128655   4.090   1.895   5.962  0.4426  0.6654  1.4527
 5674SOL    HW228656   4.231   1.877   5.906  1.5259  1.2053  1.3393
 5675SOL     OW28657   0.004   1.292   6.791 -0.1117 -0.5795  0.2954
 5675SOL    HW128658   4.730   1.384   6.814  1.6044 -0.4301  0.5760
 5675SOL    HW228659   4.676   1.269   6.724  0.4958 -1.2722 -0.0617
 5676SOL     OW28660   2.137   1.516  16.062 -0.0053 -0.3912 -0.2476
 5676SOL    HW128661   2.059   1.572  16.062  0.5070  0.3115 -0.4708
 5676SOL    HW228662   2.205   1.573  16.095 -0.1262  0.4882 -1.5296
 5677SOL     OW28663   1.325   4.080   6.149  0.2304 -0.4858  0.0263
 5677SOL    HW128664   1.318   3.993   6.108  0.8591 -0.3052 -0.4699
 5677SOL    HW228665   1.404   4.120   6.113 -0.0361 -0.4537 -0.5217
 5678SOL     OW28666   3.321   3.709   2.006  0.1877  0.1851 -0.2784
 5678SOL    HW128667   3.397   3.709   2.064  1.2160  1.1536 -1.6042
 5678SOL    HW228668   3.349   3.763   1.932  0.3090  0.6849  0.1301
 5679SOL     OW28669   4.465   1.297   7.146 -0.1149 -0.4327 -0.0243
 5679SOL    HW128670   4.542   1.353   7.135 -0.7432  0.7189  1.4044
 5679SOL    HW228671   4.467   1.247   7.064 -1.3768 -0.7501  0.1474
 5680SOL     OW28672   1.834   3.998   7.511 -0.2733  0.3304  0.1206
 5680SOL    HW128673   1.855   3.905   7.517  0.1250  0.2961 -1.7748
 5680SOL    HW228674   1.753   3.993   7.461 -0.9720  0.3572  1.2413
 5681SOL     OW28675   1.353   0.860   2.406 -0.5524  0.8284  0.7284
 5681SOL    HW128676   1.325   0.914   2.480 -0.4679  1.2156  0.4750
 5681SOL    HW228677   1.414   0.800   2.449  0.0167 -0.6265 -2.1400
 5682SOL     OW28678   2.312   4.385  11.291 -0.2716  0.0319 -0.4328
 5682SOL    HW128679   2.310   4.344  11.377 -0.4635 -1.1878 -1.0220
 5682SOL    HW228680   2.366   4.462  11.312  0.5784 -0.2271 -1.6567
 5683SOL     OW28681   1.522   1.548   8.749  0.0843  0.2478 -0.2522
 5683SOL    HW128682   1.549   1.635   8.719  1.4939 -1.0682 -2.8523
 5683SOL    HW228683   1.586   1.524   8.816 -0.5853 -0.5973  0.0786
 5684SOL     OW28684   0.544   4.044   1.934 -0.2229 -0.1589 -0.3052
 5684SOL    HW128685   0.598   4.000   1.868  4.6430  1.0917  2.8770
 5684SOL    HW228686   0.459   4.008   1.907 -0.2706 -0.5139  0.3030
 5685SOL     OW28687   0.899   1.622   2.733  0.4462 -0.6347  0.0460
 5685SOL    HW128688   0.986   1.620   2.773  1.4354  0.3724 -2.0900
 5685SOL    HW228689   0.857   1.695   2.779  0.8051 -0.1186 -0.4519
 5686SOL     OW28690   1.543   0.673   2.521  0.3078  0.5299 -0.1351
 5686SOL    HW128691   1.588   0.647   2.601 -2.8948  0.7022  1.7002
 5686SOL    HW228692   1.517   0.590   2.482 -1.1422  0.7821  0.2998
 5687SOL     OW28693   0.258   4.609  13.399 -0.3896  0.0972 -0.6293
 5687SOL    HW128694   0.169   4.605  13.434 -0.8737  0.8425 -1.7937
 5687SOL    HW228695   0.241   4.688  13.347 -0.4031  1.1440  0.9582
 5688SOL     OW28696   1.193   0.757  15.769  0.0821 -0.1013  0.0403
 5688SOL    HW128697   1.136   0.814  15.820 -0.7944 -2.6990  2.0061
 5688SOL    HW228698   1.131   0.688  15.745 -0.1867  0.3999 -0.6999
 5689SOL     OW28699   0.530   3.064   7.494 -0.7002  0.0451  0.7378
 5689SOL    HW128700   0.486   3.094   7.574 -1.2173 -2.8270  1.5145
 5689SOL    HW228701   0.450   3.039   7.447 -0.4613  0.0533  0.3253
 5690SOL     OW28702   2.245   3.327  17.583 -0.5476 -0.0741  0.3781
 5690SOL    HW128703   2.165   3.298  17.538 -0.4687 -1.4492  1.1177
 5690SOL    HW228704   2.277   3.394  17.522 -0.5123  0.3647  0.8860
 5691SOL     OW28705   2.551   1.737   4.473 -1.0231  0.0643 -0.4968
 5691SOL    HW128706   2.522   1.672   4.537  1.6713 -0.0089  0.6591
 5691SOL    HW228707   2.596   1.803   4.526  0.4761 -0.1812 -1.4610
 5692SOL     OW28708   0.440   0.104   2.140  0.0514  0.1513  0.4343
 5692SOL    HW128709   0.409   0.112   2.049  0.0136 -2.2976  0.2256
 5692SOL    HW228710   0.446   0.011   2.161  3.3020  0.3016  0.1989
 5693SOL     OW28711   3.098   2.412   7.057 -0.2067  0.4667 -0.0048
 5693SOL    HW128712   3.016   2.423   7.009 -0.9163 -1.0305  0.8590
 5693SOL    HW228713   3.116   2.326   7.018  0.0726  1.0123 -1.0737
 5694SOL     OW28714   0.621   3.115   2.417  0.4056  0.1849  0.0589
 5694SOL    HW128715   0.663   3.121   2.331 -1.2896 -1.2807 -0.8730
 5694SOL    HW228716   0.676   3.062   2.474  2.5412 -0.2044 -2.3595
 5695SOL     OW28717   1.144   2.407   2.622 -0.3687  0.5723  0.4230
 5695SOL    HW128718   1.109   2.489   2.586  0.2508  0.1508 -1.0982
 5695SOL    HW228719   1.237   2.428   2.634 -0.3207  0.6277 -0.0615
 5696SOL     OW28720   4.150   3.110   9.020 -0.0229 -0.1196 -0.1451
 5696SOL    HW128721   4.148   3.018   8.991 -1.6174  0.2184 -1.1449
 5696SOL    HW228722   4.102   3.093   9.101  0.6668 -0.7719  0.1159
 5697SOL     OW28723   0.625   0.196   5.713 -0.0646  0.0990 -0.2279
 5697SOL    HW128724   0.572   0.258   5.764  1.7434 -0.1123  1.8967
 5697SOL    HW228725   0.703   0.249   5.697 -0.5593  0.9440  0.2074
 5698SOL     OW28726   1.027   0.113  15.066 -0.1166  0.1189  0.2626
 5698SOL    HW128727   1.090   0.041  15.068 -1.3841 -1.0356 -1.2066
 5698SOL    HW228728   1.064   0.172  15.132 -1.2861  2.0470 -0.8044
 5699SOL     OW28729   1.789   3.326   9.497 -0.0392 -0.0931  0.5477
 5699SOL    HW128730   1.858   3.295   9.438 -0.5943 -0.5857  0.1542
 5699SOL    HW228731   1.801   3.420   9.507 -1.6142  0.1501  0.1107
 5700SOL     OW28732   2.225   0.775   4.992 -0.0477  0.5182  0.8804
 5700SOL    HW128733   2.229   0.736   4.905  1.7566  1.8912  0.3400
 5700SOL    HW228734   2.137   0.750   5.021  0.2396 -1.5206  0.0027
 5701SOL     OW28735   0.634   0.209   4.593  0.4081  0.1654  0.1550
 5701SOL    HW128736   0.581   0.253   4.527  0.6628 -1.9296 -1.4302
 5701SOL    HW228737   0.563   0.160   4.635  0.8345 -0.4238  0.1875
 5702SOL     OW28738   1.781   0.499   9.065  0.4644 -1.0679 -0.2006
 5702SOL    HW128739   1.847   0.449   9.017  0.8106 -1.5122  0.7285
 5702SOL    HW228740   1.790   0.590   9.035  1.1499 -1.5658 -1.5033
 5703SOL     OW28741   3.099   2.725  16.505 -0.0553  0.2530 -0.6481
 5703SOL    HW128742   3.007   2.697  16.502 -0.9607  3.0316  1.1871
 5703SOL    HW228743   3.102   2.763  16.417 -1.2369  0.8360 -0.4405
 5704SOL     OW28744   0.620   1.162   4.005  0.4604 -0.3067 -0.3036
 5704SOL    HW128745   0.547   1.105   3.981 -0.9092  1.6659 -0.8705
 5704SOL    HW228746   0.661   1.099   4.064  2.1504  0.7044 -0.3969
 5705SOL     OW28747   4.158   3.060   3.085 -0.1565 -0.0068 -0.3571
 5705SOL    HW128748   4.148   3.037   2.992 -0.1004  0.2770 -0.4347
 5705SOL    HW228749   4.211   3.140   3.092  0.4669 -0.2555 -2.2131
 5706SOL     OW28750   3.485   2.054   4.500  0.1499  0.2129 -0.2317
 5706SOL    HW128751   3.487   2.136   4.549 -1.3441  0.2489 -0.2367
 5706SOL    HW228752   3.546   2.064   4.426  0.9353  1.2832  0.5518
 5707SOL     OW28753   0.785   2.066  14.608  0.2743  0.5509  0.5081
 5707SOL    HW128754   0.786   2.051  14.513  0.0674  1.5474  0.3464
 5707SOL    HW228755   0.701   2.029  14.634  0.3347  0.9814  1.2948
 5708SOL     OW28756   1.866   1.932   3.089 -0.1564 -0.1538 -0.4946
 5708SOL    HW128757   1.905   1.873   3.024  2.2949  0.4004  0.4639
 5708SOL    HW228758   1.944   1.960   3.138  0.8203 -0.9669 -1.5723
 5709SOL     OW28759   3.183   1.803   1.157  0.3292  0.2758  0.0694
 5709SOL    HW128760   3.125   1.797   1.081  1.6146 -2.0895 -0.7334
 5709SOL    HW228761   3.159   1.889   1.193  1.5332  1.1070 -1.1008
 5710SOL     OW28762   0.066   1.036   4.864  0.0329  0.1854 -0.1893
 5710SOL    HW128763   0.065   1.014   4.957  0.9874  0.3387 -0.1494
 5710SOL    HW228764   0.030   1.123   4.879 -0.0315  0.5807 -2.5652
 5711SOL     OW28765   1.989   3.347   4.571  0.1583  0.5712 -0.6965
 5711SOL    HW128766   1.970   3.271   4.626 -0.4697  1.4784  0.3291
 5711SOL    HW228767   2.046   3.396   4.630  0.7116  0.4975 -1.1629
 5712SOL     OW28768   1.653   2.567   3.015  0.7100 -0.3146  0.8294
 5712SOL    HW128769   1.715   2.530   3.079 -0.1530  1.8126  2.9035
 5712SOL    HW228770   1.651   2.512   2.937 -2.3700  1.0533 -0.0648
 5713SOL     OW28771   3.544   3.213   2.287  0.4100 -0.4451  0.0366
 5713SOL    HW128772   3.619   3.249   2.335  0.3006 -0.3691  0.1487
 5713SOL    HW228773   3.580   3.191   2.201 -1.8171 -1.6650 -0.5735
 5714SOL     OW28774   3.759   1.543   5.947 -0.0672  0.6536 -0.4808
 5714SOL    HW128775   3.722   1.458   5.967  0.5375  0.1064 -1.7030
 5714SOL    HW228776   3.713   1.557   5.865  0.0622 -0.3708 -0.7180
 5715SOL     OW28777   4.308   3.772  15.350  0.2720 -0.5578  0.0199
 5715SOL    HW128778   4.388   3.721  15.359  0.5669 -0.0116  0.4905
 5715SOL    HW228779   4.286   3.752  15.259  2.2207  1.7047 -0.9537
 5716SOL     OW28780   0.891   0.250   4.217 -0.6756  0.2147  0.2932
 5716SOL    HW128781   0.927   0.232   4.304  1.6840  2.0940 -0.2656
 5716SOL    HW228782   0.957   0.307   4.176 -0.0589 -1.5956 -1.2432
 5717SOL     OW28783   0.226   4.269   5.583 -0.1502 -0.0632  0.5945
 5717SOL    HW128784   0.227   4.356   5.621  0.1917  0.4743 -0.6390
 5717SOL    HW228785   0.319   4.249   5.579  0.1642  1.6400 -0.6438
 5718SOL     OW28786   0.882   2.554   2.510  0.0771 -0.0179  0.1934
 5718SOL    HW128787   0.790   2.539   2.533  0.5246  1.6665  2.9579
 5718SOL    HW228788   0.876   2.543   2.415  2.1019 -2.6406  0.3635
 5719SOL     OW28789   3.504   0.897  10.102  0.2698  0.4054 -0.2571
 5719SOL    HW128790   3.481   0.821  10.156  1.3817 -0.5818 -1.1661
 5719SOL    HW228791   3.460   0.967  10.150 -3.6460 -2.9296  1.0510
 5720SOL     OW28792   4.516   1.291   9.078  0.4033 -0.2273 -0.3338
 5720SOL    HW128793   4.588   1.269   9.138  0.0286  0.5305  0.4045
 5720SOL    HW228794   4.564   1.344   9.015  1.9938  1.2534  2.0840
 5721SOL     OW28795   2.116   1.750  17.093 -0.4841  0.0839 -0.5816
 5721SOL    HW128796   2.042   1.756  17.153 -0.2164 -0.9183 -0.1574
 5721SOL    HW228797   2.093   1.712  17.009  0.9348 -2.1591  0.0494
 5722SOL     OW28798   2.077   0.086   9.751  0.1704  0.3223  0.1427
 5722SOL    HW128799   1.987   0.081   9.721  0.2062 -0.8988  0.2459
 5722SOL    HW228800   2.068   0.064   9.844  2.1249  0.4322  0.3611
 5723SOL     OW28801   2.508   3.410  12.267  0.4513 -0.1147  0.3250
 5723SOL    HW128802   2.462   3.349  12.209  0.0386  1.0864 -0.6003
 5723SOL    HW228803   2.499   3.496  12.227 -0.0583  1.0069  2.8547
 5724SOL     OW28804   4.583   1.721  13.467 -0.1337 -0.5384 -0.5651
 5724SOL    HW128805   4.552   1.639  13.507  0.6072  0.0642  1.2576
 5724SOL    HW228806   4.506   1.746  13.416  0.6108  1.4758 -0.6727
 5725SOL     OW28807   0.626   2.891   2.234  0.2428 -0.1943 -0.4413
 5725SOL    HW128808   0.603   2.809   2.189 -0.7698  0.0443 -0.3641
 5725SOL    HW228809   0.693   2.922   2.173  0.7670  0.8877  0.7034
 5726SOL     OW28810   2.065   0.045   4.053 -0.3510 -0.2945  0.1018
 5726SOL    HW128811   2.135   0.028   4.117  0.2586  1.2378 -0.1561
 5726SOL    HW228812   2.083   4.712   3.991  1.1331 -0.8876  1.1744
 5727SOL     OW28813   0.625   1.862   3.336  0.2743 -0.7158  0.0500
 5727SOL    HW128814   0.623   1.946   3.290  0.4673 -1.7546 -1.8690
 5727SOL    HW228815   0.711   1.823   3.324  0.7336  1.4726 -3.6363
 5728SOL     OW28816   1.645   3.125   0.438  0.0271 -0.1832 -0.1368
 5728SOL    HW128817   1.637   3.058   0.370  1.3380 -0.3151 -0.1636
 5728SOL    HW228818   1.703   3.188   0.395  1.9095 -2.2174 -0.5947
 5729SOL     OW28819   3.488   0.015   4.107 -0.5856 -0.5438 -0.6626
 5729SOL    HW128820   3.446   4.668   4.091 -2.0032  0.2263 -0.9915
 5729SOL    HW228821   3.458   0.067   4.033  0.7874 -1.9489 -2.2324
 5730SOL     OW28822   3.373   0.631   1.141  0.0611  0.2109  0.0552
 5730SOL    HW128823   3.346   0.619   1.232  0.4587  1.1307  0.2928
 5730SOL    HW228824   3.300   0.690   1.122 -0.3564 -0.5619 -0.7858
 5731SOL     OW28825   4.010   2.039  17.351 -0.0609 -0.5616 -0.7722
 5731SOL    HW128826   3.971   2.126  17.364  2.3688  0.3835  0.1794
 5731SOL    HW228827   3.930   1.988  17.346  0.4905 -1.2520 -2.4312
 5732SOL     OW28828   2.671   3.011   8.333 -0.3438  0.0126  0.4164
 5732SOL    HW128829   2.658   2.919   8.309 -0.2429 -0.0613  0.6385
 5732SOL    HW228830   2.667   3.052   8.247  3.9647  0.3676  0.3671
 5733SOL     OW28831   3.737   1.515  13.278 -0.3213 -0.5139  0.3271
 5733SOL    HW128832   3.690   1.583  13.326 -2.2641  0.2280 -2.6316
 5733SOL    HW228833   3.727   1.549  13.189  2.2151  0.6032  0.4929
 5734SOL     OW28834   3.203   3.721  13.352  0.5115 -0.0751  0.2263
 5734SOL    HW128835   3.145   3.773  13.408  0.0249  0.3702 -0.7043
 5734SOL    HW228836   3.254   3.794  13.318  0.0650  0.6372  1.0577
 5735SOL     OW28837   1.252   3.868  12.381 -0.7759  0.5275 -0.1431
 5735SOL    HW128838   1.226   3.797  12.440 -0.0250 -0.6355 -1.2287
 5735SOL    HW228839   1.208   3.946  12.416 -0.6113  0.5744 -0.0406
 5736SOL     OW28840   0.204   0.688   8.781 -0.3045 -0.1830  0.4181
 5736SOL    HW128841   0.277   0.748   8.765 -0.6653  0.2377  0.3472
 5736SOL    HW228842   0.239   0.604   8.753 -0.1318 -1.2790  3.9446
 5737SOL     OW28843   3.021   4.585   1.678 -0.2307 -0.4451  0.8798
 5737SOL    HW128844   2.950   4.521   1.677 -0.7505  0.1507  0.3359
 5737SOL    HW228845   3.045   4.563   1.768  2.1905  0.2880  0.4126
 5738SOL     OW28846   0.830   4.612   7.465  0.6803  0.3868 -0.3576
 5738SOL    HW128847   0.739   4.613   7.493  1.0934  1.9038  0.9586
 5738SOL    HW228848   0.815   4.522   7.438 -0.6795  1.2064 -2.4245
 5739SOL     OW28849   2.663   4.542  11.074  0.3200 -0.4918 -0.5634
 5739SOL    HW128850   2.745   4.590  11.067  0.0559  0.0048 -0.2631
 5739SOL    HW228851   2.683   4.455  11.040  3.0464 -0.8744  1.9590
 5740SOL     OW28852   1.805   2.156   3.338 -0.1095 -0.1489 -0.1278
 5740SOL    HW128853   1.728   2.196   3.297 -1.1020 -1.0978  0.8092
 5740SOL    HW228854   1.854   2.235   3.360 -0.4733  0.5621 -1.8661
 5741SOL     OW28855   4.733   2.911   6.499  0.0848  0.0442 -0.6845
 5741SOL    HW128856   4.693   2.948   6.420 -2.2064  1.1626  1.0200
 5741SOL    HW228857   0.073   2.968   6.503  1.0415 -1.4079  1.5478
 5742SOL     OW28858   4.697   0.661   0.598 -0.1857 -0.0040  0.2093
 5742SOL    HW128859   4.605   0.649   0.623 -0.2728  0.8077  0.2856
 5742SOL    HW228860   0.000   0.609   0.667  0.6595  1.0467  0.5041
 5743SOL     OW28861   4.411   2.119   1.781  0.0150  0.3569 -0.4885
 5743SOL    HW128862   4.318   2.137   1.796 -0.3129 -0.5247 -1.5126
 5743SOL    HW228863   4.442   2.208   1.794 -0.0575  0.3464 -0.2259
 5744SOL     OW28864   1.774   1.820   5.842  0.2119  0.5331 -0.0594
 5744SOL    HW128865   1.777   1.859   5.929 -0.1543  1.9974 -0.7006
 5744SOL    HW228866   1.860   1.850   5.810 -0.3141  1.6754 -0.3893
 5745SOL     OW28867   1.694   2.016   8.490 -0.0826 -0.3266  0.1587
 5745SOL    HW128868   1.608   2.043   8.522 -0.3163  0.2087 -0.9240
 5745SOL    HW228869   1.754   2.046   8.558  0.1840  1.4298 -0.8488
 5746SOL     OW28870   1.348   1.447   5.417  0.2528  0.3935 -0.0892
 5746SOL    HW128871   1.263   1.463   5.459  0.7658  0.6487  0.8555
 5746SOL    HW228872   1.359   1.352   5.420  2.4643  0.6181 -1.3594
 5747SOL     OW28873   1.375   0.777   9.552  0.1043 -0.0102 -0.3339
 5747SOL    HW128874   1.399   0.858   9.597  2.3111  0.2835 -2.0348
 5747SOL    HW228875   1.427   0.713   9.600  0.9436  0.7298 -0.2712
 5748SOL     OW28876   3.393   4.073   6.672  0.3171 -0.1120  0.4131
 5748SOL    HW128877   3.461   4.006   6.664  1.4664  0.9107  1.5388
 5748SOL    HW228878   3.450   4.144   6.643  1.8585 -0.9253  1.4295
 5749SOL     OW28879   2.816   2.702   3.696  0.1696  0.1288  0.1318
 5749SOL    HW128880   2.843   2.721   3.606 -0.7888 -0.0437 -0.1949
 5749SOL    HW228881   2.870   2.625   3.711 -0.1735 -0.3151 -0.9349
 5750SOL     OW28882   0.556   1.199   4.953 -0.3194 -0.5035 -0.5356
 5750SOL    HW128883   0.641   1.242   4.963  1.7054 -4.3057 -1.2615
 5750SOL    HW228884   0.533   1.151   5.033 -3.2847 -0.9375 -1.6453
 5751SOL     OW28885   4.288   2.745   2.586 -0.2425 -0.0958  0.0220
 5751SOL    HW128886   4.348   2.682   2.625 -0.2083  0.0465  0.1980
 5751SOL    HW228887   4.239   2.690   2.525 -2.3306  0.8106  0.9055
 5752SOL     OW28888   2.135   1.847   4.932  0.2886  0.0842  0.1605
 5752SOL    HW128889   2.215   1.899   4.930  0.7985 -0.6540  1.5583
 5752SOL    HW228890   2.114   1.834   5.025 -1.2196  0.1501 -0.1723
 5753SOL     OW28891   3.489   0.347   6.962 -0.3807 -0.1359  0.3088
 5753SOL    HW128892   3.556   0.384   6.905  0.2285 -0.5499  0.7618
 5753SOL    HW228893   3.492   0.260   6.921 -2.3145  0.0844 -0.3289
 5754SOL     OW28894   1.621   3.827   6.279 -0.1972 -0.1821 -0.0427
 5754SOL    HW128895   1.673   3.749   6.296  2.2845  1.7477  1.4270
 5754SOL    HW228896   1.685   3.893   6.308 -0.9355  1.8978 -3.0902
 5755SOL     OW28897   0.136   3.216   1.787 -0.2277 -0.7323  0.3548
 5755SOL    HW128898   0.046   3.197   1.759  0.2430 -2.4442 -0.0133
 5755SOL    HW228899   0.171   3.269   1.717 -1.3993 -1.3423 -0.7008
 5756SOL     OW28900   1.787   1.665   8.301  0.5844 -0.3499  0.0147
 5756SOL    HW128901   1.752   1.581   8.328  2.9302 -1.6877 -1.0999
 5756SOL    HW228902   1.881   1.647   8.308  0.5800  0.4305  1.8464
 5757SOL     OW28903   0.014   1.449   1.919  0.1319  0.2240 -0.4598
 5757SOL    HW128904   4.710   1.453   1.833 -0.4353  2.1944 -0.1025
 5757SOL    HW228905   0.060   1.533   1.933  1.2325 -0.3974 -0.3489
 5758SOL     OW28906   1.637   1.672  17.092  0.3463 -1.0743  0.2469
 5758SOL    HW128907   1.571   1.619  17.135 -0.5556  0.7710  1.1455
 5758SOL    HW228908   1.696   1.602  17.064  0.7743  0.2981 -2.2519
 5759SOL     OW28909   1.812   0.909   7.339 -0.4031  0.3101 -0.4982
 5759SOL    HW128910   1.720   0.927   7.320  0.1952  1.2993 -2.5217
 5759SOL    HW228911   1.828   0.830   7.288  1.2371  1.0703 -1.1986
 5760SOL     OW28912   2.969   1.696   5.632 -0.1188 -0.1701  0.3933
 5760SOL    HW128913   2.993   1.778   5.590  0.3679 -0.5496 -0.0649
 5760SOL    HW228914   3.060   1.669   5.644 -0.5517 -2.1863 -0.9150
 5761SOL     OW28915   0.295   0.664   9.809 -0.2753  0.4969  0.1687
 5761SOL    HW128916   0.289   0.739   9.869 -2.7575  0.2103  0.2724
 5761SOL    HW228917   0.205   0.652   9.781  0.5725 -1.7985 -1.5665
 5762SOL     OW28918   4.616   2.078  13.330  0.5128  0.1844 -0.4946
 5762SOL    HW128919   4.704   2.100  13.300  2.1539 -3.6086  1.3800
 5762SOL    HW228920   4.647   2.049  13.416  1.3784 -0.0422 -0.8893
 5763SOL     OW28921   0.344   1.878  16.286  0.7214  0.1343 -0.0234
 5763SOL    HW128922   0.438   1.861  16.278  0.4462 -2.3097  2.0259
 5763SOL    HW228923   0.349   1.964  16.328  0.5696 -1.0045  2.2925
 5764SOL     OW28924   2.549   2.254   6.587 -0.1359 -0.6198  0.7355
 5764SOL    HW128925   2.559   2.163   6.557  0.7094 -0.1764 -0.3165
 5764SOL    HW228926   2.612   2.255   6.659 -0.1674  3.2833  0.6730
 5765SOL     OW28927   3.278   1.126   3.851  0.0208 -0.0029  0.0954
 5765SOL    HW128928   3.329   1.152   3.774 -1.1009  1.7206 -0.0562
 5765SOL    HW228929   3.286   1.031   3.847 -0.0024 -0.0199  0.5491
 5766SOL     OW28930   1.165   3.862   6.842 -0.1417  0.0706 -0.1053
 5766SOL    HW128931   1.240   3.848   6.899  0.5842  1.7272 -0.6519
 5766SOL    HW228932   1.219   3.889   6.767  0.4184 -1.8444 -0.3964
 5767SOL     OW28933   3.868   4.705   6.088  0.8613  0.2272  0.6808
 5767SOL    HW128934   3.786   4.683   6.045  0.8248  1.1182  0.2943
 5767SOL    HW228935   3.912   0.015   6.018 -2.0235 -0.5574 -1.6578
 5768SOL     OW28936   3.755   3.266   4.099 -0.0997  0.6529 -0.4812
 5768SOL    HW128937   3.680   3.255   4.157  0.2516  0.7680 -0.0061
 5768SOL    HW228938   3.791   3.349   4.130  1.7793 -1.0351  1.8512
 5769SOL     OW28939   3.560   2.532   7.107  0.3907  0.5023  0.5197
 5769SOL    HW128940   3.609   2.475   7.167  0.0125  0.6087  0.9316
 5769SOL    HW228941   3.630   2.535   7.042 -0.5344 -2.2418 -0.5891
 5770SOL     OW28942   4.162   0.929   0.589 -0.6181 -0.2986  0.2301
 5770SOL    HW128943   4.080   0.886   0.563 -0.9590  1.8021 -2.2176
 5770SOL    HW228944   4.222   0.857   0.573 -1.4740 -0.9898  0.0885
 5771SOL     OW28945   3.164   1.210   8.416  0.2485 -0.3553 -0.0005
 5771SOL    HW128946   3.174   1.153   8.340 -0.9771  0.8597 -1.0635
 5771SOL    HW228947   3.114   1.287   8.391  1.2029  0.3947  0.4086
 5772SOL     OW28948   1.529   1.831  17.333  0.4036 -0.1184  0.1527
 5772SOL    HW128949   1.594   1.848  17.265 -0.2887  0.3328 -0.4049
 5772SOL    HW228950   1.504   1.745  17.300 -2.0918  0.9250 -0.6685
 5773SOL     OW28951   2.384   0.673   5.631  0.3604  0.1018  0.0032
 5773SOL    HW128952   2.391   0.578   5.624  0.1985  0.1389 -0.6806
 5773SOL    HW228953   2.474   0.704   5.620  0.5534 -0.3534  0.3286
 5774SOL     OW28954   1.952   1.790  11.635 -0.2688 -0.3057 -0.5697
 5774SOL    HW128955   1.930   1.876  11.672  0.4806  0.5081 -2.0381
 5774SOL    HW228956   1.995   1.755  11.713  1.6224  0.5821 -1.2039
 5775SOL     OW28957   0.575   2.730  17.096 -0.0098 -0.1323 -0.4455
 5775SOL    HW128958   0.550   2.675  17.171  0.4280 -0.4605 -0.5455
 5775SOL    HW228959   0.516   2.702  17.026 -0.0333  1.1928 -0.9451
 5776SOL     OW28960   0.489   1.910   5.045 -0.3479  0.3368  0.5205
 5776SOL    HW128961   0.549   1.940   4.976 -0.6755 -2.5917 -1.0583
 5776SOL    HW228962   0.490   1.991   5.097 -1.1974  1.4059 -1.1122
 5777SOL     OW28963   3.828   4.378   4.743  0.4704  0.5828 -0.4777
 5777SOL    HW128964   3.873   4.320   4.805 -0.9438  1.2919  1.2174
 5777SOL    HW228965   3.757   4.410   4.798  0.7827  0.5671 -0.0689
 5778SOL     OW28966   2.121   0.686  14.440 -0.1079 -0.2184 -0.0068
 5778SOL    HW128967   2.074   0.664  14.359  1.3667 -1.1595 -0.6087
 5778SOL    HW228968   2.158   0.771  14.417 -1.1383  0.5036  1.0372
 5779SOL     OW28969   0.061   3.270  11.909  0.3316  0.1754  0.0088
 5779SOL    HW128970   0.140   3.307  11.869 -0.0840  0.7859 -0.2439
 5779SOL    HW228971   0.046   3.330  11.982 -2.1614 -0.6284  0.1580
 5780SOL     OW28972   3.299   1.722   7.468  0.2523 -0.5122 -0.1251
 5780SOL    HW128973   3.215   1.702   7.428  0.8878 -1.4155 -1.0145
 5780SOL    HW228974   3.351   1.648   7.436  1.7001 -0.4586  2.0736
 5781SOL     OW28975   1.110   2.382   7.903 -0.1437 -0.1461 -0.1143
 5781SOL    HW128976   1.145   2.384   7.814  0.6790  0.1410  0.2194
 5781SOL    HW228977   1.192   2.404   7.947 -0.0950 -2.2836  0.8980
 5782SOL     OW28978   2.723   4.356   1.374  0.0106 -0.9155 -0.7620
 5782SOL    HW128979   2.632   4.352   1.345  0.0437 -2.5006 -0.5993
 5782SOL    HW228980   2.730   4.447   1.404 -4.1629 -0.3216 -1.5293
 5783SOL     OW28981   4.601   4.350   6.700 -0.2481 -0.2202 -0.1252
 5783SOL    HW128982   4.631   4.263   6.672  0.5099 -0.6885  2.1950
 5783SOL    HW228983   4.590   4.390   6.613  0.4845 -1.6941 -0.8988
 5784SOL     OW28984   3.272   0.365   5.434  0.3239 -0.5653 -0.4099
 5784SOL    HW128985   3.274   0.302   5.505 -1.2751 -1.9896 -1.6339
 5784SOL    HW228986   3.365   0.372   5.410  0.8766 -1.7098  1.4221
 5785SOL     OW28987   1.185   1.886   1.562  0.0453 -0.3025 -0.0047
 5785SOL    HW128988   1.107   1.930   1.530 -1.3144 -2.3117  0.5563
 5785SOL    HW228989   1.143   1.812   1.606  0.3317  0.2822  1.2592
 5786SOL     OW28990   1.945   1.693  14.267  0.6412 -0.1730 -0.3202
 5786SOL    HW128991   1.944   1.738  14.351  1.7941  0.0882 -0.4478
 5786SOL    HW228992   1.954   1.605  14.304 -0.7623  0.4833  1.6189
 5787SOL     OW28993   2.455   2.596   8.889 -0.1240  0.2668  0.5213
 5787SOL    HW128994   2.505   2.550   8.957  1.4089  1.4497  0.1880
 5787SOL    HW228995   2.371   2.553   8.905  0.5014 -0.5531  1.5900
 5788SOL     OW28996   3.981   1.773  16.257  0.2148 -0.3673  0.9539
 5788SOL    HW128997   3.948   1.862  16.255  2.2355  0.4384  3.4770
 5788SOL    HW228998   4.060   1.781  16.309  0.8769  1.1993 -0.2901
 5789SOL     OW28999   2.722   3.153   7.128 -0.2212  0.0305 -0.0444
 5789SOL    HW129000   2.773   3.100   7.189 -0.7987  1.2765  1.5268
 5789SOL    HW229001   2.783   3.199   7.071 -1.4041 -1.6828 -2.6787
 5790SOL     OW29002   4.122   1.865   8.950 -0.0559  0.4421  0.2217
 5790SOL    HW129003   4.122   1.961   8.957  3.0907  0.4756 -0.3428
 5790SOL    HW229004   4.150   1.846   9.040 -0.3559 -0.2686  0.1575
 5791SOL     OW29005   3.946   1.639  11.754 -0.0564 -0.2930 -0.2591
 5791SOL    HW129006   3.956   1.679  11.668  0.6349 -3.0631 -1.4658
 5791SOL    HW229007   4.008   1.566  11.747  0.1674 -0.2537  1.2892
 5792SOL     OW29008   0.587   3.944  13.342 -0.2970 -0.3102 -0.1182
 5792SOL    HW129009   0.610   4.033  13.368 -1.8395 -0.1242  0.6180
 5792SOL    HW229010   0.628   3.932  13.257 -0.9490  1.4151 -0.6725
 5793SOL     OW29011   4.609   1.790  10.085 -0.5850  0.1156  0.2637
 5793SOL    HW129012   4.669   1.726  10.123 -1.2876  0.2121  1.5439
 5793SOL    HW229013   4.584   1.838  10.165 -2.5469 -0.3179 -0.0969
 5794SOL     OW29014   4.685   2.378  13.814  0.0042 -0.0216  0.2636
 5794SOL    HW129015   4.637   2.330  13.747 -0.3929  2.8160 -1.4873
 5794SOL    HW229016   0.014   2.424  13.762  0.0274 -1.5208 -1.0472
 5795SOL     OW29017   0.820   0.022   0.034 -0.2445  0.6577 -0.1561
 5795SOL    HW129018   0.859   0.015  17.694  0.7651 -0.0218  0.3400
 5795SOL    HW229019   0.735   4.722   0.013  0.1251 -0.2356 -0.0672
 5796SOL     OW29020   2.064   4.450   1.423  0.2256 -0.3347 -0.3672
 5796SOL    HW129021   2.153   4.423   1.400 -0.0038 -0.1311 -1.4655
 5796SOL    HW229022   2.039   4.516   1.358  0.4457  0.7630  0.6613
 5797SOL     OW29023   3.914   2.872   5.339  0.6301 -0.2626 -0.2536
 5797SOL    HW129024   4.005   2.856   5.315  1.2345 -1.7923  3.0029
 5797SOL    HW229025   3.914   2.965   5.316  1.1767 -0.3749 -0.6952
 5798SOL     OW29026   3.481   2.490   5.274  0.2618  0.0599 -0.2368
 5798SOL    HW129027   3.568   2.523   5.250  0.0192  0.7069 -0.2300
 5798SOL    HW229028   3.501   2.432   5.347  2.9084  0.3350 -0.7495
 5799SOL     OW29029   2.093   1.543  16.463 -0.6917 -0.4221  0.5178
 5799SOL    HW129030   2.135   1.613  16.514 -2.6020  2.1811 -1.4688
 5799SOL    HW229031   2.049   1.601  16.401  3.8677  2.1710 -0.3415
 5800SOL     OW29032   0.049   1.775  15.190 -0.0148  0.3114  0.2231
 5800SOL    HW129033   0.013   1.709  15.131  2.0684  0.1043 -0.8127
 5800SOL    HW229034   0.092   1.719  15.254  1.2578  2.3583  1.1846
 5801SOL     OW29035   1.280   3.537  12.925  0.5141 -0.2100  0.4754
 5801SOL    HW129036   1.193   3.541  12.966  0.1977  2.9392 -0.4672
 5801SOL    HW229037   1.327   3.608  12.969 -0.4304 -0.0465  1.2196
 5802SOL     OW29038   3.765   3.091   5.718  0.4835  0.3254 -0.5623
 5802SOL    HW129039   3.779   3.132   5.633 -0.0430  0.3698 -0.6277
 5802SOL    HW229040   3.779   3.163   5.779 -0.7440  0.1246 -0.0376
 5803SOL     OW29041   4.224   3.443   4.788 -0.0845  0.8793 -0.0144
 5803SOL    HW129042   4.168   3.478   4.857  2.0851  1.0304  1.6846
 5803SOL    HW229043   4.306   3.490   4.799 -0.5534  1.5865  0.4216
 5804SOL     OW29044   4.053   2.380   3.853  0.3451 -0.0398 -0.0252
 5804SOL    HW129045   4.134   2.357   3.806  1.2089  1.1944  0.8519
 5804SOL    HW229046   4.030   2.460   3.807  0.0739 -0.5234 -0.7190
 5805SOL     OW29047   4.488   0.192   3.627  0.3406 -0.3155 -0.0133
 5805SOL    HW129048   4.454   0.105   3.647  0.2549 -0.5471 -1.1574
 5805SOL    HW229049   4.557   0.187   3.694 -0.0686  1.2357  0.5261
 5806SOL     OW29050   0.050   4.600  14.239  1.0380  0.0168 -0.2774
 5806SOL    HW129051   0.057   4.577  14.331 -2.1009  1.5671  0.3324
 5806SOL    HW229052   4.727   4.675  14.236  1.4886  0.5432  3.7153
 5807SOL     OW29053   1.165   3.524   2.680  0.6294  0.1779  0.0242
 5807SOL    HW129054   1.124   3.610   2.669 -3.4653 -1.6657  0.7626
 5807SOL    HW229055   1.110   3.496   2.753 -1.7414 -0.1939 -1.8933
 5808SOL     OW29056   1.377   0.877   5.658 -0.0155  0.8278  0.4019
 5808SOL    HW129057   1.402   0.872   5.566 -1.2450  1.2858  0.0474
 5808SOL    HW229058   1.449   0.834   5.705 -0.3619 -0.4311 -0.2233
 5809SOL     OW29059   1.000   3.282   8.274 -0.0128 -0.4335  0.9898
 5809SOL    HW129060   1.015   3.364   8.323 -1.0773 -0.0973  0.7545
 5809SOL    HW229061   0.932   3.242   8.328  0.0318  1.5545  2.5394
 5810SOL     OW29062   0.761   3.667   8.931  0.1915  0.3524 -0.5680
 5810SOL    HW129063   0.823   3.661   9.003  1.6397 -0.9604 -1.9460
 5810SOL    HW229064   0.691   3.618   8.974  0.2964 -0.3319 -1.1728
 5811SOL     OW29065   3.009   3.836  11.922 -0.7163 -0.0705 -0.0845
 5811SOL    HW129066   3.049   3.763  11.874 -0.0482 -0.3691  0.9409
 5811SOL    HW229067   3.042   3.908  11.869  1.2421  0.5316  1.9493
 5812SOL     OW29068   2.082   4.496   3.913 -0.3393 -0.7605  0.2569
 5812SOL    HW129069   2.010   4.450   3.955 -3.3296  1.8700 -2.0559
 5812SOL    HW229070   2.048   4.501   3.824  2.2032 -2.0889 -0.7992
 5813SOL     OW29071   3.963   2.944   7.747  0.1838  0.1154 -0.0312
 5813SOL    HW129072   3.929   2.919   7.661  1.6721 -1.3013 -0.2076
 5813SOL    HW229073   4.053   2.960   7.719  0.6582 -1.5995  0.4873
 5814SOL     OW29074   0.060   4.520   4.635  0.0495  0.1966 -0.2405
 5814SOL    HW129075   0.089   4.595   4.584 -1.7914  2.3302  1.8209
 5814SOL    HW229076   0.075   4.445   4.578 -1.9861  0.1973 -0.7746
 5815SOL     OW29077   1.833   1.799   3.400  0.2638 -0.3154  0.8516
 5815SOL    HW129078   1.815   1.717   3.352  0.3628 -0.5257  1.1758
 5815SOL    HW229079   1.929   1.799   3.409  0.1240 -0.6697  2.2959
 5816SOL     OW29080   4.159   1.125   3.042 -0.7127  0.2383  0.4891
 5816SOL    HW129081   4.094   1.073   3.089 -0.2224 -1.3614 -0.6376
 5816SOL    HW229082   4.106   1.203   3.025  0.0979  1.4677  3.5909
 5817SOL     OW29083   4.045   0.966   8.355 -0.1611  0.0551  0.2292
 5817SOL    HW129084   4.016   0.883   8.317  1.1531 -0.6852  0.8727
 5817SOL    HW229085   3.973   1.007   8.403  1.0039  0.0619  1.9622
 5818SOL     OW29086   0.775   2.942   2.601 -0.2340  0.1571 -0.0499
 5818SOL    HW129087   0.850   2.958   2.657 -0.5137 -1.7821  0.8711
 5818SOL    HW229088   0.753   2.856   2.636  1.6308 -1.4584 -2.8657
 5819SOL     OW29089   1.282   3.894   8.390 -0.3076 -0.0174 -0.0173
 5819SOL    HW129090   1.329   3.967   8.431 -0.6006 -1.1629  2.3646
 5819SOL    HW229091   1.213   3.874   8.453  0.7967 -0.6960  0.9812
 5820SOL     OW29092   0.145   2.896   4.745  0.6197  0.4330 -0.4645
 5820SOL    HW129093   0.157   2.987   4.774 -2.8292  0.4448  0.8668
 5820SOL    HW229094   0.184   2.861   4.825 -0.6895 -1.3769 -0.6398
 5821SOL     OW29095   0.703   0.504   6.225  0.5616  0.2013 -0.0668
 5821SOL    HW129096   0.701   0.543   6.312 -2.1298  0.8637 -0.4186
 5821SOL    HW229097   0.622   0.454   6.213  0.9181  0.2115 -2.5534
 5822SOL     OW29098   1.641   2.875   7.011 -0.1370  0.4044 -0.3671
 5822SOL    HW129099   1.678   2.945   7.064 -0.1767  0.1524 -0.0094
 5822SOL    HW229100   1.710   2.863   6.945 -0.7521 -2.3185 -0.5069
 5823SOL     OW29101   2.930   1.451   3.217  0.0574 -0.0547 -0.4617
 5823SOL    HW129102   2.903   1.362   3.241 -0.8250  0.8690  2.0412
 5823SOL    HW229103   2.855   1.510   3.229  0.0757  0.0119 -0.6763
 5824SOL     OW29104   2.843   0.211   1.394 -0.0098  0.1756 -0.2620
 5824SOL    HW129105   2.908   0.182   1.458  0.5051  1.4682 -0.1930
 5824SOL    HW229106   2.764   0.176   1.436 -0.7349  1.3062 -0.6798
 5825SOL     OW29107   2.882   0.854   3.640 -0.2090 -0.3499  0.1340
 5825SOL    HW129108   2.829   0.791   3.592  0.8549  0.2948 -1.9369
 5825SOL    HW229109   2.809   0.908   3.669  0.3041  0.7592 -0.5985
 5826SOL     OW29110   1.262   4.372  12.368 -0.2097 -0.0278  0.6326
 5826SOL    HW129111   1.346   4.366  12.412  0.1213  1.2095  0.1681
 5826SOL    HW229112   1.270   4.462  12.336  2.1631 -0.2796  0.5340
 5827SOL     OW29113   0.293   2.750   4.538 -0.3199  0.3427 -0.6637
 5827SOL    HW129114   0.383   2.779   4.530 -0.0443 -0.9282 -2.2263
 5827SOL    HW229115   0.258   2.824   4.587  2.6462  1.4183 -0.1831
 5828SOL     OW29116   1.252   4.078   2.402 -0.4953 -0.6912  0.5377
 5828SOL    HW129117   1.332   4.080   2.350 -0.5766 -1.5563  0.3907
 5828SOL    HW229118   1.194   4.068   2.327 -1.8382 -0.6902  1.5691
 5829SOL     OW29119   4.645   1.389  12.350 -0.2745 -0.0545  0.2183
 5829SOL    HW129120   4.720   1.414  12.296 -0.0116  0.7655  0.9722
 5829SOL    HW229121   4.616   1.477  12.375 -0.0339 -0.1844  0.9261
 5830SOL     OW29122   3.006   2.304   2.932  0.0854  0.1130  0.1401
 5830SOL    HW129123   3.038   2.394   2.938 -0.6968  0.3104  1.3649
 5830SOL    HW229124   2.959   2.294   3.015 -0.0649 -1.9991 -0.1972
 5831SOL     OW29125   0.900   0.951   2.280  0.6543  0.0380 -0.9290
 5831SOL    HW129126   0.966   1.018   2.298  0.1349  0.8422 -2.0810
 5831SOL    HW229127   0.949   0.869   2.268  1.8204  0.5358  0.3903
 5832SOL     OW29128   0.348   4.574  12.585 -0.3484  0.0596 -0.6951
 5832SOL    HW129129   0.360   4.661  12.547 -1.1161  0.7624  0.6658
 5832SOL    HW229130   0.382   4.527  12.509 -0.0903 -0.0028 -0.5408
 5833SOL     OW29131   4.279   4.416   2.634 -0.5442  0.3511  0.3146
 5833SOL    HW129132   4.301   4.417   2.727 -1.9748 -2.1965  0.6799
 5833SOL    HW229133   4.366   4.446   2.606 -1.5346  0.6801 -2.3969
 5834SOL     OW29134   0.122   4.286   4.477 -0.0142  0.2853 -0.5073
 5834SOL    HW129135   0.078   4.279   4.393  0.9892  0.1888 -1.0136
 5834SOL    HW229136   0.070   4.227   4.532  0.5762  0.8405  0.6433
 5835SOL     OW29137   3.477   3.998   8.625 -0.3716 -0.1359  0.3264
 5835SOL    HW129138   3.539   4.038   8.686  0.7277 -1.3871  0.0421
 5835SOL    HW229139   3.438   4.075   8.584  0.0095  0.0327  0.2834
 5836SOL     OW29140   3.862   4.182   3.831 -0.3716  0.0299  0.0416
 5836SOL    HW129141   3.921   4.209   3.902 -0.7741 -1.0795  0.8076
 5836SOL    HW229142   3.866   4.089   3.849  1.1443  0.0004 -0.4977
 5837SOL     OW29143   0.898   1.187   3.210 -0.5279 -0.4522 -0.6439
 5837SOL    HW129144   0.982   1.147   3.231 -2.0154 -3.3726 -0.3750
 5837SOL    HW229145   0.882   1.231   3.293 -3.1806 -0.4429 -1.1723
 5838SOL     OW29146   2.992   4.035   4.248  0.3567 -0.1330 -0.6718
 5838SOL    HW129147   3.079   4.076   4.248  0.6408 -0.7322 -0.5216
 5838SOL    HW229148   3.001   3.955   4.196  0.3072  0.1904 -1.1753
 5839SOL     OW29149   0.523   3.845   4.749 -0.5742 -0.0237  0.3319
 5839SOL    HW129150   0.465   3.919   4.731  0.5296  0.1561 -2.5039
 5839SOL    HW229151   0.459   3.786   4.786 -1.6507  1.3128  0.5953
 5840SOL     OW29152   1.703   0.458   2.996 -0.2347 -0.4143 -0.6940
 5840SOL    HW129153   1.635   0.480   3.060  0.7665 -0.1172  0.2896
 5840SOL    HW229154   1.773   0.438   3.059 -1.1018  1.0506  0.7272
 5841SOL     OW29155   3.451   0.105   6.848  0.0176 -0.3021  0.2613
 5841SOL    HW129156   3.528   0.051   6.832 -0.5961 -1.2542  0.5309
 5841SOL    HW229157   3.418   0.058   6.925 -1.4779  1.6502  0.8161
 5842SOL     OW29158   2.473   3.750   9.384  0.0541  0.0774  0.1188
 5842SOL    HW129159   2.425   3.833   9.386 -0.0208  0.0412 -0.2276
 5842SOL    HW229160   2.451   3.726   9.294 -0.9691 -0.3079  0.4762
 5843SOL     OW29161   1.229   3.579   7.016  0.0120 -0.4355 -0.0252
 5843SOL    HW129162   1.307   3.550   6.969  1.1197  1.4310  0.6345
 5843SOL    HW229163   1.254   3.669   7.039  0.0835  0.0378 -2.0074
 5844SOL     OW29164   1.973   3.359   1.914 -0.4583 -0.0227  0.2173
 5844SOL    HW129165   2.039   3.416   1.874  1.2120 -2.1554 -0.1161
 5844SOL    HW229166   1.949   3.400   1.996 -2.6533  2.1528 -1.5246
 5845SOL     OW29167   2.361   0.889   2.633 -0.7935 -0.0435  0.2215
 5845SOL    HW129168   2.363   0.900   2.728  3.8945 -1.1382  0.2665
 5845SOL    HW229169   2.414   0.811   2.617 -0.6792 -0.0800  0.7844
 5846SOL     OW29170   3.971   1.804   6.040 -1.0595 -0.1194  0.1585
 5846SOL    HW129171   4.019   1.733   6.082  1.7039  1.7440  0.1828
 5846SOL    HW229172   3.919   1.763   5.971 -0.6061 -0.3680 -0.0338
 5847SOL     OW29173   1.062   3.780   0.633 -0.7138 -0.6244  0.4168
 5847SOL    HW129174   1.051   3.716   0.702  1.0398 -1.4820 -0.1174
 5847SOL    HW229175   1.127   3.732   0.582  1.1013 -0.6675  2.7952
 5848SOL     OW29176   4.196   2.916   4.102 -0.1316  0.1018 -0.1283
 5848SOL    HW129177   4.118   2.950   4.059  1.5554 -0.1279 -3.3809
 5848SOL    HW229178   4.180   2.823   4.121  0.7657  0.2081  1.1719
 5849SOL     OW29179   0.362   2.359   3.627  0.7523 -0.4600 -0.4172
 5849SOL    HW129180   0.418   2.311   3.687 -0.4430 -1.6671 -0.2775
 5849SOL    HW229181   0.276   2.318   3.638 -0.3511  2.3809  1.7441
 5850SOL     OW29182   0.929   4.625   5.094  0.4993  0.6425 -0.0821
 5850SOL    HW129183   1.015   4.586   5.110  1.2755  1.7990 -1.4465
 5850SOL    HW229184   0.892   4.542   5.126 -1.3898  1.1862 -0.8984
 5851SOL     OW29185   1.537   0.039   3.577  0.2974 -0.9340 -0.6453
 5851SOL    HW129186   1.632   0.030   3.570  0.4039  1.1007 -1.8017
 5851SOL    HW229187   1.522   0.082   3.662  0.0587 -1.6239 -0.3379
 5852SOL     OW29188   3.581   0.668   6.892 -0.1057  0.3036 -0.2053
 5852SOL    HW129189   3.550   0.758   6.905 -0.0473  0.2368  0.3812
 5852SOL    HW229190   3.514   0.620   6.844  0.5595  1.6398 -2.4576
 5853SOL     OW29191   1.536   4.178   4.270  0.0227 -0.4157  0.4570
 5853SOL    HW129192   1.480   4.113   4.311  1.8939 -2.7021 -0.6401
 5853SOL    HW229193   1.602   4.179   4.340  0.1984  2.6565  0.2757
 5854SOL     OW29194   2.341   1.966  12.872  0.0559  0.4075  0.4926
 5854SOL    HW129195   2.363   1.936  12.784  1.9168  2.0660  0.3830
 5854SOL    HW229196   2.410   1.921  12.920 -0.8105 -1.0557  0.3522
 5855SOL     OW29197   1.251   4.350  13.965 -0.0230  0.1129  0.1799
 5855SOL    HW129198   1.278   4.430  13.920 -1.1009  0.6258  0.4637
 5855SOL    HW229199   1.218   4.302  13.888  1.8601 -0.8190 -0.0619
 5856SOL     OW29200   2.425   3.498   4.844 -0.0537  0.1577 -0.4652
 5856SOL    HW129201   2.334   3.470   4.855  0.1842 -0.8486 -1.0340
 5856SOL    HW229202   2.467   3.412   4.839 -0.9367 -0.3092  0.1301
 5857SOL     OW29203   3.092   0.368   8.974 -0.0321  0.0396 -0.5052
 5857SOL    HW129204   3.008   0.396   9.010 -0.5394  0.5672 -2.0813
 5857SOL    HW229205   3.116   0.431   8.906  3.5904  0.6249  1.3063
 5858SOL     OW29206   2.309   2.964   6.152  0.5228 -0.0557 -0.6412
 5858SOL    HW129207   2.309   3.053   6.185  0.6518  0.5395 -2.2572
 5858SOL    HW229208   2.217   2.958   6.129  0.8624  0.9954 -2.2227
 5859SOL     OW29209   3.609   2.014  14.410 -0.2844 -0.4122 -0.1922
 5859SOL    HW129210   3.704   2.006  14.416 -0.6400 -2.2114  2.7442
 5859SOL    HW229211   3.589   1.991  14.501 -0.0616 -1.0311 -0.3005
 5860SOL     OW29212   2.096   3.049   2.226  0.0816 -0.0333 -0.1093
 5860SOL    HW129213   2.138   3.030   2.309  1.3542  2.7462 -0.0982
 5860SOL    HW229214   2.105   3.145   2.226 -0.3510  0.0037  0.5120
 5861SOL     OW29215   0.993   1.873   2.251 -0.0027  0.3118 -0.3120
 5861SOL    HW129216   0.927   1.899   2.315  1.1016  1.7754  0.2423
 5861SOL    HW229217   0.975   1.936   2.181 -0.8118 -0.8477 -1.1462
 5862SOL     OW29218   4.333   2.631   1.806  0.3112 -0.1112  0.4808
 5862SOL    HW129219   4.262   2.694   1.812 -0.0402 -0.4123 -0.4429
 5862SOL    HW229220   4.395   2.687   1.759 -1.4988  1.7613  0.3647
 5863SOL     OW29221   3.788   3.257   8.946 -0.2445  0.0381  0.4174
 5863SOL    HW129222   3.729   3.331   8.931  0.9802  0.5489 -1.8281
 5863SOL    HW229223   3.785   3.250   9.041 -3.7182 -1.3807  0.2340
 5864SOL     OW29224   3.986   1.383   1.825 -0.0874 -0.0569  0.4021
 5864SOL    HW129225   3.994   1.478   1.830  0.0075 -0.0949  1.0196
 5864SOL    HW229226   3.930   1.372   1.749 -0.4730  2.4933  0.3428
 5865SOL     OW29227   0.621   4.697  13.214  0.3052 -0.5919 -0.2136
 5865SOL    HW129228   0.604   4.604  13.233 -1.5700 -0.2725 -0.3595
 5865SOL    HW229229   0.693   4.712  13.275  0.1492 -1.2156  0.1280
 5866SOL     OW29230   2.331   2.261   8.157  0.1789 -0.1225  0.6053
 5866SOL    HW129231   2.291   2.248   8.072 -2.4362  0.6134  1.7024
 5866SOL    HW229232   2.420   2.288   8.136 -0.4952  1.3784 -0.3485
 5867SOL     OW29233   2.397   0.134   7.714  0.0531  0.1175 -0.5928
 5867SOL    HW129234   2.490   0.134   7.692 -0.2685 -0.0143 -1.9868
 5867SOL    HW229235   2.394   0.054   7.766  0.9593  0.6451  0.2519
 5868SOL     OW29236   0.683   0.543   6.485 -0.0825 -0.1292 -0.2256
 5868SOL    HW129237   0.611   0.593   6.523  1.7894  0.9608  1.8713
 5868SOL    HW229238   0.727   0.536   6.570 -0.3447  1.6868  0.0687
 5869SOL     OW29239   4.108   4.169   1.856 -0.3587 -0.1624 -0.4131
 5869SOL    HW129240   4.149   4.145   1.773  0.4551  0.8982 -0.3076
 5869SOL    HW229241   4.014   4.177   1.836 -0.4199  1.6939  0.5983
 5870SOL     OW29242   2.506   2.070  10.130 -0.4111  0.0417  0.2442
 5870SOL    HW129243   2.561   2.013  10.184 -0.5250  0.2752  0.6109
 5870SOL    HW229244   2.451   2.006  10.085 -0.8543  0.5993 -0.0078
 5871SOL     OW29245   0.748   3.667  16.053  0.2776  0.0957 -0.3722
 5871SOL    HW129246   0.798   3.746  16.034 -0.3072  0.4067 -0.6235
 5871SOL    HW229247   0.776   3.648  16.142 -0.5800  1.7739  0.2649
 5872SOL     OW29248   0.305   4.487   5.732 -0.1394  0.2645  0.2728
 5872SOL    HW129249   0.367   4.554   5.705  0.0434 -0.3348 -0.8101
 5872SOL    HW229250   0.259   4.549   5.789 -2.6560 -2.3149  1.0810
 5873SOL     OW29251   2.759   4.277  10.997 -0.0412  0.3642  0.2417
 5873SOL    HW129252   2.778   4.281  10.903 -0.6664 -0.3374  0.0891
 5873SOL    HW229253   2.844   4.245  11.029  0.6930 -0.6515 -2.7157
 5874SOL     OW29254   2.248   0.895   2.893 -0.8829 -0.3983 -0.4610
 5874SOL    HW129255   2.224   0.981   2.926  0.3487 -1.2020  2.5047
 5874SOL    HW229256   2.300   0.867   2.968  0.2264 -2.6448 -2.0789
 5875SOL     OW29257   3.633   0.060  14.001 -0.0984  0.0432 -0.4717
 5875SOL    HW129258   3.700   0.107  14.050  3.0859 -2.5473 -2.3310
 5875SOL    HW229259   3.679   0.016  13.929 -0.6261 -2.2363  0.6005
 5876SOL     OW29260   2.552   1.755  13.792  0.8365 -0.2575  0.0452
 5876SOL    HW129261   2.460   1.749  13.766  0.6636  0.7904  0.4085
 5876SOL    HW229262   2.558   1.848  13.813  0.9118  0.1720 -1.8989
 5877SOL     OW29263   4.518   0.179  16.617 -0.3986  0.6444  0.3943
 5877SOL    HW129264   4.532   0.241  16.688  0.3356  0.2920  0.5590
 5877SOL    HW229265   4.509   0.231  16.537  1.5580 -1.1677 -0.9944
 5878SOL     OW29266   0.380   4.129   4.528 -0.6059  0.2522 -0.3613
 5878SOL    HW129267   0.321   4.068   4.574 -0.2807 -0.0704 -0.3787
 5878SOL    HW229268   0.345   4.125   4.439  0.2764  0.3343 -0.7100
 5879SOL     OW29269   4.009   1.986   5.669  0.1380 -0.0296 -0.6677
 5879SOL    HW129270   4.094   1.955   5.638 -0.5057 -1.1371 -1.3253
 5879SOL    HW229271   4.024   2.014   5.760  0.2503  1.9422 -1.2823
 5880SOL     OW29272   1.699   3.611   3.544 -0.6179 -0.6197  0.2928
 5880SOL    HW129273   1.701   3.667   3.467  1.7345  1.9055  2.1796
 5880SOL    HW229274   1.612   3.633   3.578 -0.1690  1.1358  0.3154
 5881SOL     OW29275   0.267   1.222   6.915  0.1265  0.3583 -0.1124
 5881SOL    HW129276   0.197   1.271   6.872 -1.7248 -0.4178  2.0016
 5881SOL    HW229277   0.247   1.227   7.008 -0.1884 -2.2884 -0.0321
 5882SOL     OW29278   0.302   3.560  17.515  0.3266 -0.1886 -0.0198
 5882SOL    HW129279   0.288   3.481  17.568  2.7599  0.2713  1.3097
 5882SOL    HW229280   0.293   3.518  17.430 -0.4725  1.1183 -0.5729
 5883SOL     OW29281   3.634   1.921   7.928  0.1968 -0.7522  0.0092
 5883SOL    HW129282   3.577   1.881   7.994  0.7094 -0.6909  0.4864
 5883SOL    HW229283   3.689   1.983   7.977  1.8952 -1.7077 -0.7001
 5884SOL     OW29284   0.211   2.349  14.296  0.0366 -0.3649  0.0595
 5884SOL    HW129285   0.264   2.385  14.367 -1.0493  0.6302  0.3450
 5884SOL    HW229286   0.241   2.258  14.288  2.4536  0.3913  0.5924
 5885SOL     OW29287   4.021   1.584   8.469  0.2896  0.1968  0.6940
 5885SOL    HW129288   3.956   1.545   8.410 -1.0818  0.0399  2.3258
 5885SOL    HW229289   4.108   1.558   8.438 -1.2240 -1.6713 -2.0443
 5886SOL     OW29290   2.354   0.245   2.406  0.3179  0.2716  0.5322
 5886SOL    HW129291   2.276   0.252   2.351  2.2225 -1.0491 -2.3565
 5886SOL    HW229292   2.327   0.169   2.457  0.2760  0.6667  1.0958
 5887SOL     OW29293   4.636   2.105   9.458 -0.1890 -0.2516  0.4201
 5887SOL    HW129294   4.633   2.061   9.544  0.3879  0.3871  0.7663
 5887SOL    HW229295   4.718   2.074   9.420  1.1877  1.4740  1.9999
 5888SOL     OW29296   4.671   1.065   2.461  0.1518 -0.1419 -0.1524
 5888SOL    HW129297   4.587   1.054   2.416 -0.5126 -1.6692  1.5112
 5888SOL    HW229298   4.719   0.995   2.418  1.9782  1.3350 -0.5244
 5889SOL     OW29299   1.138   4.058   2.913  0.6082  0.2939 -0.2319
 5889SOL    HW129300   1.057   4.014   2.939  1.4033 -1.0305  0.0027
 5889SOL    HW229301   1.167   4.100   2.993  3.0967 -1.2940 -0.2850
 5890SOL     OW29302   2.736   2.073  16.897  0.7275 -0.2584  0.1729
 5890SOL    HW129303   2.830   2.085  16.906  0.8778 -1.4016  0.1116
 5890SOL    HW229304   2.736   2.009  16.826 -1.5655 -0.6205  0.4728
 5891SOL     OW29305   3.034   1.895   9.101  0.0268  0.1595  0.0307
 5891SOL    HW129306   3.033   1.991   9.109 -1.1860  0.1532 -0.0734
 5891SOL    HW229307   3.072   1.886   9.014 -2.1653 -0.1286 -0.8885
 5892SOL     OW29308   0.161   3.025   8.265 -0.5776 -0.2382  0.0951
 5892SOL    HW129309   0.182   3.016   8.358  3.0879  0.6148 -0.6698
 5892SOL    HW229310   0.133   2.935   8.250 -1.6999  0.2999 -1.0304
 5893SOL     OW29311   0.141   0.320   6.868  0.3399 -0.0231  0.1403
 5893SOL    HW129312   0.220   0.274   6.898 -0.2209 -0.3164  1.1515
 5893SOL    HW229313   0.075   0.292   6.931 -0.6326  0.7335 -0.5641
 5894SOL     OW29314   0.352   0.486   5.306 -0.5565 -0.1422 -0.5276
 5894SOL    HW129315   0.317   0.576   5.305 -2.6469 -0.9513 -0.6995
 5894SOL    HW229316   0.273   0.432   5.308 -0.1002 -0.7710  0.4967
 5895SOL     OW29317   3.824   3.225  12.636 -0.4410  1.0092  0.4841
 5895SOL    HW129318   3.901   3.171  12.617 -0.9380  0.9102 -1.2203
 5895SOL    HW229319   3.752   3.182  12.591 -0.0458  3.1202 -2.1131
 5896SOL     OW29320   3.070   2.622   0.418 -0.1589 -0.1749 -0.0083
 5896SOL    HW129321   3.096   2.531   0.407  1.2128  0.3561 -1.0311
 5896SOL    HW229322   2.982   2.613   0.456  0.0840 -0.8942  0.3825
 5897SOL     OW29323   3.081   4.394   0.815 -0.5968  0.5688 -0.2373
 5897SOL    HW129324   3.078   4.402   0.910 -0.8448 -0.3568 -0.1718
 5897SOL    HW229325   3.117   4.475   0.778 -1.9825  1.7095  0.9047
 5898SOL     OW29326   4.716   1.617  17.269  0.1518 -0.1074  0.3621
 5898SOL    HW129327   4.731   1.703  17.229 -2.3163 -0.1734 -0.7236
 5898SOL    HW229328   4.622   1.620  17.285 -0.1429 -1.1658 -1.1922
 5899SOL     OW29329   3.664   1.054   4.707 -0.3666 -0.5660 -1.1830
 5899SOL    HW129330   3.737   1.065   4.646 -0.9125  3.0961 -1.1376
 5899SOL    HW229331   3.654   0.959   4.708  1.5360 -0.7571  0.1950
 5900SOL     OW29332   2.436   3.112   9.022 -1.0882  0.1500 -0.0725
 5900SOL    HW129333   2.516   3.098   8.971 -0.4246  2.1591  0.4402
 5900SOL    HW229334   2.400   3.023   9.019 -1.7313  0.3439  2.0965
 5901SOL     OW29335   4.676   1.915  11.511  0.5303 -0.0617  0.6376
 5901SOL    HW129336   4.590   1.955  11.498 -0.3908 -2.1503  0.2932
 5901SOL    HW229337   4.682   1.922  11.606 -1.6524  0.5323  0.7231
 5902SOL     OW29338   0.639   2.787   8.002 -0.4800  0.0423 -0.0803
 5902SOL    HW129339   0.575   2.837   8.053  0.0461  1.2396 -0.5882
 5902SOL    HW229340   0.646   2.836   7.920  2.1311  1.9822  1.2947
 5903SOL     OW29341   3.219   2.400   1.616 -0.5293 -0.1565  0.1022
 5903SOL    HW129342   3.201   2.314   1.653 -2.5336 -0.9777 -2.8133
 5903SOL    HW229343   3.202   2.390   1.522 -0.5725  0.7126  0.0165
 5904SOL     OW29344   2.791   3.056   5.194  0.1628  0.5635  0.2651
 5904SOL    HW129345   2.716   2.997   5.184  0.7355 -0.0364 -0.5248
 5904SOL    HW229346   2.741   3.133   5.167  0.6748  1.6079  2.3176
 5905SOL     OW29347   2.657   2.836   9.289  0.8128 -0.3883  0.4989
 5905SOL    HW129348   2.704   2.793   9.218 -0.1433  1.5900 -1.3616
 5905SOL    HW229349   2.724   2.900   9.313  1.4509 -1.2437  0.9763
 5906SOL     OW29350   4.380   0.822   5.952  0.4962 -0.0365 -0.7135
 5906SOL    HW129351   4.346   0.873   6.025 -0.8059 -1.8866 -0.0248
 5906SOL    HW229352   4.475   0.838   5.958  0.4951 -0.2020 -0.2296
 5907SOL     OW29353   0.398   3.444   4.090  0.8563 -0.0567  0.2135
 5907SOL    HW129354   0.326   3.408   4.038  0.2780 -0.6700  1.4340
 5907SOL    HW229355   0.402   3.529   4.045 -0.8344  0.0750  0.3154
 5908SOL     OW29356   1.096   2.506  11.649  0.1516 -0.3522  0.7030
 5908SOL    HW129357   1.031   2.487  11.581  0.4534  1.0487  0.0251
 5908SOL    HW229358   1.161   2.545  11.590  1.4023 -1.2582  1.4870
 5909SOL     OW29359   3.615   0.518  15.682  0.2944 -0.2630  0.0430
 5909SOL    HW129360   3.600   0.609  15.709  0.2000  0.0868 -1.1654
 5909SOL    HW229361   3.640   0.527  15.590  0.5966  0.5682  0.2095
 5910SOL     OW29362   0.065   4.435  14.515  0.3934  0.0696 -0.3170
 5910SOL    HW129363   0.036   4.414  14.604 -1.1504 -0.6217 -0.9824
 5910SOL    HW229364   0.032   4.360  14.466  0.3572 -1.3222  1.8109
 5911SOL     OW29365   3.489   1.969   6.001 -0.3595  0.1567  0.1240
 5911SOL    HW129366   3.476   1.963   6.096  0.7617  1.8551  0.3829
 5911SOL    HW229367   3.577   2.003   5.983 -0.3203 -0.2475 -0.4085
 5912SOL     OW29368   3.492   0.182   9.077  0.2485  0.0428 -0.1906
 5912SOL    HW129369   3.563   0.246   9.077 -0.1291  0.4653 -1.2039
 5912SOL    HW229370   3.528   0.104   9.118  0.9994 -0.7233 -2.2794
 5913SOL     OW29371   1.981   4.709   9.053  0.0915  0.3817 -0.6099
 5913SOL    HW129372   1.910   0.024   9.016  0.5461 -0.2295 -2.3528
 5913SOL    HW229373   2.056   0.005   9.004  0.2483  2.1235  0.8541
 5914SOL     OW29374   3.603   1.635   7.097  0.5580 -0.8208  1.1409
 5914SOL    HW129375   3.545   1.559   7.090 -1.0516  0.5276 -0.0830
 5914SOL    HW229376   3.559   1.682   7.168 -1.6960 -0.7559 -0.3181
 5915SOL     OW29377   1.872   4.421   4.671  0.5321 -0.6109 -0.2587
 5915SOL    HW129378   1.831   4.447   4.589 -2.3935 -1.6648  0.8740
 5915SOL    HW229379   1.885   4.327   4.663  0.2665 -0.5836 -1.0226
 5916SOL     OW29380   4.110   0.971  17.633 -0.0409 -0.3199 -0.2326
 5916SOL    HW129381   4.186   0.942  17.684 -1.4456 -1.9817  0.8930
 5916SOL    HW229382   4.148   0.979  17.545 -0.5371  0.4155 -0.3758
 5917SOL     OW29383   2.348   4.701   7.942 -0.5329 -0.2876 -0.2073
 5917SOL    HW129384   2.357   4.635   7.873  0.5882 -2.1807  1.7441
 5917SOL    HW229385   2.422   4.676   7.996 -0.7228 -0.1921  0.0976
 5918SOL     OW29386   0.387   3.943   9.123  0.2705  0.3714  0.1176
 5918SOL    HW129387   0.382   3.911   9.213  1.1282  0.8806  0.3445
 5918SOL    HW229388   0.387   4.036   9.146 -1.6417  0.4172 -0.0596
 5919SOL     OW29389   4.102   2.488  11.027 -0.3050  0.0088 -0.4014
 5919SOL    HW129390   4.035   2.498  10.960  1.8656  1.5134 -2.3387
 5919SOL    HW229391   4.168   2.546  10.989  0.4151  0.4368  1.4742
 5920SOL     OW29392   2.077   0.587   4.094 -0.2501 -0.0681 -0.3404
 5920SOL    HW129393   1.986   0.563   4.111 -0.7235  4.0972  2.7639
 5920SOL    HW229394   2.120   0.502   4.102 -2.0517 -1.1921 -2.5860
 5921SOL     OW29395   0.924   0.314   8.093  0.3791  0.8056 -0.3920
 5921SOL    HW129396   0.991   0.248   8.073  0.9072  1.5589 -1.0931
 5921SOL    HW229397   0.869   0.274   8.161 -0.3973  0.4245 -1.2476
 5922SOL     OW29398   1.037   0.215   2.373  0.0711  0.3102  0.6120
 5922SOL    HW129399   0.980   0.265   2.433 -1.0842 -0.5094  0.2021
 5922SOL    HW229400   1.004   0.128   2.398 -1.2273  0.8909  0.9180
 5923SOL     OW29401   1.680   1.399   3.019 -0.2558 -0.2036  0.2629
 5923SOL    HW129402   1.598   1.420   2.974 -0.4436  0.7177  1.0451
 5923SOL    HW229403   1.712   1.484   3.050 -0.7763  0.1586 -0.1926
 5924SOL     OW29404   3.032   3.617   8.098 -0.3015 -0.6521  0.2380
 5924SOL    HW129405   2.975   3.635   8.024 -0.1856  1.5438  0.6801
 5924SOL    HW229406   2.974   3.612   8.174 -0.4031  0.6260  0.2384
 5925SOL     OW29407   4.048   3.341   2.832 -0.8413 -0.2269 -0.7035
 5925SOL    HW129408   4.082   3.252   2.842  0.3466  0.3234  0.2292
 5925SOL    HW229409   4.119   3.386   2.785  1.8860 -1.6646  2.0254
 5926SOL     OW29410   1.037   1.220  17.009  0.2816 -0.2644  0.0188
 5926SOL    HW129411   1.058   1.245  16.919 -1.5020  0.1824 -0.2774
 5926SOL    HW229412   0.954   1.268  17.017  0.9492  0.5963  1.6346
 5927SOL     OW29413   3.430   2.980   4.974 -0.2512 -0.2927 -0.4519
 5927SOL    HW129414   3.349   2.951   5.015 -0.3174  0.1133 -0.2904
 5927SOL    HW229415   3.413   3.074   4.973  0.5233 -0.1516 -0.6876
 5928SOL     OW29416   2.118   3.404   6.983  0.3839 -0.1949 -0.2216
 5928SOL    HW129417   2.188   3.348   6.949  1.1539 -0.6814  2.1751
 5928SOL    HW229418   2.102   3.467   6.913  2.0238  1.0305  0.5084
 5929SOL     OW29419   2.424   4.720  11.805 -0.4715 -0.0672  0.5413
 5929SOL    HW129420   2.426   4.665  11.883 -2.5758 -1.8275 -0.6238
 5929SOL    HW229421   2.338   4.696  11.769 -1.1245 -0.6318  2.5130
 5930SOL     OW29422   0.146   3.122   4.132 -0.0974  0.0241 -0.0825
 5930SOL    HW129423   0.160   3.198   4.188 -0.6248 -0.1893  0.3410
 5930SOL    HW229424   0.153   3.044   4.188 -0.9487  0.0209  0.0241
 5931SOL     OW29425   1.944   2.445   5.465 -0.5463  0.2895 -0.0377
 5931SOL    HW129426   1.907   2.534   5.465 -0.5339  0.2934 -1.8834
 5931SOL    HW229427   1.877   2.391   5.423 -0.0699 -0.2522 -0.0889
 5932SOL     OW29428   1.571   2.616   2.017 -0.2184  0.2999 -0.5615
 5932SOL    HW129429   1.608   2.646   1.934 -0.3706  0.4216 -0.5860
 5932SOL    HW229430   1.496   2.675   2.027 -0.3545  0.0850 -0.3010
 5933SOL     OW29431   2.844   4.600   2.104 -0.0190  0.7927 -0.2774
 5933SOL    HW129432   2.855   4.651   2.184  0.9578  0.3618 -0.1387
 5933SOL    HW229433   2.757   4.569   2.129  0.8900 -1.7517 -0.2836
 5934SOL     OW29434   0.483   0.374   5.900  0.4670 -0.2503 -0.1237
 5934SOL    HW129435   0.498   0.458   5.856 -0.1868  0.4079  0.9053
 5934SOL    HW229436   0.480   0.402   5.991 -2.5329 -0.4230 -0.1868
 5935SOL     OW29437   4.313   3.333   5.619 -0.7403 -0.0483  0.0898
 5935SOL    HW129438   4.296   3.309   5.710 -0.3024  1.0851  0.4699
 5935SOL    HW229439   4.225   3.323   5.582  0.2681  0.4700 -2.3861
 5936SOL     OW29440   2.592   1.333   2.395  0.2629 -0.5431 -0.3637
 5936SOL    HW129441   2.538   1.377   2.329  2.0041  0.5515 -1.0668
 5936SOL    HW229442   2.523   1.287   2.443  0.9548 -0.4466  0.7276
 5937SOL     OW29443   1.100   1.305   5.321  0.4389 -0.4878 -0.0936
 5937SOL    HW129444   1.113   1.212   5.339 -1.8931 -1.3770 -3.0379
 5937SOL    HW229445   1.129   1.306   5.229  0.5723  0.2815 -0.0454
 5938SOL     OW29446   2.883   3.910  11.109 -0.0009  0.6295 -0.0711
 5938SOL    HW129447   2.834   3.978  11.155 -2.6233 -1.9532  0.9424
 5938SOL    HW229448   2.971   3.931  11.140  0.6540  2.1326 -2.8957
 5939SOL     OW29449   0.720   4.498  16.441  0.2227 -0.6048 -0.2792
 5939SOL    HW129450   0.714   4.574  16.500 -0.6240  0.3049 -1.5556
 5939SOL    HW229451   0.755   4.539  16.362 -3.2366  1.4795 -0.7340
 5940SOL     OW29452   0.687   4.097   2.256  0.1122  0.0248  0.1728
 5940SOL    HW129453   0.724   4.010   2.243  0.0401  0.2247 -1.3526
 5940SOL    HW229454   0.711   4.147   2.178  0.9820 -1.6472 -0.6324
 5941SOL     OW29455   2.221   4.640   7.412 -0.1637  0.3682 -0.0023
 5941SOL    HW129456   2.167   4.563   7.431  0.5428 -0.2758 -0.5738
 5941SOL    HW229457   2.196   4.645   7.320  2.7092 -0.2977 -0.8274
 5942SOL     OW29458   1.338   2.947   9.471 -0.3070 -0.3398  0.6793
 5942SOL    HW129459   1.296   2.882   9.528  0.9780 -2.7432 -1.0939
 5942SOL    HW229460   1.265   2.959   9.410  0.3100  1.4317  0.3056
 5943SOL     OW29461   2.454   0.852  17.707  0.2441  0.0642  0.1635
 5943SOL    HW129462   2.492   0.832   0.044 -2.3271 -0.3174  1.2126
 5943SOL    HW229463   2.475   0.945  17.701  0.3877 -0.1747 -3.1622
 5944SOL     OW29464   4.704   4.031   6.893 -0.9231  0.4413  0.5071
 5944SOL    HW129465   0.025   3.979   6.838 -0.4494  0.1661  1.2753
 5944SOL    HW229466   4.617   3.996   6.872  0.2374 -1.8465 -0.3891
 5945SOL     OW29467   4.549   2.693   9.684  0.2070  0.2323  0.3632
 5945SOL    HW129468   4.557   2.704   9.589 -0.9300 -2.0386  0.0081
 5945SOL    HW229469   4.582   2.775   9.720 -1.2223 -0.3421  3.0180
 5946SOL     OW29470   1.162   4.290   3.883  0.1868 -0.6654  0.4268
 5946SOL    HW129471   1.112   4.255   3.957 -0.0776 -0.6424  0.2594
 5946SOL    HW229472   1.188   4.378   3.909  1.4359 -1.2724  1.1920
 5947SOL     OW29473   3.315   3.786   1.331 -0.0358 -0.0014 -0.3281
 5947SOL    HW129474   3.290   3.805   1.241  0.1107 -0.7610 -0.5290
 5947SOL    HW229475   3.229   3.767   1.367  0.4172 -2.1557 -0.3737
 5948SOL     OW29476   2.081   2.480   7.442 -0.0855 -0.5513  0.1013
 5948SOL    HW129477   2.038   2.396   7.459  1.5664 -1.4095  0.0687
 5948SOL    HW229478   2.143   2.460   7.371  0.6129  0.0674  0.5326
 5949SOL     OW29479   2.105   0.753   5.723 -0.0538 -0.6077 -0.3920
 5949SOL    HW129480   2.172   0.722   5.663  1.0807 -1.1722  1.1739
 5949SOL    HW229481   2.148   0.825   5.769  0.2952 -0.2972 -1.2093
 5950SOL     OW29482   0.026   0.846   7.053 -0.0084  0.2481  0.2846
 5950SOL    HW129483   0.048   0.900   6.977 -0.1828 -0.6581 -0.4147
 5950SOL    HW229484   0.087   0.772   7.051 -0.2450  0.0714 -0.5712
 5951SOL     OW29485   2.637   3.394  12.514 -0.0158 -0.1646  0.0680
 5951SOL    HW129486   2.600   3.401  12.426 -1.9491  0.8247  0.9702
 5951SOL    HW229487   2.715   3.341  12.494 -0.5228 -0.3003 -1.5228
 5952SOL     OW29488   2.982   3.320   7.299  0.1136 -0.6625 -0.0202
 5952SOL    HW129489   2.964   3.260   7.371 -2.4450  0.9116  0.6495
 5952SOL    HW229490   3.012   3.255   7.235  1.4320 -1.1627  1.1197
 5953SOL     OW29491   3.968   0.372   3.414 -0.2611  0.3058  0.0752
 5953SOL    HW129492   3.935   0.293   3.372  1.3811 -0.4745  0.2680
 5953SOL    HW229493   4.049   0.343   3.455 -0.6640  1.2604  1.5553
 5954SOL     OW29494   3.374   1.251   9.674 -0.4070 -0.5915  0.6232
 5954SOL    HW129495   3.307   1.302   9.718  0.7658  1.0104  0.5420
 5954SOL    HW229496   3.437   1.319   9.652  0.5253 -1.8532 -0.6564
 5955SOL     OW29497   3.992   4.162   7.171 -0.2436  0.0041  0.9485
 5955SOL    HW129498   3.925   4.152   7.239 -1.7482  0.2187 -0.4805
 5955SOL    HW229499   4.026   4.246   7.200  0.6766 -0.0188 -0.0790
 5956SOL     OW29500   3.209   0.972   7.022  0.6017 -0.1828  0.5973
 5956SOL    HW129501   3.247   1.059   7.033  0.4550 -0.2844  1.9318
 5956SOL    HW229502   3.121   1.002   6.998  1.0770 -1.0470 -2.1643
 5957SOL     OW29503   4.233   0.721  12.699 -0.0191 -0.1158 -0.4701
 5957SOL    HW129504   4.259   0.807  12.665  0.8909 -0.8248 -1.5778
 5957SOL    HW229505   4.308   0.683  12.744  0.4824  1.7243  0.2672
 5958SOL     OW29506   1.938   1.827   1.945  0.0560  0.1798 -0.7381
 5958SOL    HW129507   1.997   1.899   1.968 -0.1716 -0.0717  0.6576
 5958SOL    HW229508   1.959   1.807   1.854 -1.3667 -0.0883 -1.0034
 5959SOL     OW29509   2.253   3.878   4.492 -0.4886 -0.0090  0.0458
 5959SOL    HW129510   2.280   3.969   4.498  0.1710 -0.2443  0.6281
 5959SOL    HW229511   2.326   3.826   4.526  0.2771  0.2047 -1.2917
 5960SOL     OW29512   0.779   3.128   5.479 -0.0080 -0.5149 -0.1349
 5960SOL    HW129513   0.855   3.178   5.508 -1.0338 -0.2818  2.1101
 5960SOL    HW229514   0.829   3.055   5.442 -1.2412 -2.1132  1.3682
 5961SOL     OW29515   0.665   4.127   8.972  0.3829 -0.2392 -0.2369
 5961SOL    HW129516   0.654   4.074   9.051  0.7545  0.0297 -0.0060
 5961SOL    HW229517   0.657   4.056   8.908  0.7411 -0.5498  0.0666
 5962SOL     OW29518   0.490   3.425   6.991  0.1032  0.2437 -0.0198
 5962SOL    HW129519   0.577   3.441   7.027  0.0360  0.6664 -0.0529
 5962SOL    HW229520   0.520   3.418   6.901 -0.6834 -0.7145 -0.2064
 5963SOL     OW29521   1.320   4.523   3.889  0.6313  0.5248 -0.4155
 5963SOL    HW129522   1.377   4.505   3.964 -0.9669  0.7643  0.8650
 5963SOL    HW229523   1.365   4.479   3.818 -1.4154 -0.1148 -1.3233
 5964SOL     OW29524   2.768   4.192   4.647  0.2116 -0.6906 -0.0809
 5964SOL    HW129525   2.824   4.124   4.610  0.6433  0.3385 -1.3465
 5964SOL    HW229526   2.734   4.229   4.566  2.8117 -0.0638 -0.8851
 5965SOL     OW29527   0.458   4.033   7.941  0.1978  0.2378 -0.1913
 5965SOL    HW129528   0.463   4.007   8.033 -0.3666 -2.3304 -0.8877
 5965SOL    HW229529   0.548   4.041   7.911  1.1381  0.3976  2.6380
 5966SOL     OW29530   4.244   4.193   5.325  0.7561 -0.2140  0.2064
 5966SOL    HW129531   4.279   4.119   5.276  4.0058  1.4526  0.0156
 5966SOL    HW229532   4.243   4.255   5.252  1.7759 -0.7712 -0.2744
 5967SOL     OW29533   4.527   1.340   5.456  0.1180  0.0211 -0.2948
 5967SOL    HW129534   4.560   1.313   5.370 -0.4215  0.4892 -0.6493
 5967SOL    HW229535   4.581   1.410   5.492  1.2155 -0.6829 -0.5802
 5968SOL     OW29536   4.453   4.437   8.747  0.2406 -0.1904  0.6015
 5968SOL    HW129537   4.483   4.526   8.764  2.0912 -0.7390  0.2133
 5968SOL    HW229538   4.478   4.439   8.654 -1.7715  3.2483  0.1473
 5969SOL     OW29539   1.989   1.449   4.258 -0.0934  0.3437  0.3058
 5969SOL    HW129540   1.912   1.395   4.238  1.4555 -1.3082 -1.1424
 5969SOL    HW229541   1.960   1.537   4.234  0.4074  0.8028  1.3921
 5970SOL     OW29542   1.024   2.128   8.520  0.2771 -0.2556  0.3318
 5970SOL    HW129543   1.091   2.140   8.588  0.1088  0.1465  0.4255
 5970SOL    HW229544   1.027   2.033   8.526  2.1981 -0.2234 -0.2473
 5971SOL     OW29545   1.732   2.279   1.932 -0.3680 -0.3814  0.0768
 5971SOL    HW129546   1.717   2.259   1.840  0.0699 -0.9740  0.1370
 5971SOL    HW229547   1.662   2.341   1.953  0.7620  0.8175  0.3040
 5972SOL     OW29548   2.449   2.326   0.393 -0.4605  0.5456  0.6374
 5972SOL    HW129549   2.449   2.314   0.298 -1.3407  0.7958  0.6041
 5972SOL    HW229550   2.543   2.334   0.410 -0.3162 -1.6897  0.8729
 5973SOL     OW29551   0.273   4.491   4.331  0.2310  0.1202  0.0259
 5973SOL    HW129552   0.259   4.469   4.239 -0.2307  1.8087 -0.3077
 5973SOL    HW229553   0.262   4.409   4.380 -0.2010  0.0466 -0.1961
 5974SOL     OW29554   2.937   4.380   7.164  0.4128 -0.2958  0.5650
 5974SOL    HW129555   2.875   4.453   7.164 -0.1974 -0.8076  1.7843
 5974SOL    HW229556   2.968   4.379   7.074  0.3973 -0.3337  0.5600
 5975SOL     OW29557   4.198   3.198   1.122 -0.5189 -0.0292  0.0737
 5975SOL    HW129558   4.237   3.149   1.195  0.7078 -0.2493 -0.7230
 5975SOL    HW229559   4.270   3.259   1.107  0.0572 -0.8050 -0.3151
 5976SOL     OW29560   4.103   2.652   2.403  0.1557 -0.1876  0.3650
 5976SOL    HW129561   4.058   2.653   2.319  1.7185 -0.4015 -0.4734
 5976SOL    HW229562   4.046   2.596   2.456 -1.6607  2.3571  1.1198
 5977SOL     OW29563   1.396   1.067  17.381 -0.4050 -0.1272 -0.2975
 5977SOL    HW129564   1.375   1.017  17.460  3.5310 -1.9794 -0.4430
 5977SOL    HW229565   1.363   1.151  17.414 -0.8019 -1.1941  2.0208
 5978SOL     OW29566   3.219   3.346   4.580 -0.0075 -0.0630  0.2181
 5978SOL    HW129567   3.215   3.389   4.666 -1.7518 -1.7803  0.9903
 5978SOL    HW229568   3.303   3.301   4.593  0.3485  0.2454 -1.0526
 5979SOL     OW29569   3.129   0.486   4.161 -0.0784 -0.2134 -1.1761
 5979SOL    HW129570   3.077   0.541   4.102 -1.1212  0.2690  0.1797
 5979SOL    HW229571   3.121   0.395   4.131  0.4011 -0.2427 -1.2191
 5980SOL     OW29572   0.650   1.834   4.433  0.2677 -0.2882 -0.3217
 5980SOL    HW129573   0.683   1.745   4.442 -0.4999 -0.5240  0.0999
 5980SOL    HW229574   0.592   1.836   4.509  0.7900 -1.3197  0.1061
 5981SOL     OW29575   3.620   4.325  15.299 -0.4290  0.3087 -0.1275
 5981SOL    HW129576   3.580   4.262  15.359  1.1103 -2.3046 -1.8444
 5981SOL    HW229577   3.587   4.414  15.315 -1.8224 -0.6570  2.4764
 5982SOL     OW29578   1.233   2.448   4.054  0.1828 -0.0341  0.2033
 5982SOL    HW129579   1.232   2.359   4.090  0.2521 -0.3199 -0.4893
 5982SOL    HW229580   1.195   2.414   3.973  0.5019 -1.3025  0.5784
 5983SOL     OW29581   3.580   0.842   6.602 -0.1339  0.0470  0.0632
 5983SOL    HW129582   3.584   0.747   6.596  0.7929  0.3713 -4.4141
 5983SOL    HW229583   3.510   0.855   6.666 -1.1141  0.8990 -1.1795
 5984SOL     OW29584   2.367   3.008   3.125  0.1788  0.0879 -0.4114
 5984SOL    HW129585   2.321   3.011   3.041  1.4342 -0.3191 -1.1210
 5984SOL    HW229586   2.436   2.947   3.096 -0.3547 -1.3341  1.2997
 5985SOL     OW29587   1.768   1.167   3.516 -0.1097 -0.6604  0.6774
 5985SOL    HW129588   1.738   1.144   3.604 -1.2760 -1.3517  0.0978
 5985SOL    HW229589   1.739   1.088   3.471  0.4638 -0.6567  0.2967
 5986SOL     OW29590   2.086   3.537   4.084 -0.6825 -0.0121 -0.3479
 5986SOL    HW129591   2.182   3.538   4.083 -0.6496  0.0671  1.7436
 5986SOL    HW229592   2.060   3.488   4.163  2.4829  1.0505  1.3655
 5987SOL     OW29593   3.490   1.088  11.378  0.0378  0.0489  0.0128
 5987SOL    HW129594   3.564   1.030  11.399 -0.3110 -0.3707  0.0955
 5987SOL    HW229595   3.473   1.118  11.468 -1.2828  0.0477 -0.2439
 5988SOL     OW29596   0.614   2.630   4.286 -0.4235 -0.1289 -0.0828
 5988SOL    HW129597   0.658   2.567   4.229 -0.8979 -1.3568  0.9039
 5988SOL    HW229598   0.522   2.610   4.272 -0.6440  0.6465  0.2328
 5989SOL     OW29599   1.785   0.621   4.173 -0.2016  0.5732 -0.0493
 5989SOL    HW129600   1.781   0.702   4.123  0.4019 -0.1875 -1.3328
 5989SOL    HW229601   1.734   0.557   4.123 -1.6040  2.6620 -1.2680
 5990SOL     OW29602   1.328   2.232   1.712  0.5612  0.5275 -0.5484
 5990SOL    HW129603   1.381   2.305   1.745 -1.3965  1.7762 -0.1942
 5990SOL    HW229604   1.246   2.279   1.696 -1.7311 -2.7295  1.6580
 5991SOL     OW29605   4.710   2.412   9.022  0.1514  0.2148 -0.7832
 5991SOL    HW129606   0.043   2.374   9.074 -0.3902 -0.8612 -0.8297
 5991SOL    HW229607   4.731   2.370   8.938 -1.5908 -3.9647  0.9012
 5992SOL     OW29608   1.946   0.860   9.457 -0.0021 -0.0406 -0.5220
 5992SOL    HW129609   1.934   0.773   9.417 -1.4660 -0.9656  1.9267
 5992SOL    HW229610   1.964   0.901   9.373 -0.5036  0.2209 -0.4975
 5993SOL     OW29611   0.434   2.140   3.090  0.2550  0.4177  0.1715
 5993SOL    HW129612   0.353   2.185   3.118 -0.1540  0.2219 -0.7232
 5993SOL    HW229613   0.397   2.061   3.051 -2.9647  0.8846  2.2165
 5994SOL     OW29614   2.746   4.353   3.772 -0.2472 -0.3336  0.2050
 5994SOL    HW129615   2.832   4.392   3.786 -1.0219  1.4157  0.0613
 5994SOL    HW229616   2.741   4.289   3.843 -0.5168  1.4218  1.7622
 5995SOL     OW29617   4.562   1.500   4.803  0.4127  0.4480  0.4282
 5995SOL    HW129618   4.651   1.507   4.838  0.3143 -1.2369  1.0259
 5995SOL    HW229619   4.505   1.470   4.874  1.5751 -1.1976  0.6806
 5996SOL     OW29620   1.628   3.046   6.503  0.1382  0.1326  0.0748
 5996SOL    HW129621   1.598   3.111   6.439  1.1934 -0.2375 -0.7953
 5996SOL    HW229622   1.554   3.021   6.559  0.8190 -1.3236  0.3110
 5997SOL     OW29623   4.475   3.657   5.407 -0.2101  0.0671  0.0917
 5997SOL    HW129624   4.526   3.656   5.488 -0.3714 -1.4236  0.1826
 5997SOL    HW229625   4.515   3.583   5.361  0.8790  1.4504 -1.1457
 5998SOL     OW29626   1.870   1.291   9.162  0.4374  0.3721  0.4830
 5998SOL    HW129627   1.932   1.298   9.089 -1.7316  0.3163 -1.3612
 5998SOL    HW229628   1.789   1.310   9.115  1.5939 -0.0948 -1.7315
 5999SOL     OW29629   0.607   3.159  11.852  0.4960 -0.0653  0.1605
 5999SOL    HW129630   0.699   3.158  11.827  0.4295  2.4003 -0.1712
 5999SOL    HW229631   0.577   3.095  11.787 -3.1236  0.3027  1.4590
 6000SOL     OW29632   3.266   0.797   4.549  0.0506  0.4599  0.0815
 6000SOL    HW129633   3.233   0.709   4.565  0.2412  0.7499  2.1111
 6000SOL    HW229634   3.303   0.813   4.636  0.9257  0.9192 -0.3788
 6001SOL     OW29635   3.346   0.944   0.020  0.2633 -0.0338 -0.0655
 6001SOL    HW129636   3.319   0.959  17.677 -1.7929 -0.7195  0.4227
 6001SOL    HW229637   3.360   1.033   0.051 -3.2861  1.7115 -3.5200
 6002SOL     OW29638   3.026   0.018   5.826  0.6295  0.4523  0.0283
 6002SOL    HW129639   3.037   0.102   5.871  0.6973  0.3188  0.2578
 6002SOL    HW229640   3.057   4.701   5.898 -1.2955 -2.0738 -1.0553
 6003SOL     OW29641   3.527   3.603   4.080 -0.0823 -0.2419 -0.2422
 6003SOL    HW129642   3.577   3.683   4.067  1.3092 -1.4442 -2.2569
 6003SOL    HW229643   3.501   3.605   4.173  0.4472  0.2275 -0.1000
 6004SOL     OW29644   4.425   2.787   9.217 -0.3446 -0.0190 -0.4668
 6004SOL    HW129645   4.336   2.758   9.238  0.2527 -1.6612 -0.1957
 6004SOL    HW229646   4.467   2.703   9.197 -0.7121 -0.2831 -0.1379
 6005SOL     OW29647   4.518   0.141  10.648  1.1182 -0.7679 -0.4123
 6005SOL    HW129648   4.553   0.159  10.735  1.6105 -3.8127  0.0262
 6005SOL    HW229649   4.436   0.103  10.679  1.0461 -0.4055 -0.1631
 6006SOL     OW29650   1.367   0.338  15.449  0.4780  0.6579  0.4202
 6006SOL    HW129651   1.353   0.412  15.507  0.1388  0.3560  0.7221
 6006SOL    HW229652   1.413   0.272  15.501  1.1406  1.5341  0.9245
 6007SOL     OW29653   4.299   3.828  16.994 -0.1525  0.5464 -0.3415
 6007SOL    HW129654   4.289   3.922  17.004  0.0002  0.3504  1.7238
 6007SOL    HW229655   4.336   3.821  16.906 -0.2305 -0.5322 -0.2926
 6008SOL     OW29656   1.939   1.966   0.975  1.0153  0.1476 -0.1505
 6008SOL    HW129657   1.987   2.014   0.907  0.7918  3.4083  2.0230
 6008SOL    HW229658   1.847   1.992   0.962  1.3564  1.2433 -0.3814
 6009SOL     OW29659   2.884   3.837   6.884 -0.8935 -0.6049  0.4203
 6009SOL    HW129660   2.907   3.849   6.977  1.2911  0.4608 -0.2566
 6009SOL    HW229661   2.968   3.860   6.846 -1.0995  2.6856  1.9778
 6010SOL     OW29662   3.482   0.701  14.553 -0.4720 -0.1000  0.3101
 6010SOL    HW129663   3.522   0.651  14.482 -0.7482 -0.6459  0.5368
 6010SOL    HW229664   3.561   0.742  14.587  0.1698  1.0269 -2.5192
 6011SOL     OW29665   2.565   0.635   8.069 -0.1457  0.0268  0.3082
 6011SOL    HW129666   2.632   0.580   8.108 -0.4602 -0.5131  0.0785
 6011SOL    HW229667   2.503   0.650   8.141 -0.9766  0.4314 -0.4975
 6012SOL     OW29668   3.813   4.065   5.618 -0.1046  0.0434  0.3768
 6012SOL    HW129669   3.764   4.017   5.685  0.4238  1.1812  1.5656
 6012SOL    HW229670   3.830   3.991   5.559  2.8718  0.2570  0.9683
 6013SOL     OW29671   4.581   1.621   1.383  0.0269 -0.2474 -0.4077
 6013SOL    HW129672   4.577   1.545   1.441  1.5974  1.4812  1.9921
 6013SOL    HW229673   4.677   1.626   1.378 -0.0040  1.1959  0.4239
 6014SOL     OW29674   4.084   4.226   0.696  0.2002  0.0554 -0.3666
 6014SOL    HW129675   4.104   4.135   0.674 -1.2397 -0.1580 -0.7738
 6014SOL    HW229676   4.077   4.219   0.791  0.3459 -1.3365 -0.4596
 6015SOL     OW29677   0.901   3.207  13.515 -0.1913  0.0156  0.0917
 6015SOL    HW129678   0.963   3.281  13.518 -0.7485  0.5336 -1.1726
 6015SOL    HW229679   0.966   3.138  13.505  1.1799  1.3763 -0.4626
 6016SOL     OW29680   4.415   2.446   4.179  0.1551 -0.1771 -0.0817
 6016SOL    HW129681   4.422   2.493   4.262  2.1784 -2.8643  1.2465
 6016SOL    HW229682   4.386   2.358   4.205  0.2527 -0.0047  0.6267
 6017SOL     OW29683   2.071   4.068   3.827 -0.0346 -0.2227 -0.5283
 6017SOL    HW129684   2.073   4.134   3.758 -0.2567 -0.4917 -0.7944
 6017SOL    HW229685   2.147   4.013   3.808  0.7519  0.4222  0.7956
 6018SOL     OW29686   3.703   4.463   3.499  0.0163  0.6655 -0.3936
 6018SOL    HW129687   3.669   4.438   3.585 -0.0159 -2.3759 -1.3155
 6018SOL    HW229688   3.747   4.384   3.468 -0.0395 -1.0074  3.7297
 6019SOL     OW29689   1.202   4.557   6.489 -0.3451 -0.0396 -0.0629
 6019SOL    HW129690   1.207   4.496   6.563  1.7063  1.2346  0.8655
 6019SOL    HW229691   1.109   4.576   6.492 -0.2391  0.1977  1.3593
 6020SOL     OW29692   4.332   1.030   0.227  0.3881  0.1380  0.1984
 6020SOL    HW129693   4.335   1.063   0.137  0.4716  0.2650  0.2470
 6020SOL    HW229694   4.242   0.999   0.227  0.0089  1.2656 -1.0129
 6021SOL     OW29695   3.993   1.945   7.947  0.1693 -0.0942  0.8544
 6021SOL    HW129696   3.985   2.023   7.892  2.7582 -1.2298 -1.1560
 6021SOL    HW229697   3.926   1.966   8.011 -1.1521  1.0889 -0.9110
 6022SOL     OW29698   1.785   0.336   7.882  0.0454  0.7300 -0.1169
 6022SOL    HW129699   1.825   0.301   7.962 -2.6559 -1.0847  0.4468
 6022SOL    HW229700   1.862   0.364   7.832  0.3501  2.2065  1.1775
 6023SOL     OW29701   1.303   0.759   6.816 -0.0316 -0.4245 -0.4828
 6023SOL    HW129702   1.292   0.844   6.859 -1.0391 -0.1585 -1.2763
 6023SOL    HW229703   1.322   0.801   6.733  2.8629 -0.8852 -0.0754
 6024SOL     OW29704   1.403   4.297   2.250 -0.1796 -0.4287  0.3106
 6024SOL    HW129705   1.349   4.263   2.178  1.6906  1.6781 -2.1051
 6024SOL    HW229706   1.368   4.385   2.259  1.1191 -0.1673  2.5642
 6025SOL     OW29707   2.482   2.790   6.108 -0.1727  0.3484  0.1194
 6025SOL    HW129708   2.430   2.763   6.032  1.6025  0.3477 -1.0901
 6025SOL    HW229709   2.427   2.866   6.126  0.3232  0.7178  0.0786
 6026SOL     OW29710   0.620   1.983   9.359 -0.0351  0.4525 -0.1357
 6026SOL    HW129711   0.662   2.066   9.336  0.9932  0.3381  1.3051
 6026SOL    HW229712   0.534   2.012   9.388 -0.0958  2.4533 -2.3394
 6027SOL     OW29713   4.435   0.710   5.025  0.7366  0.6819 -0.2706
 6027SOL    HW129714   4.366   0.758   4.980  1.0215  1.1406 -0.2225
 6027SOL    HW229715   4.469   0.658   4.952 -1.4121 -2.3283  0.8606
 6028SOL     OW29716   3.471   0.168   5.575  0.2202  0.4203 -0.3285
 6028SOL    HW129717   3.504   0.239   5.631  0.3654 -0.4924  0.7395
 6028SOL    HW229718   3.558   0.132   5.560  0.4146  0.3922  0.8102
 6029SOL     OW29719   3.340   3.715   6.222  0.5471 -0.2888 -0.0433
 6029SOL    HW129720   3.360   3.738   6.132  0.3822  0.1411  0.0261
 6029SOL    HW229721   3.391   3.781   6.271  0.7506 -0.1749 -0.4091
 6030SOL     OW29722   1.107   4.060   2.169  0.1689 -0.0061  0.2783
 6030SOL    HW129723   1.086   3.978   2.124  0.8018 -0.1414  0.2264
 6030SOL    HW229724   1.116   4.120   2.094 -1.9306 -1.3916 -1.0534
 6031SOL     OW29725   1.708   0.577   9.353  0.2369  0.2091  0.4040
 6031SOL    HW129726   1.762   0.537   9.285 -2.3939 -0.7633 -1.1000
 6031SOL    HW229727   1.650   0.638   9.308 -0.3132  0.0108  0.8461
 6032SOL     OW29728   1.185   1.484   2.214  0.2589 -0.2573  0.2551
 6032SOL    HW129729   1.100   1.528   2.209 -1.4472 -3.4197  1.4409
 6032SOL    HW229730   1.239   1.561   2.229 -0.6953  0.2933  0.8733
 6033SOL     OW29731   0.359   1.996   9.430 -0.2325 -0.1208  0.3113
 6033SOL    HW129732   0.270   2.007   9.399  0.5421  0.1582 -1.8114
 6033SOL    HW229733   0.336   1.966   9.518 -0.9027 -1.6428 -0.3951
 6034SOL     OW29734   1.969   0.535  10.883 -0.2943 -0.0946 -0.5313
 6034SOL    HW129735   1.951   0.509  10.792 -1.9507  1.1450 -0.5532
 6034SOL    HW229736   2.064   0.545  10.875 -0.3026  0.0988 -0.3785
 6035SOL     OW29737   1.900   0.902   6.231  1.1418  0.2996  0.9779
 6035SOL    HW129738   1.895   0.854   6.149  0.7761  0.0724  1.1364
 6035SOL    HW229739   1.992   0.928   6.218  1.1128 -0.7098 -1.1821
 6036SOL     OW29740   1.466   2.180   3.956  0.0795 -0.3332  0.4837
 6036SOL    HW129741   1.468   2.101   4.011 -2.0226 -1.1168 -0.5523
 6036SOL    HW229742   1.485   2.140   3.872 -0.9220 -1.0611  0.6020
 6037SOL     OW29743   1.309   3.950   6.620 -0.0881 -0.2870 -0.7561
 6037SOL    HW129744   1.321   4.005   6.543  0.2676  1.2942  0.4315
 6037SOL    HW229745   1.358   3.875   6.586  0.3178 -1.2683  1.9973
 6038SOL     OW29746   2.012   1.232   1.809 -0.6418  0.0198 -0.7583
 6038SOL    HW129747   2.034   1.152   1.857 -0.1664  0.0132 -0.9900
 6038SOL    HW229748   1.947   1.203   1.745 -2.1997  1.5985  0.1018
 6039SOL     OW29749   2.556   2.477  17.627 -0.5386  0.5138 -0.6688
 6039SOL    HW129750   2.503   2.527  17.689  0.3395 -0.1779  0.6361
 6039SOL    HW229751   2.498   2.473  17.551 -0.0674 -2.1336 -0.8972
 6040SOL     OW29752   3.059   2.579   2.905  0.4886  0.1360  0.5038
 6040SOL    HW129753   3.020   2.663   2.931 -0.2270 -0.6044  1.8307
 6040SOL    HW229754   3.136   2.576   2.962 -0.1032 -2.7868  1.1927
 6041SOL     OW29755   2.589   2.832   3.080 -0.2794  0.1123 -0.0409
 6041SOL    HW129756   2.638   2.870   3.007 -1.5487  2.2321  0.2033
 6041SOL    HW229757   2.661   2.842   3.143 -0.0099  0.2590 -0.3733
 6042SOL     OW29758   4.588   3.646   6.764 -0.1707 -0.3344  0.4806
 6042SOL    HW129759   4.599   3.554   6.788 -0.3645 -0.4646  0.0787
 6042SOL    HW229760   4.594   3.636   6.669  0.8751 -1.3676  0.6542
 6043SOL     OW29761   2.052   2.199   5.574 -0.2714 -0.2147 -0.3464
 6043SOL    HW129762   1.976   2.145   5.595  0.6017 -0.0563  3.1693
 6043SOL    HW229763   2.018   2.287   5.557 -1.5258 -0.8603 -1.1403
 6044SOL     OW29764   0.443   4.191   3.149  0.3542 -0.5409  0.2837
 6044SOL    HW129765   0.513   4.175   3.213  0.5968  0.5608  0.3071
 6044SOL    HW229766   0.455   4.286   3.143  0.4716 -0.7394 -2.4303
 6045SOL     OW29767   2.698   2.070   8.336 -0.5399 -0.5139  0.5922
 6045SOL    HW129768   2.663   2.143   8.388  0.0003  0.2440 -0.0973
 6045SOL    HW229769   2.792   2.090   8.340 -0.8254  1.3741 -2.6527
 6046SOL     OW29770   0.940   0.638   8.746  0.0108 -0.1513  0.4392
 6046SOL    HW129771   0.928   0.678   8.832 -1.8787  1.8411 -0.7531
 6046SOL    HW229772   1.034   0.627   8.732  0.0519 -0.1708  0.7368
 6047SOL     OW29773   0.555   3.692   1.901 -0.5023  0.2762 -0.0794
 6047SOL    HW129774   0.493   3.666   1.833 -1.5192  1.9290  0.2246
 6047SOL    HW229775   0.502   3.689   1.980  0.5892  2.3819  0.7301
 6048SOL     OW29776   2.279   1.563   7.432 -0.3645 -0.2493 -0.1992
 6048SOL    HW129777   2.249   1.481   7.473 -0.5001 -0.2299 -0.2573
 6048SOL    HW229778   2.361   1.573   7.480 -2.2668 -1.6888  3.4018
 6049SOL     OW29779   3.023   3.278   4.382  0.2113  0.1782  0.2473
 6049SOL    HW129780   3.097   3.287   4.442 -0.5581  1.9274  0.9590
 6049SOL    HW229781   3.033   3.344   4.314  0.0288 -1.7610 -1.6319
 6050SOL     OW29782   2.021   3.255   0.439  0.2579 -0.6578 -0.0059
 6050SOL    HW129783   2.001   3.209   0.357  2.4849 -1.0444 -0.3247
 6050SOL    HW229784   2.116   3.246   0.448  0.4352  1.2672 -0.0360
 6051SOL     OW29785   4.628   2.730   8.560 -0.6039 -0.4162  0.0473
 6051SOL    HW129786   4.619   2.760   8.650  0.0348  0.4655 -0.1849
 6051SOL    HW229787   4.589   2.809   8.523 -1.6526 -1.2987 -0.7790
 6052SOL     OW29788   1.823   0.573   4.773  0.0779  0.1762  0.1978
 6052SOL    HW129789   1.759   0.566   4.702 -1.1763 -0.0765  1.3499
 6052SOL    HW229790   1.785   0.498   4.819  0.3880  0.5221  1.0148
 6053SOL     OW29791   2.801   0.052   3.411  0.3151 -0.2331  0.5380
 6053SOL    HW129792   2.725   0.046   3.352  1.0248  0.5618 -0.4395
 6053SOL    HW229793   2.841   0.128   3.369  0.6467 -0.8821 -0.3216
 6054SOL     OW29794   1.408   2.215   6.601  0.0649  0.3053 -0.0793
 6054SOL    HW129795   1.462   2.192   6.677  1.0717 -1.4499 -1.3223
 6054SOL    HW229796   1.369   2.300   6.618 -0.6664 -0.0050 -0.2147
 6055SOL     OW29797   2.145   4.414   5.115  0.2367 -0.8416  0.2532
 6055SOL    HW129798   2.228   4.433   5.158 -0.3518  0.5424  0.7797
 6055SOL    HW229799   2.097   4.495   5.133  0.9128  0.4263 -3.6217
 6056SOL     OW29800   2.912   0.644   6.706 -0.0248 -0.3140 -0.5579
 6056SOL    HW129801   2.873   0.719   6.749 -0.8742  0.6241 -2.9431
 6056SOL    HW229802   2.844   0.580   6.725  1.8465 -1.4411  2.4524
 6057SOL     OW29803   0.422   1.919   6.582 -0.5196 -0.1980 -0.3990
 6057SOL    HW129804   0.352   1.985   6.586  0.4903  0.8127  0.3987
 6057SOL    HW229805   0.371   1.864   6.522 -1.0701 -0.4883  0.3261
 6058SOL     OW29806   3.710   3.998  16.145 -0.9826  0.0410 -0.3249
 6058SOL    HW129807   3.622   4.002  16.183  0.3473 -2.1049  2.9798
 6058SOL    HW229808   3.731   4.091  16.133 -3.8139  0.5432 -1.3528
 6059SOL     OW29809   3.018   1.542  15.636  0.7737 -0.0691  0.0970
 6059SOL    HW129810   2.935   1.552  15.590  1.1010  1.7460 -0.1251
 6059SOL    HW229811   3.002   1.586  15.719  1.0035  4.3857 -2.1900
 6060SOL     OW29812   0.576   0.181   6.283 -0.3705  0.2541 -0.6522
 6060SOL    HW129813   0.587   0.152   6.193  1.6205 -0.6225 -0.1298
 6060SOL    HW229814   0.554   0.100   6.329 -3.5709  2.3758  1.6207
 6061SOL     OW29815   3.558   2.442   1.174  0.3354  0.2860  0.6379
 6061SOL    HW129816   3.562   2.537   1.172 -2.4017  0.3706 -0.7451
 6061SOL    HW229817   3.516   2.419   1.092  1.0331  0.2562  0.2918
 6062SOL     OW29818   3.641   0.205   2.051  0.5173 -0.3728  0.3453
 6062SOL    HW129819   3.676   0.183   2.137 -0.2101  0.4493  0.8585
 6062SOL    HW229820   3.580   0.278   2.067  1.7360  0.4299  1.2954
 6063SOL     OW29821   0.457   3.232   5.770  0.4543  0.4178 -0.0882
 6063SOL    HW129822   0.424   3.292   5.703 -2.2487  0.0083  0.8802
 6063SOL    HW229823   0.384   3.171   5.782  0.9813 -0.4111 -1.0498
 6064SOL     OW29824   4.116   2.405  10.100  0.0230  0.0968  0.2085
 6064SOL    HW129825   4.090   2.484  10.149 -0.7510 -0.1454  0.1881
 6064SOL    HW229826   4.032   2.394  10.055 -0.3242  0.4871  0.7482
 6065SOL     OW29827   3.951   0.731   8.787  0.1427 -0.0707  0.0912
 6065SOL    HW129828   3.937   0.760   8.877 -3.3369  0.4971 -0.6448
 6065SOL    HW229829   4.045   0.715   8.781 -0.0880 -0.8097 -1.5365
 6066SOL     OW29830   4.200   2.138   3.033 -0.5684  0.0316 -0.3254
 6066SOL    HW129831   4.195   2.156   3.127 -1.4036  0.9377 -0.5417
 6066SOL    HW229832   4.122   2.084   3.018  0.8840 -2.1456 -0.2087
 6067SOL     OW29833   0.771   3.269   6.451 -0.3157 -0.3691 -0.5753
 6067SOL    HW129834   0.811   3.288   6.536  0.6129 -3.4836 -0.3226
 6067SOL    HW229835   0.793   3.343   6.394 -0.8002 -0.2317 -0.5882
 6068SOL     OW29836   3.565   0.396   3.003  0.5241 -0.6268  0.3252
 6068SOL    HW129837   3.486   0.386   3.057  1.5790 -0.6253  1.8611
 6068SOL    HW229838   3.575   0.305   2.976 -1.3634 -0.4211 -1.1105
 6069SOL     OW29839   3.504   2.895   4.258  0.3034 -0.1355 -0.2950
 6069SOL    HW129840   3.553   2.818   4.286 -1.1491 -1.2462 -0.7818
 6069SOL    HW229841   3.551   2.915   4.177 -0.6008 -0.0975 -0.8106
 6070SOL     OW29842   4.520   2.667   2.323  0.8375  0.5713 -0.2679
 6070SOL    HW129843   4.442   2.704   2.283  0.9677  0.2811 -0.7820
 6070SOL    HW229844   4.585   2.691   2.257  0.0202  0.7495 -0.9993
 6071SOL     OW29845   2.015   0.620   2.904  0.6214 -0.3788 -0.4857
 6071SOL    HW129846   1.978   0.707   2.896  0.4982 -0.3152  0.8674
 6071SOL    HW229847   2.093   0.625   2.848  1.6373  1.3559  1.1069
 6072SOL     OW29848   0.947   3.703  14.697  0.3948 -0.3342 -0.1011
 6072SOL    HW129849   0.982   3.741  14.778 -0.0551  1.5905 -0.8070
 6072SOL    HW229850   0.905   3.776  14.652  1.4024 -0.1338 -0.6977
 6073SOL     OW29851   3.397   1.169   6.639 -0.0909  0.5518  0.2281
 6073SOL    HW129852   3.459   1.210   6.578 -1.2276  0.3247 -1.0821
 6073SOL    HW229853   3.452   1.129   6.706  0.1834  0.8224  0.1648
 6074SOL     OW29854   0.616   0.285  11.437 -0.2823 -0.0470 -0.1249
 6074SOL    HW129855   0.576   0.315  11.519  1.8310  1.4790  0.3459
 6074SOL    HW229856   0.708   0.292  11.463 -0.5383  0.6298  0.5791
 6075SOL     OW29857   4.163   1.853   9.659 -0.2542 -0.0028  0.2196
 6075SOL    HW129858   4.256   1.874   9.666 -0.4631  0.9778  0.0585
 6075SOL    HW229859   4.178   1.772   9.609 -1.6850  0.7178 -1.3873
 6076SOL     OW29860   3.143   2.116   8.328 -0.1168 -0.5225  0.5971
 6076SOL    HW129861   3.161   2.174   8.254 -1.1581 -0.2022  0.6003
 6076SOL    HW229862   3.108   2.041   8.280  1.2312 -0.9805  0.3347
 6077SOL     OW29863   2.112   4.248   6.047 -0.4492 -0.1155  0.0086
 6077SOL    HW129864   2.065   4.332   6.046  0.0159  0.1227 -1.2688
 6077SOL    HW229865   2.045   4.185   6.073  0.8558 -1.2405  0.6268
 6078SOL     OW29866   1.319   3.631   9.383  0.2118 -0.1890 -0.8291
 6078SOL    HW129867   1.331   3.674   9.467 -1.4685 -0.3074 -0.5377
 6078SOL    HW229868   1.403   3.651   9.342  1.2052 -1.3189  0.6453
 6079SOL     OW29869   0.501   1.596  11.491  0.0684  0.0816 -0.3664
 6079SOL    HW129870   0.515   1.680  11.536  1.0749 -0.3688  0.1643
 6079SOL    HW229871   0.424   1.598  11.435 -0.1586 -0.0707 -0.0568
 6080SOL     OW29872   2.017   3.983   2.526 -0.9762  0.2256 -0.4580
 6080SOL    HW129873   1.933   3.947   2.497 -1.4097  0.3806  0.6224
 6080SOL    HW229874   2.003   4.078   2.534  1.5126  0.7578 -2.2195
 6081SOL     OW29875   2.893   0.427   9.274 -0.0697 -0.1950  0.1279
 6081SOL    HW129876   2.888   0.509   9.323 -0.9441 -0.2059  0.0490
 6081SOL    HW229877   2.868   0.370   9.347 -0.2692  0.9923  0.9793
 6082SOL     OW29878   0.308   0.623   7.603  0.2942 -1.2024  0.2217
 6082SOL    HW129879   0.357   0.645   7.682 -2.1384  3.3684  0.4440
 6082SOL    HW229880   0.221   0.627   7.643  0.0300  0.5383 -0.5278
 6083SOL     OW29881   0.729   2.172  16.559 -0.2793 -0.3304  0.0368
 6083SOL    HW129882   0.804   2.144  16.611  0.2321 -2.5559 -1.9072
 6083SOL    HW229883   0.749   2.266  16.560 -2.0852  0.0810 -2.5032
 6084SOL     OW29884   2.431   3.684   4.622 -0.5251 -0.0277 -0.0090
 6084SOL    HW129885   2.432   3.668   4.717  1.1117  1.6011  0.2402
 6084SOL    HW229886   2.499   3.620   4.601  1.0606  0.9756  2.0734
 6085SOL     OW29887   2.136   1.556   1.155 -0.3148  0.4106  0.0001
 6085SOL    HW129888   2.151   1.524   1.244 -1.6344  0.8982  0.4077
 6085SOL    HW229889   2.217   1.600   1.130  0.3712 -1.5567 -1.2540
 6086SOL     OW29890   3.819   2.748   9.207  0.1656 -0.0716  0.4086
 6086SOL    HW129891   3.808   2.823   9.148  0.0793  0.7107  1.4311
 6086SOL    HW229892   3.856   2.792   9.283 -1.7833  1.7579  0.3043
 6087SOL     OW29893   2.613   4.328   8.196 -0.5820 -0.4139 -0.2643
 6087SOL    HW129894   2.631   4.240   8.164 -0.7340  0.0519 -1.6226
 6087SOL    HW229895   2.627   4.387   8.122 -1.5561 -1.2401 -1.1032
 6088SOL     OW29896   3.493   1.831   9.116  0.3939  0.3959 -0.2739
 6088SOL    HW129897   3.458   1.894   9.180  1.9481  1.4865 -0.4853
 6088SOL    HW229898   3.419   1.771   9.106 -0.0348  0.6041  1.5588
 6089SOL     OW29899   0.392   3.382  12.647  0.3832  0.2470 -0.4964
 6089SOL    HW129900   0.410   3.462  12.598 -1.3705  0.8904 -0.0948
 6089SOL    HW229901   0.306   3.407  12.681  0.6009 -2.4990  2.1182
 6090SOL     OW29902   2.036   2.898   7.115  0.7803  0.3021 -0.1310
 6090SOL    HW129903   2.093   2.933   7.046  1.3704 -1.9101 -0.7568
 6090SOL    HW229904   2.035   2.805   7.094  1.0911  0.0718  0.8776
 6091SOL     OW29905   0.579   4.301  14.852 -0.1939  1.5187 -0.1952
 6091SOL    HW129906   0.535   4.263  14.928 -0.3895  0.6299 -0.7565
 6091SOL    HW229907   0.524   4.284  14.775 -1.5094  1.9298  0.6591
 6092SOL     OW29908   3.654   1.319   8.010  0.0790 -0.8584  0.6893
 6092SOL    HW129909   3.743   1.285   8.019 -0.2916 -2.0572 -0.2121
 6092SOL    HW229910   3.651   1.305   7.915 -0.4084 -0.8024  0.6974
 6093SOL     OW29911   2.075   2.542   1.908  0.1419 -0.0637  0.0806
 6093SOL    HW129912   2.008   2.575   1.969 -0.6787 -0.3866 -0.6435
 6093SOL    HW229913   2.115   2.616   1.862 -0.5600 -0.2365 -0.8108
 6094SOL     OW29914   4.100   4.071   8.983 -0.3319  0.0703  0.4108
 6094SOL    HW129915   4.131   4.161   8.970  0.0067 -0.1400 -0.1905
 6094SOL    HW229916   4.012   4.078   9.020 -1.3018  3.1151 -2.4001
 6095SOL     OW29917   3.342   1.207   0.041  0.1205  0.5613  0.6404
 6095SOL    HW129918   3.340   1.250  17.703  1.5155 -1.0937 -0.2152
 6095SOL    HW229919   3.432   1.219   0.070  0.1885  0.1620  0.5951
 6096SOL     OW29920   3.774   2.562   9.465 -0.2579 -0.0462  0.2591
 6096SOL    HW129921   3.851   2.555   9.409 -1.7041 -1.0962 -1.6262
 6096SOL    HW229922   3.787   2.484   9.519  2.3136  1.4186  1.7548
 6097SOL     OW29923   3.162   2.598   6.430  0.1645  0.3471 -0.5431
 6097SOL    HW129924   3.093   2.532   6.435 -1.0233  1.5118 -1.6904
 6097SOL    HW229925   3.235   2.546   6.463 -1.0422  0.0549  1.7362
 6098SOL     OW29926   3.166   4.392   8.077  0.6311 -0.1435  0.8199
 6098SOL    HW129927   3.097   4.352   8.024  1.7880  0.0309 -0.8159
 6098SOL    HW229928   3.157   4.336   8.154 -1.1913  0.1488  0.8045
 6099SOL     OW29929   0.622   2.387  10.047  0.0260 -0.3327 -0.5674
 6099SOL    HW129930   0.547   2.328  10.050 -1.3043  1.2753 -1.8993
 6099SOL    HW229931   0.619   2.423  10.136 -0.3131 -3.0701  0.5266
 6100SOL     OW29932   1.337   3.519   4.871  0.1507  0.1835  0.2610
 6100SOL    HW129933   1.393   3.567   4.810  3.5770 -2.0512  1.6443
 6100SOL    HW229934   1.263   3.511   4.812 -0.7352  1.6204  1.1750
 6101SOL     OW29935   2.280   2.176   6.571 -0.1870 -0.4386 -0.2736
 6101SOL    HW129936   2.361   2.219   6.544  1.0023 -2.5243 -0.0140
 6101SOL    HW229937   2.266   2.213   6.659 -0.2894  0.3227 -0.6118
 6102SOL     OW29938   2.927   0.380   4.976  0.0069  0.5305  0.0761
 6102SOL    HW129939   2.832   0.368   4.976  0.2215 -1.1603  0.6381
 6102SOL    HW229940   2.931   0.476   4.982  1.3679  0.5807 -1.7056
 6103SOL     OW29941   2.963   4.518   8.382 -0.3501  0.1736  0.1276
 6103SOL    HW129942   2.884   4.464   8.378  0.2314 -0.5803 -1.1261
 6103SOL    HW229943   2.954   4.538   8.475 -1.6644 -3.8114  0.8386
 6104SOL     OW29944   2.770   3.878  10.327 -1.0056 -0.1565 -0.0863
 6104SOL    HW129945   2.773   3.969  10.298  1.6650  0.5241  2.2906
 6104SOL    HW229946   2.792   3.831  10.247 -1.8789 -1.3521  0.3618
 6105SOL     OW29947   3.420   2.153   9.994 -0.9235  0.1904 -0.0761
 6105SOL    HW129948   3.399   2.085  10.058 -0.6708 -1.0461 -1.3256
 6105SOL    HW229949   3.497   2.112   9.955 -1.9005 -0.9446 -0.7703
 6106SOL     OW29950   2.753   0.224   5.892  0.5428 -0.4588 -0.1915
 6106SOL    HW129951   2.807   0.166   5.946  0.5075 -1.6186 -1.4132
 6106SOL    HW229952   2.761   0.173   5.811 -3.3811 -2.4223  0.6724
 6107SOL     OW29953   4.582   3.076   6.025  0.1063 -1.2059 -0.3962
 6107SOL    HW129954   4.585   3.002   5.964 -1.0589 -0.3564 -1.4823
 6107SOL    HW229955   4.487   3.087   6.023  0.0940 -1.6929 -2.1539
 6108SOL     OW29956   1.037   1.244   3.660  0.2567  0.0870 -0.2526
 6108SOL    HW129957   1.013   1.314   3.721 -0.8256  0.3670 -0.9893
 6108SOL    HW229958   1.111   1.284   3.615 -0.0330 -0.0644 -0.8683
 6109SOL     OW29959   0.266   2.141   7.076  0.7468 -0.0442 -0.0185
 6109SOL    HW129960   0.180   2.117   7.043 -0.6995  1.8388  2.3849
 6109SOL    HW229961   0.250   2.213   7.136 -1.1631  1.3040 -2.1648
 6110SOL     OW29962   0.979   2.590   7.303 -0.3371  0.4041 -1.3770
 6110SOL    HW129963   0.932   2.655   7.251 -0.6121  0.8109 -0.6255
 6110SOL    HW229964   1.061   2.580   7.254 -1.7029  0.6267 -3.6974
 6111SOL     OW29965   3.438   0.435   7.892 -0.4014  0.1274  0.2576
 6111SOL    HW129966   3.479   0.424   7.806  2.1614 -2.3210  1.7872
 6111SOL    HW229967   3.406   0.348   7.917 -0.0530 -0.6725 -2.0757
 6112SOL     OW29968   1.897   4.154   5.791 -0.1143 -0.4106  0.5481
 6112SOL    HW129969   1.845   4.229   5.818 -1.1623 -1.4885  1.5647
 6112SOL    HW229970   1.828   4.114   5.738 -0.7317  2.1418 -0.5377
 6113SOL     OW29971   3.804   2.884   1.196  0.4696 -0.2768 -0.0863
 6113SOL    HW129972   3.767   2.914   1.112 -4.4568 -1.2030  1.7305
 6113SOL    HW229973   3.838   2.963   1.238  1.3599 -0.9886  0.5208
 6114SOL     OW29974   4.280   4.295   7.883 -0.3540 -0.0664 -0.0039
 6114SOL    HW129975   4.372   4.270   7.874 -1.0724 -2.7117 -0.0560
 6114SOL    HW229976   4.253   4.216   7.929 -1.2515 -0.4964 -1.2776
 6115SOL     OW29977   0.007   1.422   4.198  0.5774 -0.3314 -0.5281
 6115SOL    HW129978   4.717   1.340   4.240 -0.7220  0.8903  1.0183
 6115SOL    HW229979   0.092   1.437   4.240  0.7496 -1.1294 -0.5918
 6116SOL     OW29980   4.286   1.117   2.627 -0.5177  0.1489 -0.1296
 6116SOL    HW129981   4.375   1.145   2.650  0.6354 -2.5376 -1.3219
 6116SOL    HW229982   4.236   1.188   2.666  0.7133  0.0578  1.5963
 6117SOL     OW29983   4.508   1.517   7.444 -0.3889  0.2140 -0.4071
 6117SOL    HW129984   4.598   1.503   7.471 -1.0978 -0.0359  1.7939
 6117SOL    HW229985   4.471   1.472   7.519  1.0730 -1.1761 -0.5334
 6118SOL     OW29986   1.690   4.449  10.381  0.4647  0.1089  0.9812
 6118SOL    HW129987   1.742   4.520  10.418  3.5882 -1.5082 -0.3013
 6118SOL    HW229988   1.605   4.493  10.378  0.1499 -0.3349  3.2754
 6119SOL     OW29989   1.450   0.751   3.982 -0.3681 -0.1687 -0.2978
 6119SOL    HW129990   1.396   0.823   3.950 -1.2397 -0.3060  0.8946
 6119SOL    HW229991   1.446   0.746   4.077  0.8018  0.0103 -0.2385
 6120SOL     OW29992   3.846   1.119   5.315  0.0696  0.5915  0.0420
 6120SOL    HW129993   3.757   1.085   5.308  0.6921 -1.2551  0.9803
 6120SOL    HW229994   3.891   1.053   5.367 -0.3858 -0.8073 -1.3446
 6121SOL     OW29995   3.355   4.697   7.056 -0.1355 -0.3698 -0.7503
 6121SOL    HW129996   3.411   0.017   7.109  0.2277 -0.4669 -1.0294
 6121SOL    HW229997   3.266   4.729   7.073 -0.6834 -2.0404 -0.4781
 6122SOL     OW29998   3.678   2.760   2.168  0.3995  0.6452 -0.2615
 6122SOL    HW129999   3.605   2.741   2.108 -0.7781  0.5750  1.1983
 6122SOL    HW230000   3.752   2.716   2.127 -0.3271 -1.5140  0.7682
 6123SOL     OW30001   1.744   4.553  15.737  0.4978 -0.1348  0.2753
 6123SOL    HW130002   1.701   4.630  15.699 -0.5443 -0.6372  0.4271
 6123SOL    HW230003   1.761   4.575  15.829 -1.4126 -0.2389  0.6452
 6124SOL     OW30004   0.834   0.169  11.628 -0.2199  0.1395  0.2445
 6124SOL    HW130005   0.898   0.128  11.685  0.5716  0.5696 -0.3309
 6124SOL    HW230006   0.782   0.088  11.629  1.2514 -0.8122 -0.7073
 6125SOL     OW30007   0.132   3.557   1.721  0.1746  0.2091 -0.1519
 6125SOL    HW130008   0.140   3.531   1.813 -0.4914  0.8811  0.0945
 6125SOL    HW230009   0.203   3.621   1.719  0.1807  0.2300  0.6861
 6126SOL     OW30010   0.792   2.218   3.523 -0.5002 -0.3913  0.2557
 6126SOL    HW130011   0.738   2.222   3.445 -3.3631  1.8901  2.3771
 6126SOL    HW230012   0.776   2.300   3.570 -0.5315  0.4827 -1.2900
 6127SOL     OW30013   3.615   3.574   5.239  0.3561  0.2338  0.0053
 6127SOL    HW130014   3.598   3.547   5.149 -1.3457  1.3060  0.0150
 6127SOL    HW230015   3.709   3.592   5.236  0.9101 -2.5353  0.0783
 6128SOL     OW30016   4.441   1.877   9.679 -0.3872  0.3363  0.3325
 6128SOL    HW130017   4.494   1.956   9.684 -1.3122  1.0334 -0.8732
 6128SOL    HW230018   4.506   1.825   9.631  0.0174  1.1602 -0.0114
 6129SOL     OW30019   3.510   1.959  10.238 -0.8259  0.3061  0.2915
 6129SOL    HW130020   3.526   1.874  10.196 -4.0779 -0.3528  0.3150
 6129SOL    HW230021   3.523   1.938  10.330  0.5912 -2.5107 -0.5439
 6130SOL     OW30022   0.067   0.489   7.777 -0.3530  0.0525 -0.5864
 6130SOL    HW130023   0.091   0.417   7.719 -0.8337 -0.7914  0.2669
 6130SOL    HW230024   4.727   0.530   7.738  1.0243  2.4144 -0.8297
 6131SOL     OW30025   1.221   1.141   3.372  0.4655 -0.0762  0.0197
 6131SOL    HW130026   1.219   1.227   3.330  0.5078 -1.4058 -2.6847
 6131SOL    HW230027   1.314   1.125   3.355 -0.2100 -2.6601 -1.2161
 6132SOL     OW30028   3.977   2.668   1.709  0.9552 -0.2374 -0.5319
 6132SOL    HW130029   3.926   2.635   1.635  0.1674  0.8995 -0.4878
 6132SOL    HW230030   3.966   2.762   1.695 -1.7912 -0.9041 -2.7246
 6133SOL     OW30031   0.484   1.156   7.717  0.3715  0.0297 -0.2529
 6133SOL    HW130032   0.526   1.070   7.719 -1.6578 -0.9601  0.4318
 6133SOL    HW230033   0.398   1.137   7.755 -0.1500  0.8884 -1.0355
 6134SOL     OW30034   2.126   4.496   5.747 -0.5227  0.0479  0.4005
 6134SOL    HW130035   2.177   4.564   5.702  2.2473 -1.2178  1.5818
 6134SOL    HW230036   2.198   4.434   5.762 -1.0972 -0.5102  0.8241
 6135SOL     OW30037   1.582   0.259   1.115 -0.3689  0.1724  0.1391
 6135SOL    HW130038   1.497   0.268   1.158  0.7148 -2.0170  2.7295
 6135SOL    HW230039   1.617   0.348   1.115 -2.4929  1.0143  1.1008
 6136SOL     OW30040   0.975   0.455   5.358  0.7437 -0.6048 -0.5428
 6136SOL    HW130041   0.993   0.504   5.278  1.2408 -0.5881 -0.4206
 6136SOL    HW230042   0.890   0.418   5.334 -0.4924  0.8397  1.6822
 6137SOL     OW30043   2.026   1.048   7.837 -0.3008 -0.3410  0.3667
 6137SOL    HW130044   2.015   1.121   7.776  2.3531 -1.1324 -1.0636
 6137SOL    HW230045   1.939   1.009   7.838  0.1216 -1.2648  1.4280
 6138SOL     OW30046   3.357   1.479  17.591 -0.3831 -0.1797 -0.1838
 6138SOL    HW130047   3.282   1.478  17.531 -0.2481 -2.3161 -0.3407
 6138SOL    HW230048   3.427   1.456  17.530 -1.1141  1.0062 -1.4641
 6139SOL     OW30049   3.568   1.505   8.205 -0.2902 -0.1400 -0.2001
 6139SOL    HW130050   3.583   1.451   8.127  3.3436 -3.6104  2.9236
 6139SOL    HW230051   3.610   1.588   8.184 -1.3562 -0.3507 -3.1937
 6140SOL     OW30052   0.010   0.637  15.254 -0.5079 -0.2119  0.6645
 6140SOL    HW130053   4.691   0.565  15.226 -1.8629  0.8772  0.5987
 6140SOL    HW230054   0.002   0.682  15.171 -0.1453 -2.7588 -0.7575
 6141SOL     OW30055   1.645   1.312   5.115  0.3184 -0.3230 -0.0989
 6141SOL    HW130056   1.607   1.339   5.031  2.5861 -1.0573 -1.3762
 6141SOL    HW230057   1.735   1.340   5.099  0.1684  0.6323  0.7425
 6142SOL     OW30058   3.720   2.667   4.643  0.1239 -0.0767  0.2855
 6142SOL    HW130059   3.676   2.723   4.706  0.3424  1.0385 -0.5574
 6142SOL    HW230060   3.764   2.603   4.699 -0.4819 -0.1418  0.6822
 6143SOL     OW30061   3.505   4.719   5.341  0.4681 -0.5916 -0.2073
 6143SOL    HW130062   3.494   0.072   5.373  0.7084 -1.0434  1.1594
 6143SOL    HW230063   3.415   4.688   5.340 -0.2772  1.5480 -0.1003
 6144SOL     OW30064   4.713   2.106  14.970 -0.1714 -0.2176  0.2871
 6144SOL    HW130065   0.019   2.131  14.888  0.4845  3.2425  1.7028
 6144SOL    HW230066   4.679   2.188  15.005 -1.6155 -0.7383  0.1276
 6145SOL     OW30067   4.589   0.269   2.265  0.2369 -0.3017  0.0673
 6145SOL    HW130068   4.576   0.344   2.208  0.1600 -0.6287 -0.3458
 6145SOL    HW230069   4.589   0.196   2.203  0.8154  0.4306 -0.7923
 6146SOL     OW30070   1.870   3.534   0.679 -0.3741  0.3846 -0.2618
 6146SOL    HW130071   1.843   3.460   0.734 -1.1418  1.3040  0.5927
 6146SOL    HW230072   1.955   3.545   0.721 -0.9513  0.1013  0.9790
 6147SOL     OW30073   1.165   1.293   7.710  0.0729 -0.0338  0.9514
 6147SOL    HW130074   1.109   1.253   7.776 -0.1805 -0.6449  0.3664
 6147SOL    HW230075   1.101   1.357   7.679  0.4351  0.6067  1.5061
 6148SOL     OW30076   3.942   2.577   3.677 -0.2927 -0.2872  0.4131
 6148SOL    HW130077   3.939   2.672   3.675  0.4026 -0.2171  2.2441
 6148SOL    HW230078   4.021   2.571   3.623 -0.8983 -0.6468 -0.4337
 6149SOL     OW30079   2.778   0.331   0.952 -0.4503 -0.3349  0.0255
 6149SOL    HW130080   2.861   0.323   0.905 -1.0295  1.2600 -1.2571
 6149SOL    HW230081   2.761   0.425   0.959 -1.2092 -0.0487 -5.8793
 6150SOL     OW30082   2.165   3.970  14.078 -0.4224 -0.6550  0.4264
 6150SOL    HW130083   2.167   3.986  14.172 -1.0653  0.1725  0.2922
 6150SOL    HW230084   2.240   4.022  14.050 -0.0580 -0.8989  0.9478
 6151SOL     OW30085   4.135   3.633   3.374  0.6236  0.2215 -0.0955
 6151SOL    HW130086   4.089   3.645   3.457  2.9696 -0.1773  1.2550
 6151SOL    HW230087   4.064   3.618   3.311  0.9945 -0.9268 -0.2368
 6152SOL     OW30088   0.005   2.172   7.444  0.3050 -0.1508  0.6421
 6152SOL    HW130089   0.071   2.222   7.395 -0.1239  0.0968  0.3180
 6152SOL    HW230090   0.008   2.218   7.527 -0.3566 -2.2592  1.8338
 6153SOL     OW30091   4.091   2.694   6.993  0.4470 -0.1049  0.4450
 6153SOL    HW130092   4.060   2.605   7.011 -1.5316  0.2628 -1.1575
 6153SOL    HW230093   4.077   2.710   6.899  0.5717 -0.8558  0.2930
 6154SOL     OW30094   0.506   1.760   9.046  0.1110  0.2853  0.0518
 6154SOL    HW130095   0.588   1.807   9.033 -0.6610  1.8199  0.6532
 6154SOL    HW230096   0.502   1.759   9.142 -1.5574  0.2734 -0.0142
 6155SOL     OW30097   1.191   2.368  12.107 -0.1244 -0.2202  0.4065
 6155SOL    HW130098   1.189   2.352  12.013  0.8603  0.6002  0.2494
 6155SOL    HW230099   1.210   2.462  12.101  1.4455 -0.4197  2.3631
 6156SOL     OW30100   0.089   2.634   7.024 -0.4432 -0.2029 -0.2399
 6156SOL    HW130101   0.115   2.721   6.994  2.1721 -1.4460 -1.5502
 6156SOL    HW230102   0.008   2.666   7.065  0.9063  0.9434  1.5014
 6157SOL     OW30103   2.684   2.632   2.242 -0.4416 -0.4929 -0.0664
 6157SOL    HW130104   2.649   2.591   2.321  0.1313 -2.6114 -0.9215
 6157SOL    HW230105   2.641   2.717   2.252  1.8152  1.0086 -3.0860
 6158SOL     OW30106   4.102   2.705   8.391 -0.0289  0.0347 -0.4231
 6158SOL    HW130107   4.112   2.732   8.300  2.1596 -3.1274 -1.1463
 6158SOL    HW230108   4.128   2.785   8.437  0.6246  0.1843 -1.0464
 6159SOL     OW30109   1.082   4.550   8.084  0.2872  0.2977 -0.3414
 6159SOL    HW130110   1.165   4.504   8.090 -0.6848 -1.3082  0.7043
 6159SOL    HW230111   1.036   4.510   8.157  1.6149  1.7650  1.2866
 6160SOL     OW30112   1.895   3.543   4.827  0.2256  0.2524 -0.1324
 6160SOL    HW130113   1.810   3.531   4.784  0.5324  0.1066 -0.7020
 6160SOL    HW230114   1.912   3.626   4.781  0.2139  0.3797  0.0894
 6161SOL     OW30115   1.308   1.456  17.684 -0.3214  0.3573  0.5091
 6161SOL    HW130116   1.277   1.372  17.717  0.1764 -0.6156 -1.5161
 6161SOL    HW230117   1.324   1.505   0.017  0.3701 -2.4820  2.1238
 6162SOL     OW30118   4.261   2.916   2.855 -0.1274  0.0078  0.3750
 6162SOL    HW130119   4.265   2.875   2.768  0.6007  0.5797  0.1371
 6162SOL    HW230120   4.292   3.006   2.845 -0.0737 -0.5148 -4.1117
 6163SOL     OW30121   0.689   0.924   3.517  0.6062 -0.4897 -0.0735
 6163SOL    HW130122   0.755   0.953   3.455  0.8944 -0.3107  0.3175
 6163SOL    HW230123   0.695   0.989   3.587 -1.7681 -0.9735  0.5825
 6164SOL     OW30124   4.671   1.593   0.060  0.4652 -0.2803 -0.0577
 6164SOL    HW130125   4.733   1.562   0.127  0.9025 -1.6800 -1.0973
 6164SOL    HW230126   4.723   1.573  17.730  1.1335  0.7626  0.1191
 6165SOL     OW30127   0.923   1.977   6.571  0.3365 -0.0657 -0.3533
 6165SOL    HW130128   0.921   1.915   6.498  0.4728 -0.1684 -0.2686
 6165SOL    HW230129   0.838   1.960   6.611  0.3804 -2.1709 -1.1573
 6166SOL     OW30130   3.959   1.622   9.428  0.1021  0.9081 -0.2830
 6166SOL    HW130131   4.045   1.620   9.470 -0.5980 -0.8414  1.0467
 6166SOL    HW230132   3.949   1.528   9.412  0.6193  1.0311 -1.2779
 6167SOL     OW30133   0.141   3.753   5.959 -0.1227  0.1683  0.1390
 6167SOL    HW130134   0.175   3.741   5.870 -0.2256  0.2207  0.0934
 6167SOL    HW230135   0.225   3.786   5.993 -0.3696  0.7307  0.2066
 6168SOL     OW30136   0.440   3.543  12.126  0.0378 -0.0528  0.4222
 6168SOL    HW130137   0.502   3.472  12.142 -1.5212 -1.5734 -0.1765
 6168SOL    HW230138   0.479   3.580  12.047  0.5778  1.0087  1.1930
 6169SOL     OW30139   4.244   2.015   2.657  0.4517 -0.3687 -0.4159
 6169SOL    HW130140   4.158   2.053   2.671 -1.0387 -3.4138 -1.3912
 6169SOL    HW230141   4.304   2.090   2.658 -1.2191  0.9227  1.8912
 6170SOL     OW30142   2.473   2.595   7.786  0.2358  0.1259  0.1781
 6170SOL    HW130143   2.508   2.597   7.875  1.0721  0.1183 -0.1437
 6170SOL    HW230144   2.385   2.562   7.803 -0.2007  0.5382 -1.3030
 6171SOL     OW30145   1.022   1.050  13.227  0.4237  0.1694  0.1920
 6171SOL    HW130146   1.047   0.958  13.220 -2.2860 -0.5260 -0.3170
 6171SOL    HW230147   0.960   1.043  13.299  1.2667  1.9741  1.1083
 6172SOL     OW30148   3.817   4.436   3.075 -0.3539  0.1159  0.4784
 6172SOL    HW130149   3.907   4.426   3.109 -0.2292 -4.7056 -1.3067
 6172SOL    HW230150   3.787   4.506   3.133  0.5210  1.9213 -1.2620
 6173SOL     OW30151   3.140   1.663  13.040  0.2627  0.8394 -0.0239
 6173SOL    HW130152   3.065   1.652  13.098  1.9147 -1.7938  1.6230
 6173SOL    HW230153   3.096   1.657  12.956  2.1188 -2.1520 -0.7900
 6174SOL     OW30154   1.702   4.433   8.650  0.1068  0.0669 -0.0893
 6174SOL    HW130155   1.722   4.509   8.703  0.0761  0.6337 -0.8854
 6174SOL    HW230156   1.699   4.467   8.560 -0.3365  1.0349  0.3004
 6175SOL     OW30157   1.822   3.864   8.930  0.0641 -0.4639  0.0305
 6175SOL    HW130158   1.784   3.808   8.997  0.3380 -1.8752 -0.9950
 6175SOL    HW230159   1.780   3.950   8.939  2.4349  0.6226  0.7771
 6176SOL     OW30160   2.621   0.441  10.482 -1.0251 -0.2773  0.6444
 6176SOL    HW130161   2.540   0.422  10.528 -0.7796 -1.1050  0.7324
 6176SOL    HW230162   2.622   0.372  10.416  0.4003  0.2791  0.0829
 6177SOL     OW30163   1.835   0.521   6.514 -0.2712  0.4591  0.3295
 6177SOL    HW130164   1.857   0.429   6.494 -2.7007 -0.2813  1.1465
 6177SOL    HW230165   1.766   0.528   6.448  0.4885  1.1944 -0.3880
 6178SOL     OW30166   1.373   4.093   7.959 -0.0463  0.7626 -0.2644
 6178SOL    HW130167   1.316   4.016   7.965  0.2177  0.6257  0.5214
 6178SOL    HW230168   1.462   4.059   7.955 -0.3597 -0.0351 -0.5168
 6179SOL     OW30169   2.588   3.391   5.631 -0.2956 -0.2160  0.3582
 6179SOL    HW130170   2.632   3.366   5.712 -3.1488 -1.1061  1.6431
 6179SOL    HW230171   2.583   3.485   5.650 -1.1833  0.0601 -1.2770
 6180SOL     OW30172   0.893   2.935  17.186 -0.4151 -0.3959  0.5339
 6180SOL    HW130173   0.896   3.007  17.123  1.0647 -0.5093  0.4834
 6180SOL    HW230174   0.797   2.928  17.183 -0.3968 -0.4613 -0.0595
 6181SOL     OW30175   2.683   0.090   8.732  0.4809  0.3657  0.1082
 6181SOL    HW130176   2.643   0.004   8.719 -2.1106  1.3641  1.5204
 6181SOL    HW230177   2.609   0.129   8.778  1.2259  0.2279  1.4059
 6182SOL     OW30178   2.156   4.452  12.093 -0.5100 -0.2335 -0.2248
 6182SOL    HW130179   2.219   4.398  12.045 -0.9308 -0.6627 -0.2894
 6182SOL    HW230180   2.081   4.395  12.073 -1.4326  0.4046  1.4065
 6183SOL     OW30181   4.416   2.492  12.123 -0.3001 -0.6478  0.5019
 6183SOL    HW130182   4.452   2.404  12.133 -2.0946 -1.3683  0.6539
 6183SOL    HW230183   4.323   2.477  12.139 -0.5060  0.5541  0.3853
 6184SOL     OW30184   2.979   3.572   1.259 -0.0612  0.3044 -0.2624
 6184SOL    HW130185   2.958   3.506   1.325  1.8781 -0.8236 -0.7796
 6184SOL    HW230186   3.020   3.644   1.308  0.8965  0.8390 -1.8493
 6185SOL     OW30187   0.569   0.373   8.756  0.1294  0.7273 -0.4951
 6185SOL    HW130188   0.479   0.397   8.733 -0.6753 -2.0111 -0.2035
 6185SOL    HW230189   0.589   0.308   8.689  1.9798  0.8789 -0.0722
 6186SOL     OW30190   1.468   3.465   5.418  0.0393 -0.4392  0.0596
 6186SOL    HW130191   1.470   3.560   5.423  1.4457 -0.4776  0.1848
 6186SOL    HW230192   1.376   3.441   5.408 -0.4712  1.1167  1.0379
 6187SOL     OW30193   4.559   2.158  16.904  0.2290 -0.0640  0.0988
 6187SOL    HW130194   4.597   2.246  16.914 -2.1040  0.8472  0.8403
 6187SOL    HW230195   4.478   2.183  16.860  0.2197 -0.2058  0.0334
 6188SOL     OW30196   0.449   4.263   8.882 -0.1787  0.0993 -0.2359
 6188SOL    HW130197   0.508   4.209   8.933 -1.0154 -0.2368  0.3711
 6188SOL    HW230198   0.434   4.335   8.943 -0.1267  0.2694 -0.4231
 6189SOL     OW30199   3.679   3.354   1.772 -0.3430 -0.0641  0.1704
 6189SOL    HW130200   3.710   3.432   1.817 -1.2423 -0.1772  1.0108
 6189SOL    HW230201   3.677   3.391   1.684  0.0423 -2.2441 -0.7544
 6190SOL     OW30202   4.669   2.096   7.883  0.1271  0.1500 -0.0554
 6190SOL    HW130203   4.609   2.063   7.817  1.1059  1.6893 -1.7172
 6190SOL    HW230204   0.008   2.040   7.870 -0.3892  0.1340 -2.9817
 6191SOL     OW30205   2.902   0.105   4.721 -0.6366 -0.1437  0.2976
 6191SOL    HW130206   2.970   0.147   4.775 -1.6756  0.7527  0.9157
 6191SOL    HW230207   2.847   0.063   4.787  0.0116  0.4292  1.1915
 6192SOL     OW30208   0.970   4.339   8.400 -0.2171  0.0642  0.1740
 6192SOL    HW130209   1.051   4.302   8.366  0.8325 -1.0403  3.8720
 6192SOL    HW230210   0.909   4.265   8.406 -1.6612  1.2093 -0.4148
 6193SOL     OW30211   4.658   1.780   4.508  0.7427 -0.0440  0.1674
 6193SOL    HW130212   4.729   1.746   4.454  0.2110  1.7736 -1.6688
 6193SOL    HW230213   4.696   1.789   4.596  1.4795 -1.5196 -0.0067
 6194SOL     OW30214   1.641   0.406   5.617  0.1143  0.3514  0.4340
 6194SOL    HW130215   1.573   0.428   5.554  0.4729  0.5899  0.1252
 6194SOL    HW230216   1.665   0.494   5.646 -0.0350  0.5594 -0.0647
 6195SOL     OW30217   0.222   1.108  14.942  0.0308 -0.5202 -0.0832
 6195SOL    HW130218   0.157   1.151  14.997  1.6822 -0.4621  1.8084
 6195SOL    HW230219   0.292   1.128  15.005 -0.4176  1.8690 -0.3483
 6196SOL     OW30220   0.561   3.304   3.036  0.1132 -0.2366  0.0459
 6196SOL    HW130221   0.599   3.380   3.080  2.5718 -1.6976  0.4637
 6196SOL    HW230222   0.474   3.300   3.075 -0.5251  1.5664 -1.2019
 6197SOL     OW30223   4.175   0.365   9.669 -0.1184 -0.5097  0.1037
 6197SOL    HW130224   4.120   0.389   9.743  0.7779  0.0622  0.5955
 6197SOL    HW230225   4.146   0.275   9.659  0.2009 -0.6654  0.6152
 6198SOL     OW30226   0.580   4.143   2.882  0.4050  0.2049 -0.2541
 6198SOL    HW130227   0.508   4.099   2.836  0.4947 -0.5446  0.3167
 6198SOL    HW230228   0.539   4.151   2.968  2.0843 -0.8871  0.6498
 6199SOL     OW30229   0.571   0.324   2.225  0.5477 -0.0778  0.4176
 6199SOL    HW130230   0.512   0.256   2.192  0.7138 -0.0165 -0.0077
 6199SOL    HW230231   0.630   0.270   2.278 -0.9422  1.0245  3.2025
 6200SOL     OW30232   2.723   0.366   3.230  0.1718 -0.2372  0.2283
 6200SOL    HW130233   2.755   0.420   3.302  2.7194 -0.3650 -0.8130
 6200SOL    HW230234   2.802   0.331   3.189 -0.4650 -0.3786 -0.8742
 6201SOL     OW30235   1.370   4.383   8.941 -0.1748 -0.1691 -0.1556
 6201SOL    HW130236   1.309   4.325   8.987  1.8136 -2.2596 -0.1964
 6201SOL    HW230237   1.402   4.429   9.019 -2.9105  3.2233 -1.0107
 6202SOL     OW30238   2.210   0.609  10.745 -0.1728  0.4772 -0.4343
 6202SOL    HW130239   2.261   0.571  10.673  0.5106  1.0230 -0.2356
 6202SOL    HW230240   2.215   0.700  10.716  0.6435  0.1888 -1.2117
 6203SOL     OW30241   3.429   3.599  16.387  0.3899  0.2169  0.0951
 6203SOL    HW130242   3.363   3.663  16.415 -1.0315  0.2446 -3.3238
 6203SOL    HW230243   3.397   3.526  16.439  1.6007 -0.8401 -0.6555
 6204SOL     OW30244   1.349   4.567   7.395 -0.9600  0.2437  0.2405
 6204SOL    HW130245   1.263   4.597   7.366 -1.5212 -2.1864 -0.6256
 6204SOL    HW230246   1.373   4.635   7.457 -0.6124  0.6396 -0.3329
 6205SOL     OW30247   0.494   4.209  11.588  0.0080  0.0668  0.4429
 6205SOL    HW130248   0.568   4.157  11.619  0.8131 -0.0286 -1.6650
 6205SOL    HW230249   0.515   4.298  11.619 -0.0012  0.7495 -1.5227
 6206SOL     OW30250   2.106   4.551  16.825  0.0288  0.0673 -0.3522
 6206SOL    HW130251   2.102   4.566  16.920  2.2466  0.4889 -0.3190
 6206SOL    HW230252   2.091   4.641  16.796 -0.7303  0.4946  1.3766
 6207SOL     OW30253   4.723   4.531   1.985 -0.3404 -0.3156 -0.0961
 6207SOL    HW130254   0.001   4.528   1.890 -3.7537 -1.4285 -0.6114
 6207SOL    HW230255   4.638   4.489   1.998 -0.4138 -0.2788 -0.4429
 6208SOL     OW30256   4.015   2.032   7.415 -0.5490 -0.0881  0.6597
 6208SOL    HW130257   3.992   1.981   7.493 -1.8412 -0.5575 -0.0245
 6208SOL    HW230258   3.998   1.975   7.340 -0.3714  1.0705 -0.2608
 6209SOL     OW30259   4.072   1.446   2.302  0.1580  0.0015  1.1662
 6209SOL    HW130260   4.166   1.433   2.318  0.0833 -0.9503  0.8564
 6209SOL    HW230261   4.053   1.384   2.232  1.7540 -1.5204  2.0491
 6210SOL     OW30262   1.677   0.334  16.093  0.0018 -0.1553 -0.4246
 6210SOL    HW130263   1.645   0.418  16.127 -1.5814 -1.4622  1.2523
 6210SOL    HW230264   1.762   0.316  16.135  0.2485  0.2283 -0.7597
 6211SOL     OW30265   1.402   3.360   7.978  0.1016  0.3087 -0.4086
 6211SOL    HW130266   1.415   3.438   8.032 -1.5886 -0.1607  0.6545
 6211SOL    HW230267   1.357   3.315   8.049  2.2626 -0.5518  0.4215
 6212SOL     OW30268   1.544   4.600   9.641  0.0836  0.0412 -0.1919
 6212SOL    HW130269   1.609   4.549   9.689 -0.2668  0.1408  0.3876
 6212SOL    HW230270   1.588   4.685   9.633  0.0829 -0.0614 -1.2951
 6213SOL     OW30271   0.583   3.227   4.126  0.2662 -0.4658  0.2166
 6213SOL    HW130272   0.665   3.271   4.103  0.7617 -2.8678 -2.6323
 6213SOL    HW230273   0.522   3.294   4.098  1.8223  0.3896 -1.1242
 6214SOL     OW30274   3.813   0.728   7.155  0.3176  0.7529  0.5392
 6214SOL    HW130275   3.754   0.653   7.165  2.0175 -0.4249  1.9409
 6214SOL    HW230276   3.806   0.774   7.239 -2.0642 -0.8185  1.2206
 6215SOL     OW30277   0.979   4.511   0.121 -0.4809 -0.1320  0.6059
 6215SOL    HW130278   0.918   4.582   0.144 -1.4599 -0.1072 -2.0433
 6215SOL    HW230279   0.994   4.463   0.202 -2.2533  0.4244  1.2642
 6216SOL     OW30280   0.650   3.407   7.636 -0.0239  0.1620  0.0480
 6216SOL    HW130281   0.676   3.469   7.703  2.3749  0.3195 -1.0275
 6216SOL    HW230282   0.735   3.377   7.604  0.3637 -1.1447  2.2656
 6217SOL     OW30283   1.231   2.833   0.932 -0.1620  0.7840 -0.1723
 6217SOL    HW130284   1.170   2.839   0.858 -0.2634 -1.6470 -0.3060
 6217SOL    HW230285   1.309   2.877   0.898  0.4423 -1.1211 -1.3084
 6218SOL     OW30286   4.500   1.258   6.015 -0.0889  0.2987  0.0659
 6218SOL    HW130287   4.427   1.307   5.977 -0.8375 -0.6886  0.2199
 6218SOL    HW230288   4.462   1.235   6.101 -0.4877 -0.9516 -0.4423
 6219SOL     OW30289   1.254   0.673   4.719 -0.3101 -0.1828 -0.1078
 6219SOL    HW130290   1.169   0.629   4.717 -0.0203 -0.6647 -1.6692
 6219SOL    HW230291   1.295   0.606   4.773  1.2433  0.4975 -0.4331
 6220SOL     OW30292   2.674   2.494   5.738 -0.0806  0.5701  0.3580
 6220SOL    HW130293   2.739   2.470   5.673  0.8278 -0.6089  1.7080
 6220SOL    HW230294   2.714   2.567   5.785  1.7279 -0.0647 -0.2153
 6221SOL     OW30295   3.634   1.133   1.529 -0.0549  0.0457  0.2469
 6221SOL    HW130296   3.556   1.184   1.506 -0.0658 -0.1796 -0.2186
 6221SOL    HW230297   3.683   1.123   1.448 -2.4853 -1.3028 -1.0584
 6222SOL     OW30298   1.768   1.338   8.708 -0.0404  0.0390 -0.7850
 6222SOL    HW130299   1.856   1.301   8.716 -0.2991  0.2254  2.5910
 6222SOL    HW230300   1.796   1.428   8.693  2.5724 -0.6872 -0.2980
 6223SOL     OW30301   2.632   3.863   6.191  0.2598  0.5142  0.1138
 6223SOL    HW130302   2.623   3.936   6.130  0.7832 -1.0966 -1.8803
 6223SOL    HW230303   2.721   3.839   6.164  0.5541  1.5347  0.1647
 6224SOL     OW30304   3.127   4.238   5.106  0.2762 -0.0894  0.2830
 6224SOL    HW130305   3.205   4.236   5.051 -0.6480  2.4183 -1.1235
 6224SOL    HW230306   3.065   4.263   5.038 -2.0107  2.2242  3.2398
 6225SOL     OW30307   2.307   3.198  13.637  0.2777  0.0764 -0.0195
 6225SOL    HW130308   2.278   3.239  13.556 -1.6563 -0.4893  0.3948
 6225SOL    HW230309   2.339   3.280  13.676 -1.7036  0.7739  0.1374
 6226SOL     OW30310   1.177   3.788   5.673 -0.5762 -0.1458 -0.0872
 6226SOL    HW130311   1.109   3.845   5.709  0.8435 -0.4480  3.1252
 6226SOL    HW230312   1.172   3.712   5.731 -0.9758  1.5514  2.0980
 6227SOL     OW30313   4.227   0.421   1.729 -0.6194 -0.2247 -0.1761
 6227SOL    HW130314   4.272   0.431   1.812  0.3977 -0.8312 -0.6636
 6227SOL    HW230315   4.267   0.342   1.693  1.4408  0.3610  0.8410
 6228SOL     OW30316   3.027   1.587   7.428  0.5661 -0.1107  0.0785
 6228SOL    HW130317   3.055   1.497   7.409 -2.0880 -1.0460  0.5600
 6228SOL    HW230318   2.935   1.563   7.410  0.5513  0.2098 -0.2665
 6229SOL     OW30319   4.246   1.022   6.044 -0.1464  0.0649 -0.2888
 6229SOL    HW130320   4.152   1.034   6.060 -0.2451 -0.4615 -0.4621
 6229SOL    HW230321   4.284   1.068   6.118 -1.4024 -0.5384  0.7393
 6230SOL     OW30322   3.278   2.196   5.744 -0.0714  0.5517 -0.0887
 6230SOL    HW130323   3.297   2.247   5.823 -2.8891 -1.3989  1.8276
 6230SOL    HW230324   3.257   2.110   5.779 -1.1685  0.7367 -0.3128
 6231SOL     OW30325   0.883   4.544   9.377 -0.1954 -0.0913 -0.9813
 6231SOL    HW130326   0.831   4.510   9.450  0.7120 -0.9847 -0.7665
 6231SOL    HW230327   0.933   4.616   9.416 -0.7583  0.2388 -0.8636
 6232SOL     OW30328   0.478   2.414  12.177  0.0335 -0.1320 -0.0213
 6232SOL    HW130329   0.500   2.325  12.151 -0.3569 -0.4526  0.7594
 6232SOL    HW230330   0.384   2.406  12.193  0.1396 -2.2834 -0.5343
 6233SOL     OW30331   1.550   3.238   2.250 -0.0439  0.1619 -0.5874
 6233SOL    HW130332   1.624   3.200   2.202  2.5489  1.5582  2.3405
 6233SOL    HW230333   1.479   3.181   2.220  0.4687  0.1161 -1.7561
 6234SOL     OW30334   0.829   3.506   9.449 -0.0011 -0.2475  0.2823
 6234SOL    HW130335   0.834   3.461   9.534 -1.7440 -0.1127  0.4640
 6234SOL    HW230336   0.812   3.427   9.397 -2.4557  2.3061 -2.8107
 6235SOL     OW30337   2.653   3.519   4.575  0.0723  0.3715  0.1747
 6235SOL    HW130338   2.694   3.592   4.529 -0.8304  1.2903  0.8143
 6235SOL    HW230339   2.696   3.438   4.549 -1.8056 -0.0051 -1.7530
 6236SOL     OW30340   4.373   4.639  10.206  0.0760 -0.5049 -0.0027
 6236SOL    HW130341   4.392   4.657  10.114 -0.1168 -3.2363 -0.5918
 6236SOL    HW230342   4.309   4.706  10.227  0.0951 -0.2580 -0.7211
 6237SOL     OW30343   2.155   3.532   1.821 -0.5132  0.5341 -0.2196
 6237SOL    HW130344   2.199   3.612   1.790 -1.6542  1.1088 -0.3487
 6237SOL    HW230345   2.196   3.529   1.908  1.5425  2.6225 -1.1118
 6238SOL     OW30346   1.390   3.522   3.774  0.0266 -0.4073  0.0255
 6238SOL    HW130347   1.447   3.469   3.829  1.1922  0.0304 -0.7526
 6238SOL    HW230348   1.415   3.612   3.798  0.2415 -0.8050  1.2743
 6239SOL     OW30349   3.736   1.159   2.429  0.0563 -0.2314  0.6299
 6239SOL    HW130350   3.713   1.080   2.478 -0.9705 -0.9944 -1.1037
 6239SOL    HW230351   3.785   1.123   2.355 -1.3293 -0.2311 -0.2938
 6240SOL     OW30352   0.962   0.419  16.523  0.3801 -0.1198  0.3157
 6240SOL    HW130353   0.990   0.509  16.538 -1.9844  0.7880 -0.6196
 6240SOL    HW230354   0.983   0.416  16.430  2.7761  0.5447  0.8469
 6241SOL     OW30355   3.981   0.794  12.775  0.4897  0.1973 -0.1013
 6241SOL    HW130356   4.068   0.757  12.762  0.2497  0.0324 -1.2226
 6241SOL    HW230357   3.931   0.713  12.786 -0.1443  0.9088  2.1318
 6242SOL     OW30358   2.202   3.035   5.797 -0.2612 -0.0720 -0.7197
 6242SOL    HW130359   2.252   3.115   5.810 -0.7592  0.2193 -0.6316
 6242SOL    HW230360   2.268   2.970   5.770 -0.9311 -0.3593 -1.6673
 6243SOL     OW30361   2.954   1.864   1.659 -0.1268 -0.3887 -0.4459
 6243SOL    HW130362   2.922   1.950   1.684  3.8348  0.2591  2.4049
 6243SOL    HW230363   2.976   1.844   1.750  0.3752 -0.4150 -0.5720
 6244SOL     OW30364   0.434   0.821   3.564 -0.5773 -0.4460 -0.2743
 6244SOL    HW130365   0.375   0.896   3.562  0.9691  0.8156  2.6665
 6244SOL    HW230366   0.513   0.871   3.544 -0.7979 -0.5723 -1.4791
 6245SOL     OW30367   0.061   2.157   0.425  0.2757  0.2232  0.0468
 6245SOL    HW130368   4.730   2.211   0.386 -1.3589 -0.7276  1.5535
 6245SOL    HW230369   0.024   2.161   0.514 -0.7759  1.1263 -0.4277
 6246SOL     OW30370   2.753   3.295  12.098 -0.0938 -0.4701 -0.0671
 6246SOL    HW130371   2.796   3.379  12.079  1.4200 -1.4294 -0.8341
 6246SOL    HW230372   2.663   3.326  12.085  1.3894  2.2184 -4.1469
 6247SOL     OW30373   2.994   3.466   5.743  0.8259  0.2332  0.2845
 6247SOL    HW130374   3.018   3.559   5.753  2.0030 -0.3272  2.7246
 6247SOL    HW230375   3.005   3.442   5.835  1.5663  0.0130  0.1425
 6248SOL     OW30376   3.305   1.661   9.043 -0.4082  0.4371 -0.1806
 6248SOL    HW130377   3.244   1.603   9.089 -1.0821  0.6411 -0.8257
 6248SOL    HW230378   3.324   1.621   8.958  2.3512  0.3754  0.4636
 6249SOL     OW30379   1.565   0.312   9.046 -1.0381 -0.4193  0.0717
 6249SOL    HW130380   1.569   0.346   8.956 -1.9290  0.8111  0.5016
 6249SOL    HW230381   1.637   0.362   9.085 -0.7281 -0.0776 -0.9210
 6250SOL     OW30382   3.026   2.691   3.427 -0.5917 -0.0254  0.2661
 6250SOL    HW130383   3.047   2.647   3.510  0.6025  0.5291  0.2584
 6250SOL    HW230384   2.933   2.669   3.419 -1.0395  1.2745  1.7996
 6251SOL     OW30385   0.715   1.107   7.421  0.3582  0.1151  0.2005
 6251SOL    HW130386   0.724   1.202   7.413 -0.9997  0.3497  1.4909
 6251SOL    HW230387   0.781   1.092   7.488  0.9529  0.6339 -0.2671
 6252SOL     OW30388   1.434   4.434   7.716 -0.1703 -0.2689  0.0239
 6252SOL    HW130389   1.390   4.509   7.756  0.7596  0.3448 -0.0930
 6252SOL    HW230390   1.524   4.468   7.715 -1.2423  2.5337 -2.8568
 6253SOL     OW30391   1.648   1.127  16.410 -0.0119 -0.2211 -0.2303
 6253SOL    HW130392   1.681   1.119  16.500  2.2276  1.2950 -0.9236
 6253SOL    HW230393   1.553   1.131  16.425  0.0778  1.3889 -0.0328
 6254SOL     OW30394   0.253   2.566   7.790 -0.1170 -0.2405 -0.0631
 6254SOL    HW130395   0.282   2.510   7.862 -0.8576  1.9507  1.9697
 6254SOL    HW230396   0.212   2.630   7.849  1.9913  0.5137  0.5671
 6255SOL     OW30397   3.328   0.415  13.430 -0.3912  0.0428 -0.0451
 6255SOL    HW130398   3.349   0.509  13.428 -1.2893  0.2302 -0.7676
 6255SOL    HW230399   3.387   0.380  13.362  1.0192 -0.1420  1.2746
 6256SOL     OW30400   1.279   2.409  13.528 -0.2893  0.1118  0.3290
 6256SOL    HW130401   1.236   2.494  13.523 -0.0302  0.1280 -1.5630
 6256SOL    HW230402   1.286   2.413  13.624 -1.7161 -1.5279  0.4880
 6257SOL     OW30403   2.229   2.820  14.443  0.7186  0.0972 -0.1848
 6257SOL    HW130404   2.144   2.848  14.476  0.9632  1.9767 -1.1331
 6257SOL    HW230405   2.239   2.870  14.362 -2.6949  0.2321 -0.5042
 6258SOL     OW30406   2.168   1.756   7.883  0.0940  0.0063 -0.1484
 6258SOL    HW130407   2.159   1.661   7.868  3.5959 -0.6901  2.2337
 6258SOL    HW230408   2.165   1.771   7.977  3.5221  2.4728 -0.4578
 6259SOL     OW30409   0.985   0.574   4.751  0.3325 -0.1306  0.0411
 6259SOL    HW130410   0.907   0.527   4.721 -1.7743  2.8221  0.9765
 6259SOL    HW230411   0.939   0.648   4.791  1.4932 -0.0157  1.1865
 6260SOL     OW30412   2.629   3.967   6.888 -0.3155 -0.4515 -0.3396
 6260SOL    HW130413   2.723   3.957   6.873 -0.0883 -0.3191  0.9607
 6260SOL    HW230414   2.627   4.020   6.968  0.0680  0.3497 -0.8656
 6261SOL     OW30415   0.408   0.744   2.382  0.2295  0.6939 -0.4283
 6261SOL    HW130416   0.413   0.753   2.477  1.2430 -3.1708 -0.1393
 6261SOL    HW230417   0.481   0.799   2.351 -1.2802  3.4635  0.9047
 6262SOL     OW30418   3.544   0.769   4.391  0.4410  0.2015 -0.4561
 6262SOL    HW130419   3.559   0.804   4.479 -0.3329  0.1097 -0.2798
 6262SOL    HW230420   3.449   0.760   4.384  0.2933  2.2821 -1.0385
 6263SOL     OW30421   0.225   1.058   3.146 -0.3340  0.1258  0.2615
 6263SOL    HW130422   0.260   0.970   3.160  0.1674  0.3792  0.5870
 6263SOL    HW230423   0.238   1.094   3.234  2.8896  1.5330 -0.8155
 6264SOL     OW30424   1.269   2.653   3.038 -0.4792  0.1354 -0.0223
 6264SOL    HW130425   1.187   2.612   3.011 -0.1008 -0.1365 -0.7719
 6264SOL    HW230426   1.290   2.695   2.954 -1.1094 -1.4781 -0.9966
 6265SOL     OW30427   0.319   3.661   4.578  0.2327 -0.4263  0.4422
 6265SOL    HW130428   0.247   3.622   4.628 -1.0622 -0.2423 -1.3055
 6265SOL    HW230429   0.385   3.598   4.608 -0.9324 -0.3588  3.2355
 6266SOL     OW30430   2.408   0.895   3.101 -0.1231 -0.4220 -0.3110
 6266SOL    HW130431   2.493   0.921   3.064  0.3242 -1.9599 -0.3371
 6266SOL    HW230432   2.433   0.822   3.158  0.7620 -0.5416 -0.8456
 6267SOL     OW30433   0.854   4.436   3.961 -0.1439 -0.3820 -0.1523
 6267SOL    HW130434   0.827   4.494   4.031  0.7269 -0.7703  0.5066
 6267SOL    HW230435   0.917   4.389   4.015  0.9533  1.0200 -0.2296
 6268SOL     OW30436   1.787   1.084   5.224 -0.3118  0.5714 -0.9318
 6268SOL    HW130437   1.782   1.026   5.148  0.7942 -2.3689  1.2279
 6268SOL    HW230438   1.724   1.154   5.206 -3.0800 -1.6736  0.0017
 6269SOL     OW30439   0.899   4.278   1.757  0.9720 -0.5750 -0.3618
 6269SOL    HW130440   0.851   4.240   1.682 -1.3262  2.5166 -0.4672
 6269SOL    HW230441   0.937   4.354   1.712 -0.3296 -0.3644 -1.1201
 6270SOL     OW30442   1.834   3.924   3.437 -0.2243 -0.3177 -0.1931
 6270SOL    HW130443   1.880   3.948   3.356  1.6067  0.1527  0.9779
 6270SOL    HW230444   1.919   3.918   3.481 -0.0152  0.6829 -0.4404
 6271SOL     OW30445   0.853   3.614   9.192 -0.4760 -0.3513  0.1892
 6271SOL    HW130446   0.858   3.623   9.288 -1.4923 -0.4471  0.2576
 6271SOL    HW230447   0.767   3.574   9.180 -0.5669 -0.6814  1.9181
 6272SOL     OW30448   4.003   3.754  13.270 -0.2197  0.7046 -0.3599
 6272SOL    HW130449   3.957   3.692  13.326  1.4617  0.9125  1.2461
 6272SOL    HW230450   3.952   3.755  13.189 -0.8227  2.3721  0.0378
 6273SOL     OW30451   2.231   2.819   7.953 -0.2304  0.0278  0.0751
 6273SOL    HW130452   2.233   2.751   7.886  1.2741  0.5202 -0.3878
 6273SOL    HW230453   2.321   2.840   7.977 -0.6761 -0.4954  2.2812
 6274SOL     OW30454   2.686   2.087   5.769 -0.0982 -0.2925  0.0809
 6274SOL    HW130455   2.721   2.163   5.722  0.6921 -1.6799 -1.5759
 6274SOL    HW230456   2.761   2.081   5.828  0.0433  0.4761 -0.0172
 6275SOL     OW30457   0.599   1.857  16.231 -0.0545 -0.5298  0.2099
 6275SOL    HW130458   0.678   1.803  16.236  0.2902  0.0009  0.6404
 6275SOL    HW230459   0.633   1.946  16.243 -0.3192 -0.4884  0.6658
 6276SOL     OW30460   2.435   4.448   6.680  0.0545  0.0997 -0.1567
 6276SOL    HW130461   2.361   4.509   6.688  1.3303  1.1138  3.6213
 6276SOL    HW230462   2.395   4.375   6.633  0.8765  1.2195 -2.6213
 6277SOL     OW30463   1.201   1.357  17.209  0.4230  0.5705  0.1220
 6277SOL    HW130464   1.193   1.300  17.285  1.1476 -0.1560 -0.3458
 6277SOL    HW230465   1.157   1.302  17.144 -1.3441  0.8123  1.1113
 6278SOL     OW30466   0.892   2.282   7.782  0.1119 -0.2276  0.4844
 6278SOL    HW130467   0.821   2.343   7.759  0.5502  0.3643  0.6890
 6278SOL    HW230468   0.960   2.339   7.819  1.0455  0.8832 -2.9619
 6279SOL     OW30469   3.398   2.462   0.708 -0.1876  0.1885  0.5952
 6279SOL    HW130470   3.309   2.489   0.729 -0.1264  0.8776 -0.0294
 6279SOL    HW230471   3.378   2.371   0.687 -0.9529  0.1267  1.6121
 6280SOL     OW30472   1.639   0.047   3.032  0.9951 -0.1716 -0.0690
 6280SOL    HW130473   1.723   0.001   3.024  0.6559 -1.3998  3.6178
 6280SOL    HW230474   1.590   4.703   3.046  2.4666 -1.2295 -1.0084
 6281SOL     OW30475   0.748   1.582   2.508 -0.8813  0.0646 -0.1063
 6281SOL    HW130476   0.748   1.677   2.497 -1.6053 -0.1306 -1.8306
 6281SOL    HW230477   0.814   1.566   2.575 -0.0931 -0.2723 -0.9627
 6282SOL     OW30478   3.330   0.717   7.116  0.0206 -0.2046  1.1436
 6282SOL    HW130479   3.298   0.778   7.049  2.3377 -0.5767 -0.2672
 6282SOL    HW230480   3.382   0.771   7.176 -0.5540  0.3289  1.1604
 6283SOL     OW30481   0.830   1.668   4.828  0.3277  0.5211 -0.1906
 6283SOL    HW130482   0.832   1.690   4.921 -2.3525  1.3351 -0.3472
 6283SOL    HW230483   0.740   1.636   4.820  1.0316 -0.9552 -2.0861
 6284SOL     OW30484   2.232   0.425   8.973 -0.2385  0.0193  0.3213
 6284SOL    HW130485   2.312   0.410   9.023  0.8025 -0.0158 -1.3622
 6284SOL    HW230486   2.260   0.405   8.884 -0.9574 -1.1039  0.3562
 6285SOL     OW30487   0.137   0.438   1.163  0.0176 -0.4169  0.4487
 6285SOL    HW130488   0.195   0.387   1.219  0.1907  3.7074  3.9713
 6285SOL    HW230489   0.055   0.406   1.200  0.0490 -0.7682  0.2223
 6286SOL     OW30490   4.671   1.495   5.810  0.4331  0.1032  0.1401
 6286SOL    HW130491   4.589   1.456   5.842 -1.2565  1.2749 -2.7081
 6286SOL    HW230492   4.734   1.477   5.879  2.5501  1.2012 -1.5259
 6287SOL     OW30493   0.879   2.760   1.458 -0.0684 -0.3986  0.0282
 6287SOL    HW130494   0.968   2.784   1.433 -0.0093 -1.3874 -0.7080
 6287SOL    HW230495   0.876   2.683   1.401 -0.3756 -0.4788  0.1517
 6288SOL     OW30496   3.714   0.840   5.002  0.3237  0.1622 -0.5173
 6288SOL    HW130497   3.703   0.844   5.097  1.8413 -3.9992 -0.1350
 6288SOL    HW230498   3.629   0.813   4.968 -0.4112 -0.4223  1.7676
 6289SOL     OW30499   1.138   2.064   3.763 -0.3424  0.3575  0.7097
 6289SOL    HW130500   1.140   2.160   3.770  0.0501  0.4256 -0.3894
 6289SOL    HW230501   1.063   2.053   3.705  0.4094 -0.6652 -0.0668
 6290SOL     OW30502   3.198   3.830   8.567 -0.4963  0.1494 -0.4613
 6290SOL    HW130503   3.206   3.863   8.478 -0.0826  2.1534  0.3246
 6290SOL    HW230504   3.255   3.889   8.615  1.7327 -2.1101 -0.3386
 6291SOL     OW30505   0.000   2.756   8.988  0.3625 -0.0869  0.3819
 6291SOL    HW130506   4.650   2.770   8.953  0.2981  1.3510  1.1342
 6291SOL    HW230507   0.048   2.706   8.922  1.6509 -0.0548  1.2947
 6292SOL     OW30508   1.895   1.487   4.697 -0.2550 -0.0308 -0.1103
 6292SOL    HW130509   1.981   1.459   4.668 -0.7610  0.1943 -1.8145
 6292SOL    HW230510   1.900   1.581   4.680 -1.6842  0.1403  0.3628
 6293SOL     OW30511   2.958   3.834  13.134  0.0126 -0.1984 -0.3611
 6293SOL    HW130512   3.015   3.775  13.183  0.0576 -1.1632 -1.5701
 6293SOL    HW230513   3.022   3.884  13.083  1.2911 -0.5768  0.8800
 6294SOL     OW30514   1.998   2.264  13.393 -0.0927 -0.2623  0.0771
 6294SOL    HW130515   1.996   2.351  13.432  2.2296  0.0079 -0.4302
 6294SOL    HW230516   2.044   2.214  13.460 -0.3127 -0.2259  0.2564
 6295SOL     OW30517   2.466   1.692  17.527 -0.1827 -0.3658  0.1009
 6295SOL    HW130518   2.414   1.629  17.477 -1.7440  2.2937 -1.6122
 6295SOL    HW230519   2.494   1.759  17.464  5.2268 -1.9287  0.8081
 6296SOL     OW30520   0.130   2.536   5.600 -0.4428  0.8950 -0.1951
 6296SOL    HW130521   0.199   2.482   5.561 -1.1768  0.5491 -1.0279
 6296SOL    HW230522   0.062   2.470   5.617  0.0071 -0.0822 -2.1598
 6297SOL     OW30523   0.978   1.166   7.256 -0.0052 -0.3104  0.3822
 6297SOL    HW130524   0.968   1.258   7.280  1.3657  0.0831 -0.5449
 6297SOL    HW230525   1.057   1.151   7.308 -0.1081 -0.0876  0.5995
 6298SOL     OW30526   1.777   4.077  17.021 -0.1900 -0.4814  0.0011
 6298SOL    HW130527   1.757   4.157  17.070  0.5709  0.3276 -1.0167
 6298SOL    HW230528   1.859   4.046  17.060 -1.3045  0.4410  3.0589
 6299SOL     OW30529   1.514   2.531   4.700 -0.1308 -0.4155  0.0446
 6299SOL    HW130530   1.503   2.551   4.793 -0.1422  0.0764 -0.0626
 6299SOL    HW230531   1.541   2.439   4.698  1.0186 -0.1245  2.0803
 6300SOL     OW30532   4.041   0.976  17.164 -0.0427  0.2173  0.4772
 6300SOL    HW130533   4.105   0.906  17.152 -1.2535 -0.5899 -1.2296
 6300SOL    HW230534   4.093   1.055  17.154 -0.3478  0.4071  0.3887
 6301SOL     OW30535   0.267   2.316   7.295  0.5054 -0.1873 -0.0400
 6301SOL    HW130536   0.295   2.389   7.240  1.1106 -2.2342 -2.4394
 6301SOL    HW230537   0.276   2.359   7.380 -0.3319 -1.2429  0.5817
 6302SOL     OW30538   3.801   1.519  17.043  0.5322  0.6022 -0.4219
 6302SOL    HW130539   3.847   1.550  17.121 -0.0776 -2.9360  1.3564
 6302SOL    HW230540   3.730   1.469  17.082  1.6415 -0.2496  0.5205
 6303SOL     OW30541   2.717   2.341   5.214 -0.5303 -0.4916  0.3156
 6303SOL    HW130542   2.704   2.362   5.307 -1.7567  0.3820 -0.0673
 6303SOL    HW230543   2.684   2.251   5.205  0.1124 -0.7000  0.0445
 6304SOL     OW30544   1.531   4.455  12.513  0.0865  0.1201  0.7233
 6304SOL    HW130545   1.573   4.432  12.596  1.4205 -0.2504 -0.0576
 6304SOL    HW230546   1.602   4.483  12.455  0.7907 -1.0829  0.9938
 6305SOL     OW30547   4.549   4.212   7.902 -0.2355 -0.7140  0.2829
 6305SOL    HW130548   4.594   4.137   7.864  0.1620 -0.3696  0.0705
 6305SOL    HW230549   4.596   4.221   7.985  1.7845 -0.4980 -0.8725
 6306SOL     OW30550   1.016   0.674   6.862 -0.4361  0.5046  0.0346
 6306SOL    HW130551   1.107   0.697   6.883 -0.0564 -0.5713 -0.4476
 6306SOL    HW230552   0.972   0.752   6.896 -0.9956 -0.5676  1.7576
 6307SOL     OW30553   4.511   1.157   7.379  0.2828 -0.0087  0.3183
 6307SOL    HW130554   4.579   1.100   7.343  1.2586  1.6080 -0.4017
 6307SOL    HW230555   4.488   1.208   7.301  0.5901 -0.5433 -0.1227
 6308SOL     OW30556   0.105   2.638  10.405 -0.4137  0.0491 -0.0429
 6308SOL    HW130557   0.129   2.651  10.313 -1.8749  1.5513 -0.2204
 6308SOL    HW230558   0.170   2.691  10.451  0.5090  0.7804 -2.1977
 6309SOL     OW30559   3.444   2.237  16.856  0.3255 -0.5051  0.0084
 6309SOL    HW130560   3.456   2.332  16.855  1.1064 -0.6277 -1.3856
 6309SOL    HW230561   3.358   2.232  16.814 -0.0587  1.4416  0.5546
 6310SOL     OW30562   0.462   3.691   3.363 -0.2108 -0.1540  0.2497
 6310SOL    HW130563   0.439   3.735   3.281  1.0808 -0.5194 -0.3044
 6310SOL    HW230564   0.392   3.626   3.367  0.0554 -0.6112 -2.2317
 6311SOL     OW30565   2.353   2.070   4.917 -0.0298  0.3134 -0.1449
 6311SOL    HW130566   2.368   2.117   4.999 -0.4698  1.0775 -0.5096
 6311SOL    HW230567   2.374   2.132   4.848  0.0621  1.8709  1.2950
 6312SOL     OW30568   2.562   3.906   8.462 -0.3237  0.6113 -0.1204
 6312SOL    HW130569   2.504   3.910   8.386 -0.1732  0.6760 -0.2322
 6312SOL    HW230570   2.528   3.979   8.513  1.3238  2.2549 -1.3702
 6313SOL     OW30571   0.819   1.728   3.067  0.0993 -0.3490 -0.2859
 6313SOL    HW130572   0.809   1.634   3.054  0.3907 -0.3859 -0.2360
 6313SOL    HW230573   0.818   1.735   3.163 -1.2350  2.0608 -0.4690
 6314SOL     OW30574   3.483   4.046  15.897 -0.4306  0.0003 -0.5229
 6314SOL    HW130575   3.460   4.134  15.868 -0.4586  0.0056 -0.4848
 6314SOL    HW230576   3.400   4.017  15.936 -0.4660 -0.9652 -1.3258
 6315SOL     OW30577   3.692   2.518   3.798 -0.1226  0.6651 -0.0487
 6315SOL    HW130578   3.673   2.473   3.716  0.0177  1.0388 -0.2910
 6315SOL    HW230579   3.781   2.551   3.785  0.9022 -2.5240 -1.0497
 6316SOL     OW30580   2.217   2.061   2.625 -0.0498  0.0149  0.1390
 6316SOL    HW130581   2.273   2.054   2.547 -1.0508 -1.8645 -0.4266
 6316SOL    HW230582   2.225   2.152   2.651 -2.3210  0.7861 -1.8049
 6317SOL     OW30583   1.822   3.913  11.656  0.1271  0.7631  0.0426
 6317SOL    HW130584   1.807   3.893  11.563  1.4879 -0.2511  0.0474
 6317SOL    HW230585   1.765   3.844  11.691  0.5955  0.9046  1.0728
 6318SOL     OW30586   2.182   3.221   6.733 -0.0928  0.2601  0.3399
 6318SOL    HW130587   2.240   3.193   6.663 -1.1658 -0.7727 -0.1422
 6318SOL    HW230588   2.171   3.139   6.782  0.7749  0.4421  0.8407
 6319SOL     OW30589   1.304   2.286   8.329 -0.0087 -0.7992  0.5145
 6319SOL    HW130590   1.391   2.323   8.322 -0.7617  0.8759 -0.0172
 6319SOL    HW230591   1.317   2.191   8.330 -1.3862 -0.9954 -0.1113
 6320SOL     OW30592   4.333   1.352   1.772  0.7585 -0.1214 -0.0475
 6320SOL    HW130593   4.237   1.345   1.765  0.6227  2.8519 -1.0839
 6320SOL    HW230594   4.350   1.445   1.792  0.0276  0.3119 -1.4897
 6321SOL     OW30595   1.902   4.575  11.614  0.4987  0.1156  0.3196
 6321SOL    HW130596   1.935   4.640  11.676  0.1255  2.1020 -1.5421
 6321SOL    HW230597   1.974   4.573  11.551 -0.2313  1.7440 -0.5756
 6322SOL     OW30598   0.113   1.150  17.103  0.4580 -0.7515 -0.3135
 6322SOL    HW130599   0.141   1.238  17.127  2.2069 -0.6496 -2.6861
 6322SOL    HW230600   0.142   1.147  17.012  0.9314 -1.4769 -0.1336
 6323SOL     OW30601   3.058   0.143   2.228  0.3587 -0.1361 -0.2682
 6323SOL    HW130602   3.018   0.146   2.315  1.8823 -2.5963  0.5105
 6323SOL    HW230603   2.985   0.149   2.167  1.1410  1.3131 -1.0420
 6324SOL     OW30604   1.123   3.043   4.281  0.2869  0.4248  0.0880
 6324SOL    HW130605   1.029   3.055   4.270  0.5858  0.3609 -2.7181
 6324SOL    HW230606   1.136   2.948   4.277 -0.1627  0.3655  0.1093
 6325SOL     OW30607   2.955   3.489   6.007  0.1034  0.5094  0.2471
 6325SOL    HW130608   3.010   3.532   6.072  0.0998 -0.2886  0.7768
 6325SOL    HW230609   2.918   3.416   6.056 -0.4518 -0.4849 -1.6529
 6326SOL     OW30610   3.201   4.491  17.733 -0.3493 -0.0087  0.4463
 6326SOL    HW130611   3.188   4.424  17.667  1.3755 -0.4368  0.5440
 6326SOL    HW230612   3.295   4.512  17.729 -0.4348  0.2467 -0.2102
 6327SOL     OW30613   1.443   1.296   0.371  0.1174  0.4821 -0.1548
 6327SOL    HW130614   1.408   1.279   0.458 -2.4053  2.1270 -0.8373
 6327SOL    HW230615   1.364   1.330   0.329 -0.4985 -0.7866  0.0123
 6328SOL     OW30616   2.470   0.583   6.182  0.4279 -0.0587  0.2384
 6328SOL    HW130617   2.435   0.668   6.209  1.2649  1.5874 -3.6884
 6328SOL    HW230618   2.410   0.567   6.109 -1.6115 -1.3557  2.2021
 6329SOL     OW30619   1.208   1.076   6.019  0.5070  0.4566 -0.1542
 6329SOL    HW130620   1.212   1.170   6.000 -2.0143  0.3566 -1.1135
 6329SOL    HW230621   1.195   1.033   5.934 -0.3584  0.3285  0.0459
 6330SOL     OW30622   4.142   2.271   7.380 -0.4969  0.0701  0.0927
 6330SOL    HW130623   4.117   2.181   7.402  0.2643  0.1127  1.1120
 6330SOL    HW230624   4.103   2.280   7.293 -0.7799  2.6649  0.4842
 6331SOL     OW30625   3.480   0.439   0.999  0.2594 -0.2050 -0.0554
 6331SOL    HW130626   3.565   0.454   1.040  0.5618 -2.4580  0.1570
 6331SOL    HW230627   3.432   0.509   1.042  2.0827 -0.8963  3.1021
 6332SOL     OW30628   1.240   4.553   4.618 -0.3628 -0.3666  0.6360
 6332SOL    HW130629   1.186   4.479   4.644 -2.2494  0.2469 -1.6108
 6332SOL    HW230630   1.276   4.577   4.704  0.3534  0.9980 -0.0322
 6333SOL     OW30631   3.841   3.009   4.788  0.0713 -0.0270 -0.1699
 6333SOL    HW130632   3.758   2.964   4.776  1.0072 -0.2536 -5.5420
 6333SOL    HW230633   3.829   3.081   4.727 -3.0814 -1.6950 -1.5392
 6334SOL     OW30634   2.253   2.993   0.186  0.7366  0.0470 -0.3357
 6334SOL    HW130635   2.325   2.970   0.244 -0.5040  0.2182  1.2502
 6334SOL    HW230636   2.293   3.058   0.128 -1.3117 -0.3358 -2.1867
 6335SOL     OW30637   3.337   2.172   5.093 -0.4665 -0.1933 -0.1891
 6335SOL    HW130638   3.280   2.191   5.168  1.0564  0.2597  0.8449
 6335SOL    HW230639   3.280   2.167   5.016  1.8005  0.0507 -1.8966
 6336SOL     OW30640   0.064   1.186   2.970  0.2753 -0.6455 -0.0197
 6336SOL    HW130641   0.049   1.092   2.962 -0.3111 -0.5924  0.4514
 6336SOL    HW230642   0.143   1.186   3.024  1.7095 -0.4649 -2.1129
 6337SOL     OW30643   0.095   0.946   6.158  0.2296 -0.2643 -0.1613
 6337SOL    HW130644   0.083   0.876   6.222 -0.1654  0.7963  0.9358
 6337SOL    HW230645   0.189   0.960   6.156  0.4790 -1.7873  1.5020
 6338SOL     OW30646   0.798   0.300   8.331 -0.2035  0.1811 -0.0467
 6338SOL    HW130647   0.730   0.237   8.353  0.5567 -0.5045  0.3321
 6338SOL    HW230648   0.785   0.376   8.388  1.4987 -0.0307  0.6302
 6339SOL     OW30649   2.739   1.761   6.540  0.4918 -0.5074  0.3136
 6339SOL    HW130650   2.693   1.704   6.479  1.6664  1.1284 -2.0953
 6339SOL    HW230651   2.784   1.692   6.590  2.9009  0.6247 -0.3141
 6340SOL     OW30652   2.812   2.764   9.087  0.3499 -0.0180  0.0749
 6340SOL    HW130653   2.901   2.788   9.060  0.7189 -1.3249  0.1174
 6340SOL    HW230654   2.809   2.673   9.058 -1.9879  0.4884 -1.2327
 6341SOL     OW30655   3.851   3.662  16.209 -0.1228 -0.3382  0.0211
 6341SOL    HW130656   3.812   3.658  16.296 -2.0374  1.9830 -0.7359
 6341SOL    HW230657   3.925   3.601  16.210  0.0337 -0.1267  1.5061
 6342SOL     OW30658   1.415   3.969   4.404 -0.0282 -0.0880  0.3480
 6342SOL    HW130659   1.403   4.007   4.491 -2.5209 -0.1940  0.0410
 6342SOL    HW230660   1.343   3.906   4.404 -0.2908  0.2097  0.9981
 6343SOL     OW30661   4.171   1.121  16.240 -0.0309 -0.2325  0.1824
 6343SOL    HW130662   4.078   1.099  16.254 -0.0335 -1.7831 -2.2891
 6343SOL    HW230663   4.192   1.063  16.167  2.2543 -0.3198  0.9146
 6344SOL     OW30664   1.036   0.208  11.410 -0.0943  0.2828  0.0648
 6344SOL    HW130665   0.979   0.204  11.487  2.1762 -1.1517  1.6485
 6344SOL    HW230666   1.088   0.280  11.445 -1.4887  1.6534 -0.6487
 6345SOL     OW30667   3.424   2.980   2.983 -0.0983  0.1159  0.3886
 6345SOL    HW130668   3.351   2.963   3.044 -0.4212 -1.2743 -0.3772
 6345SOL    HW230669   3.373   3.038   2.926 -1.1442  0.0068  1.2004
 6346SOL     OW30670   3.713   2.838   4.058 -0.1351  0.4146  0.4070
 6346SOL    HW130671   3.641   2.814   4.000  0.6050  0.0900 -0.3860
 6346SOL    HW230672   3.790   2.820   4.003 -2.2066  0.5264 -2.5090
 6347SOL     OW30673   0.710   2.029  13.683 -0.4787  0.0439  0.2948
 6347SOL    HW130674   0.621   2.019  13.718 -1.3991 -0.4803 -2.2307
 6347SOL    HW230675   0.748   2.056  13.767 -0.0221 -0.3440  0.2056
 6348SOL     OW30676   2.056   4.678   5.494 -0.3359 -0.2438  0.3922
 6348SOL    HW130677   1.987   4.613   5.510 -1.0981 -0.0038 -1.9824
 6348SOL    HW230678   2.004   0.019   5.513  1.3994  1.2972 -1.3398
 6349SOL     OW30679   2.847   0.737   8.478 -0.1660  0.2948  0.3116
 6349SOL    HW130680   2.846   0.641   8.469 -2.1282  0.4448 -0.9824
 6349SOL    HW230681   2.937   0.757   8.503  0.3971 -0.0361 -1.3888
 6350SOL     OW30682   3.808   2.983   6.466  0.3605 -0.2151 -0.5332
 6350SOL    HW130683   3.712   2.974   6.462  0.8034 -4.7448 -0.5041
 6350SOL    HW230684   3.819   3.014   6.376  1.5648  1.0541  0.0485
 6351SOL     OW30685   2.103   4.328  10.002 -0.0449 -0.0918 -0.3728
 6351SOL    HW130686   2.025   4.383  10.002 -0.9119 -1.3100 -0.1412
 6351SOL    HW230687   2.166   4.391   9.967  0.7101 -1.4019 -1.4074
 6352SOL     OW30688   2.355   1.203   6.106  0.4156  0.3283 -0.2909
 6352SOL    HW130689   2.326   1.277   6.052 -0.9848  0.3609  0.4897
 6352SOL    HW230690   2.439   1.177   6.068  0.4660 -1.1845  0.8817
 6353SOL     OW30691   2.051   4.629   4.723  0.0555  0.1167  0.5901
 6353SOL    HW130692   1.986   4.674   4.777 -1.7021  0.1333 -1.5310
 6353SOL    HW230693   1.988   4.567   4.688  0.4112  0.4586 -0.6483
 6354SOL     OW30694   3.705   2.227   3.142 -0.6157  0.6374  0.1956
 6354SOL    HW130695   3.665   2.152   3.097  0.7116  0.3598 -0.5044
 6354SOL    HW230696   3.750   2.281   3.077 -0.5117 -0.6843 -0.8245
 6355SOL     OW30697   1.842   4.161  11.802 -0.0602 -0.3891  0.2471
 6355SOL    HW130698   1.847   4.080  11.751 -1.4004 -0.7148  0.6496
 6355SOL    HW230699   1.763   4.148  11.854 -0.7722  1.0721 -0.4626
 6356SOL     OW30700   3.845   3.897   7.989 -0.1607  0.5144 -0.3509
 6356SOL    HW130701   3.835   3.915   8.083 -1.8155 -1.7455 -0.0938
 6356SOL    HW230702   3.757   3.916   7.957 -0.1941  0.7825 -0.1049
 6357SOL     OW30703   2.818   0.916  13.991  0.2370  0.0457 -0.4018
 6357SOL    HW130704   2.819   0.975  14.066  0.5148 -1.8152  1.0515
 6357SOL    HW230705   2.798   0.834  14.036 -1.1428  1.3724  1.4171
 6358SOL     OW30706   4.145   4.162   7.478  0.4128  0.1048  0.2756
 6358SOL    HW130707   4.220   4.170   7.420  0.7677 -0.0277  0.7229
 6358SOL    HW230708   4.155   4.074   7.514  1.2515  0.5226  1.0403
 6359SOL     OW30709   2.389   4.534   7.034  0.1714 -0.6427  0.0428
 6359SOL    HW130710   2.345   4.618   7.051  0.2664 -0.0144 -2.8588
 6359SOL    HW230711   2.361   4.505   6.948  4.4723 -1.7292 -0.9977
 6360SOL     OW30712   2.536   3.502   9.459  0.8599 -0.4227 -0.6349
 6360SOL    HW130713   2.514   3.590   9.426  0.3197 -0.9155 -1.5985
 6360SOL    HW230714   2.457   3.467   9.500  0.6214  1.0375  0.1445
 6361SOL     OW30715   2.926   0.931   7.657 -0.0341 -0.8746  0.4130
 6361SOL    HW130716   2.854   0.868   7.665  0.5772 -1.7547 -0.9895
 6361SOL    HW230717   2.895   0.988   7.586  1.0585  0.9915  1.4461
 6362SOL     OW30718   3.211   1.483   1.326 -0.1481 -0.1202  0.0915
 6362SOL    HW130719   3.197   1.411   1.264  0.4125 -1.8139  1.9245
 6362SOL    HW230720   3.118   1.495   1.346  0.1016  0.6240  0.7860
 6363SOL     OW30721   0.404   3.338  15.024  0.2843  0.1993  0.3419
 6363SOL    HW130722   0.416   3.243  15.027  0.7263  0.2822  1.2239
 6363SOL    HW230723   0.462   3.354  14.950 -1.3986  0.2227 -0.9838
 6364SOL     OW30724   1.000   0.230   0.064 -0.2714  0.0683 -0.1053
 6364SOL    HW130725   0.932   0.167   0.038  0.2191  0.1458 -1.5654
 6364SOL    HW230726   0.973   0.306   0.013 -0.6586 -1.2849 -1.9183
 6365SOL     OW30727   3.532   2.332   3.324  0.3041 -0.4656  0.5404
 6365SOL    HW130728   3.457   2.333   3.263  0.6185 -1.8200  0.1306
 6365SOL    HW230729   3.607   2.312   3.268  0.2690  0.0644  0.3042
 6366SOL     OW30730   3.328   2.001   7.790  0.0287  0.0836  0.0739
 6366SOL    HW130731   3.264   1.976   7.722 -0.2787  0.4957  0.2100
 6366SOL    HW230732   3.294   2.090   7.800 -0.1802  0.0129  0.0008
 6367SOL     OW30733   2.891   1.953  16.670  0.3127 -0.3759 -0.1250
 6367SOL    HW130734   2.970   1.978  16.718  0.8791 -1.4687 -0.5004
 6367SOL    HW230735   2.922   1.941  16.580 -0.5946  3.0752 -0.8944
 6368SOL     OW30736   3.819   4.221   3.500  0.4885  0.2061  0.8141
 6368SOL    HW130737   3.889   4.156   3.504 -0.0574 -0.4790 -0.5704
 6368SOL    HW230738   3.742   4.167   3.518  0.0760  1.2197  2.0516
 6369SOL     OW30739   2.425   4.051   9.929  0.2843  0.2172 -0.2083
 6369SOL    HW130740   2.385   3.965   9.943 -0.4218  1.1001  3.0017
 6369SOL    HW230741   2.396   4.084  10.014  0.5963  0.2698 -0.1209
 6370SOL     OW30742   1.883   0.775   8.449 -0.3597 -0.0426  0.2552
 6370SOL    HW130743   1.938   0.728   8.386  0.3130  3.0264 -1.4884
 6370SOL    HW230744   1.802   0.783   8.398 -0.7377 -0.0668  0.8476
 6371SOL     OW30745   4.433   0.032   2.669 -0.0219  0.2875 -0.4034
 6371SOL    HW130746   4.395   0.106   2.623  0.5445  1.1354  0.4949
 6371SOL    HW230747   4.422   0.073   2.755 -2.5555  1.1369 -1.1392
 6372SOL     OW30748   3.887   3.503  12.542 -0.3413 -0.2925 -0.0658
 6372SOL    HW130749   3.906   3.470  12.454  0.5467 -0.7467  0.2900
 6372SOL    HW230750   3.891   3.420  12.589 -0.5864  0.9706  2.1867
 6373SOL     OW30751   4.036   1.463   5.943 -0.4365  0.0107 -0.2687
 6373SOL    HW130752   3.944   1.479   5.923 -0.2174  0.2471 -1.1043
 6373SOL    HW230753   4.045   1.500   6.031 -0.1594 -0.0791 -0.2580
 6374SOL     OW30754   2.354   0.911   7.551  0.3676  0.4051 -0.5420
 6374SOL    HW130755   2.381   0.968   7.478  2.2433  0.8298  0.4784
 6374SOL    HW230756   2.357   0.824   7.511 -3.3884  0.4781 -0.9903
 6375SOL     OW30757   2.941   0.668   5.010 -0.1237 -0.0918 -0.1400
 6375SOL    HW130758   2.953   0.670   5.105 -0.4654  0.3710 -0.1042
 6375SOL    HW230759   2.931   0.762   4.995 -0.3945  0.0350  0.8253
 6376SOL     OW30760   3.275   4.526   1.850 -0.0503  0.1440  0.2951
 6376SOL    HW130761   3.280   4.615   1.885  0.5697  0.0208  0.5214
 6376SOL    HW230762   3.187   4.504   1.879  0.3879 -1.3501  0.4755
 6377SOL     OW30763   3.207   2.982   9.328 -0.7938 -0.7165  0.3400
 6377SOL    HW130764   3.279   2.966   9.389 -1.0256  0.2849  0.8749
 6377SOL    HW230765   3.241   2.923   9.261  0.9856  1.8838 -1.0879
 6378SOL     OW30766   4.576   3.641   8.717 -0.1529 -0.4617  0.4395
 6378SOL    HW130767   4.514   3.624   8.788 -1.8454 -0.2856 -0.9937
 6378SOL    HW230768   4.635   3.566   8.725 -2.2519 -2.2030 -0.2420
 6379SOL     OW30769   0.081   0.918   4.024  0.1193 -0.2478  0.7107
 6379SOL    HW130770   4.725   0.930   4.011 -0.2812 -0.8176  2.9996
 6379SOL    HW230771   0.077   0.890   4.116  1.3499  0.1414  0.8882
 6380SOL     OW30772   4.583   3.487   1.794  0.6191 -0.3833  0.1876
 6380SOL    HW130773   4.665   3.504   1.748 -0.3474  1.0489 -0.9947
 6380SOL    HW230774   4.524   3.494   1.719  2.0733 -0.4865 -0.9669
 6381SOL     OW30775   1.280   0.537  16.372 -0.5230  0.1630  0.5224
 6381SOL    HW130776   1.264   0.600  16.302 -1.6874  1.4367  1.9174
 6381SOL    HW230777   1.324   0.595  16.436 -1.5059  1.1501  0.3070
 6382SOL     OW30778   3.261   4.492   3.855 -0.7651  0.9109 -0.7806
 6382SOL    HW130779   3.280   4.581   3.824 -0.0538  0.6185 -1.1954
 6382SOL    HW230780   3.260   4.500   3.950 -0.2342  0.1976 -0.7123
 6383SOL     OW30781   1.587   0.725   3.548 -0.1777  0.1993  0.6246
 6383SOL    HW130782   1.587   0.653   3.485 -1.5207  0.3006  0.4976
 6383SOL    HW230783   1.574   0.667   3.624  0.0233 -0.9518 -0.2299
 6384SOL     OW30784   3.736   1.912  17.624  0.3090 -0.4003 -0.2926
 6384SOL    HW130785   3.710   1.823  17.647 -0.7208  0.4139  1.6736
 6384SOL    HW230786   3.716   1.924  17.532 -0.4377 -1.1409 -0.2215
 6385SOL     OW30787   2.287   4.226   6.635 -0.4955  0.3464  0.6409
 6385SOL    HW130788   2.326   4.140   6.646  3.0845  2.0502  1.2224
 6385SOL    HW230789   2.217   4.226   6.700  0.6999 -0.7752  1.9223
 6386SOL     OW30790   2.401   3.579   6.801  0.0358 -0.0104 -0.5421
 6386SOL    HW130791   2.428   3.560   6.711  1.8989 -0.2464  0.0627
 6386SOL    HW230792   2.309   3.599   6.787 -0.3802 -2.0902 -0.6907
 6387SOL     OW30793   3.751   0.163   2.317 -0.1206  0.0931 -0.6758
 6387SOL    HW130794   3.767   0.078   2.357  4.3140  0.9288 -0.7539
 6387SOL    HW230795   3.830   0.211   2.339 -1.7115  1.6457  1.6375
 6388SOL     OW30796   4.408   2.583   5.944  0.3302  0.0363 -0.2080
 6388SOL    HW130797   4.385   2.669   5.978 -0.3935  0.1247 -0.9087
 6388SOL    HW230798   4.489   2.567   5.992 -0.2851 -1.2777  0.4009
 6389SOL     OW30799   3.159   2.678  12.157  0.4184  0.4060 -0.1923
 6389SOL    HW130800   3.143   2.613  12.089 -1.7875  1.0961 -0.3378
 6389SOL    HW230801   3.070   2.710  12.174 -0.4593 -2.7018  1.1275
 6390SOL     OW30802   2.805   0.985   5.323 -0.0710 -0.0675  0.8353
 6390SOL    HW130803   2.844   0.913   5.372  3.2343  0.8448 -0.4830
 6390SOL    HW230804   2.821   0.957   5.233  0.2996  0.9115  0.5936
 6391SOL     OW30805   3.308   3.633   5.033  0.2587  0.2022  0.4000
 6391SOL    HW130806   3.338   3.565   5.092 -1.6398 -0.8221  0.2013
 6391SOL    HW230807   3.261   3.674   5.106 -2.3083 -0.5995 -0.7763
 6392SOL     OW30808   2.854   2.269   7.628 -0.1455 -0.0846 -0.1839
 6392SOL    HW130809   2.818   2.341   7.575 -0.5692 -0.2361 -0.1057
 6392SOL    HW230810   2.893   2.325   7.696  1.6330 -0.8211 -0.6137
 6393SOL     OW30811   3.923   1.315   8.042 -0.0995 -0.0410  0.4655
 6393SOL    HW130812   3.986   1.369   7.995 -0.1390  0.8419  1.4296
 6393SOL    HW230813   3.973   1.239   8.073  0.0197 -0.2368 -0.2046
 6394SOL     OW30814   0.050   3.161   3.739 -0.3706  0.0087 -0.3240
 6394SOL    HW130815   0.022   3.080   3.697 -0.9030  0.1940 -0.3322
 6394SOL    HW230816   4.721   3.221   3.704 -0.0936  1.1736  1.1292
 6395SOL     OW30817   0.487   0.364   4.390 -0.3271 -0.2045  0.1325
 6395SOL    HW130818   0.452   0.370   4.301 -0.6358 -2.4047  0.1044
 6395SOL    HW230819   0.411   0.333   4.439  0.2561  1.6459  2.2172
 6396SOL     OW30820   4.400   4.391   3.547  0.2408  0.5111  0.2668
 6396SOL    HW130821   4.434   4.325   3.607  0.8733 -0.0567 -0.7010
 6396SOL    HW230822   4.309   4.371   3.526  0.3131  0.4619 -0.0082
 6397SOL     OW30823   4.502   3.592  16.053 -0.4838 -0.0046 -0.1265
 6397SOL    HW130824   4.588   3.552  16.060  0.1288  1.6513  2.0997
 6397SOL    HW230825   4.462   3.584  16.140 -0.3051  1.4281  0.0861
 6398SOL     OW30826   0.618   1.511   8.865 -0.6759  0.0551  0.4314
 6398SOL    HW130827   0.646   1.447   8.800  1.2639  0.1100  1.2241
 6398SOL    HW230828   0.611   1.459   8.945  1.2619 -1.1930 -0.2144
 6399SOL     OW30829   0.964   3.572   4.114 -0.4538 -0.1657 -0.5079
 6399SOL    HW130830   0.949   3.530   4.029 -1.4882 -0.2319 -0.2919
 6399SOL    HW230831   0.910   3.648   4.096 -0.1938 -0.6350 -3.3223
 6400SOL     OW30832   3.337   2.292   6.276  0.1458  0.0449  0.2102
 6400SOL    HW130833   3.416   2.258   6.232  1.0830  1.8860  0.4978
 6400SOL    HW230834   3.272   2.231   6.240 -0.0752  0.3056  0.1746
 6401SOL     OW30835   0.225   1.515   3.159  0.9719 -0.5863  0.6793
 6401SOL    HW130836   0.240   1.428   3.121  1.1102  0.1274 -0.9284
 6401SOL    HW230837   0.302   1.533   3.212 -0.2859 -1.6956  2.8549
 6402SOL     OW30838   1.278   1.745   7.665  0.2035  0.4431 -0.4991
 6402SOL    HW130839   1.205   1.807   7.671  1.3955  1.8737 -0.8502
 6402SOL    HW230840   1.318   1.752   7.751 -0.3781 -1.0367 -0.0930
 6403SOL     OW30841   3.126   1.710   6.574 -0.2248  0.0938 -0.3490
 6403SOL    HW130842   3.084   1.795   6.572  0.3530  0.4156  1.4254
 6403SOL    HW230843   3.164   1.697   6.487 -0.2747 -1.2969 -0.1625
 6404SOL     OW30844   2.216   3.904  13.075 -0.5390 -0.6910 -0.5547
 6404SOL    HW130845   2.258   3.903  13.161 -2.7187  0.4442  0.4892
 6404SOL    HW230846   2.273   3.957  13.019 -0.5776  1.1474  1.1575
 6405SOL     OW30847   0.088   3.544  16.412 -0.0157  0.3995  0.6168
 6405SOL    HW130848   0.118   3.609  16.349 -1.1273  0.5102  0.2040
 6405SOL    HW230849   0.170   3.539  16.461  1.0333  0.5703 -1.1291
 6406SOL     OW30850   1.596   0.796   5.166 -0.4739  1.1630  0.2960
 6406SOL    HW130851   1.665   0.857   5.140  0.0278 -0.1143 -1.4072
 6406SOL    HW230852   1.638   0.722   5.211  1.0922  1.7856 -0.1255
 6407SOL     OW30853   2.464   1.393   5.822 -0.0650  0.5518  0.2658
 6407SOL    HW130854   2.473   1.332   5.749  1.4833  1.2280 -0.1154
 6407SOL    HW230855   2.512   1.339   5.885  0.0116  1.2651  0.8217
 6408SOL     OW30856   3.152   0.725   3.007 -0.1867 -0.5653  0.1241
 6408SOL    HW130857   3.247   0.723   3.022 -0.1944 -2.6088 -0.1236
 6408SOL    HW230858   3.124   0.816   3.009  0.9228 -0.1131 -4.0551
 6409SOL     OW30859   0.917   0.456   7.374  0.8313  0.5242  0.3568
 6409SOL    HW130860   0.893   0.529   7.317 -3.6810 -0.8061  0.5367
 6409SOL    HW230861   0.844   0.398   7.353  1.7482  0.2247 -2.0417
 6410SOL     OW30862   1.118   0.439   6.287 -0.6351 -0.5477  0.2801
 6410SOL    HW130863   1.064   0.370   6.326 -2.2648  1.5315  1.6860
 6410SOL    HW230864   1.122   0.418   6.194 -1.0977 -2.5196  0.7102
 6411SOL     OW30865   1.590   1.023  13.556 -0.5933  0.5036  0.7373
 6411SOL    HW130866   1.654   1.023  13.484 -1.3437  3.4408  0.0645
 6411SOL    HW230867   1.587   1.111  13.594 -0.2847  1.9951 -2.6635
 6412SOL     OW30868   2.090   4.389   9.265 -0.1925 -0.4895  0.1350
 6412SOL    HW130869   2.081   4.383   9.170 -0.1330  0.6926  0.0571
 6412SOL    HW230870   2.180   4.359   9.279  0.3678  1.5372  0.8801
 6413SOL     OW30871   0.896   3.892   1.949 -0.6521 -0.3458 -0.5371
 6413SOL    HW130872   0.847   3.863   2.027  0.2242 -0.4791 -0.0416
 6413SOL    HW230873   0.902   3.986   1.964  0.0370 -0.9185  2.6793
 6414SOL     OW30874   2.509   0.602   7.233  0.0669 -0.2087 -0.0573
 6414SOL    HW130875   2.418   0.606   7.204  0.2574  0.0725 -0.6313
 6414SOL    HW230876   2.539   0.515   7.205  2.6861 -0.4221  3.3680
 6415SOL     OW30877   4.245   1.406   8.327  0.2602 -0.1882 -0.4078
 6415SOL    HW130878   4.211   1.321   8.299  2.9444 -1.9198  1.5735
 6415SOL    HW230879   4.312   1.383   8.392 -0.4509 -0.9252  0.0761
 6416SOL     OW30880   4.179   0.139   5.601 -0.5411  0.1300 -0.4606
 6416SOL    HW130881   4.253   0.091   5.562  0.3050 -2.1658  3.8936
 6416SOL    HW230882   4.217   0.190   5.672 -2.4432  0.1212  0.5623
 6417SOL     OW30883   2.819   0.085  15.924 -0.2501 -0.1108 -0.0424
 6417SOL    HW130884   2.855   0.165  15.888  2.2313 -1.7406 -1.1367
 6417SOL    HW230885   2.876   0.075  16.000  0.2272 -1.1637 -0.5266
 6418SOL     OW30886   2.051   4.441   4.322  0.6319  0.2219 -0.0592
 6418SOL    HW130887   1.957   4.427   4.306  0.2061  1.4421  1.4044
 6418SOL    HW230888   2.072   4.371   4.384 -0.8030  0.6378  0.9015
 6419SOL     OW30889   0.608   1.169  17.290  0.0131 -0.8447 -0.5256
 6419SOL    HW130890   0.654   1.143  17.210 -2.6773 -1.1795 -1.9616
 6419SOL    HW230891   0.519   1.143  17.265  0.8047 -2.1646 -2.0207
 6420SOL     OW30892   1.479   3.141  16.712  0.4795  0.4764  0.0734
 6420SOL    HW130893   1.388   3.119  16.729  0.8185  0.6329  2.0721
 6420SOL    HW230894   1.495   3.196  16.789  0.8511  1.0290 -0.4016
 6421SOL     OW30895   0.891   3.189   3.411  0.5647 -0.5485  0.1975
 6421SOL    HW130896   0.887   3.120   3.477 -0.0314 -1.3256 -0.6673
 6421SOL    HW230897   0.803   3.171   3.381  0.6610 -0.9830  0.1779
 6422SOL     OW30898   1.867   1.577  11.456 -0.0106 -0.2462  0.3597
 6422SOL    HW130899   1.885   1.593  11.549 -0.5150 -2.8169  0.9214
 6422SOL    HW230900   1.777   1.544  11.464 -0.8902  2.1954  0.3759
 6423SOL     OW30901   1.082   3.620   7.773 -0.2962 -0.2472 -0.3979
 6423SOL    HW130902   1.153   3.558   7.758  0.5005  0.9649 -1.7229
 6423SOL    HW230903   1.027   3.593   7.700 -0.4141 -0.6058 -0.1756
 6424SOL     OW30904   1.820   0.113   5.328  0.3607 -0.0395 -0.2879
 6424SOL    HW130905   1.848   0.175   5.395  0.8081 -1.3126  0.7110
 6424SOL    HW230906   1.732   0.102   5.363 -0.6675  1.5863 -2.3337
 6425SOL     OW30907   4.502   1.210   1.181  0.4297 -0.0774 -0.5902
 6425SOL    HW130908   4.449   1.131   1.193  0.9406 -0.5718 -1.5489
 6425SOL    HW230909   4.478   1.239   1.093 -0.4095  0.0282 -0.3262
 6426SOL     OW30910   1.423   4.586   2.991  0.0599  0.3879 -0.0118
 6426SOL    HW130911   1.335   4.609   3.020  0.5364 -0.0697  1.7596
 6426SOL    HW230912   1.417   4.492   3.006 -0.7547  0.3176 -0.7932
 6427SOL     OW30913   3.927   0.001  10.572 -0.4592 -0.2158 -0.0781
 6427SOL    HW130914   3.925   0.089  10.610 -0.7556 -0.3721  0.2657
 6427SOL    HW230915   3.930   4.695  10.657 -1.6544 -0.9205 -0.4123
 6428SOL     OW30916   3.437   0.836   7.326 -0.0105 -0.1777  0.4448
 6428SOL    HW130917   3.395   0.897   7.387 -0.8051 -1.1663  0.8710
 6428SOL    HW230918   3.485   0.778   7.385  0.3399  1.9765  2.2652
 6429SOL     OW30919   4.218   3.347   3.937  0.0553 -0.4874  0.2896
 6429SOL    HW130920   4.286   3.310   3.993  1.1840  0.5112 -0.4121
 6429SOL    HW230921   4.174   3.415   3.988  1.8064  0.7413  0.1578
 6430SOL     OW30922   2.097   0.842   9.676  1.0667  0.6756 -0.0172
 6430SOL    HW130923   2.063   0.849   9.587  0.9905 -0.2183 -0.0626
 6430SOL    HW230924   2.026   0.788   9.713  0.3008  1.3330 -0.5230
 6431SOL     OW30925   0.035   1.501   9.238  0.0808  0.0702  0.6317
 6431SOL    HW130926   0.005   1.588   9.211 -0.9095 -0.1095  1.1260
 6431SOL    HW230927   4.697   1.475   9.291  1.1873  0.2343  2.2826
 6432SOL     OW30928   3.648   0.611   0.369  0.2466 -0.4396  0.2919
 6432SOL    HW130929   3.576   0.552   0.350  0.6169 -0.4322 -1.0871
 6432SOL    HW230930   3.605   0.671   0.308  2.5669 -0.2798 -1.1805
 6433SOL     OW30931   3.465   1.729  16.089 -0.1176 -0.5791 -0.7159
 6433SOL    HW130932   3.382   1.692  16.056 -1.1768  0.6715  0.5521
 6433SOL    HW230933   3.436   1.795  16.152 -1.2468 -2.7865  1.0714
 6434SOL     OW30934   2.565   0.725   5.408 -0.4067 -0.4266 -0.1937
 6434SOL    HW130935   2.474   0.737   5.379 -0.1336  0.5923 -0.6393
 6434SOL    HW230936   2.592   0.817   5.404  3.6041 -1.5815  0.5275
 6435SOL     OW30937   3.869   2.484   5.639  0.4009 -0.5694  0.8030
 6435SOL    HW130938   3.774   2.486   5.641  0.3845  0.1061 -0.3921
 6435SOL    HW230939   3.879   2.390   5.622  0.4370 -0.8635  2.4920
 6436SOL     OW30940   3.356   2.145  13.829 -0.4204 -0.2241 -0.6196
 6436SOL    HW130941   3.423   2.078  13.814  2.5246  2.9897 -1.8807
 6436SOL    HW230942   3.292   2.096  13.880  0.3876 -0.1265  0.4742
 6437SOL     OW30943   0.158   0.159  16.349  0.4318  0.0120 -0.0423
 6437SOL    HW130944   0.114   0.090  16.398 -0.3461  1.4657  1.3118
 6437SOL    HW230945   0.241   0.169  16.396 -0.3958 -0.2956  1.4665
 6438SOL     OW30946   2.514   1.128   3.509 -0.0444  0.0580  0.0807
 6438SOL    HW130947   2.443   1.110   3.449  0.9853  0.1509 -1.1657
 6438SOL    HW230948   2.570   1.055   3.481 -0.2958  0.0141 -0.3009
 6439SOL     OW30949   1.155   3.855   7.918  0.2214 -0.0661  0.1581
 6439SOL    HW130950   1.116   3.790   7.860 -0.4991  1.4681 -1.0842
 6439SOL    HW230951   1.221   3.804   7.964  0.0511  0.3126  0.8261
 6440SOL     OW30952   0.288   2.753  14.836  0.2179  0.0080 -0.3091
 6440SOL    HW130953   0.213   2.794  14.793  1.3587  0.5077 -1.8323
 6440SOL    HW230954   0.341   2.829  14.811 -0.3016 -0.2960 -2.3666
 6441SOL     OW30955   2.927   1.642   9.536  0.6001 -0.0148  0.6387
 6441SOL    HW130956   2.928   1.730   9.574  1.6735  0.5808 -0.8184
 6441SOL    HW230957   2.946   1.670   9.447 -0.3443 -1.4389 -0.0040
 6442SOL     OW30958   4.493   0.417   2.727  0.0217  0.4691 -0.2471
 6442SOL    HW130959   4.560   0.422   2.660 -0.7052 -0.6280 -1.0608
 6442SOL    HW230960   4.464   0.508   2.723 -1.4385  0.0505  0.7252
 6443SOL     OW30961   4.603   0.910   4.417 -0.0637  0.0277  0.4135
 6443SOL    HW130962   4.625   0.830   4.466  0.7508  0.0257  0.0387
 6443SOL    HW230963   4.639   0.980   4.470  0.2625 -1.0117  1.5646
 6444SOL     OW30964   1.598   3.823   3.356 -0.4474 -0.5237 -0.6685
 6444SOL    HW130965   1.627   3.818   3.265  1.2358  2.7067 -0.3027
 6444SOL    HW230966   1.673   3.858   3.403 -0.5277 -1.0829 -0.1247
 6445SOL     OW30967   3.429   4.686   8.716  0.2558  0.0120 -0.0525
 6445SOL    HW130968   3.421   0.032   8.761  0.8342  0.2998 -0.4818
 6445SOL    HW230969   3.504   4.707   8.660  1.9115  1.4427  2.6836
 6446SOL     OW30970   3.930   1.315   8.638 -0.1493  0.3430  0.4627
 6446SOL    HW130971   3.944   1.396   8.688  1.9529  1.1364 -1.4162
 6446SOL    HW230972   3.936   1.343   8.546  1.7281  3.3005  1.4646
 6447SOL     OW30973   2.903   1.314  16.086 -0.4194 -0.1591 -0.4418
 6447SOL    HW130974   2.880   1.328  15.995  0.2867 -0.1861 -0.6246
 6447SOL    HW230975   2.829   1.255  16.104  0.3696 -1.7146 -2.3175
 6448SOL     OW30976   3.173   0.873   0.747 -0.0744  0.0504 -0.0579
 6448SOL    HW130977   3.149   0.834   0.663  1.3963 -3.7073  1.2539
 6448SOL    HW230978   3.143   0.821   0.822  1.5449 -1.4268 -0.4361
 6449SOL     OW30979   0.443   0.528   1.180  0.1030  0.2012  0.1185
 6449SOL    HW130980   0.449   0.438   1.212 -0.9752  0.2396  0.4157
 6449SOL    HW230981   0.438   0.517   1.085  3.0214  0.0041 -0.0210
 6450SOL     OW30982   3.749   1.193   1.277  0.0012  0.0181 -0.4869
 6450SOL    HW130983   3.687   1.127   1.246 -0.9161  0.6613 -0.0187
 6450SOL    HW230984   3.727   1.271   1.227  1.9442  1.7376  1.3245
 6451SOL     OW30985   4.323   2.493   4.906 -1.0097 -0.3123 -0.0037
 6451SOL    HW130986   4.321   2.403   4.875  1.4010 -0.4555  0.2562
 6451SOL    HW230987   4.305   2.544   4.827 -1.0442 -0.2790  0.0259
 6452SOL     OW30988   1.043   4.562   5.504 -0.0836 -0.0933 -0.5104
 6452SOL    HW130989   1.106   4.506   5.550  0.3279  1.5982  0.9859
 6452SOL    HW230990   1.001   4.498   5.448  0.3998  1.0116 -2.1155
 6453SOL     OW30991   2.013   2.242   3.933  0.2321  0.0477 -0.0492
 6453SOL    HW130992   2.035   2.208   4.020 -0.7529 -0.6447 -0.0666
 6453SOL    HW230993   1.948   2.180   3.899  3.5125 -3.5726  0.2921
 6454SOL     OW30994   2.281   3.172   0.445  0.2937 -0.2932  0.0441
 6454SOL    HW130995   2.291   3.204   0.534  1.2894 -0.0826 -0.1480
 6454SOL    HW230996   2.342   3.098   0.443 -0.0374 -0.5212 -1.8809
 6455SOL     OW30997   0.460   4.352   1.945 -0.3886 -0.3307  0.1998
 6455SOL    HW130998   0.549   4.366   1.977  0.3964 -1.0534 -1.6463
 6455SOL    HW230999   0.445   4.259   1.966  0.9146 -0.8123 -0.9789
 6456SOL     OW31000   3.209   0.680  17.558 -0.8516  0.5542  0.1140
 6456SOL    HW131001   3.156   0.699  17.481 -0.2407 -1.5995 -0.8281
 6456SOL    HW231002   3.289   0.716  17.519  0.8554 -3.4530 -0.0779
 6457SOL     OW31003   3.185   2.146   4.512 -0.2410  0.1849 -0.2665
 6457SOL    HW131004   3.251   2.152   4.581 -1.2013  1.2381  0.5541
 6457SOL    HW231005   3.128   2.222   4.521  0.3428  0.7668 -1.4193
 6458SOL     OW31006   1.024   0.198   4.860 -0.3414 -0.6502  0.0324
 6458SOL    HW131007   0.963   0.208   4.933  0.4915 -2.8202  1.0136
 6458SOL    HW231008   1.020   0.104   4.847 -2.2066 -0.6310  0.5360
 6459SOL     OW31009   0.794   3.680  12.662 -0.1889 -0.2529  0.0088
 6459SOL    HW131010   0.767   3.611  12.722 -0.1555  0.4374  0.8281
 6459SOL    HW231011   0.718   3.678  12.604 -0.8205 -2.0213  0.8896
 6460SOL     OW31012   3.894   3.962   6.276  0.2129 -0.1633  0.0344
 6460SOL    HW131013   3.813   3.997   6.314  1.0462 -0.7623  2.3823
 6460SOL    HW231014   3.949   3.965   6.354 -0.7947 -1.6660  0.8032
 6461SOL     OW31015   1.467   2.806   3.939  0.4165  0.2796 -0.8255
 6461SOL    HW131016   1.552   2.849   3.932 -0.2553  1.9911  1.5708
 6461SOL    HW231017   1.484   2.748   4.014  3.1054  1.4269 -0.5472
 6462SOL     OW31018   3.421   2.244   8.348 -0.1299 -0.6580 -0.0199
 6462SOL    HW131019   3.345   2.214   8.398 -0.2651 -0.0362  0.1493
 6462SOL    HW231020   3.450   2.304   8.416 -0.1465 -0.9139  0.2122
 6463SOL     OW31021   4.531   2.482   3.478  0.1316  0.0165 -0.3469
 6463SOL    HW131022   4.547   2.542   3.551  0.3002  1.1058 -1.2861
 6463SOL    HW231023   4.436   2.482   3.484  0.0423 -0.3097 -1.6883
 6464SOL     OW31024   2.570   4.417   3.567  0.4207 -0.1970  0.3964
 6464SOL    HW131025   2.641   4.415   3.631 -1.0750  0.5222  2.0772
 6464SOL    HW231026   2.594   4.346   3.509 -2.4535 -0.8944  0.0326
 6465SOL     OW31027   4.718   1.974  16.759 -0.0381  0.3010  0.6123
 6465SOL    HW131028   4.662   1.898  16.747 -0.1744  0.4663  0.2052
 6465SOL    HW231029   4.656   2.047  16.753 -0.0669  0.1178 -1.2700
 6466SOL     OW31030   1.019   4.016   7.706 -0.4917  0.4708  0.0520
 6466SOL    HW131031   1.085   4.037   7.773 -0.4845 -2.4882  0.9809
 6466SOL    HW231032   0.959   4.083   7.739  0.5516  0.7003  1.4919
 6467SOL     OW31033   3.859   2.179   1.498  0.2124 -0.1425  0.3962
 6467SOL    HW131034   3.840   2.241   1.428 -0.9842 -1.1167 -0.1156
 6467SOL    HW231035   3.893   2.241   1.563  0.9512 -2.3055  2.1001
 6468SOL     OW31036   3.954   1.179   6.010 -0.3401 -0.3330 -0.9516
 6468SOL    HW131037   3.864   1.169   5.979 -0.0853 -0.0281 -1.7702
 6468SOL    HW231038   3.994   1.253   5.966  0.4364 -0.0964  0.1436
 6469SOL     OW31039   1.134   0.641   9.428 -0.1719 -0.2815 -0.4902
 6469SOL    HW131040   1.190   0.657   9.504 -2.5059 -0.3545  1.2096
 6469SOL    HW231041   1.096   0.727   9.412  0.1602 -0.1372 -0.5163
 6470SOL     OW31042   1.132   1.408   4.410  0.2035 -0.1951 -0.0864
 6470SOL    HW131043   1.056   1.462   4.387  2.2180  3.3118  1.5644
 6470SOL    HW231044   1.209   1.465   4.408 -0.0016  0.1161  0.7973
 6471SOL     OW31045   0.716   3.185  17.286  0.2522  0.1206 -0.3285
 6471SOL    HW131046   0.732   3.252  17.218  0.9349 -0.6168 -0.8946
 6471SOL    HW231047   0.620   3.181  17.285  0.2826 -0.4816 -0.1996
 6472SOL     OW31048   1.877   0.403   4.465 -0.1145 -0.1796 -0.0758
 6472SOL    HW131049   1.823   0.335   4.425 -1.7199 -0.5914  2.8042
 6472SOL    HW231050   1.965   0.368   4.476 -0.1576 -0.6504 -1.3137
 6473SOL     OW31051   1.110   1.370   8.166 -0.1308  0.1239  0.5473
 6473SOL    HW131052   1.187   1.424   8.148 -0.8777  0.9454 -0.2017
 6473SOL    HW231053   1.131   1.348   8.257  0.1058 -3.4302 -0.3472
 6474SOL     OW31054   3.442   0.971   9.389  0.6861 -0.0830 -0.2386
 6474SOL    HW131055   3.525   0.947   9.348  0.6134 -0.9083  0.1037
 6474SOL    HW231056   3.466   0.951   9.480 -0.0691  1.1656  0.2339
 6475SOL     OW31057   0.600   1.825   3.968 -0.0774  0.4043  0.4858
 6475SOL    HW131058   0.600   1.886   4.042 -1.0190  0.3713  0.5050
 6475SOL    HW231059   0.638   1.876   3.896  0.5573 -0.8429 -0.0632
 6476SOL     OW31060   0.374   4.656   6.170  0.1700 -0.5621 -0.0377
 6476SOL    HW131061   0.391   4.690   6.258  2.0411 -0.6148 -0.3813
 6476SOL    HW231062   0.289   4.691   6.143 -0.2462  0.4768  2.5859
 6477SOL     OW31063   2.999   2.303   6.476  0.1815  0.3510 -0.0773
 6477SOL    HW131064   3.048   2.229   6.440 -0.7952 -1.2518  1.8898
 6477SOL    HW231065   3.051   2.319   6.555  3.1797 -2.3187 -1.5471
 6478SOL     OW31066   4.610   0.277   5.841  0.0497  0.1203 -0.8198
 6478SOL    HW131067   4.685   0.332   5.820 -0.2466  0.4541 -0.9904
 6478SOL    HW231068   4.535   0.331   5.818  0.8790  1.1447 -1.1051
 6479SOL     OW31069   1.215   4.384  14.225  0.3007  0.3811 -0.1216
 6479SOL    HW131070   1.230   4.300  14.268 -1.3354  0.3747  0.4347
 6479SOL    HW231071   1.225   4.362  14.133  2.0314  0.2663  0.0911
 6480SOL     OW31072   2.116   0.914   8.312  0.5316  0.1346  0.5817
 6480SOL    HW131073   2.143   0.830   8.277 -0.0278  0.3074 -0.2632
 6480SOL    HW231074   2.059   0.957   8.249 -0.7722  0.7465  2.1627
 6481SOL     OW31075   3.366   4.657  16.008 -0.5721  0.4368 -0.2396
 6481SOL    HW131076   3.322   4.706  16.077  1.0539  0.2556  0.9302
 6481SOL    HW231077   3.297   4.605  15.966 -0.3442  0.1757 -0.2915
 6482SOL     OW31078   2.715   1.517   6.137  0.1768 -0.1485  0.0971
 6482SOL    HW131079   2.633   1.547   6.177 -1.5083 -2.7271 -1.3822
 6482SOL    HW231080   2.722   1.571   6.059  0.0253 -0.5480 -0.1958
 6483SOL     OW31081   4.070   2.787  10.709 -0.1678  0.2905  0.2722
 6483SOL    HW131082   3.980   2.755  10.715  0.7482 -2.4083 -0.6617
 6483SOL    HW231083   4.054   2.881  10.721  1.3086  0.2084  2.8677
 6484SOL     OW31084   4.243   0.570  16.917 -0.2417 -0.6353  0.2136
 6484SOL    HW131085   4.147   0.570  16.912 -0.1604 -0.3002 -1.3580
 6484SOL    HW231086   4.265   0.494  16.864  2.8568  0.6106 -0.3026
 6485SOL     OW31087   4.013   2.160   2.756  0.0330  0.1564 -0.5561
 6485SOL    HW131088   3.947   2.101   2.720 -1.1362  1.2841 -0.2171
 6485SOL    HW231089   4.010   2.136   2.849  0.0301  0.4138 -0.4918
 6486SOL     OW31090   2.604   2.676   8.037 -0.8244 -0.2454 -0.0392
 6486SOL    HW131091   2.591   2.770   8.022 -1.8016 -0.3230  0.3145
 6486SOL    HW231092   2.698   2.673   8.051 -0.7705  3.2425  0.4354
 6487SOL     OW31093   3.864   1.061   7.596 -0.4162  0.1734  0.7024
 6487SOL    HW131094   3.930   1.051   7.663  0.0444 -1.9395 -0.0761
 6487SOL    HW231095   3.914   1.084   7.518  0.4281 -0.1296  1.1631
 6488SOL     OW31096   0.221   3.680   5.681 -0.0002 -0.2479  0.2919
 6488SOL    HW131097   0.311   3.652   5.692 -0.3419 -1.5311 -0.1562
 6488SOL    HW231098   0.210   3.689   5.586  0.8139  2.9062  0.4982
 6489SOL     OW31099   3.377   0.972   7.567  0.2995  0.5580 -0.6612
 6489SOL    HW131100   3.433   1.021   7.627  0.6399 -0.0670 -0.4656
 6489SOL    HW231101   3.347   0.896   7.616 -1.0748  1.9853  0.7184
 6490SOL     OW31102   0.628   3.474   4.359 -1.3852 -0.5970  0.7137
 6490SOL    HW131103   0.604   3.527   4.283 -1.3287 -3.0479 -1.0002
 6490SOL    HW231104   0.578   3.512   4.431 -0.3351  0.8585  0.6705
 6491SOL     OW31105   4.079   2.504   2.148  0.0513  0.0835 -0.0930
 6491SOL    HW131106   4.011   2.532   2.087 -0.0116  0.0241 -0.0492
 6491SOL    HW231107   4.028   2.434   2.188  2.3052 -0.6923  1.4428
 6492SOL     OW31108   2.991   4.166   7.349 -0.1072  0.2942  0.7149
 6492SOL    HW131109   2.947   4.213   7.278 -1.4553  0.3264  1.5600
 6492SOL    HW231110   3.082   4.193   7.338  0.0001 -0.7400 -0.8351
 6493SOL     OW31111   4.308   1.154   0.664  0.3876 -0.7605  0.3361
 6493SOL    HW131112   4.250   1.212   0.614 -1.0259 -2.4574  0.0140
 6493SOL    HW231113   4.256   1.073   0.666  0.4191 -0.7554  1.4064
 6494SOL     OW31114   2.700   1.556  13.648  0.6879 -0.1380  0.4297
 6494SOL    HW131115   2.726   1.495  13.717 -0.0762  0.6246  1.4021
 6494SOL    HW231116   2.666   1.626  13.704  0.6443 -0.6148  1.0123
 6495SOL     OW31117   2.117   3.985   6.619  0.0070 -0.4166  0.2392
 6495SOL    HW131118   2.129   3.896   6.653  0.9961 -0.7142 -0.8887
 6495SOL    HW231119   2.029   4.002   6.652  0.3300  0.4157  0.6585
 6496SOL     OW31120   4.093   2.037   1.701 -0.8503  0.3890 -0.2579
 6496SOL    HW131121   4.015   2.046   1.757 -1.7225  0.8383 -1.5535
 6496SOL    HW231122   4.101   2.110   1.639  0.3971  0.4456 -0.0351
 6497SOL     OW31123   0.507   1.578   2.655 -0.0342  0.3877 -0.7238
 6497SOL    HW131124   0.587   1.557   2.607  0.1444  0.8592 -0.6283
 6497SOL    HW231125   0.442   1.529   2.603 -2.4422  2.0428  0.7238
 6498SOL     OW31126   3.836   3.963   8.578 -0.1311  0.0254 -0.0708
 6498SOL    HW131127   3.917   4.009   8.555  0.1556 -0.1684  0.5590
 6498SOL    HW231128   3.803   4.012   8.653 -1.1638  0.9170 -1.1097
 6499SOL     OW31129   4.088   2.353  10.619 -0.6354  0.2192 -0.3249
 6499SOL    HW131130   4.040   2.389  10.694 -1.3045  3.0916 -2.1407
 6499SOL    HW231131   4.020   2.324  10.559 -0.9508 -1.4959  0.8586
 6500SOL     OW31132   4.490   0.452  14.936 -0.5803  0.1228  0.0863
 6500SOL    HW131133   4.445   0.371  14.913  0.5570 -0.9548  1.6513
 6500SOL    HW231134   4.524   0.434  15.024  1.3933 -1.3740 -0.9895
 6501SOL     OW31135   0.539   1.706   9.341 -0.2099 -0.2201  0.0275
 6501SOL    HW131136   0.446   1.701   9.363 -0.3364  0.0565 -0.4447
 6501SOL    HW231137   0.555   1.797   9.366 -0.0167 -0.1217 -0.4664
 6502SOL     OW31138   4.111   3.070   1.488  0.4043 -0.0947 -0.1028
 6502SOL    HW131139   4.138   2.981   1.512  0.9126  0.1724  0.3262
 6502SOL    HW231140   4.018   3.063   1.508  0.4450 -0.7724 -0.1239
 6503SOL     OW31141   3.679   2.618   1.788  0.0064  0.1186 -0.2737
 6503SOL    HW131142   3.693   2.618   1.694 -1.0951 -0.6118 -0.4350
 6503SOL    HW231143   3.596   2.572   1.801  0.2214  0.0987  1.0765
 6504SOL     OW31144   0.418   2.725   8.464 -0.1457  1.2412 -0.5365
 6504SOL    HW131145   0.346   2.761   8.516  1.2450  3.0863  0.1049
 6504SOL    HW231146   0.374   2.651   8.424  0.9939 -0.6419  1.6994
 6505SOL     OW31147   2.422   1.368  16.042 -0.0977  0.3274  0.7549
 6505SOL    HW131148   2.327   1.354  16.051 -0.2934  0.3342 -1.3411
 6505SOL    HW231149   2.443   1.444  16.096  0.8804 -1.0633  2.3124
 6506SOL     OW31150   2.425   2.958   8.663  0.4927 -0.1852  0.4585
 6506SOL    HW131151   2.355   2.893   8.654  1.7856 -1.2397 -1.8926
 6506SOL    HW231152   2.388   3.024   8.605 -0.6314 -0.5271  0.8030
 6507SOL     OW31153   0.944   0.091   7.101  0.2629  0.2645  0.3867
 6507SOL    HW131154   1.002   0.049   7.166 -1.5191 -2.0920  0.4587
 6507SOL    HW231155   0.858   0.055   7.121  0.5828 -1.2023 -0.8884
 6508SOL     OW31156   1.976   3.469  12.563  0.2516 -0.2658  0.1641
 6508SOL    HW131157   2.069   3.480  12.587  0.2407  0.5233 -0.1666
 6508SOL    HW231158   1.944   3.559  12.564 -0.9690 -0.6846 -2.0754
 6509SOL     OW31159   2.856   2.004   1.118  0.3674  0.1594  0.2573
 6509SOL    HW131160   2.811   2.082   1.153  2.0633  0.6704  1.2782
 6509SOL    HW231161   2.899   2.028   1.037 -1.4545  1.1419 -0.4324
 6510SOL     OW31162   4.595   1.455   5.177 -0.2461 -0.0960  0.4671
 6510SOL    HW131163   4.674   1.509   5.180  0.1387 -0.5250 -1.8366
 6510SOL    HW231164   4.538   1.499   5.240 -1.0718 -1.8380  0.9360
 6511SOL     OW31165   3.911   1.386   3.237  0.2712  0.5361 -0.3933
 6511SOL    HW131166   3.844   1.453   3.249 -0.0517 -0.0302  0.9890
 6511SOL    HW231167   3.859   1.308   3.260  0.1857  0.8213  0.3926
 6512SOL     OW31168   3.627   3.370  16.942  0.0288 -0.0595 -0.1914
 6512SOL    HW131169   3.566   3.434  16.977  0.3300 -0.1005  0.4007
 6512SOL    HW231170   3.569   3.337  16.873  2.5097 -1.0940 -1.8083
 6513SOL     OW31171   4.360   2.528   6.274 -0.1495  0.5322  0.1338
 6513SOL    HW131172   4.446   2.516   6.234  0.0490 -4.1084  1.9471
 6513SOL    HW231173   4.370   2.616   6.311  0.1660  0.2325  0.7588
 6514SOL     OW31174   1.911   4.638   2.732 -0.3039 -0.4497 -0.2140
 6514SOL    HW131175   1.910   4.721   2.684 -0.6712  0.2705  1.0455
 6514SOL    HW231176   1.987   4.598   2.691  0.0890 -1.8423  1.8911
 6515SOL     OW31177   4.017   1.324   4.981  0.1009 -0.6890  0.0598
 6515SOL    HW131178   4.082   1.269   5.023  2.2798  1.9777  0.1836
 6515SOL    HW231179   3.955   1.330   5.054  0.5009 -0.1492  0.3584
 6516SOL     OW31180   4.273   3.174  16.434  0.1035  0.8035  0.2348
 6516SOL    HW131181   4.348   3.233  16.444  1.4270 -0.9538  0.6892
 6516SOL    HW231182   4.226   3.196  16.515 -2.1939 -0.4484 -0.7764
 6517SOL     OW31183   0.928   3.376  11.403  0.2442 -0.6508 -0.0412
 6517SOL    HW131184   0.882   3.364  11.321 -1.0804  1.7084  0.3737
 6517SOL    HW231185   0.886   3.451  11.445 -1.2296 -1.3544 -0.2564
 6518SOL     OW31186   4.436   0.605   0.692  0.0801  0.1082  0.5913
 6518SOL    HW131187   4.421   0.665   0.766  1.5871  1.3609 -0.1189
 6518SOL    HW231188   4.428   0.523   0.740  1.9965  0.5031  1.5779
 6519SOL     OW31189   4.706   0.708   3.450  0.0841  0.3243 -0.2199
 6519SOL    HW131190   0.032   0.660   3.397  1.1775 -0.3767  1.7141
 6519SOL    HW231191   0.019   0.776   3.496 -0.7665  0.1312  0.9869
 6520SOL     OW31192   0.566   3.462   6.715 -0.4211 -0.7419  0.6225
 6520SOL    HW131193   0.552   3.475   6.621 -1.2235  0.9150  0.9551
 6520SOL    HW231194   0.645   3.514   6.730 -0.1008 -1.5673  1.7625
 6521SOL     OW31195   4.185   1.127   5.084  0.1149  0.6115  0.5711
 6521SOL    HW131196   4.260   1.110   5.028  0.0578 -0.5649  0.8553
 6521SOL    HW231197   4.221   1.108   5.171 -0.2589  1.9119  1.0111
 6522SOL     OW31198   2.569   4.483   9.228  0.7874  0.2965 -0.3622
 6522SOL    HW131199   2.619   4.516   9.154  0.9451  0.2667 -0.2692
 6522SOL    HW231200   2.508   4.427   9.180 -1.2158  2.2727 -0.0886
 6523SOL     OW31201   1.269   1.468  12.690  0.1485 -0.0741  0.1906
 6523SOL    HW131202   1.217   1.466  12.771 -0.8401  2.6827 -0.3757
 6523SOL    HW231203   1.207   1.429  12.629 -0.0826 -0.7745  0.8695
 6524SOL     OW31204   3.043   2.192  13.803  0.2650 -0.9098  0.5670
 6524SOL    HW131205   3.084   2.262  13.854 -4.4432  1.9631  0.4025
 6524SOL    HW231206   3.092   2.177  13.722  0.2014 -0.4117  0.4396
 6525SOL     OW31207   0.642   0.554  14.933  0.0850 -0.0491 -0.3657
 6525SOL    HW131208   0.601   0.639  14.947 -0.7348 -0.0292 -2.9108
 6525SOL    HW231209   0.575   0.487  14.933  0.8407 -0.8106 -2.2160
 6526SOL     OW31210   1.263   3.506   3.081  0.2074 -0.3396 -0.2328
 6526SOL    HW131211   1.321   3.556   3.024 -0.6216  1.3986  0.4678
 6526SOL    HW231212   1.209   3.453   3.022 -0.3817  1.2969 -1.1673
 6527SOL     OW31213   2.027   3.654  12.018  0.3559  0.2342  0.1836
 6527SOL    HW131214   2.046   3.741  11.981 -1.5705  0.7324  0.3590
 6527SOL    HW231215   1.972   3.620  11.947  1.8190  1.8665 -1.7529
 6528SOL     OW31216   1.927   0.262   9.281  0.1658 -0.2500  0.0988
 6528SOL    HW131217   1.833   0.277   9.292  0.4188 -0.1343  2.0022
 6528SOL    HW231218   1.959   0.315   9.207 -1.7783 -1.2395 -1.4407
 6529SOL     OW31219   0.990   4.527  15.584  0.3060  0.3681  0.0852
 6529SOL    HW131220   0.986   4.549  15.677  0.7037  5.5334 -1.1020
 6529SOL    HW231221   1.084   4.510  15.583  0.6105  2.0587 -1.0168
 6530SOL     OW31222   2.815   3.635   1.028  0.7628  0.2002 -0.0747
 6530SOL    HW131223   2.861   3.605   1.106  0.7782  0.0622 -0.1379
 6530SOL    HW231224   2.884   3.660   0.966 -0.6958  0.5464 -1.5629
 6531SOL     OW31225   2.898   0.945   5.069 -0.0096 -0.1276  0.0820
 6531SOL    HW131226   2.821   0.980   5.024 -0.6224 -0.3773  0.9345
 6531SOL    HW231227   2.953   1.022   5.086  0.0410  0.0578 -0.9332
 6532SOL     OW31228   0.244   1.418  15.024 -0.9605  0.0172 -0.1073
 6532SOL    HW131229   0.302   1.438  14.950 -0.9556 -2.9608 -0.9033
 6532SOL    HW231230   0.290   1.478  15.082 -0.0733 -0.5986 -0.1680
 6533SOL     OW31231   4.697   3.566  15.173 -0.0071  0.0328 -0.4748
 6533SOL    HW131232   4.729   3.498  15.113  2.1324  0.4984  0.1457
 6533SOL    HW231233   4.701   3.634  15.106  2.3247 -0.2828 -0.6617
 6534SOL     OW31234   2.259   3.298  13.361 -0.4307 -0.0503  0.2088
 6534SOL    HW131235   2.208   3.369  13.322  2.0022  2.5017  1.6439
 6534SOL    HW231236   2.350   3.326  13.359  0.0641 -1.6465  0.6671
 6535SOL     OW31237   1.776   4.330  11.584 -0.4457  0.3221  0.3345
 6535SOL    HW131238   1.820   4.281  11.654  1.5444  2.1896  0.4122
 6535SOL    HW231239   1.813   4.418  11.588  2.0557 -0.6969 -0.1836
 6536SOL     OW31240   2.650   3.910  10.566 -0.4320  0.2309  0.0388
 6536SOL    HW131241   2.738   3.934  10.595  0.2473  0.1994 -1.9490
 6536SOL    HW231242   2.665   3.877  10.477 -3.2359 -1.8198  0.3256
 6537SOL     OW31243   1.085   1.766   8.337  0.0301 -0.1501  0.2400
 6537SOL    HW131244   1.082   1.673   8.359  0.1506 -0.9738 -3.2642
 6537SOL    HW231245   1.082   1.803   8.426 -0.3250  0.8376 -0.1838
 6538SOL     OW31246   0.933   1.927   1.455 -0.0932 -0.0753  0.1376
 6538SOL    HW131247   0.843   1.894   1.456 -0.9512  2.2529  0.5325
 6538SOL    HW231248   0.968   1.888   1.375 -1.2499 -2.1992  0.6734
 6539SOL     OW31249   0.678   1.365   8.219 -0.2201 -0.3069  0.1688
 6539SOL    HW131250   0.744   1.386   8.152 -0.7345  0.7580  0.0084
 6539SOL    HW231251   0.695   1.271   8.228 -1.8310 -0.9068 -2.7790
 6540SOL     OW31252   4.033   1.894   6.487  0.4309 -0.0804  0.2536
 6540SOL    HW131253   4.021   1.801   6.505  0.3203 -0.6093 -2.4954
 6540SOL    HW231254   4.128   1.891   6.476  0.6603  0.6237  2.0394
 6541SOL     OW31255   0.138   3.147   2.746 -0.0991  0.2355  0.6820
 6541SOL    HW131256   0.180   3.225   2.781  0.1019  0.3214  0.2547
 6541SOL    HW231257   0.093   3.190   2.672 -2.1156 -1.0478  1.1504
 6542SOL     OW31258   3.972   4.245   4.070  0.5278 -0.3621  0.3457
 6542SOL    HW131259   4.066   4.227   4.066  0.9111  1.3464  1.8994
 6542SOL    HW231260   3.979   4.320   4.128 -1.2371  0.1589 -0.1303
 6543SOL     OW31261   4.584   2.930   7.619  0.6500  0.1379  0.5510
 6543SOL    HW131262   4.489   2.919   7.610  0.4035  1.3518  1.7839
 6543SOL    HW231263   4.597   3.015   7.578 -1.2188  0.5552  0.8225
 6544SOL     OW31264   2.923   2.680  15.851  0.8833  0.3650 -0.1062
 6544SOL    HW131265   2.946   2.633  15.932 -1.6712 -0.6323  0.0505
 6544SOL    HW231266   2.881   2.759  15.884  0.8590  1.1092 -1.9598
 6545SOL     OW31267   1.456   3.506   8.471 -0.3459  0.1579  0.4318
 6545SOL    HW131268   1.529   3.465   8.516 -0.8234  1.9519  2.8387
 6545SOL    HW231269   1.467   3.596   8.504  0.4499  0.0000  0.5917
 6546SOL     OW31270   0.559   2.656   2.108  0.3338 -0.1458 -0.2455
 6546SOL    HW131271   0.619   2.621   2.041  0.4407 -1.2095  0.4002
 6546SOL    HW231272   0.542   2.577   2.159 -3.7522  0.6165 -0.4540
 6547SOL     OW31273   3.585   2.259   6.138  0.4350  0.2837 -0.1681
 6547SOL    HW131274   3.626   2.331   6.185 -0.7036  0.8565 -0.0689
 6547SOL    HW231275   3.652   2.258   6.069  1.1239 -2.9783  0.5409
 6548SOL     OW31276   1.702   3.415   3.290 -0.4775 -0.2491  0.0056
 6548SOL    HW131277   1.753   3.396   3.368  0.9626  0.0261 -0.8716
 6548SOL    HW231278   1.662   3.497   3.317 -1.0339  0.3411 -2.6372
 6549SOL     OW31279   1.932   4.635   5.176  0.6775 -0.0755  0.2375
 6549SOL    HW131280   1.851   4.623   5.126 -0.7065  0.1173  2.4236
 6549SOL    HW231281   1.905   4.708   5.233 -0.8835  0.5908 -1.3697
 6550SOL     OW31282   3.185   1.847   8.872  0.3331  0.1608 -0.3822
 6550SOL    HW131283   3.157   1.757   8.852  0.6775 -0.0097 -0.1063
 6550SOL    HW231284   3.253   1.819   8.933 -0.7571 -1.9888 -0.1459
 6551SOL     OW31285   0.876   0.712  14.854 -0.3230 -0.3163  0.2270
 6551SOL    HW131286   0.796   0.661  14.863  0.8237 -2.2005 -0.2280
 6551SOL    HW231287   0.858   0.746  14.766  0.7208  1.4803  0.7049
 6552SOL     OW31288   1.689   1.275   6.603  0.2965  0.2254 -0.4515
 6552SOL    HW131289   1.596   1.277   6.629  0.4560  2.3915  0.0091
 6552SOL    HW231290   1.669   1.311   6.517 -2.2779  4.6879  1.9785
 6553SOL     OW31291   4.542   1.396   8.073  0.2590 -0.3107  0.2184
 6553SOL    HW131292   4.527   1.303   8.060 -1.4125  0.1900 -1.3738
 6553SOL    HW231293   4.631   1.399   8.110  0.8911 -0.5797 -1.2700
 6554SOL     OW31294   2.307   3.967   7.682 -0.5688 -0.1150 -0.4917
 6554SOL    HW131295   2.290   3.950   7.775  1.8165 -0.2853 -0.0916
 6554SOL    HW231296   2.302   4.063   7.685  1.9748 -0.0739  1.8800
 6555SOL     OW31297   2.401   1.420   4.527  0.6634  0.1095 -0.2595
 6555SOL    HW131298   2.400   1.404   4.433 -1.0859  1.0395 -0.4021
 6555SOL    HW231299   2.456   1.347   4.555 -1.0181 -0.5156  1.4276
 6556SOL     OW31300   1.060   1.570   5.886  0.4884  0.4993  0.2052
 6556SOL    HW131301   1.009   1.650   5.902 -1.0984 -0.6298  0.8456
 6556SOL    HW231302   0.997   1.516   5.839  1.8214 -0.3429 -0.6007
 6557SOL     OW31303   1.017   2.479   3.235  0.5653  0.1061  0.0021
 6557SOL    HW131304   0.968   2.397   3.225  0.0967  0.6181 -1.8156
 6557SOL    HW231305   1.012   2.514   3.146  2.2966 -1.1919 -0.5940
 6558SOL     OW31306   4.344   4.727  13.125  0.0043 -0.2156 -0.1728
 6558SOL    HW131307   4.262   0.018  13.166  0.6705  1.0829  0.2789
 6558SOL    HW231308   4.373   0.073  13.088  0.8217 -0.2223  0.4445
 6559SOL     OW31309   0.826   3.327  13.148  0.4948  0.2686  0.0188
 6559SOL    HW131310   0.919   3.350  13.153  0.7183 -1.1614  2.2484
 6559SOL    HW231311   0.798   3.320  13.057 -0.5475  1.0154  0.2793
 6560SOL     OW31312   1.578   3.186   4.415 -0.4532 -0.1081 -0.2096
 6560SOL    HW131313   1.526   3.145   4.346  0.7443 -0.1168 -1.1113
 6560SOL    HW231314   1.662   3.197   4.371 -0.0411 -4.3058 -0.4469
 6561SOL     OW31315   1.159   3.076  13.463 -0.1196 -0.2385  0.2269
 6561SOL    HW131316   1.226   3.015  13.433  3.2735  2.2547  2.7904
 6561SOL    HW231317   1.112   3.081  13.379 -1.2063  0.2124  0.8556
 6562SOL     OW31318   0.283   4.023   6.137  0.2544  0.1851 -0.1956
 6562SOL    HW131319   0.305   4.114   6.159 -0.4207 -0.1008  1.6801
 6562SOL    HW231320   0.189   4.033   6.126 -0.0726 -0.9130  1.5050
 6563SOL     OW31321   0.504   0.663   5.539  0.0075  0.1990 -0.5671
 6563SOL    HW131322   0.534   0.575   5.515 -0.5530  0.3776 -1.9539
 6563SOL    HW231323   0.585   0.703   5.569  0.4469  0.2383 -1.7971
 6564SOL     OW31324   3.637   4.188   3.239 -0.0034 -0.9263 -0.0059
 6564SOL    HW131325   3.568   4.173   3.303  1.0149  0.6805  1.4747
 6564SOL    HW231326   3.606   4.257   3.181 -0.7792  1.0491  2.7970
 6565SOL     OW31327   0.512   3.185  12.966  0.3669 -0.2927  0.9532
 6565SOL    HW131328   0.433   3.225  13.002 -0.0902  1.2260 -1.7674
 6565SOL    HW231329   0.472   3.162  12.882 -1.8491 -0.8871  2.1570
 6566SOL     OW31330   1.277   1.107   8.078  0.2204  0.1143 -0.5178
 6566SOL    HW131331   1.263   1.058   8.159 -1.5673 -0.8158 -1.4012
 6566SOL    HW231332   1.226   1.184   8.105 -1.3736 -1.0921 -0.1355
 6567SOL     OW31333   1.944   2.621   2.697  0.1778 -0.3824  0.5103
 6567SOL    HW131334   1.911   2.551   2.754  1.4333 -0.9410  0.5645
 6567SOL    HW231335   2.003   2.665   2.758  0.8628 -1.6382  0.7650
 6568SOL     OW31336   1.570   0.594  16.077  0.5000 -0.3785 -0.4636
 6568SOL    HW131337   1.641   0.637  16.125  0.0385 -1.9092  1.5702
 6568SOL    HW231338   1.511   0.660  16.040  0.0209 -1.7198 -2.1133
 6569SOL     OW31339   0.145   2.119   2.150  0.2054  0.6510  0.3281
 6569SOL    HW131340   0.130   2.164   2.067  1.4803  1.1527  0.3751
 6569SOL    HW231341   0.206   2.057   2.111  0.3836 -0.8764  3.0352
 6570SOL     OW31342   0.128   3.096   8.794 -0.3048  0.2471 -0.2968
 6570SOL    HW131343   0.079   3.071   8.873 -0.1725 -3.4846 -1.3709
 6570SOL    HW231344   0.061   3.130   8.735 -0.9762 -0.2096  0.2008
 6571SOL     OW31345   0.436   1.188   0.288 -0.2865 -0.3738 -0.3268
 6571SOL    HW131346   0.390   1.123   0.341  0.0512 -0.1313  0.2675
 6571SOL    HW231347   0.477   1.134   0.220 -1.4725 -0.1708 -1.2104
 6572SOL     OW31348   2.324   1.582   6.761  0.0812 -0.2162 -0.0981
 6572SOL    HW131349   2.270   1.528   6.704 -0.0257  2.6384 -2.7210
 6572SOL    HW231350   2.271   1.662   6.768 -0.6961 -0.8783  1.7289
 6573SOL     OW31351   2.921   1.326  12.842  0.2614  0.2958  0.0466
 6573SOL    HW131352   2.941   1.290  12.928 -0.1306  0.1158  0.0622
 6573SOL    HW231353   2.971   1.407  12.844 -0.8841  0.9814  1.0450
 6574SOL     OW31354   1.904   0.525  11.303  0.3929 -0.5535  0.3045
 6574SOL    HW131355   1.906   0.607  11.253 -1.3300 -0.8184 -0.2165
 6574SOL    HW231356   1.953   0.474  11.238  0.0637 -0.7735  0.2283
 6575SOL     OW31357   0.250   1.655   8.965  0.3831  0.3786  0.1044
 6575SOL    HW131358   0.219   1.591   9.030  1.0897  0.3958  0.4622
 6575SOL    HW231359   0.338   1.670   9.001  1.0848  0.6724 -1.7645
 6576SOL     OW31360   1.562   3.168   6.881  0.2649  0.4837  0.3882
 6576SOL    HW131361   1.619   3.225   6.830  0.6873  0.5020  0.8724
 6576SOL    HW231362   1.534   3.225   6.952 -2.3027  0.2334 -0.4245
 6577SOL     OW31363   1.510   1.521  16.774  0.0030 -0.1006  0.0158
 6577SOL    HW131364   1.469   1.516  16.860  2.3090 -0.1835  1.1303
 6577SOL    HW231365   1.600   1.501  16.799  0.9629  0.6161 -2.8202
 6578SOL     OW31366   0.995   0.203  10.501 -0.5811  0.0875  0.1978
 6578SOL    HW131367   0.984   0.288  10.544 -3.9063 -1.7381  3.0349
 6578SOL    HW231368   1.086   0.212  10.474 -0.7741  4.0740  0.8915
 6579SOL     OW31369   3.469   2.664   5.482 -0.3261 -0.6588 -0.6298
 6579SOL    HW131370   3.497   2.607   5.411  0.6384  0.9871 -1.5608
 6579SOL    HW231371   3.525   2.741   5.476 -0.4173 -0.5931 -0.6441
 6580SOL     OW31372   0.179   2.184  13.917  0.4105 -0.0547  0.1064
 6580SOL    HW131373   0.086   2.205  13.906  0.5712  0.6565  0.1251
 6580SOL    HW231374   0.210   2.274  13.924  0.6656  0.0885 -2.6446
 6581SOL     OW31375   4.363   0.125   1.926  0.1785 -0.3884  0.3306
 6581SOL    HW131376   4.358   0.218   1.950  1.5374 -0.0326 -0.7548
 6581SOL    HW231377   4.342   0.128   1.832 -0.7204  1.3090  0.5831
 6582SOL     OW31378   4.325   4.718   6.608 -0.1874 -0.4549 -0.6669
 6582SOL    HW131379   4.291   4.643   6.559  0.4729 -0.4910 -1.0668
 6582SOL    HW231380   4.264   4.728   6.681 -0.5862  1.2049 -1.2384
 6583SOL     OW31381   3.784   4.257  16.118  0.6221 -0.1007  0.1761
 6583SOL    HW131382   3.730   4.288  16.046 -0.5676 -0.5777  0.8585
 6583SOL    HW231383   3.735   4.293  16.192  1.3442  2.1360 -0.4655
 6584SOL     OW31384   0.559   2.244  13.933  0.0831 -0.0193  0.2434
 6584SOL    HW131385   0.532   2.247  14.025  0.5782  1.5510  0.3415
 6584SOL    HW231386   0.646   2.282  13.944 -0.8798  2.2799 -0.0972
 6585SOL     OW31387   1.637   3.981   7.954 -1.0832  0.0115  0.0395
 6585SOL    HW131388   1.637   3.959   7.861 -0.3617  2.9615 -0.6414
 6585SOL    HW231389   1.667   3.902   8.000  0.9223  0.5274 -0.3962
 6586SOL     OW31390   2.350   3.024  15.004 -0.1561  0.2194  0.2453
 6586SOL    HW131391   2.362   2.991  14.915  1.7621  2.0794 -0.1759
 6586SOL    HW231392   2.265   2.987  15.027  0.4820 -1.3314  0.1732
 6587SOL     OW31393   4.524   3.865   4.824 -0.3605  0.4470  0.0676
 6587SOL    HW131394   4.593   3.874   4.890  0.4595  1.8758 -0.9758
 6587SOL    HW231395   4.459   3.921   4.865  3.1057  4.7429 -0.1979
 6588SOL     OW31396   0.766   3.306   6.899 -0.2524  0.4074  0.4964
 6588SOL    HW131397   0.692   3.246   6.890 -1.2266  1.3288  2.4275
 6588SOL    HW231398   0.828   3.245   6.938 -0.4042 -1.4386 -2.1243
 6589SOL     OW31399   4.542   2.289   6.834  0.3472 -0.4943  0.3956
 6589SOL    HW131400   4.509   2.328   6.753  0.5264 -0.7964  0.1780
 6589SOL    HW231401   4.620   2.342   6.850  1.3159 -1.4271 -1.2302
 6590SOL     OW31402   4.206   0.918   6.869  0.2859  0.0553  0.0411
 6590SOL    HW131403   4.125   0.921   6.818  1.0687 -0.2861 -1.2538
 6590SOL    HW231404   4.173   0.887   6.953 -2.7148 -1.3843 -1.6543
 6591SOL     OW31405   3.798   0.329  15.408 -0.6220  0.0062  0.2084
 6591SOL    HW131406   3.740   0.405  15.406  1.2089  1.4407  1.1393
 6591SOL    HW231407   3.831   0.339  15.318 -0.1350 -1.0216  0.2792
 6592SOL     OW31408   4.300   2.504   0.019  0.1556  0.1993  0.3197
 6592SOL    HW131409   4.293   2.446  17.691  0.4502  1.2637 -0.5192
 6592SOL    HW231410   4.231   2.571   0.017  0.7181  0.7203 -2.0117
 6593SOL     OW31411   4.030   0.903   6.219 -0.2839  0.4697  0.1058
 6593SOL    HW131412   4.031   0.968   6.289  0.6235 -0.0770  0.5952
 6593SOL    HW231413   4.108   0.851   6.238 -0.1912  0.3086 -0.6891
 6594SOL     OW31414   0.137   4.667   9.189 -0.0338  0.1856  0.6919
 6594SOL    HW131415   0.198   4.703   9.254  1.7907 -0.4070 -0.7060
 6594SOL    HW231416   0.145   4.575   9.217  3.3852  1.2170  3.1291
 6595SOL     OW31417   2.901   0.483   3.413 -0.1906  0.1522  0.1605
 6595SOL    HW131418   2.946   0.412   3.460  0.8443  1.5546  1.3111
 6595SOL    HW231419   2.982   0.505   3.366  1.4707 -1.4389  2.2807
 6596SOL     OW31420   3.724   0.482   0.601  0.2577  0.5435 -0.4390
 6596SOL    HW131421   3.665   0.520   0.535 -0.9178 -2.5363 -1.1821
 6596SOL    HW231422   3.808   0.499   0.560  1.1553 -1.0417  0.7465
 6597SOL     OW31423   3.870   1.963   2.633 -0.2615  0.1104 -0.3263
 6597SOL    HW131424   3.817   1.935   2.708 -0.0269 -0.8701 -0.5199
 6597SOL    HW231425   3.857   1.893   2.569 -0.8528  0.7895 -0.9386
 6598SOL     OW31426   0.617   1.523   5.234  0.2743 -0.3432 -0.7981
 6598SOL    HW131427   0.532   1.482   5.244 -0.4798  1.5307  0.4433
 6598SOL    HW231428   0.633   1.502   5.142 -0.2494 -1.8345 -0.5467
 6599SOL     OW31429   3.832   0.009   2.793 -0.3035  0.1958  0.0564
 6599SOL    HW131430   3.913   0.055   2.772  0.4089 -0.7562  0.7158
 6599SOL    HW231431   3.830   0.025   2.887  3.3082 -0.2319  0.2104
 6600SOL     OW31432   1.807   1.488   5.812 -0.0134 -0.5222 -0.5586
 6600SOL    HW131433   1.792   1.578   5.783 -0.3496  0.1856  1.8138
 6600SOL    HW231434   1.826   1.447   5.728 -2.6761 -0.8742 -1.0029
 6601SOL     OW31435   0.948   1.066   9.227 -0.1394  0.1305 -0.0531
 6601SOL    HW131436   0.904   1.086   9.144 -0.5028 -0.1752  0.0670
 6601SOL    HW231437   0.991   1.152   9.232  2.8546 -1.4002  0.5744
 6602SOL     OW31438   2.605   3.576   7.903 -0.3250  0.2444 -0.1186
 6602SOL    HW131439   2.580   3.547   7.815  0.3063 -1.0469  0.1316
 6602SOL    HW231440   2.557   3.510   7.953  1.1492  0.5689  1.7260
 6603SOL     OW31441   4.615   4.448   2.953  0.3361 -0.2017 -0.2751
 6603SOL    HW131442   4.658   4.530   2.929 -1.5795  0.5256 -1.1573
 6603SOL    HW231443   4.678   4.383   2.920 -1.3209  0.0413 -3.8943
 6604SOL     OW31444   3.283   1.090   0.898  0.0702  1.0219 -0.6267
 6604SOL    HW131445   3.242   1.093   0.985  1.6355  1.5609  0.0973
 6604SOL    HW231446   3.236   1.011   0.872  0.3483  0.2553  1.1683
 6605SOL     OW31447   2.313   1.878   7.695 -0.0537 -0.0329 -0.3640
 6605SOL    HW131448   2.259   1.862   7.772  0.5984 -0.9076 -0.0861
 6605SOL    HW231449   2.248   1.856   7.627 -1.8709 -1.1001  1.7163
 6606SOL     OW31450   0.996   3.778   1.722 -0.0376  0.2207  0.3373
 6606SOL    HW131451   0.926   3.751   1.662  0.7050  1.0141 -0.8761
 6606SOL    HW231452   0.948   3.814   1.797 -0.1228 -0.2336  0.5052
 6607SOL     OW31453   3.265   2.883   5.196 -0.9018 -0.3015  0.3140
 6607SOL    HW131454   3.196   2.946   5.219  1.0370  2.4478 -1.5232
 6607SOL    HW231455   3.311   2.883   5.280 -2.6894  1.0846  1.3034
 6608SOL     OW31456   0.715   1.348   7.714  0.2772  0.0209 -0.1113
 6608SOL    HW131457   0.697   1.412   7.645 -0.7622  0.2640  0.3922
 6608SOL    HW231458   0.696   1.263   7.674 -2.3223 -0.7574  2.8337
 6609SOL     OW31459   1.806   0.005   3.545 -0.5260 -0.1877 -0.4493
 6609SOL    HW131460   1.894   0.041   3.558  0.1856 -1.3098 -2.1690
 6609SOL    HW231461   1.804   0.019   3.451 -0.7364  0.2577 -0.3786
 6610SOL     OW31462   0.385   1.389   8.177 -0.2834  0.5466  0.1367
 6610SOL    HW131463   0.473   1.351   8.175 -0.6226 -0.2946  1.3933
 6610SOL    HW231464   0.402   1.466   8.231  4.6233  0.5422 -1.4180
 6611SOL     OW31465   2.702   4.228   6.545  0.0404 -0.2854 -0.0541
 6611SOL    HW131466   2.780   4.250   6.597  0.5086 -1.6991 -0.1656
 6611SOL    HW231467   2.758   4.238   6.467 -1.8771 -0.2711 -1.4289
 6612SOL     OW31468   2.217   1.115   3.058  0.3608 -0.5302  0.5218
 6612SOL    HW131469   2.295   1.164   3.031  0.6920 -0.7168  1.1226
 6612SOL    HW231470   2.159   1.190   3.063  0.1887 -0.6796  0.7597
 6613SOL     OW31471   3.988   0.835   1.382  0.0158  0.1856  0.6499
 6613SOL    HW131472   3.968   0.908   1.440 -2.4057 -0.3576  0.4902
 6613SOL    HW231473   3.960   0.762   1.436  1.6316 -0.6521  0.3769
 6614SOL     OW31474   0.738   4.017  10.957  0.0440  0.3577 -0.1213
 6614SOL    HW131475   0.768   4.105  10.937 -1.3799  0.5645 -1.3520
 6614SOL    HW231476   0.709   4.029  11.047 -1.5351  0.0461 -0.5912
 6615SOL     OW31477   1.718   4.219  17.300  0.6883  0.2443 -0.7556
 6615SOL    HW131478   1.699   4.290  17.362  0.2982 -0.4459 -0.0784
 6615SOL    HW231479   1.799   4.246  17.257  1.7564  0.9963  1.7410
 6616SOL     OW31480   3.022   2.600   8.617  0.0971  0.4620 -0.8396
 6616SOL    HW131481   2.965   2.523   8.619  1.7949 -0.7629  0.6947
 6616SOL    HW231482   2.954   2.664   8.636 -2.4263 -3.0138  1.9688
 6617SOL     OW31483   0.752   0.277  12.166  1.0092 -0.3846  0.1379
 6617SOL    HW131484   0.779   0.368  12.181 -0.4792 -0.2423  1.9582
 6617SOL    HW231485   0.772   0.274  12.073 -0.9910  0.3513 -0.3168
 6618SOL     OW31486   1.715   1.690   6.187 -0.1277  0.4794  0.4553
 6618SOL    HW131487   1.761   1.768   6.156 -0.4365  1.2680  1.9789
 6618SOL    HW231488   1.622   1.710   6.182  0.2482  1.8972 -0.9259
 6619SOL     OW31489   1.896   3.574  17.315  0.2599 -0.7253  0.4776
 6619SOL    HW131490   1.941   3.630  17.379  1.9251 -1.5017 -0.0068
 6619SOL    HW231491   1.849   3.644  17.271  0.7851  0.5853  1.9689
 6620SOL     OW31492   2.061   0.354   3.379 -0.2844 -0.1919 -0.1808
 6620SOL    HW131493   2.013   0.437   3.384  1.6115  1.0044 -1.7209
 6620SOL    HW231494   2.145   0.387   3.410 -0.8953  1.3418 -0.1764
 6621SOL     OW31495   2.568   3.137  11.763  0.2801  0.4510  0.6624
 6621SOL    HW131496   2.615   3.054  11.758  0.8674  0.8042  0.3189
 6621SOL    HW231497   2.549   3.159  11.672 -0.6642  0.0565  0.7599
 6622SOL     OW31498   3.778   2.736  10.667 -0.2987  0.5983 -0.0801
 6622SOL    HW131499   3.780   2.780  10.582  1.4243 -0.2454 -0.4772
 6622SOL    HW231500   3.779   2.812  10.725  1.2706 -0.1136  0.8250
 6623SOL     OW31501   4.327   1.713   7.685  0.0987 -0.1608 -0.0163
 6623SOL    HW131502   4.370   1.659   7.751 -0.8774 -0.9546 -0.0141
 6623SOL    HW231503   4.406   1.735   7.637  2.0730 -2.3812  2.2015
 6624SOL     OW31504   0.374   3.335   9.834  0.2594 -0.4538  0.3629
 6624SOL    HW131505   0.313   3.378   9.895  1.0496  0.9515  0.1606
 6624SOL    HW231506   0.410   3.266   9.889 -0.6384 -0.4474  0.9595
 6625SOL     OW31507   3.330   2.801   1.567 -0.1584  0.0720  0.3943
 6625SOL    HW131508   3.413   2.835   1.598 -0.0270 -1.1707  1.4187
 6625SOL    HW231509   3.319   2.724   1.624  2.2485 -1.8567 -1.7820
 6626SOL     OW31510   3.409   0.125   0.084 -0.5785 -0.1255  0.1373
 6626SOL    HW131511   3.451   0.103   0.000 -1.1626  0.2219 -0.2469
 6626SOL    HW231512   3.480   0.146   0.144 -0.7935 -1.9740  1.0364
 6627SOL     OW31513   3.832   4.034  12.637 -0.2157  0.2940 -0.2669
 6627SOL    HW131514   3.767   4.022  12.707 -0.1193  0.7013 -0.1026
 6627SOL    HW231515   3.916   4.040  12.683  0.4810  0.7429 -1.6155
 6628SOL     OW31516   3.555   0.564  11.945  0.2331  0.4446  0.0606
 6628SOL    HW131517   3.597   0.500  11.888 -3.1724 -0.5535 -1.3281
 6628SOL    HW231518   3.551   0.528  12.034  0.8737 -0.5530 -0.3075
 6629SOL     OW31519   2.653   3.421   6.335  0.5717 -0.1054  0.0597
 6629SOL    HW131520   2.738   3.378   6.325 -0.0903 -1.8463  1.9681
 6629SOL    HW231521   2.607   3.362   6.276  0.7517 -1.0635  0.8909
 6630SOL     OW31522   2.408   3.704   8.107 -0.8206 -0.1592 -0.3028
 6630SOL    HW131523   2.380   3.667   8.024  0.6865 -0.6571 -0.5796
 6630SOL    HW231524   2.348   3.778   8.113 -0.3032  0.1216  1.4579
 6631SOL     OW31525   1.674   2.321  13.144  0.0982 -0.3486 -0.3330
 6631SOL    HW131526   1.718   2.263  13.205 -2.9302 -0.9591  1.2636
 6631SOL    HW231527   1.669   2.265  13.067 -0.5411  1.2651 -1.4724
 6632SOL     OW31528   2.877   2.427  11.918  0.1406  0.3283 -0.5841
 6632SOL    HW131529   2.930   2.406  11.842  0.8552  0.2742 -0.0658
 6632SOL    HW231530   2.941   2.444  11.988  0.0128  1.2390 -0.6874
 6633SOL     OW31531   4.593   3.887   2.660 -0.2134  0.0081 -0.3197
 6633SOL    HW131532   4.608   3.980   2.643  0.4125 -0.2352 -1.1080
 6633SOL    HW231533   4.571   3.860   2.571 -1.9176 -1.2840  0.4959
 6634SOL     OW31534   1.990   3.494   1.308  0.6314  0.2457 -0.1249
 6634SOL    HW131535   1.977   3.572   1.253 -1.7295  0.5193  0.8300
 6634SOL    HW231536   1.930   3.437   1.260 -1.0749  1.1336  0.9483
 6635SOL     OW31537   0.369   0.218  11.647  0.2319  0.3913  1.0109
 6635SOL    HW131538   0.397   0.274  11.720  2.7169 -1.4744  1.5156
 6635SOL    HW231539   0.316   0.278  11.595  0.7317  1.6874  1.9981
 6636SOL     OW31540   1.721   2.024  11.403  0.0294 -0.5345 -0.0305
 6636SOL    HW131541   1.785   1.957  11.380 -2.1210 -1.8493 -2.1650
 6636SOL    HW231542   1.761   2.103  11.367  0.2816 -1.4751 -1.7987
 6637SOL     OW31543   2.752   0.060   6.401  0.0799 -0.0134 -0.0125
 6637SOL    HW131544   2.781   0.151   6.405 -1.1141  0.4148 -1.3658
 6637SOL    HW231545   2.826   0.001   6.418 -0.6072 -0.7895  0.2513
 6638SOL     OW31546   3.095   0.420   6.134  0.1265 -0.0232 -0.4852
 6638SOL    HW131547   3.055   0.479   6.197  2.2685  0.6697  0.2228
 6638SOL    HW231548   3.179   0.400   6.175  0.3499 -0.3730 -1.1046
 6639SOL     OW31549   0.497   4.419   9.395  0.3589  0.0341 -0.0444
 6639SOL    HW131550   0.585   4.387   9.416  0.7259  0.2194 -1.3194
 6639SOL    HW231551   0.492   4.502   9.444 -0.5898  0.9735 -1.7544
 6640SOL     OW31552   3.731   4.156  17.535  0.0084  0.0889 -0.2180
 6640SOL    HW131553   3.690   4.070  17.526  0.1756 -0.0737  0.5433
 6640SOL    HW231554   3.652   4.209  17.546  0.4171  0.8783 -1.1235
 6641SOL     OW31555   0.065   1.940   2.351 -0.0724  0.0779  0.3099
 6641SOL    HW131556   0.108   1.991   2.283  0.6383 -0.6916  0.1792
 6641SOL    HW231557   0.017   1.882   2.291 -0.5953  0.3532  0.4612
 6642SOL     OW31558   2.452   1.386  17.024 -0.1505 -0.3377 -0.0159
 6642SOL    HW131559   2.505   1.462  17.046 -1.3011  0.4022  0.1824
 6642SOL    HW231560   2.379   1.404  17.084 -0.6843  1.2320 -1.1378
 6643SOL     OW31561   1.459   1.553  17.253  0.6184  0.0296 -0.0978
 6643SOL    HW131562   1.492   1.532  17.341  0.1289  2.8767  0.7712
 6643SOL    HW231563   1.364   1.543  17.266  0.1689 -0.3115 -3.8610
 6644SOL     OW31564   3.562   2.818   2.415 -0.5367  0.8393 -0.4046
 6644SOL    HW131565   3.597   2.787   2.331 -2.2448  1.3474 -1.2993
 6644SOL    HW231566   3.520   2.900   2.391  0.0394  0.7276 -1.7894
 6645SOL     OW31567   3.815   0.538   3.273  0.6712  0.0481  0.3113
 6645SOL    HW131568   3.888   0.561   3.216  0.4748 -0.8528 -0.2941
 6645SOL    HW231569   3.862   0.490   3.341 -0.6634 -1.9671 -0.1894
 6646SOL     OW31570   0.819   2.456   3.669  0.4368 -0.5409  0.3944
 6646SOL    HW131571   0.891   2.498   3.622  1.1025 -1.2801  0.7612
 6646SOL    HW231572   0.764   2.530   3.698  1.6442  0.6514 -0.3545
 6647SOL     OW31573   0.376   0.354   9.491 -0.0295  0.1958  0.0147
 6647SOL    HW131574   0.290   0.378   9.527  0.5439 -0.5895  1.9143
 6647SOL    HW231575   0.425   0.436   9.493  1.0730 -0.4835  0.5958
 6648SOL     OW31576   0.983   2.084   7.970  0.4251  0.2055 -0.0368
 6648SOL    HW131577   1.068   2.127   7.971  0.8535 -0.6579  1.0750
 6648SOL    HW231578   0.943   2.147   7.911  1.0710  1.0299  0.4170
 6649SOL     OW31579   0.281   0.357   4.550  0.1095 -0.3038 -0.1538
 6649SOL    HW131580   0.198   0.323   4.516 -1.7345  0.5211  3.5176
 6649SOL    HW231581   0.272   0.359   4.645  2.1401  2.0266 -0.0001
 6650SOL     OW31582   0.328   0.269   7.422  0.6782 -0.7114  0.1287
 6650SOL    HW131583   0.248   0.281   7.370  1.4537  1.4584 -0.5245
 6650SOL    HW231584   0.366   0.197   7.373 -1.4861 -0.2942 -2.1859
 6651SOL     OW31585   0.980   2.910   8.329 -0.6790  0.1734 -0.5803
 6651SOL    HW131586   0.967   2.833   8.274 -1.6270  1.0182 -1.5438
 6651SOL    HW231587   0.898   2.956   8.312 -1.5170 -0.7162  1.1176
 6652SOL     OW31588   4.080   3.995   3.902 -0.0341 -0.0371  0.1420
 6652SOL    HW131589   4.128   3.925   3.857  0.9304  1.0426 -0.5012
 6652SOL    HW231590   4.117   4.069   3.854  0.6334 -0.8629 -0.6362
 6653SOL     OW31591   3.875   2.529  10.835  0.1619  1.0590  0.0303
 6653SOL    HW131592   3.845   2.597  10.776 -1.7240 -0.4936 -0.8083
 6653SOL    HW231593   3.791   2.510  10.879 -0.1092 -0.9621 -1.3588
 6654SOL     OW31594   3.736   2.498   6.484 -0.2179  0.0756  0.4190
 6654SOL    HW131595   3.813   2.544   6.452  0.5334 -1.4686 -0.0224
 6654SOL    HW231596   3.663   2.539   6.438  0.5760 -1.1311 -1.9277
 6655SOL     OW31597   3.337   0.874   9.888  0.3508  0.3059 -0.2627
 6655SOL    HW131598   3.311   0.782   9.896 -1.3005  0.8537  0.6404
 6655SOL    HW231599   3.403   0.876   9.957 -0.2085 -2.0081  0.3604
 6656SOL     OW31600   2.217   0.374  14.705 -0.3032 -0.0057  0.4415
 6656SOL    HW131601   2.234   0.323  14.625 -0.3878 -0.8955  0.9980
 6656SOL    HW231602   2.209   0.306  14.771 -1.1063  1.1514  1.5361
 6657SOL     OW31603   3.170   0.240   7.264 -0.1636  0.4709  0.6364
 6657SOL    HW131604   3.261   0.220   7.241 -0.0778  0.6432  0.8201
 6657SOL    HW231605   3.178   0.332   7.240  3.1243  0.5994  2.2115
 6658SOL     OW31606   2.857   1.141   2.922 -0.0892  0.4564  0.1351
 6658SOL    HW131607   2.865   1.145   2.827  0.0821  1.8670  0.2109
 6658SOL    HW231608   2.863   1.234   2.941 -1.8611  0.5159  0.3552
 6659SOL     OW31609   0.482   2.305  14.190 -0.7765 -0.2274  0.1082
 6659SOL    HW131610   0.511   2.301  14.282 -1.4881  2.5108  0.4439
 6659SOL    HW231611   0.411   2.241  14.185  0.3829 -1.4077 -1.3920
 6660SOL     OW31612   1.830   3.941   3.000  0.3462 -0.0138  0.4726
 6660SOL    HW131613   1.790   3.864   2.958  2.4755 -0.3213 -1.0102
 6660SOL    HW231614   1.774   4.007   2.960 -0.9048 -1.0941  0.4144
 6661SOL     OW31615   0.184   2.261  16.463 -0.6233 -0.1073  0.4753
 6661SOL    HW131616   0.151   2.318  16.394 -0.3066  0.3366  0.6891
 6661SOL    HW231617   0.150   2.307  16.540  0.8557 -1.6495  2.0378
 6662SOL     OW31618   4.077   1.527   3.394  0.1750 -0.5533 -0.3656
 6662SOL    HW131619   4.122   1.448   3.424 -1.1095 -2.1392 -2.5645
 6662SOL    HW231620   4.012   1.479   3.343 -1.1969 -0.7529  1.6161
 6663SOL     OW31621   2.003   1.803   4.564 -0.0010 -0.0987  0.9021
 6663SOL    HW131622   2.010   1.861   4.640  2.2955 -0.1648  0.7497
 6663SOL    HW231623   2.089   1.796   4.522  0.1448  3.3652  0.5504
 6664SOL     OW31624   4.347   4.123   8.645  0.7350  0.4379 -0.0165
 6664SOL    HW131625   4.252   4.120   8.635  0.4888 -2.4669  3.0339
 6664SOL    HW231626   4.354   4.075   8.728  0.6264  1.5746  0.6472
 6665SOL     OW31627   2.359   4.549  12.316  0.1058  0.3492 -0.0161
 6665SOL    HW131628   2.375   4.638  12.347  1.4640 -0.2078  0.8501
 6665SOL    HW231629   2.429   4.534  12.252  0.2475 -3.3947  1.0456
 6666SOL     OW31630   1.260   4.733  17.423  0.1721  0.4530 -0.1123
 6666SOL    HW131631   1.215   4.649  17.431  0.8939 -0.0267 -1.0885
 6666SOL    HW231632   1.301   4.702  17.342 -0.3199 -0.4955  0.0047
 6667SOL     OW31633   0.079   2.108  15.881  0.2809  0.0286  0.2371
 6667SOL    HW131634   0.173   2.115  15.866  0.3898 -1.2981  0.2448
 6667SOL    HW231635   0.053   2.030  15.831 -3.1429  0.6669  1.0728
 6668SOL     OW31636   2.157   1.483   7.915  0.2210  0.7913  0.1107
 6668SOL    HW131637   2.170   1.427   7.991  0.2148  2.8116  1.6124
 6668SOL    HW231638   2.132   1.416   7.851  0.8495 -2.1318  2.9823
 6669SOL     OW31639   1.046   1.403   6.910 -0.6507 -0.0484 -0.3678
 6669SOL    HW131640   1.083   1.413   6.823 -2.2933  0.3972 -1.0265
 6669SOL    HW231641   0.955   1.384   6.884 -0.8348  0.8504 -0.3909
 6670SOL     OW31642   2.490   3.038   3.453  0.6300 -0.3221  0.8490
 6670SOL    HW131643   2.426   2.975   3.486 -0.7215  0.1149 -0.9500
 6670SOL    HW231644   2.436   3.091   3.394  1.8162 -1.9730 -1.7183
 6671SOL     OW31645   0.330   1.311  13.517 -0.4370 -0.5486 -0.5480
 6671SOL    HW131646   0.376   1.392  13.541  0.9675 -1.4134 -0.2844
 6671SOL    HW231647   0.237   1.330  13.529 -0.0918  1.2238 -0.6655
 6672SOL     OW31648   1.417   0.208   0.906  0.3056  0.0753  0.0024
 6672SOL    HW131649   1.482   0.228   0.839  0.7510 -0.4263  0.2814
 6672SOL    HW231650   1.478   0.217   0.980  2.1498 -1.7497 -1.2833
 6673SOL     OW31651   1.970   0.981   8.568 -0.2579  0.3229 -0.5201
 6673SOL    HW131652   2.009   0.989   8.481 -0.3361  4.2716 -0.1514
 6673SOL    HW231653   1.921   0.900   8.549  1.4007 -0.8292  0.0680
 6674SOL     OW31654   4.609   3.251   8.001 -0.1435 -0.4518  0.1918
 6674SOL    HW131655   4.607   3.265   7.906 -1.1387  1.4902  0.5149
 6674SOL    HW231656   4.592   3.157   8.012  2.0086 -0.7887  0.6876
 6675SOL     OW31657   0.072   4.717   6.160  0.1292 -0.4337  0.2265
 6675SOL    HW131658   0.061   4.622   6.167  1.3616 -0.5351  0.8152
 6675SOL    HW231659   4.730   0.012   6.117 -1.0378 -4.9890 -1.0325
 6676SOL     OW31660   1.605   2.428   1.459  0.0184 -0.5290 -0.4427
 6676SOL    HW131661   1.579   2.336   1.447  0.2357 -0.8093  1.3469
 6676SOL    HW231662   1.693   2.420   1.496  0.3745  1.0428 -0.9663
 6677SOL     OW31663   4.709   3.890   5.013  0.1718  0.6652 -0.8133
 6677SOL    HW131664   4.677   3.866   5.100  0.3725 -0.1064 -0.9484
 6677SOL    HW231665   0.063   3.867   5.028  0.8030  4.2525  0.6793
 6678SOL     OW31666   1.566   3.916   7.408  0.3803 -0.1270  1.3115
 6678SOL    HW131667   1.516   3.998   7.395 -1.2868 -1.4062 -0.4489
 6678SOL    HW231668   1.546   3.888   7.497  1.4891 -0.5454  1.4195
 6679SOL     OW31669   2.978   3.096   4.913  0.5042 -0.0476  0.0441
 6679SOL    HW131670   3.022   3.031   4.859  1.9507 -0.2011  1.4041
 6679SOL    HW231671   2.892   3.056   4.930  0.5879 -1.2149 -2.4007
 6680SOL     OW31672   3.478   1.041   0.424 -0.5555 -0.0502  0.3922
 6680SOL    HW131673   3.446   1.102   0.358  0.2701  0.4067  0.4154
 6680SOL    HW231674   3.514   0.968   0.374 -1.0638  0.0851 -0.1626
 6681SOL     OW31675   1.461   1.492   3.252 -0.3996  0.2044  0.8487
 6681SOL    HW131676   1.477   1.551   3.179  1.9596 -1.8972 -0.2966
 6681SOL    HW231677   1.501   1.534   3.328 -0.0313 -1.3240  1.4933
 6682SOL     OW31678   3.835   3.567   3.395  0.3464 -0.3745 -0.2147
 6682SOL    HW131679   3.807   3.529   3.312 -1.7875  1.3038 -0.2750
 6682SOL    HW231680   3.866   3.489   3.441 -0.3475  0.5901  1.8928
 6683SOL     OW31681   2.441   2.041  17.620  0.1336  0.2849  0.4095
 6683SOL    HW131682   2.495   1.999  17.686 -0.3825 -0.2188  0.5217
 6683SOL    HW231683   2.468   1.993  17.541  0.3292  1.6995 -0.3872
 6684SOL     OW31684   0.598   4.405   1.646 -0.1102 -0.2698 -0.7180
 6684SOL    HW131685   0.570   4.314   1.656  0.4807 -0.3197  0.5009
 6684SOL    HW231686   0.562   4.445   1.725 -0.8700 -1.3171 -0.5442
 6685SOL     OW31687   0.092   1.438   3.533  0.2103  0.2294 -0.4381
 6685SOL    HW131688   0.081   1.528   3.563 -1.0030 -0.6393  1.6922
 6685SOL    HW231689   0.001   1.413   3.516 -0.2930  0.9503  1.2690
 6686SOL     OW31690   1.412   0.915  13.839  0.0441 -0.2217 -1.2704
 6686SOL    HW131691   1.504   0.922  13.865 -0.1547 -0.1519 -0.5946
 6686SOL    HW231692   1.386   0.825  13.860  1.2836 -0.5425 -1.1208
 6687SOL     OW31693   2.149   2.939   6.813 -0.0824  0.2672 -0.0852
 6687SOL    HW131694   2.163   2.889   6.733  0.2214 -0.7332  0.5868
 6687SOL    HW231695   2.233   2.922   6.856  0.3073  3.5268  0.4932
 6688SOL     OW31696   2.709   2.148  10.412 -0.5537  0.0815 -0.0168
 6688SOL    HW131697   2.730   2.055  10.408  0.9038  0.3664  1.3323
 6688SOL    HW231698   2.794   2.188  10.428  0.4389 -2.0046 -0.1020
 6689SOL     OW31699   0.886   2.322   5.979  0.6474  0.0458 -0.5796
 6689SOL    HW131700   0.876   2.417   5.980  0.9840  0.0642  0.4910
 6689SOL    HW231701   0.807   2.297   6.027 -0.9559  0.1674 -3.0972
 6690SOL     OW31702   4.008   2.402   7.595  0.3127  0.7332  0.1711
 6690SOL    HW131703   4.069   2.372   7.662 -0.5118 -1.9752 -0.3137
 6690SOL    HW231704   4.035   2.347   7.521 -0.1895 -0.1061  0.6169
 6691SOL     OW31705   0.058   2.798   7.536 -0.3487  0.4215 -0.1362
 6691SOL    HW131706   0.013   2.723   7.495  0.4840  0.8084 -1.7387
 6691SOL    HW231707   4.718   2.850   7.555  1.3907  2.1383  2.1922
 6692SOL     OW31708   4.139   2.102  14.078  0.4317 -0.0850  0.4375
 6692SOL    HW131709   4.065   2.162  14.087  1.4729  1.2774 -0.0005
 6692SOL    HW231710   4.200   2.153  14.025  0.7075 -1.3359 -0.4509
 6693SOL     OW31711   0.689   2.076   5.757  0.4419  0.0023  0.1446
 6693SOL    HW131712   0.694   2.073   5.852  1.3394 -1.3911  0.0542
 6693SOL    HW231713   0.769   2.124   5.735  0.0812  0.0605 -1.0431
 6694SOL     OW31714   1.133   1.967  16.521  0.3060 -0.2061  0.2836
 6694SOL    HW131715   1.220   2.006  16.513 -0.5158  1.1761 -1.6858
 6694SOL    HW231716   1.151   1.887  16.472  0.3571 -0.3058  0.4628
 6695SOL     OW31717   4.605   2.588   6.121  0.1083 -0.1835  0.0005
 6695SOL    HW131718   4.620   2.661   6.182 -1.1137 -0.0674  0.1749
 6695SOL    HW231719   4.685   2.592   6.069  0.8656 -0.2879  1.1421
 6696SOL     OW31720   0.778   4.347   9.011 -0.3172 -0.1127  0.1441
 6696SOL    HW131721   0.718   4.273   8.999 -0.2018 -0.3566  1.1049
 6696SOL    HW231722   0.838   4.319   9.080 -0.8787 -1.0967  0.2362
 6697SOL     OW31723   1.342   0.055   6.394 -0.4026  0.0793 -0.8810
 6697SOL    HW131724   1.274   0.121   6.398 -0.2820  0.0032  2.5611
 6697SOL    HW231725   1.289   4.725   6.436 -0.7549  0.4568 -0.7256
 6698SOL     OW31726   2.185   3.956   2.714 -0.3006  0.2350  0.7662
 6698SOL    HW131727   2.248   3.891   2.682  1.0997  2.6747 -1.4289
 6698SOL    HW231728   2.121   3.950   2.643  0.0599  1.5232  0.3222
 6699SOL     OW31729   1.965   4.608  11.911 -0.6954 -0.3601 -0.4943
 6699SOL    HW131730   2.039   4.611  11.851  0.8096  0.9914  1.4252
 6699SOL    HW231731   1.985   4.542  11.978  0.3096 -0.0069 -0.4497
 6700SOL     OW31732   0.562   1.515   7.324 -0.0305 -0.5148  0.5341
 6700SOL    HW131733   0.483   1.547   7.280  1.2030 -0.0263 -1.3312
 6700SOL    HW231734   0.614   1.594   7.313 -0.6810 -0.0734  0.6213
 6701SOL     OW31735   0.982   4.451   3.668  0.2726  0.4181  0.3584
 6701SOL    HW131736   1.024   4.476   3.751  0.3885  0.1807  0.3693
 6701SOL    HW231737   1.024   4.501   3.599  2.0076 -2.4519 -0.6372
 6702SOL     OW31738   3.358   4.732   5.819  0.0301  0.0175 -0.0649
 6702SOL    HW131739   3.380   0.043   5.739  0.5800 -0.6279 -0.3115
 6702SOL    HW231740   3.266   0.020   5.823  0.1311  0.3507  0.1291
 6703SOL     OW31741   0.090   1.924   9.307  0.0446  0.1292  0.4280
 6703SOL    HW131742   0.077   1.978   9.229  2.0162  0.6872  0.4721
 6703SOL    HW231743   0.025   1.858   9.286  2.6502 -2.1996 -0.4054
 6704SOL     OW31744   2.534   2.213   8.515 -0.1295  0.1682 -0.0826
 6704SOL    HW131745   2.468   2.281   8.521  1.0324  1.3615 -0.8025
 6704SOL    HW231746   2.518   2.169   8.598 -0.1147 -0.3927 -0.3708
 6705SOL     OW31747   3.756   1.026   8.754  0.2357  0.3824 -0.3225
 6705SOL    HW131748   3.714   0.976   8.685  1.6901 -1.3157  0.0432
 6705SOL    HW231749   3.793   0.950   8.799  0.3383  0.6307  0.0182
 6706SOL     OW31750   0.406   3.273   3.256  0.0824 -0.0284  0.2782
 6706SOL    HW131751   0.350   3.226   3.318  0.1534 -0.1525  0.2481
 6706SOL    HW231752   0.488   3.224   3.252  0.9212  1.3703  0.1535
 6707SOL     OW31753   1.589   1.795   3.677 -0.0420 -0.2981 -0.1764
 6707SOL    HW131754   1.566   1.873   3.727  1.2513 -0.3710  0.5384
 6707SOL    HW231755   1.593   1.723   3.739  1.2910  1.2199  1.4979
 6708SOL     OW31756   0.072   4.548   4.928  0.3854  0.1087 -0.1452
 6708SOL    HW131757   0.023   4.511   4.854  2.3002 -0.3059 -1.1878
 6708SOL    HW231758   0.134   4.478   4.949  0.9339  1.0080  1.2151
 6709SOL     OW31759   2.790   3.557   8.725 -0.1338  0.2030 -0.0681
 6709SOL    HW131760   2.728   3.555   8.652 -2.0533 -1.2271  1.6075
 6709SOL    HW231761   2.855   3.606   8.675  0.2093  1.4923  1.6513
 6710SOL     OW31762   1.739   3.638  17.553  0.2757 -0.1757 -0.3880
 6710SOL    HW131763   1.746   3.720  17.504 -0.0480  1.2323  1.9297
 6710SOL    HW231764   1.794   3.670  17.625  1.0374  0.6678 -1.3539
 6711SOL     OW31765   3.632   4.289   7.848 -0.4744  0.3380  0.0468
 6711SOL    HW131766   3.550   4.264   7.891  0.7102 -1.6316  1.1936
 6711SOL    HW231767   3.607   4.350   7.779  1.0573  0.9103 -0.0144
 6712SOL     OW31768   2.357   4.631  12.042 -0.3156  0.0195 -0.9802
 6712SOL    HW131769   2.298   4.705  12.058  0.5264  0.1541  1.3644
 6712SOL    HW231770   2.302   4.567  12.086  0.3035 -0.2981 -0.6881
 6713SOL     OW31771   4.727   4.529   3.969 -0.2255 -0.3658  0.0264
 6713SOL    HW131772   4.638   4.492   3.975 -0.6121  0.8104  1.7778
 6713SOL    HW231773   4.726   4.556   3.878  0.2564 -0.4630 -0.0026
 6714SOL     OW31774   0.148   4.056   8.555 -0.2974 -0.3739 -0.1264
 6714SOL    HW131775   0.142   4.036   8.462 -0.8728 -1.8694  0.2317
 6714SOL    HW231776   0.108   3.980   8.596 -0.2897 -1.3773 -1.9770
 6715SOL     OW31777   0.593   1.476  11.740  0.0274  0.3989 -0.7681
 6715SOL    HW131778   0.558   1.512  11.822  0.3398  2.3131 -1.4867
 6715SOL    HW231779   0.561   1.525  11.665 -1.3406 -0.0325 -0.4597
 6716SOL     OW31780   0.432   0.192   1.545  0.5072 -0.2642 -0.0105
 6716SOL    HW131781   0.389   0.201   1.460  1.4432 -1.3454 -0.5862
 6716SOL    HW231782   0.447   0.286   1.561  1.8636 -0.7477  1.5456
 6717SOL     OW31783   4.623   3.287   1.419  0.3455  0.2517  0.2819
 6717SOL    HW131784   4.703   3.322   1.459  1.1159 -1.7464  0.4945
 6717SOL    HW231785   4.652   3.272   1.329  1.1117  1.4679  0.3188
 6718SOL     OW31786   1.644   1.264   3.981  0.4290  0.2249  0.6042
 6718SOL    HW131787   1.623   1.228   3.895 -2.4076  2.3260  0.3987
 6718SOL    HW231788   1.589   1.342   3.979  0.7736  0.4723  0.7686
 6719SOL     OW31789   0.316   0.171   5.883 -0.4037 -0.3350 -0.6524
 6719SOL    HW131790   0.256   0.219   5.827  0.7498  1.4774 -0.3140
 6719SOL    HW231791   0.388   0.233   5.892 -0.0075 -1.1641  1.9177
 6720SOL     OW31792   3.115   0.700   2.742 -0.3630 -0.0121  0.1108
 6720SOL    HW131793   3.111   0.706   2.838  2.6564 -0.1516  0.2548
 6720SOL    HW231794   3.131   0.606   2.733 -3.2301 -0.3627 -1.3359
 6721SOL     OW31795   1.433   3.276   5.624 -0.0415 -0.2847 -0.4981
 6721SOL    HW131796   1.488   3.304   5.697 -2.6753 -0.2570  1.4874
 6721SOL    HW231797   1.487   3.314   5.555 -2.9535  1.3723 -1.8625
 6722SOL     OW31798   0.050   2.481   2.248  0.0946  0.1032  0.0544
 6722SOL    HW131799   0.050   2.565   2.202 -0.4756  0.0006 -0.1392
 6722SOL    HW231800   0.135   2.481   2.291 -0.7182 -2.5157  1.6357
 6723SOL     OW31801   0.343   2.818   4.949  0.0659  0.4241  0.2142
 6723SOL    HW131802   0.400   2.795   5.023 -0.1508 -1.3997 -0.1790
 6723SOL    HW231803   0.396   2.789   4.875  0.5554  0.2959  0.6174
 6724SOL     OW31804   2.177   3.955   6.197  0.3170  0.5243  0.1862
 6724SOL    HW131805   2.195   4.047   6.214  0.8724  0.4966 -0.2642
 6724SOL    HW231806   2.167   3.913   6.283 -1.2922  0.2903 -0.1063
 6725SOL     OW31807   0.737   2.015   2.087  0.1451  0.6175  0.1846
 6725SOL    HW131808   0.656   2.065   2.075  0.1790  0.3192 -1.2561
 6725SOL    HW231809   0.768   2.004   1.997 -1.4542 -1.9913 -0.0301
 6726SOL     OW31810   0.226   1.648   5.614  0.2366  0.3741  0.2904
 6726SOL    HW131811   0.261   1.719   5.669 -0.1301 -0.1921  1.2632
 6726SOL    HW231812   0.281   1.652   5.536  0.7837 -0.7442  0.6148
 6727SOL     OW31813   2.374   3.411   0.326 -0.5250 -0.1584  0.1590
 6727SOL    HW131814   2.339   3.327   0.356  0.4611 -0.8278 -0.5463
 6727SOL    HW231815   2.306   3.427   0.261  0.4117  0.8605 -0.5605
 6728SOL     OW31816   3.006   1.541  12.039  0.1559 -0.0142  0.4673
 6728SOL    HW131817   3.012   1.598  11.963  0.1493 -0.8791 -0.1832
 6728SOL    HW231818   3.093   1.542  12.080  0.3382 -3.1127  0.1509
 6729SOL     OW31819   1.827   2.646  14.316 -0.0052 -0.1814 -0.1651
 6729SOL    HW131820   1.907   2.648  14.368 -1.1585  3.5836  1.4220
 6729SOL    HW231821   1.764   2.594  14.367  0.8843 -0.5825  0.5128
 6730SOL     OW31822   3.620   2.020   1.518  0.3816 -0.4274  0.0806
 6730SOL    HW131823   3.707   2.060   1.517  0.0407  0.2863 -0.5799
 6730SOL    HW231824   3.612   1.992   1.610  2.6898 -1.7890 -0.1359
 6731SOL     OW31825   4.735   3.820   8.601  0.5145  0.5776 -0.3090
 6731SOL    HW131826   4.666   3.773   8.647  1.6062 -0.3770  0.3507
 6731SOL    HW231827   0.048   3.745   8.570 -1.0774 -0.4282 -0.4517
 6732SOL     OW31828   1.323   0.848   6.563  0.3989 -0.1651  0.1737
 6732SOL    HW131829   1.316   0.753   6.572  2.7144 -0.4253 -0.7212
 6732SOL    HW231830   1.417   0.855   6.546  0.5115 -0.9612  0.5021
 6733SOL     OW31831   3.017   4.319   2.889  0.3985  0.2270 -0.2088
 6733SOL    HW131832   3.042   4.374   2.963 -0.2411  0.5043 -0.1962
 6733SOL    HW231833   2.928   4.292   2.914  1.3641 -0.9600  1.9152
 6734SOL     OW31834   0.265   4.333   1.658 -0.4406  0.3502 -0.8915
 6734SOL    HW131835   0.318   4.292   1.590 -2.6839 -1.9145 -1.2691
 6734SOL    HW231836   0.235   4.262   1.715  0.0408  0.6159 -0.2949
 6735SOL     OW31837   4.317   2.776   7.210 -0.0701  0.3187  0.5364
 6735SOL    HW131838   4.245   2.742   7.157 -0.0541 -0.4297  0.9831
 6735SOL    HW231839   4.324   2.870   7.221  2.8122  0.1501  0.1744
 6736SOL     OW31840   2.091   0.828   6.703  0.3094  0.2698 -0.2803
 6736SOL    HW131841   2.083   0.882   6.782 -1.4387  0.7026 -0.7386
 6736SOL    HW231842   2.004   0.829   6.663  0.0875 -2.3245  0.0882
 6737SOL     OW31843   3.376   2.928   1.124  0.4922 -0.1318 -0.2804
 6737SOL    HW131844   3.386   3.021   1.103 -1.6541  0.2488  0.4707
 6737SOL    HW231845   3.349   2.945   1.214 -1.7348 -1.4978 -0.6966
 6738SOL     OW31846   3.815   2.736   2.537  0.3617  0.4600  0.4109
 6738SOL    HW131847   3.867   2.786   2.475  0.0345  1.2407  0.7656
 6738SOL    HW231848   3.723   2.751   2.514  0.2662 -0.3758  0.2438
 6739SOL     OW31849   0.314   2.319  10.284  0.5716  0.4455 -0.2862
 6739SOL    HW131850   0.251   2.321  10.356  0.8973 -1.6269  0.0682
 6739SOL    HW231851   0.394   2.329  10.335 -1.0109 -0.0493  2.3363
 6740SOL     OW31852   3.137   1.083   1.732 -0.5761 -0.7271 -0.7841
 6740SOL    HW131853   3.156   1.078   1.638 -0.2323 -2.3903 -0.6215
 6740SOL    HW231854   3.230   1.070   1.751 -0.3487 -0.4115 -1.6361
 6741SOL     OW31855   0.767   0.419   9.355  0.4433 -0.1473 -0.5990
 6741SOL    HW131856   0.808   0.416   9.269 -1.3650  1.8816 -1.5452
 6741SOL    HW231857   0.697   0.481   9.336 -1.2891 -1.3488  1.8255
 6742SOL     OW31858   0.523   3.415   2.360 -0.6792  0.1302  0.4587
 6742SOL    HW131859   0.514   3.370   2.443 -0.9104  0.6223  0.7032
 6742SOL    HW231860   0.530   3.334   2.310  2.0337  0.0176  0.9843
 6743SOL     OW31861   4.492   2.383   6.580 -0.2850 -0.5566  0.0318
 6743SOL    HW131862   4.550   2.459   6.571 -0.3936 -0.3846  0.7476
 6743SOL    HW231863   4.532   2.335   6.508 -0.2227 -0.6928  0.1574
 6744SOL     OW31864   2.917   4.013   3.377 -0.1196  0.2722  0.7004
 6744SOL    HW131865   2.848   3.952   3.353 -0.3850 -0.0233  2.1941
 6744SOL    HW231866   2.971   3.959   3.435 -2.3909 -1.0246  1.6136
 6745SOL     OW31867   0.065   1.858  16.219 -0.1792  0.2175  0.0547
 6745SOL    HW131868   0.159   1.872  16.226 -0.5201  1.7791  1.3191
 6745SOL    HW231869   0.068   1.762  16.220 -1.0644  0.1946  0.9044
 6746SOL     OW31870   1.133   0.890   9.092  0.1492 -0.1642  0.9405
 6746SOL    HW131871   1.074   0.956   9.128  0.7932  0.1865  1.3372
 6746SOL    HW231872   1.170   0.858   9.174  1.7339 -1.0275 -0.1120
 6747SOL     OW31873   2.372   2.543   5.431  0.2584  0.1724 -0.2327
 6747SOL    HW131874   2.320   2.538   5.351 -1.4251  0.5123  0.8443
 6747SOL    HW231875   2.440   2.608   5.418 -0.1890  0.7235  0.2009
 6748SOL     OW31876   3.852   3.460  15.965  0.7194 -0.3131  0.7095
 6748SOL    HW131877   3.879   3.551  15.952 -0.5814 -0.2812 -1.7584
 6748SOL    HW231878   3.938   3.419  15.964  1.1520  0.6727 -2.2050
 6749SOL     OW31879   0.067   2.387   8.521 -0.2169 -0.0727 -0.3442
 6749SOL    HW131880   0.105   2.311   8.566  0.4853 -0.7192 -2.0399
 6749SOL    HW231881   4.732   2.421   8.574 -0.8613 -0.2612 -1.1172
 6750SOL     OW31882   0.525   2.291   9.172 -0.3864 -0.1171 -0.0585
 6750SOL    HW131883   0.505   2.377   9.211 -2.6402 -0.7396  0.1800
 6750SOL    HW231884   0.437   2.271   9.138 -0.0758  0.1702 -1.0380
 6751SOL     OW31885   3.088   0.345   7.999 -0.3164 -0.2149 -0.3087
 6751SOL    HW131886   3.037   0.391   7.932  1.0659  2.1749  0.2863
 6751SOL    HW231887   3.129   0.272   7.953  1.3470 -0.1794  1.1032
 6752SOL     OW31888   2.690   4.278   9.397  0.2552  0.1373 -0.0277
 6752SOL    HW131889   2.637   4.323   9.332  1.0262 -1.8121 -1.9989
 6752SOL    HW231890   2.761   4.340   9.410  0.6824 -0.4197  0.3238
 6753SOL     OW31891   1.685   4.234   7.278 -0.0772 -0.0412  0.2667
 6753SOL    HW131892   1.600   4.228   7.322 -0.4543  1.2048 -0.2812
 6753SOL    HW231893   1.684   4.325   7.248  1.3349 -0.0404  0.2300
 6754SOL     OW31894   2.553   1.319   8.130 -0.4016 -0.0865 -0.0408
 6754SOL    HW131895   2.608   1.389   8.094 -0.2072 -0.2307 -0.0238
 6754SOL    HW231896   2.520   1.273   8.053 -0.7515 -2.0708  1.2900
 6755SOL     OW31897   4.008   4.021   2.566  0.3524 -0.2139  0.3567
 6755SOL    HW131898   3.938   3.976   2.613  0.1255 -0.7284 -0.4952
 6755SOL    HW231899   3.959   4.079   2.508 -2.2424 -0.2037  2.5598
 6756SOL     OW31900   2.264   2.985   2.873 -0.3877 -0.3062  0.7575
 6756SOL    HW131901   2.313   2.956   2.796  0.8151  0.2303  1.3219
 6756SOL    HW231902   2.214   3.060   2.841 -2.8843 -1.7044  1.4165
 6757SOL     OW31903   2.355   2.424   7.391  0.6147  0.4905  0.0342
 6757SOL    HW131904   2.433   2.386   7.432  0.5399  1.3856  1.0099
 6757SOL    HW231905   2.386   2.507   7.355 -0.2537  0.8687  0.1672
 6758SOL     OW31906   1.788   0.527   6.043 -0.4153 -0.1312 -0.2486
 6758SOL    HW131907   1.869   0.521   6.092 -0.2966 -2.4669 -0.7575
 6758SOL    HW231908   1.797   0.622   6.053 -0.1501 -0.0957 -0.8426
 6759SOL     OW31909   0.827   2.438  17.131 -0.2009  0.1400 -0.2953
 6759SOL    HW131910   0.791   2.409  17.215  0.6572 -1.7076 -0.5472
 6759SOL    HW231911   0.778   2.388  17.066 -0.2024 -0.3591  0.0862
 6760SOL     OW31912   0.910   3.621   0.798 -0.0063  0.0068 -0.0750
 6760SOL    HW131913   0.837   3.679   0.823  0.2011  0.6059 -0.8650
 6760SOL    HW231914   0.920   3.570   0.879  2.9953 -1.9817 -1.7509
 6761SOL     OW31915   4.343   2.777  10.299  0.0157 -0.0413 -0.0191
 6761SOL    HW131916   4.429   2.782  10.341  0.5871  1.6720 -1.4221
 6761SOL    HW231917   4.306   2.709  10.356  0.5448  0.6008  1.1065
 6762SOL     OW31918   2.391   1.784   8.782 -0.0351 -0.4771 -0.4141
 6762SOL    HW131919   2.409   1.695   8.811 -2.1279 -0.7969 -0.0807
 6762SOL    HW231920   2.475   1.814   8.749  0.2988 -1.3300 -0.3366
 6763SOL     OW31921   0.905   0.889   6.662 -0.0202 -0.0420  0.5222
 6763SOL    HW131922   0.909   0.801   6.699 -0.0835  0.3300  1.4244
 6763SOL    HW231923   0.881   0.938   6.741  3.2455  0.0572  1.4588
 6764SOL     OW31924   1.685   1.370   7.291 -0.5042 -0.5003 -0.5636
 6764SOL    HW131925   1.629   1.299   7.260  0.3713 -1.2707 -0.3704
 6764SOL    HW231926   1.650   1.440   7.236  2.5371  0.3728 -1.4109
 6765SOL     OW31927   4.301   0.632   1.258 -0.2327  0.9910  0.6994
 6765SOL    HW131928   4.289   0.661   1.348  1.8034  1.2726  0.8768
 6765SOL    HW231929   4.392   0.660   1.255 -0.0461  0.5326  2.3051
 6766SOL     OW31930   2.938   0.330   6.756  0.1270 -0.0439  0.2596
 6766SOL    HW131931   3.024   0.338   6.797  0.1088 -0.1366  0.3155
 6766SOL    HW231932   2.886   0.386   6.813  0.3481  0.0341  0.3838
 6767SOL     OW31933   0.850   3.150   7.849 -0.0439 -0.1879 -0.0887
 6767SOL    HW131934   0.814   3.210   7.913 -4.0975 -0.6153 -1.9105
 6767SOL    HW231935   0.902   3.087   7.899  1.1902  1.6071  0.8356
 6768SOL     OW31936   3.452   2.414   5.935  0.0232  0.1266  0.1470
 6768SOL    HW131937   3.473   2.337   5.988  1.1223  0.4577  0.2045
 6768SOL    HW231938   3.434   2.470   6.011 -0.6045 -0.9973  0.8145
 6769SOL     OW31939   2.562   3.006   5.613  0.3382 -0.5122  0.3742
 6769SOL    HW131940   2.649   3.043   5.629  0.6588 -1.1504  0.1221
 6769SOL    HW231941   2.548   3.031   5.521 -1.7732  0.9555  1.0970
 6770SOL     OW31942   2.610   4.093   5.455 -0.2751 -0.0263 -0.2315
 6770SOL    HW131943   2.660   4.149   5.396 -1.9757 -0.0269 -1.6807
 6770SOL    HW231944   2.681   4.048   5.500 -0.0098  0.3539 -0.2753
 6771SOL     OW31945   3.406   1.662   1.279 -0.3979 -0.3953  0.1346
 6771SOL    HW131946   3.336   1.693   1.222  2.0883  0.6449 -2.3562
 6771SOL    HW231947   3.351   1.596   1.322  1.3541 -1.6023  0.5510
 6772SOL     OW31948   0.414   0.427  14.685  0.8201 -0.1869  0.6083
 6772SOL    HW131949   0.415   0.419  14.780  0.5558 -0.7559  0.5599
 6772SOL    HW231950   0.477   0.360  14.660  0.8311  0.0374  0.0201
 6773SOL     OW31951   1.272   4.290   7.534  0.1816 -0.2111  0.3817
 6773SOL    HW131952   1.320   4.373   7.528 -0.8259  0.0774 -3.3951
 6773SOL    HW231953   1.247   4.293   7.626  3.2193  1.9568  1.1570
 6774SOL     OW31954   0.732   0.773   7.955 -0.1406  0.0544 -0.0554
 6774SOL    HW131955   0.665   0.802   8.016 -0.8437  1.7275 -1.6182
 6774SOL    HW231956   0.764   0.696   8.003  0.4189  0.5464  0.3617
 6775SOL     OW31957   2.494   4.101  10.723  0.7222 -0.4823 -0.5943
 6775SOL    HW131958   2.528   4.067  10.805 -0.8846 -0.5491  0.0393
 6775SOL    HW231959   2.540   4.052  10.654 -0.3788 -2.4989  0.1009
 6776SOL     OW31960   2.745   3.738  15.419  0.2617 -0.3555 -0.1599
 6776SOL    HW131961   2.757   3.685  15.498 -1.9979  0.9209  1.0555
 6776SOL    HW231962   2.827   3.741  15.370 -0.2450  0.2578 -0.9796
 6777SOL     OW31963   3.867   2.818   6.127 -0.5593 -0.1130 -0.5289
 6777SOL    HW131964   3.816   2.754   6.078  0.0584 -0.0251 -1.2852
 6777SOL    HW231965   3.805   2.890   6.128 -0.0789  0.3343 -2.6265
 6778SOL     OW31966   2.826   4.632   0.975  0.3512  0.0205  0.4816
 6778SOL    HW131967   2.785   4.710   1.014  0.7475  0.3234  0.2927
 6778SOL    HW231968   2.865   4.586   1.050  4.4206  2.4129 -0.1355
 6779SOL     OW31969   0.724   0.272   4.000 -0.0009  0.0015  0.4917
 6779SOL    HW131970   0.755   0.267   4.090  0.6624 -0.2957  0.2454
 6779SOL    HW231971   0.693   0.186   3.972 -0.0479 -0.0800  0.7957
 6780SOL     OW31972   0.977   3.469   3.884  0.5998 -0.7522  0.0340
 6780SOL    HW131973   0.969   3.413   3.807  0.8240  1.2686 -1.4696
 6780SOL    HW231974   1.020   3.544   3.842 -1.2613 -0.2955 -1.0314
 6781SOL     OW31975   4.319   2.448   5.212 -0.0004  0.5450 -0.3110
 6781SOL    HW131976   4.226   2.449   5.192 -0.0134  0.4489 -0.2549
 6781SOL    HW231977   4.330   2.526   5.266  0.7871  0.0804  0.2011
 6782SOL     OW31978   1.831   4.469   7.493 -0.0753  0.5157  0.4635
 6782SOL    HW131979   1.766   4.480   7.563  1.5324  2.3854  1.6390
 6782SOL    HW231980   1.779   4.420   7.429 -2.4885  1.6413  1.5567
 6783SOL     OW31981   2.057   4.260   6.839 -0.2898  0.3349  0.4198
 6783SOL    HW131982   1.990   4.205   6.799  0.4200 -1.0783  1.1270
 6783SOL    HW231983   2.067   4.219   6.926 -0.8031  0.5228  0.5646
 6784SOL     OW31984   2.272   1.992  11.588  0.1968  0.1310  0.1558
 6784SOL    HW131985   2.329   2.033  11.653  0.5391  0.5612 -0.4174
 6784SOL    HW231986   2.184   1.997  11.624  0.2749  0.7618  0.2463
 6785SOL     OW31987   2.750   0.337   9.479 -0.1524 -0.0872  0.4710
 6785SOL    HW131988   2.664   0.320   9.517 -0.5555  3.8325  1.3921
 6785SOL    HW231989   2.790   0.374   9.558 -0.0216 -0.1320  0.4254
 6786SOL     OW31990   3.135   4.644   7.887 -0.0214  0.3177  0.6106
 6786SOL    HW131991   3.044   4.662   7.863 -0.5964 -0.9670  1.8784
 6786SOL    HW231992   3.127   4.622   7.980  1.1516 -1.7323  0.2132
 6787SOL     OW31993   3.196   2.132   1.738 -0.1747  0.0674  0.1191
 6787SOL    HW131994   3.247   2.118   1.818  0.2459 -0.9841 -0.3260
 6787SOL    HW231995   3.134   2.059   1.741 -0.6013  0.3754 -1.2083
 6788SOL     OW31996   0.003   0.404  13.813 -0.4830  0.2389 -0.1952
 6788SOL    HW131997   4.666   0.349  13.836  0.1973 -1.2204 -1.4826
 6788SOL    HW231998   4.730   0.418  13.718  2.0315 -0.8916 -0.6359
 6789SOL     OW31999   1.521   4.093   9.434  0.6018 -0.7138 -0.6434
 6789SOL    HW132000   1.559   4.177   9.458  1.0297 -0.7269 -1.2877
 6789SOL    HW232001   1.570   4.040   9.496 -1.5026 -0.5502  1.1612
 6790SOL     OW32002   1.341   0.054   5.570 -0.0772  0.3568  0.0652
 6790SOL    HW132003   1.309   4.702   5.563 -0.9716  0.4937  2.3242
 6790SOL    HW232004   1.282   0.094   5.634  1.0400  0.3154  1.1417
 6791SOL     OW32005   3.134   1.269   3.028  0.3097  0.4621  0.0442
 6791SOL    HW132006   3.146   1.274   3.123 -1.0595 -2.3506  0.3692
 6791SOL    HW232007   3.202   1.328   2.994 -0.3105  0.5091 -1.1227
 6792SOL     OW32008   0.599   3.836   2.890  0.4650 -0.1088 -0.2716
 6792SOL    HW132009   0.641   3.806   2.809  0.1971 -0.9472 -0.1030
 6792SOL    HW232010   0.538   3.899   2.854 -1.1379 -2.1881 -1.2246
 6793SOL     OW32011   4.665   4.133   4.938 -0.4657  0.2280 -0.1577
 6793SOL    HW132012   4.705   4.046   4.947  0.0601  0.5649  0.8069
 6793SOL    HW232013   4.696   4.190   5.009  0.0599 -3.0313  2.2341
 6794SOL     OW32014   4.264   1.221   3.352 -0.0359  0.3019 -0.8093
 6794SOL    HW132015   4.253   1.128   3.372 -0.5738  0.3128 -1.0622
 6794SOL    HW232016   4.237   1.268   3.431 -2.2487 -0.1340 -1.3022
 6795SOL     OW32017   0.239   4.400   4.058 -0.3009 -0.1099  0.2764
 6795SOL    HW132018   0.230   4.324   4.001 -0.6254  0.2800 -0.2012
 6795SOL    HW232019   0.196   4.466   4.003 -0.0541  0.3225  0.5984
 6796SOL     OW32020   1.959   3.610  16.388  0.6470 -0.3165 -0.3282
 6796SOL    HW132021   1.953   3.554  16.466 -1.0999 -0.8564 -0.8577
 6796SOL    HW232022   1.866   3.619  16.367  0.4707  1.8897  1.3309
 6797SOL     OW32023   4.629   3.095   1.694  0.1962  0.1760 -0.0248
 6797SOL    HW132024   4.534   3.100   1.688  0.0620 -0.8679  1.1531
 6797SOL    HW232025   4.638   3.073   1.602  2.3880 -0.9064  0.4459
 6798SOL     OW32026   4.203   0.067   7.961 -0.4477 -0.0792 -0.1224
 6798SOL    HW132027   4.208   4.709   7.971 -1.7409 -0.1840 -0.3995
 6798SOL    HW232028   4.247   0.101   8.038 -2.1712  1.4540  0.1860
 6799SOL     OW32029   2.609   4.643   6.702 -0.1519 -0.3330 -0.4837
 6799SOL    HW132030   2.583   4.677   6.617  0.8402 -1.3597 -1.1975
 6799SOL    HW232031   2.556   4.563   6.703  1.0748 -1.1428  0.6593
 6800SOL     OW32032   4.469   3.922   8.801  0.2760 -0.2410 -0.0503
 6800SOL    HW132033   4.542   3.869   8.769  1.7141  1.4824  0.4535
 6800SOL    HW232034   4.466   3.899   8.893 -1.8044  1.5767  0.3415
 6801SOL     OW32035   3.629   0.376  16.217 -0.8504  0.3133  0.7345
 6801SOL    HW132036   3.714   0.349  16.182 -2.3513  1.1467 -3.4948
 6801SOL    HW232037   3.635   0.469  16.199  1.2573  0.1551  0.5817
 6802SOL     OW32038   4.324   1.128   3.691 -0.4203 -0.2310  0.1046
 6802SOL    HW132039   4.382   1.135   3.615 -0.5564  0.1623  0.0394
 6802SOL    HW232040   4.283   1.043   3.675 -2.6150  0.9508 -0.5304
 6803SOL     OW32041   1.331   2.163   3.441  0.0633  0.0838 -0.1764
 6803SOL    HW132042   1.246   2.144   3.482  0.3632 -1.2827 -0.1949
 6803SOL    HW232043   1.327   2.259   3.441 -0.6922  0.0547  0.1922
 6804SOL     OW32044   3.371   1.314   9.011  0.1861 -0.3194  0.4695
 6804SOL    HW132045   3.334   1.323   9.098 -0.0603  0.5606  0.2768
 6804SOL    HW232046   3.448   1.371   9.007 -1.0957  1.4858  1.6008
 6805SOL     OW32047   0.387   3.972  12.434  0.0686  0.9847 -0.0168
 6805SOL    HW132048   0.384   4.029  12.511 -2.4764  0.5717  0.1826
 6805SOL    HW232049   0.299   3.992  12.401 -0.5788 -0.7074  0.6937
 6806SOL     OW32050   0.191   3.657  15.456  0.1515 -0.3666  0.8116
 6806SOL    HW132051   0.181   3.739  15.503 -0.6482  0.5203 -0.8888
 6806SOL    HW232052   0.162   3.690  15.371  0.3994 -1.6765  0.2067
 6807SOL     OW32053   1.238   3.514   6.342 -0.2745 -0.2736  0.1316
 6807SOL    HW132054   1.193   3.429   6.347 -1.9394  0.5382 -1.1085
 6807SOL    HW232055   1.246   3.532   6.436  3.2825 -3.4195  0.4372
 6808SOL     OW32056   1.062   1.476  14.937 -0.1561  0.2935 -0.3153
 6808SOL    HW132057   1.115   1.526  14.876 -0.2189  1.4411  0.5699
 6808SOL    HW232058   1.092   1.386  14.921 -1.7212  0.3883 -3.7574
 6809SOL     OW32059   1.266   3.747   8.144 -0.5533  0.2471  0.2792
 6809SOL    HW132060   1.301   3.661   8.168 -1.0728  0.5138  1.9610
 6809SOL    HW232061   1.288   3.802   8.219  0.4109 -1.0274  0.9176
 6810SOL     OW32062   2.477   2.246  10.969  0.4607 -0.7656 -0.4407
 6810SOL    HW132063   2.549   2.263  10.908  0.8314  0.0858  0.2450
 6810SOL    HW232064   2.471   2.325  11.022 -0.8883 -0.7659 -0.5919
 6811SOL     OW32065   1.141   0.429  11.514 -0.5037 -0.4013 -0.1077
 6811SOL    HW132066   1.099   0.512  11.539 -0.9123 -0.5255 -0.3833
 6811SOL    HW232067   1.186   0.409  11.597  1.7158 -0.5731 -1.3619
 6812SOL     OW32068   1.679   1.155  16.699 -0.1015 -0.0730 -0.4859
 6812SOL    HW132069   1.683   1.062  16.680 -1.1449 -0.4035  0.8567
 6812SOL    HW232070   1.608   1.149  16.763 -1.4657 -1.8118 -2.1682
 6813SOL     OW32071   3.763   3.089   3.449  0.2334  0.5354 -0.0534
 6813SOL    HW132072   3.766   2.997   3.476  0.3829  0.4594 -0.3276
 6813SOL    HW232073   3.788   3.087   3.356  0.3148  0.6781 -0.0337
 6814SOL     OW32074   3.920   0.010   1.835  0.1011 -0.0967  0.4332
 6814SOL    HW132075   3.949   0.100   1.849 -1.1097  0.2804  0.5637
 6814SOL    HW232076   3.957   4.696   1.907 -2.2199  0.9868  2.4316
 6815SOL     OW32077   0.431   3.776  12.941 -0.1116  0.0748 -0.1256
 6815SOL    HW132078   0.408   3.688  12.969 -0.2128 -0.3891 -1.6522
 6815SOL    HW232079   0.494   3.802  13.008  1.0714  0.5009 -1.3868
 6816SOL     OW32080   1.393   3.185   9.636  0.3523 -0.0205 -0.8234
 6816SOL    HW132081   1.365   3.111   9.581 -1.0546  0.5704 -0.8958
 6816SOL    HW232082   1.381   3.257   9.574  0.3505  0.0361 -0.7567
 6817SOL     OW32083   3.011   1.770   8.557 -0.8363 -0.5356 -0.4795
 6817SOL    HW132084   3.086   1.754   8.500  0.8011  1.0207  1.2120
 6817SOL    HW232085   2.936   1.769   8.498 -2.0528  0.3562  1.0421
 6818SOL     OW32086   3.073   2.720   7.804  0.2849 -0.2807  0.2012
 6818SOL    HW132087   3.071   2.791   7.868 -0.2815 -1.0815  1.0892
 6818SOL    HW232088   3.015   2.767   7.745 -1.2663 -2.0126  0.3661
 6819SOL     OW32089   4.578   2.952   1.955 -0.0315  0.1796  0.5064
 6819SOL    HW132090   4.666   2.990   1.957  0.2301 -0.5503  3.7013
 6819SOL    HW232091   4.558   2.954   1.862 -0.3241  0.1108  0.5701
 6820SOL     OW32092   3.452   4.235   5.181 -0.5342  0.9965 -0.0462
 6820SOL    HW132093   3.444   4.272   5.268  1.2050  0.5785  0.2772
 6820SOL    HW232094   3.521   4.286   5.139  0.2597 -0.1871 -0.1773
 6821SOL     OW32095   3.053   3.549   9.424 -0.1708  0.1995  0.1752
 6821SOL    HW132096   3.046   3.538   9.329 -0.3875  0.6344  0.1389
 6821SOL    HW232097   3.146   3.548   9.444 -0.0110 -3.7062 -0.7436
 6822SOL     OW32098   2.114   2.255   4.795 -0.6353  0.1731  0.1754
 6822SOL    HW132099   2.062   2.281   4.719 -2.7106 -1.5888  0.9564
 6822SOL    HW232100   2.198   2.238   4.754 -0.6196 -0.5908  0.5111
 6823SOL     OW32101   0.493   2.845   1.741  0.4940 -0.3554 -0.0598
 6823SOL    HW132102   0.408   2.879   1.768  1.2901  1.5181  0.1274
 6823SOL    HW232103   0.477   2.752   1.755 -0.3309 -0.3467 -0.8988
 6824SOL     OW32104   2.968   4.601   3.537  0.6515 -0.2243 -0.3164
 6824SOL    HW132105   3.052   4.644   3.526  0.2377  0.9394  1.1174
 6824SOL    HW232106   2.913   4.662   3.487 -0.9828 -0.6872  0.8965
 6825SOL     OW32107   4.386   2.352   2.455 -0.1396 -0.0501 -0.2825
 6825SOL    HW132108   4.438   2.301   2.519 -0.2480  1.4135  0.9693
 6825SOL    HW232109   4.311   2.361   2.514 -0.1184 -2.1092  0.0618
 6826SOL     OW32110   4.472   4.331   4.293 -1.0071 -0.0369 -0.3049
 6826SOL    HW132111   4.551   4.385   4.287 -1.8070  1.0488 -1.0904
 6826SOL    HW232112   4.490   4.312   4.385 -0.7627 -1.1265 -0.5795
 6827SOL     OW32113   4.274   1.359   5.608  0.5504 -0.2521 -0.0889
 6827SOL    HW132114   4.250   1.439   5.562 -0.7948  1.8771  4.3866
 6827SOL    HW232115   4.353   1.348   5.555 -0.1179  0.0875 -1.1649
 6828SOL     OW32116   1.531   4.319   5.263  0.1297 -0.0612 -0.0816
 6828SOL    HW132117   1.563   4.289   5.348  1.3213 -3.5852 -1.7693
 6828SOL    HW232118   1.471   4.251   5.233 -1.2814  0.6622  1.1014
 6829SOL     OW32119   3.196   2.215   7.503  0.8703  0.2165  0.5783
 6829SOL    HW132120   3.130   2.250   7.444  1.5561  1.3535  0.4913
 6829SOL    HW232121   3.247   2.296   7.503  1.3180 -0.0662  0.4288
 6830SOL     OW32122   3.061   3.447   7.740 -0.2500  0.1103 -0.3294
 6830SOL    HW132123   3.093   3.531   7.772 -0.5905  0.4616 -0.9257
 6830SOL    HW232124   2.982   3.468   7.690  1.4914  0.7095 -2.7939
 6831SOL     OW32125   0.792   4.366   7.359 -0.1860  0.6433 -0.3719
 6831SOL    HW132126   0.714   4.313   7.374 -0.4972  1.1970 -0.0208
 6831SOL    HW232127   0.846   4.310   7.303  0.1851 -0.2807  0.9001
 6832SOL     OW32128   4.486   1.318   3.510  0.1953 -0.3150 -0.3523
 6832SOL    HW132129   4.444   1.296   3.427 -0.8199 -1.5577  0.4978
 6832SOL    HW232130   4.540   1.240   3.527  1.3988  0.8923  1.3965
 6833SOL     OW32131   0.628   0.826   8.326 -0.1959  0.1643  0.0907
 6833SOL    HW132132   0.710   0.778   8.325 -1.7114 -2.4995  1.5560
 6833SOL    HW232133   0.578   0.780   8.258  1.8529 -3.3226  0.9252
 6834SOL     OW32134   4.251   0.816  17.022 -0.5201  0.2398 -0.5544
 6834SOL    HW132135   4.267   0.872  16.946  0.4597  1.5412  0.6050
 6834SOL    HW232136   4.258   0.727  16.988 -0.4676 -0.8147  2.2201
 6835SOL     OW32137   2.125   2.940   8.212  0.3565  0.2094 -0.3012
 6835SOL    HW132138   2.207   2.988   8.224 -0.1476  1.0668 -0.2513
 6835SOL    HW232139   2.120   2.939   8.116  1.5368 -0.1269 -0.3549
 6836SOL     OW32140   0.958   1.086  16.206 -0.7007 -0.2283  0.2656
 6836SOL    HW132141   1.040   1.108  16.162 -1.2652 -0.1974 -0.7613
 6836SOL    HW232142   0.990   1.010  16.255  0.8559  1.0560  1.2514
 6837SOL     OW32143   2.261   0.316   7.555  0.4869  0.1263 -0.1130
 6837SOL    HW132144   2.334   0.258   7.577 -0.7809 -1.2181  0.5818
 6837SOL    HW232145   2.230   0.328   7.645  1.8188 -1.2503  0.5291
 6838SOL     OW32146   0.109   0.139  11.450  0.3990  0.6095 -0.2070
 6838SOL    HW132147   0.157   0.205  11.498 -1.5962  0.0502  2.5615
 6838SOL    HW232148   0.026   0.126  11.495  1.4512  1.1400  1.8486
 6839SOL     OW32149   0.642   1.008   5.744  0.6785 -0.3357  0.0310
 6839SOL    HW132150   0.649   1.001   5.839 -3.7839 -0.0321  0.4103
 6839SOL    HW232151   0.558   0.963   5.731 -0.1547  1.1719  0.1914
 6840SOL     OW32152   1.184   0.967   8.290  0.2407 -0.3842  0.3074
 6840SOL    HW132153   1.110   0.985   8.348 -0.8142  3.1477 -2.0932
 6840SOL    HW232154   1.245   0.922   8.348  0.7419 -2.0256 -1.5021
 6841SOL     OW32155   1.202   0.054  15.555  0.2193  0.0950  0.7514
 6841SOL    HW132156   1.186   0.125  15.617  0.4973  1.1416 -0.3727
 6841SOL    HW232157   1.296   0.060  15.543 -0.2587  2.0622 -2.0543
 6842SOL     OW32158   2.693   2.555   4.750  0.2219  0.5278 -0.0731
 6842SOL    HW132159   2.657   2.643   4.764  1.4603  1.5843 -3.4128
 6842SOL    HW232160   2.665   2.505   4.826 -2.5670  1.0111 -0.7848
 6843SOL     OW32161   1.415   1.533   6.812 -0.1665  0.2463  0.4979
 6843SOL    HW132162   1.326   1.568   6.817 -0.4328 -0.4013  0.3443
 6843SOL    HW232163   1.444   1.538   6.903 -0.9255  0.6283  0.7195
 6844SOL     OW32164   2.103   2.155  11.313 -0.4755  0.2889 -0.3486
 6844SOL    HW132165   2.082   2.098  11.239 -0.8562 -0.1455  0.0937
 6844SOL    HW232166   2.195   2.131  11.322 -1.2082 -1.7386  1.6100
 6845SOL     OW32167   1.672   2.952   3.144  0.6136 -0.5254 -0.2730
 6845SOL    HW132168   1.616   3.009   3.197  0.7388 -2.0092  1.4914
 6845SOL    HW232169   1.739   2.933   3.210  2.0877  0.0836 -1.5997
 6846SOL     OW32170   1.472   4.608   6.739  0.0809 -0.1294 -0.0374
 6846SOL    HW132171   1.378   4.593   6.745  0.3386 -2.4094 -1.6583
 6846SOL    HW232172   1.483   4.680   6.801 -0.7612  0.1768 -0.2444
 6847SOL     OW32173   4.346   2.839   6.056  0.0045 -0.0134 -1.2508
 6847SOL    HW132174   4.320   2.929   6.034  0.8541  0.6889  0.5524
 6847SOL    HW232175   4.268   2.792   6.028 -0.3244  1.4253 -2.7825
 6848SOL     OW32176   1.800   4.016   5.301 -0.3163 -0.5617  0.2320
 6848SOL    HW132177   1.758   4.046   5.382 -1.8177 -0.4607 -0.5772
 6848SOL    HW232178   1.886   3.989   5.331 -1.3411 -1.2272  2.5978
 6849SOL     OW32179   1.060   1.462   6.385 -0.1273 -0.2489 -0.3789
 6849SOL    HW132180   1.030   1.497   6.469 -2.1279 -0.0425 -1.1782
 6849SOL    HW232181   1.149   1.431   6.404 -0.1112  0.4220  0.6667
 6850SOL     OW32182   0.471   4.693   6.425  0.2132 -0.0687  0.0390
 6850SOL    HW132183   0.481   4.601   6.449  0.0791  0.5398  2.4999
 6850SOL    HW232184   0.476   0.005   6.507  0.7984  0.1575 -0.1352
 6851SOL     OW32185   4.224   4.196  11.522  0.6434  0.0700  0.1494
 6851SOL    HW132186   4.152   4.253  11.493 -0.0554  0.2702  2.3209
 6851SOL    HW232187   4.172   4.116  11.529 -0.6504  0.8487 -0.5323
 6852SOL     OW32188   3.691   0.964   2.625  0.0302  0.1789 -0.1239
 6852SOL    HW132189   3.771   0.951   2.677  0.9863  2.3780 -1.0231
 6852SOL    HW232190   3.673   0.872   2.607 -0.7592  0.3900 -0.4375
 6853SOL     OW32191   0.373   0.834   5.043  0.1858  0.1627  0.4874
 6853SOL    HW132192   0.446   0.774   5.060 -1.2527 -0.9185  2.6999
 6853SOL    HW232193   0.374   0.838   4.947  0.8499 -0.9930  0.4563
 6854SOL     OW32194   4.048   3.066   9.254  0.4121 -0.3470 -0.0902
 6854SOL    HW132195   4.028   3.010   9.329  2.2292 -2.1929 -0.9536
 6854SOL    HW232196   4.134   3.092   9.289  1.0311 -0.8503 -1.2163
 6855SOL     OW32197   3.369   3.169   7.177 -0.1159  0.1658 -0.6411
 6855SOL    HW132198   3.445   3.143   7.124 -0.4067  0.5121 -1.2237
 6855SOL    HW232199   3.397   3.166   7.268  1.0023 -0.0262 -0.9807
 6856SOL     OW32200   3.045   3.685  17.637 -0.5586 -0.1219  0.6396
 6856SOL    HW132201   3.137   3.699  17.657  0.2307  0.4091 -3.3898
 6856SOL    HW232202   3.011   3.766  17.598  0.2701  0.7845  1.8232
 6857SOL     OW32203   4.584   2.759  10.391 -0.1931 -0.6315 -0.3933
 6857SOL    HW132204   4.580   2.792  10.481 -0.3142  1.7151 -1.2539
 6857SOL    HW232205   4.670   2.718  10.397  0.7988  1.6043  0.5919
 6858SOL     OW32206   0.087   1.765  13.606  0.4638  0.2641  0.5034
 6858SOL    HW132207   0.102   1.692  13.666  0.7007 -1.9844 -2.2933
 6858SOL    HW232208   4.736   1.751  13.571  0.5458  2.7861 -0.7029
 6859SOL     OW32209   2.025   3.523  13.891  0.9379 -0.3624  0.0457
 6859SOL    HW132210   2.084   3.594  13.915  0.4469  0.2482 -0.5479
 6859SOL    HW232211   1.952   3.563  13.843  1.2234  2.3586  1.8802
 6860SOL     OW32212   0.198   1.044   0.119 -0.1500 -0.8391  0.4361
 6860SOL    HW132213   0.126   0.982   0.128 -2.0375  1.4258  0.8309
 6860SOL    HW232214   0.166   1.113   0.177 -3.5358 -0.6372 -1.7295
 6861SOL     OW32215   2.323   4.198   5.004  0.2874 -0.0484 -0.2533
 6861SOL    HW132216   2.277   4.244   5.074  1.4684 -0.9253  1.0726
 6861SOL    HW232217   2.415   4.189   5.031 -0.5126 -1.4471  1.9584
 6862SOL     OW32218   0.173   2.395  14.921 -0.4760 -0.0463  0.1408
 6862SOL    HW132219   0.263   2.419  14.899  0.3244 -1.4111  1.8868
 6862SOL    HW232220   0.124   2.473  14.894 -1.3305  1.0847  4.8704
 6863SOL     OW32221   3.301   3.499   3.579  0.2786 -0.1437 -0.6408
 6863SOL    HW132222   3.339   3.541   3.656  1.1666  0.5201 -1.4311
 6863SOL    HW232223   3.216   3.543   3.574  2.0025  3.4275  1.7619
 6864SOL     OW32224   4.160   3.865  13.460 -0.3413 -0.7608  0.2695
 6864SOL    HW132225   4.086   3.925  13.456  0.2012 -0.1041  0.1242
 6864SOL    HW232226   4.162   3.816  13.378 -0.7881  1.6759 -1.1972
 6865SOL     OW32227   2.624   4.561   8.722  0.1146  0.5623  0.2267
 6865SOL    HW132228   2.541   4.532   8.685  0.1110 -0.6214  1.1654
 6865SOL    HW232229   2.699   4.525   8.675 -0.4925 -1.0796  0.5093
 6866SOL     OW32230   0.380   1.151   1.473 -0.0460 -0.5418  0.2820
 6866SOL    HW132231   0.433   1.095   1.529 -0.4297  0.7755  1.9658
 6866SOL    HW232232   0.297   1.161   1.521 -0.9749  0.1723 -1.4749
 6867SOL     OW32233   3.169   4.463   6.054 -0.3685 -0.2010 -0.1149
 6867SOL    HW132234   3.147   4.514   6.131 -1.9678  0.8012 -1.2581
 6867SOL    HW232235   3.083   4.436   6.021 -0.1369 -1.5838  0.3850
 6868SOL     OW32236   3.963   0.045   5.218 -0.6016  0.1917 -0.3796
 6868SOL    HW132237   4.043   0.017   5.173  0.3947  2.5956 -0.1287
 6868SOL    HW232238   3.994   0.112   5.279  0.7926  0.1758 -1.0667
 6869SOL     OW32239   4.602   4.116   9.845  0.5048  0.7488 -0.0673
 6869SOL    HW132240   4.620   4.180   9.776 -1.2519  1.6946  0.3718
 6869SOL    HW232241   4.649   4.162   9.914  2.7372 -0.1422 -0.9989
 6870SOL     OW32242   0.307   0.158   7.051  0.5241 -0.1752 -0.0888
 6870SOL    HW132243   0.362   0.146   7.128  1.4820 -0.9570 -0.9004
 6870SOL    HW232244   0.218   0.141   7.083  0.0365 -0.1178 -1.4261
 6871SOL     OW32245   0.925   3.385   5.301  0.2303  0.1328  0.2006
 6871SOL    HW132246   0.883   3.406   5.217  1.1769  1.2137 -0.0088
 6871SOL    HW232247   0.853   3.400   5.362 -1.0104 -1.9406 -0.7494
 6872SOL     OW32248   0.871   3.253  10.737  0.1436 -0.5981 -0.4481
 6872SOL    HW132249   0.916   3.270  10.820  0.3411 -1.8498 -0.3037
 6872SOL    HW232250   0.865   3.336  10.689 -0.2876  0.3400  1.2535
 6873SOL     OW32251   3.450   2.369  11.690  0.2019  0.6422  0.2393
 6873SOL    HW132252   3.382   2.319  11.733  0.0236  0.0838 -0.6808
 6873SOL    HW232253   3.420   2.458  11.710 -0.0276  0.1762  1.8873
 6874SOL     OW32254   3.910   3.156   8.732  0.4837  0.1066  0.1393
 6874SOL    HW132255   3.833   3.117   8.689 -0.5635  0.8864  1.3287
 6874SOL    HW232256   3.864   3.188   8.809  0.6630  1.4723 -0.3218
 6875SOL     OW32257   4.495   0.892  17.528 -0.0202 -0.3821 -0.1668
 6875SOL    HW132258   4.501   0.824  17.460 -0.7621 -0.7578  0.1441
 6875SOL    HW232259   4.575   0.941  17.507 -0.8155  0.3189 -1.5788
 6876SOL     OW32260   4.144   2.183   7.040 -0.2428  0.1669  0.4407
 6876SOL    HW132261   4.231   2.216   7.064 -0.4469  1.0882 -0.1206
 6876SOL    HW232262   4.163   2.149   6.953 -1.8673 -1.7585  0.8321
 6877SOL     OW32263   3.719   2.489   6.771  0.9461  0.4253 -0.2778
 6877SOL    HW132264   3.753   2.535   6.694  1.4777 -0.3037 -0.4713
 6877SOL    HW232265   3.764   2.405   6.765 -0.8939 -0.6025  0.1062
 6878SOL     OW32266   4.402   1.552   3.612  0.2550 -0.4652 -0.0552
 6878SOL    HW132267   4.450   1.565   3.694  0.6000  0.4188 -0.3934
 6878SOL    HW232268   4.455   1.481   3.577  0.5614 -0.4927  0.4600
 6879SOL     OW32269   1.491   0.171  10.135  0.4825 -0.0066  0.3119
 6879SOL    HW132270   1.548   0.094  10.140 -0.4707 -0.8457 -1.7902
 6879SOL    HW232271   1.406   0.126  10.135  0.9602 -0.9016  0.3362
 6880SOL     OW32272   0.318   2.326   5.497 -0.1010 -0.3285 -0.6838
 6880SOL    HW132273   0.400   2.359   5.462 -0.7583  0.3155 -1.6251
 6880SOL    HW232274   0.349   2.248   5.543  1.1934  2.1527  2.6202
 6881SOL     OW32275   0.077   0.551   0.894 -0.4721 -0.0052  0.2799
 6881SOL    HW132276   0.084   0.542   0.989 -2.8841  0.4143  0.4935
 6881SOL    HW232277   0.132   0.627   0.872  0.6749 -0.9104  0.0093
 6882SOL     OW32278   2.970   3.750   2.699 -0.5056  0.6226 -0.1703
 6882SOL    HW132279   2.875   3.754   2.709 -0.3842  1.3532  0.7078
 6882SOL    HW232280   2.976   3.720   2.608  1.5855 -1.4481  0.6623
 6883SOL     OW32281   2.008   0.803  16.782  0.1840  0.5961  0.1194
 6883SOL    HW132282   2.087   0.748  16.783 -0.4253 -0.2498  2.5739
 6883SOL    HW232283   1.950   0.759  16.721 -0.0237  0.5510  0.3485
 6884SOL     OW32284   3.949   4.454   5.291 -0.2437  0.3194  0.1359
 6884SOL    HW132285   3.868   4.475   5.338 -1.4023 -0.6172 -1.4585
 6884SOL    HW232286   3.936   4.506   5.212 -1.9431  0.5932  0.5934
 6885SOL     OW32287   0.815   3.826   7.630  0.4177 -0.3368 -0.0670
 6885SOL    HW132288   0.898   3.851   7.669  1.1818 -1.6373 -0.8374
 6885SOL    HW232289   0.786   3.749   7.679 -0.6716  0.2882  0.2743
 6886SOL     OW32290   3.442   3.166   5.589  0.8464 -0.0697  0.3277
 6886SOL    HW132291   3.437   3.191   5.496 -1.0286 -1.6918 -0.0017
 6886SOL    HW232292   3.536   3.153   5.601  0.8289 -0.0200  0.5057
 6887SOL     OW32293   2.869   4.400   3.232 -0.2363 -0.1671 -0.0230
 6887SOL    HW132294   2.825   4.358   3.157  1.8240  0.3084 -1.4886
 6887SOL    HW232295   2.804   4.465   3.257 -1.5298 -2.0009  1.4258
 6888SOL     OW32296   0.881   1.487   8.071 -0.2500 -0.0831  0.1806
 6888SOL    HW132297   0.879   1.582   8.083  0.6553 -0.0517  0.0999
 6888SOL    HW232298   0.963   1.459   8.113  1.0841  1.9465 -1.0900
 6889SOL     OW32299   2.053   4.107   9.115  0.1987 -0.3095 -0.0971
 6889SOL    HW132300   2.041   4.013   9.130 -0.2353 -0.1962  0.2606
 6889SOL    HW232301   2.033   4.143   9.201  1.8036  0.1105  0.0915
 6890SOL     OW32302   2.070   0.162   8.577 -0.1553  0.3565  1.1354
 6890SOL    HW132303   2.056   0.070   8.552 -1.4886  0.9974 -0.4623
 6890SOL    HW232304   2.164   0.175   8.563 -0.0578  1.2528  2.6345
 6891SOL     OW32305   2.729   2.085   7.890 -0.7731 -0.2062 -0.6997
 6891SOL    HW132306   2.770   2.037   7.963  2.5878  1.9070 -1.2023
 6891SOL    HW232307   2.757   2.042   7.809 -1.2625 -1.0172 -0.4376
 6892SOL     OW32308   2.287   1.035  12.402 -0.4074  0.1382 -0.1581
 6892SOL    HW132309   2.241   1.063  12.323  0.5016 -1.2572 -1.1820
 6892SOL    HW232310   2.222   0.985  12.451 -1.4270  2.2286  0.6462
 6893SOL     OW32311   1.931   3.350   3.450  0.3246  0.9976  0.2286
 6893SOL    HW132312   1.955   3.342   3.357  0.1934 -3.4184  0.5463
 6893SOL    HW232313   2.014   3.323   3.489  0.0329  2.9660  2.1646
 6894SOL     OW32314   0.118   1.561   6.908  0.2911  0.8176  0.4546
 6894SOL    HW132315   0.050   1.625   6.891  1.1516  1.8379  0.8729
 6894SOL    HW232316   0.189   1.591   6.850 -0.3370 -1.2264 -1.3687
 6895SOL     OW32317   0.946   0.967   8.426  0.1743  0.6100 -0.0493
 6895SOL    HW132318   0.894   1.004   8.354 -2.8315  0.0689  1.8459
 6895SOL    HW232319   0.931   0.874   8.411  0.1249  0.9502 -2.0977
 6896SOL     OW32320   1.754   4.161   4.109 -0.6511  0.3529 -0.7490
 6896SOL    HW132321   1.757   4.065   4.108  1.6015  0.3892  0.3984
 6896SOL    HW232322   1.661   4.168   4.131 -0.6990  1.0232 -1.1579
 6897SOL     OW32323   0.390   1.378   5.279  0.4802  0.7815 -0.4176
 6897SOL    HW132324   0.310   1.402   5.324  0.4144  1.6571 -1.0019
 6897SOL    HW232325   0.372   1.292   5.241  2.6868  0.2135 -0.1929
 6898SOL     OW32326   1.106   3.298  13.848  0.2389 -0.5211  0.0731
 6898SOL    HW132327   1.027   3.335  13.808 -0.1117 -1.1512  0.1738
 6898SOL    HW232328   1.069   3.291  13.937 -1.4945 -0.7481 -0.6614
 6899SOL     OW32329   2.161   4.608   8.380 -0.4354  0.2391  0.2052
 6899SOL    HW132330   2.137   4.678   8.318  0.6960  0.3611 -0.0810
 6899SOL    HW232331   2.215   4.546   8.331 -1.0236 -0.3410  0.2956
 6900SOL     OW32332   0.263   3.073   6.502 -0.0256  0.0311 -0.1854
 6900SOL    HW132333   0.296   3.032   6.582 -0.9359  0.2175  0.2862
 6900SOL    HW232334   0.318   3.033   6.435 -0.0446  1.7456 -1.2191
 6901SOL     OW32335   1.856   3.768  14.937 -0.2402 -0.5382  0.2030
 6901SOL    HW132336   1.869   3.801  15.026  0.8497 -2.5725  0.7836
 6901SOL    HW232337   1.793   3.698  14.948 -2.4128  1.3328 -0.2094
 6902SOL     OW32338   1.193   0.725   6.150 -0.2060 -0.1879  0.4819
 6902SOL    HW132339   1.255   0.716   6.223 -0.3398 -0.9494  0.5045
 6902SOL    HW232340   1.119   0.776   6.182  1.3539  1.1944  1.8953
 6903SOL     OW32341   4.184   2.755   2.005  0.6622  0.2434 -0.2027
 6903SOL    HW132342   4.136   2.699   2.066 -0.8939  1.1241 -0.6340
 6903SOL    HW232343   4.276   2.747   2.032  1.1483 -0.8881 -2.1323
 6904SOL     OW32344   0.786   3.800   3.639 -0.3018 -0.4112 -0.1338
 6904SOL    HW132345   0.868   3.757   3.666 -1.4949 -2.8484 -0.4075
 6904SOL    HW232346   0.788   3.783   3.545 -0.2639  0.0864 -0.2218
 6905SOL     OW32347   1.798   1.962   1.386 -0.2473 -0.3991 -0.0135
 6905SOL    HW132348   1.833   1.905   1.317  1.1073 -1.2157  1.3371
 6905SOL    HW232349   1.848   1.944   1.466 -1.1171 -0.9063  0.4154
 6906SOL     OW32350   1.682   2.981   4.586 -0.5168 -0.3916 -0.2293
 6906SOL    HW132351   1.729   2.962   4.505  1.5194 -0.6297  1.0087
 6906SOL    HW232352   1.628   3.052   4.551 -0.4613  0.3174  1.1214
 6907SOL     OW32353   3.621   1.937   9.910  0.3105 -0.0408 -0.3836
 6907SOL    HW132354   3.648   1.873   9.976  0.0974  0.9469  0.6608
 6907SOL    HW232355   3.543   1.894   9.877 -0.3890 -0.7678  2.2190
 6908SOL     OW32356   1.043   1.450   9.012 -0.0803 -0.2071 -0.3648
 6908SOL    HW132357   0.961   1.416   9.048  0.8843 -0.5314  1.4946
 6908SOL    HW232358   1.048   1.532   9.061  2.4377  0.8268 -2.3374
 6909SOL     OW32359   0.185   0.339   6.234 -0.1781 -0.2344 -0.3327
 6909SOL    HW132360   0.144   0.292   6.161 -0.8067  0.2551 -0.2896
 6909SOL    HW232361   0.114   0.364   6.292  0.4963 -1.9318  1.2388
 6910SOL     OW32362   3.699   1.652   5.406  0.1100  0.5029  0.6543
 6910SOL    HW132363   3.793   1.637   5.399 -0.4489 -1.1602 -2.8128
 6910SOL    HW232364   3.665   1.570   5.371  2.2123 -0.9365  1.9268
 6911SOL     OW32365   0.672   4.566   4.731  1.4044  0.4371 -0.6893
 6911SOL    HW132366   0.672   4.537   4.640 -0.3892  0.7892 -0.7925
 6911SOL    HW232367   0.582   4.599   4.733  1.1569 -0.3290  0.7790
 6912SOL     OW32368   1.910   0.600   3.430 -0.2582 -0.3960  0.0200
 6912SOL    HW132369   1.904   0.627   3.522 -3.5642 -1.2984  0.0728
 6912SOL    HW232370   1.993   0.645   3.413 -0.2080 -0.7714 -0.7168
 6913SOL     OW32371   2.760   4.138  10.280  0.1034 -0.5437 -0.0478
 6913SOL    HW132372   2.668   4.162  10.288 -0.1277 -0.7618 -2.0856
 6913SOL    HW232373   2.793   4.199  10.346  0.1403 -1.4443  0.7703
 6914SOL     OW32374   0.939   4.017  16.997 -0.0204  0.1866  0.9084
 6914SOL    HW132375   1.033   4.028  17.009  0.4767 -1.6055 -1.5210
 6914SOL    HW232376   0.931   3.927  16.967  0.9174 -0.0965  1.5181
 6915SOL     OW32377   3.185   2.511  11.934  0.0014 -0.0168  0.2152
 6915SOL    HW132378   3.193   2.434  11.878 -0.3817 -0.5585  0.8945
 6915SOL    HW232379   3.215   2.581  11.877  0.7925  0.7106  1.5120
 6916SOL     OW32380   1.874   0.065   4.838 -0.6392  0.2781  0.7552
 6916SOL    HW132381   1.795   0.117   4.847  0.1013  1.5331  0.0023
 6916SOL    HW232382   1.938   0.081   4.908  0.5971 -1.1995 -0.0375
 6917SOL     OW32383   4.534   2.384  16.202 -0.3007  0.4025 -0.2113
 6917SOL    HW132384   4.477   2.452  16.238 -0.2179  1.3845 -1.9063
 6917SOL    HW232385   4.511   2.312  16.261  0.1355  1.2108  0.9320
 6918SOL     OW32386   2.348   3.755   6.070  0.2271  0.4017 -0.4449
 6918SOL    HW132387   2.318   3.824   6.128  1.8450  0.6425  0.0862
 6918SOL    HW232388   2.323   3.676   6.119 -1.7921  0.1840 -1.8226
 6919SOL     OW32389   0.158   0.044  11.755  0.1380  0.9054 -0.1979
 6919SOL    HW132390   0.090   0.110  11.761 -1.3591 -0.6295 -0.2024
 6919SOL    HW232391   0.228   0.093  11.711  1.0040 -1.3674 -1.3737
 6920SOL     OW32392   0.610   0.815   2.586 -0.5571  0.2593  0.0058
 6920SOL    HW132393   0.615   0.856   2.500  1.4490  0.9049  0.4299
 6920SOL    HW232394   0.633   0.890   2.642  1.1640  0.3364 -0.8096
 6921SOL     OW32395   4.706   0.475   6.418  0.1415  0.1630 -0.5080
 6921SOL    HW132396   0.034   0.425   6.466  0.9669  0.2655 -1.5264
 6921SOL    HW232397   4.658   0.520   6.488  1.9564  1.8693 -0.3514
 6922SOL     OW32398   2.870   2.497   5.055  0.2303 -0.4007 -0.0595
 6922SOL    HW132399   2.915   2.568   5.100 -0.3056 -0.4670  0.5902
 6922SOL    HW232400   2.812   2.470   5.126 -0.1172 -1.2542 -0.6656
 6923SOL     OW32401   3.256   2.896   3.846  0.7641 -0.6957  0.5921
 6923SOL    HW132402   3.336   2.867   3.803  2.4863  2.6504  1.5717
 6923SOL    HW232403   3.257   2.863   3.936  2.7045 -0.3294  0.6867
 6924SOL     OW32404   1.473   3.708   2.753  0.7938  0.1808 -0.0114
 6924SOL    HW132405   1.397   3.743   2.801  1.4246  0.1815  0.9884
 6924SOL    HW232406   1.426   3.711   2.670  2.9266  1.4032 -1.1568
 6925SOL     OW32407   0.968   4.580   5.841 -0.3898 -0.5454 -0.2001
 6925SOL    HW132408   0.989   4.494   5.804  0.1901 -0.7620  0.6334
 6925SOL    HW232409   1.002   4.561   5.928 -0.6976 -0.8902 -0.1574
 6926SOL     OW32410   3.353   4.591   8.114  0.2611  0.2188  0.0739
 6926SOL    HW132411   3.299   4.513   8.114  2.9106 -1.6352 -1.9942
 6926SOL    HW232412   3.440   4.556   8.095 -0.3816 -0.0668 -2.4442
 6927SOL     OW32413   3.820   0.672   2.814 -0.0769  0.4252  0.4197
 6927SOL    HW132414   3.860   0.619   2.745 -3.9590  0.7907 -2.0878
 6927SOL    HW232415   3.898   0.700   2.863  0.0891  1.1845 -0.2669
 6928SOL     OW32416   2.972   0.704   9.738 -0.0784 -0.1378 -0.0532
 6928SOL    HW132417   3.055   0.663   9.763  2.2235  3.6357 -1.5512
 6928SOL    HW232418   3.002   0.792   9.718 -0.7113 -0.4327 -2.2688
 6929SOL     OW32419   3.012   3.529  10.038 -0.7318 -0.1539  0.0779
 6929SOL    HW132420   2.974   3.449  10.001 -1.2830 -0.1658  0.6736
 6929SOL    HW232421   3.107   3.513  10.032 -0.8215 -1.8163  2.8607
 6930SOL     OW32422   0.154   4.184   5.836 -0.8218 -0.0855  0.1258
 6930SOL    HW132423   0.192   4.224   5.758 -0.2067 -1.3910 -0.2523
 6930SOL    HW232424   0.099   4.241   5.889 -0.6526  0.4943 -0.3255
 6931SOL     OW32425   3.637   4.170  10.089 -0.8483  0.1050  0.2003
 6931SOL    HW132426   3.612   4.080  10.072  1.2404 -0.6340  1.0428
 6931SOL    HW232427   3.564   4.228  10.066 -0.1729  0.3266 -1.4004
 6932SOL     OW32428   0.082   0.122   3.462 -0.3552  0.1262 -0.0942
 6932SOL    HW132429   0.141   0.075   3.403  2.9393  2.9421  0.9649
 6932SOL    HW232430   0.029   0.051   3.498 -3.0671  1.6865 -0.9333
 6933SOL     OW32431   3.074   3.032   1.067 -0.2850 -0.1468  0.2844
 6933SOL    HW132432   3.152   3.087   1.081  0.5007 -1.7225  2.0986
 6933SOL    HW232433   3.010   3.049   1.136  0.1805 -0.7821  0.8701
 6934SOL     OW32434   4.640   2.800   7.876  0.4064 -0.3446  0.1314
 6934SOL    HW132435   4.621   2.840   7.792 -2.4141 -0.9718  0.4726
 6934SOL    HW232436   4.574   2.731   7.866 -0.8156  0.9884 -0.9214
 6935SOL     OW32437   2.885   3.300   9.959  0.0664  0.2829 -0.5614
 6935SOL    HW132438   2.829   3.345   9.895  1.1214 -0.0178 -1.6909
 6935SOL    HW232439   2.833   3.221   9.978 -0.1937  0.1415 -1.8283
 6936SOL     OW32440   2.021   2.047   2.415  0.1922  0.2737 -0.4122
 6936SOL    HW132441   2.083   1.980   2.445 -2.0416 -2.2950 -1.4722
 6936SOL    HW232442   1.965   2.026   2.490 -0.5043 -2.0669 -1.5613
 6937SOL     OW32443   2.658   3.840  13.709 -0.6950  0.5691 -0.1455
 6937SOL    HW132444   2.566   3.857  13.730 -1.1392 -1.2770 -0.6001
 6937SOL    HW232445   2.662   3.776  13.638 -1.4610  1.0683 -0.6394
 6938SOL     OW32446   2.710   0.362   6.122 -0.1150  0.3039 -0.2020
 6938SOL    HW132447   2.649   0.423   6.080 -0.4062  0.7804  0.9023
 6938SOL    HW232448   2.748   0.313   6.050  0.2639  1.6523 -0.9170
 6939SOL     OW32449   4.029   3.849  13.874  0.4831 -0.0843  0.5132
 6939SOL    HW132450   3.992   3.788  13.938  0.9334  0.3286  1.1661
 6939SOL    HW232451   4.110   3.803  13.848  0.5146  0.1235  0.2463
 6940SOL     OW32452   4.302   3.752   1.612  0.1594 -0.1937  0.2941
 6940SOL    HW132453   4.350   3.671   1.594  0.1949  0.2314 -1.5052
 6940SOL    HW232454   4.363   3.824   1.594  2.0715 -1.1139  3.1373
 6941SOL     OW32455   2.571   4.414   7.224 -0.3129  0.1896  0.3616
 6941SOL    HW132456   2.513   4.446   7.154 -0.1498 -0.9460 -0.2938
 6941SOL    HW232457   2.640   4.479   7.225 -1.1870  1.0870  2.5519
 6942SOL     OW32458   4.102   4.078   0.304 -0.0082 -0.5991  0.1979
 6942SOL    HW132459   4.176   4.029   0.340 -0.4568 -1.4832 -0.0654
 6942SOL    HW232460   4.141   4.110   0.223 -1.3911 -1.2018 -0.7039
 6943SOL     OW32461   2.029   3.987   5.441  0.3479 -0.3580  0.2086
 6943SOL    HW132462   2.034   3.913   5.502  0.0168 -0.7534 -0.2491
 6943SOL    HW232463   2.069   3.970   5.356 -0.0363 -0.8185  0.1187
 6944SOL     OW32464   1.444   4.211  17.312  0.3151  0.1394 -0.2233
 6944SOL    HW132465   1.523   4.216  17.258  1.4081 -0.5329  1.3221
 6944SOL    HW232466   1.445   4.292  17.363 -1.7643 -0.1207  0.2426
 6945SOL     OW32467   2.049   0.654   9.141 -0.5717  0.2287 -0.8138
 6945SOL    HW132468   2.103   0.592   9.092  2.2614  0.7993  1.6226
 6945SOL    HW232469   2.073   0.734   9.094 -3.1509 -0.4825 -3.3890
 6946SOL     OW32470   0.337   1.394   2.489  0.5423 -0.1154  0.0006
 6946SOL    HW132471   0.300   1.313   2.456  0.7009  0.1968 -0.9348
 6946SOL    HW232472   0.300   1.459   2.429  0.1847 -1.0201 -0.7459
 6947SOL     OW32473   3.282   4.080  15.004 -0.1988  0.0675 -0.3506
 6947SOL    HW132474   3.283   4.128  15.087  0.1261  1.3263 -1.0883
 6947SOL    HW232475   3.276   3.989  15.033 -1.4140  0.3945  0.4700
 6948SOL     OW32476   0.253   1.506  11.360  0.2665 -0.0752  1.1051
 6948SOL    HW132477   0.199   1.431  11.333 -2.2167  1.5309  1.6554
 6948SOL    HW232478   0.187   1.567  11.391 -0.3872 -0.4268  0.4033
 6949SOL     OW32479   2.898   1.110  17.174 -0.1712 -0.2190 -0.7535
 6949SOL    HW132480   2.862   1.069  17.252  2.7734  1.1746  1.3079
 6949SOL    HW232481   2.992   1.107  17.188 -0.6060 -1.5544  1.8160
 6950SOL     OW32482   2.272   4.325   2.502 -0.0906 -0.0268 -0.2799
 6950SOL    HW132483   2.181   4.295   2.512  0.2141 -0.9326 -0.2750
 6950SOL    HW232484   2.257   4.410   2.460  3.4095  0.1696 -1.1408
 6951SOL     OW32485   1.820   3.093   2.681 -0.1173  0.0642  0.2943
 6951SOL    HW132486   1.842   3.084   2.774 -0.1444  0.6703  0.3609
 6951SOL    HW232487   1.734   3.136   2.685 -0.9650 -1.4788 -1.3180
 6952SOL     OW32488   1.610   0.364   7.011  0.4141  0.3127  0.4341
 6952SOL    HW132489   1.587   0.456   7.013  0.4590  0.3574 -0.7315
 6952SOL    HW232490   1.654   0.369   6.926  0.7626  0.3959  0.6183
 6953SOL     OW32491   1.081   3.360   9.758  0.0260 -0.0226 -0.3390
 6953SOL    HW132492   1.105   3.383   9.668 -0.1884  0.0192 -0.3854
 6953SOL    HW232493   0.989   3.384   9.753  0.3933  1.0653 -1.7891
 6954SOL     OW32494   4.302   2.946   5.194  0.4642  0.1127 -0.5204
 6954SOL    HW132495   4.281   2.878   5.259  2.2614  0.6254  0.6001
 6954SOL    HW232496   4.309   2.896   5.112  2.1207 -2.0031  0.8833
 6955SOL     OW32497   1.855   3.404   9.101 -0.2305  0.4394  0.8508
 6955SOL    HW132498   1.900   3.431   9.021  2.0382  2.9601  2.9958
 6955SOL    HW232499   1.770   3.370   9.073  0.2879 -1.2627  1.3440
 6956SOL     OW32500   3.245   1.261   5.227  0.4090  0.1226  0.1282
 6956SOL    HW132501   3.195   1.341   5.209  0.0864  0.1592  1.1751
 6956SOL    HW232502   3.323   1.281   5.176 -0.5718  0.2461 -1.3246
 6957SOL     OW32503   1.966   1.932  15.976  0.3660 -0.0377 -0.1208
 6957SOL    HW132504   1.889   1.937  15.919  1.2432 -0.2135 -1.3236
 6957SOL    HW232505   2.024   1.890  15.913  2.2894  2.2252  0.1718
 6958SOL     OW32506   2.441   4.081   1.663 -0.0692  0.0014 -0.3078
 6958SOL    HW132507   2.477   4.108   1.748 -0.4517 -1.1761  0.2414
 6958SOL    HW232508   2.360   4.038   1.690  0.3199 -0.9190 -0.5854
 6959SOL     OW32509   0.883   1.126   8.960 -0.5100 -0.6391  0.6769
 6959SOL    HW132510   0.885   1.076   8.878  0.2987  0.0436  0.2877
 6959SOL    HW232511   0.796   1.166   8.956 -0.2241 -0.0908 -0.0214
 6960SOL     OW32512   0.949   0.470   9.552  0.5878  0.0242 -0.2194
 6960SOL    HW132513   0.888   0.443   9.483  0.2846 -1.4561  0.6246
 6960SOL    HW232514   1.005   0.523   9.496  0.5082 -0.3912 -0.6946
 6961SOL     OW32515   1.242   2.866   2.328 -0.1458  0.3492  0.9388
 6961SOL    HW132516   1.187   2.934   2.369  0.0038  0.0041  1.7191
 6961SOL    HW232517   1.206   2.782   2.357  1.9553 -1.0040 -0.4307
 6962SOL     OW32518   2.872   2.378  13.176 -0.1713 -0.0443  0.6390
 6962SOL    HW132519   2.793   2.373  13.229 -0.9634  1.8708 -0.3622
 6962SOL    HW232520   2.851   2.430  13.098  0.8918 -2.0056 -0.9601
 6963SOL     OW32521   1.203   0.684   1.453  0.5396 -0.0031  0.1741
 6963SOL    HW132522   1.292   0.677   1.488  0.0310 -0.9505  1.2755
 6963SOL    HW232523   1.214   0.619   1.384 -1.0449  0.8691 -0.8908
 6964SOL     OW32524   1.161   4.089   3.171 -0.2730  0.0799 -0.4341
 6964SOL    HW132525   1.183   4.061   3.260 -2.2070  0.7907  0.2840
 6964SOL    HW232526   1.082   4.143   3.180  1.6177  2.7198  0.2912
 6965SOL     OW32527   2.251   2.783   4.865 -0.4993  0.0711  0.3121
 6965SOL    HW132528   2.272   2.847   4.933 -1.1099 -0.5064  1.0466
 6965SOL    HW232529   2.309   2.807   4.793 -0.8640 -1.6569 -0.5464
 6966SOL     OW32530   0.023   1.846   9.813  0.0055  0.1389 -0.6128
 6966SOL    HW132531   0.022   1.848   9.909 -1.0180  0.0072 -0.6122
 6966SOL    HW232532   0.024   1.753   9.791  2.3794  0.2412 -0.8684
 6967SOL     OW32533   4.433   4.092  16.890 -0.3649  0.2106 -0.0452
 6967SOL    HW132534   4.369   4.065  16.824  1.1933 -0.0896 -1.4370
 6967SOL    HW232535   4.433   4.187  16.880 -0.9775  0.0925 -1.1706
 6968SOL     OW32536   0.280   2.341   0.376 -0.5242  0.0414 -0.2182
 6968SOL    HW132537   0.348   2.365   0.439 -1.1927  0.2976  0.4092
 6968SOL    HW232538   0.220   2.274   0.410  1.2264 -0.2004  2.3856
 6969SOL     OW32539   0.080   2.460   5.885 -0.3003  0.2955 -0.2079
 6969SOL    HW132540   0.172   2.450   5.861 -0.4947 -1.4291 -0.2265
 6969SOL    HW232541   0.037   2.385   5.843 -2.3876  0.7409  1.1227
 6970SOL     OW32542   0.341   1.601   6.086  0.3252 -0.1893  0.0357
 6970SOL    HW132543   0.309   1.520   6.045  1.3201 -0.0673 -0.9971
 6970SOL    HW232544   0.435   1.583   6.085  0.3349 -0.1134 -0.2813
 6971SOL     OW32545   4.540   0.411   0.128  0.4004 -0.1374  0.2964
 6971SOL    HW132546   4.589   0.492   0.111 -0.9745  0.4974 -0.6312
 6971SOL    HW232547   4.585   0.385   0.209  1.9205 -1.0801 -0.8466
 6972SOL     OW32548   0.153   3.934   3.399  0.2380 -0.6746  0.1342
 6972SOL    HW132549   0.102   3.856   3.375  1.7423 -2.1247  1.5984
 6972SOL    HW232550   0.213   3.907   3.469  0.3883 -1.2310 -0.2099
 6973SOL     OW32551   0.923   4.339  14.578 -0.4630 -0.0744  0.3710
 6973SOL    HW132552   0.940   4.281  14.652 -1.7074 -2.7607 -1.4544
 6973SOL    HW232553   0.831   4.362  14.575 -0.0773  1.9384  3.4311
 6974SOL     OW32554   3.721   4.072   2.793 -0.0985  0.0326  0.1607
 6974SOL    HW132555   3.638   4.115   2.771 -0.5889 -1.5121 -0.9500
 6974SOL    HW232556   3.776   4.148   2.814 -0.3325 -0.0892  1.2228
 6975SOL     OW32557   4.426   4.485   3.883 -0.4503  0.7091  0.2507
 6975SOL    HW132558   4.371   4.409   3.864  0.4839  0.1896 -0.3503
 6975SOL    HW232559   4.391   4.513   3.968  0.5877  1.6979  0.3584
 6976SOL     OW32560   1.272   1.556   2.695 -0.1914  0.1621 -0.1718
 6976SOL    HW132561   1.241   1.477   2.740 -0.0697  0.9316  1.2688
 6976SOL    HW232562   1.228   1.629   2.738  1.2618 -1.1263  3.4418
 6977SOL     OW32563   3.999   2.129   4.542 -0.8777 -0.2396  0.2431
 6977SOL    HW132564   3.937   2.068   4.583 -0.0655 -0.7138  0.7609
 6977SOL    HW232565   4.055   2.068   4.494  0.6192  0.9318  0.4903
 6978SOL     OW32566   4.165   1.825  17.540  0.6432 -0.5652 -0.2199
 6978SOL    HW132567   4.213   1.786  17.467 -0.2392 -1.9938 -0.0385
 6978SOL    HW232568   4.239   1.846  17.597  0.2195 -0.6729  0.3686
 6979SOL     OW32569   0.063   3.309   9.106  0.2480 -0.5152  0.2046
 6979SOL    HW132570   0.124   3.332   9.036 -1.3009  0.5357 -0.7887
 6979SOL    HW232571   0.043   3.219   9.079 -0.2829 -0.0373 -0.9978
 6980SOL     OW32572   4.018   1.612   1.527 -0.2371  0.0697 -0.3571
 6980SOL    HW132573   3.948   1.592   1.465  0.5110  0.7789 -1.4313
 6980SOL    HW232574   4.088   1.550   1.506 -0.9499 -0.7084 -0.4586
 6981SOL     OW32575   1.239   0.457   3.537  0.0561  0.2013 -0.0819
 6981SOL    HW132576   1.306   0.399   3.501 -1.3059 -0.6344 -1.3111
 6981SOL    HW232577   1.169   0.407   3.494  0.5225  1.3918 -2.2565
 6982SOL     OW32578   3.747   4.570   5.472 -0.5571 -1.1119 -0.3794
 6982SOL    HW132579   3.669   4.623   5.454 -0.7752 -1.7072 -1.1738
 6982SOL    HW232580   3.796   4.623   5.535 -0.1245 -1.8780 -0.0633
 6983SOL     OW32581   4.426   1.541   0.154  0.1807  0.7999  0.3885
 6983SOL    HW132582   4.410   1.554   0.248  1.0209  3.0124  0.2277
 6983SOL    HW232583   4.520   1.557   0.151 -0.3356  3.9163  0.4193
 6984SOL     OW32584   3.709   2.417   2.918  0.1308 -0.1977 -0.7267
 6984SOL    HW132585   3.795   2.433   2.880  1.9159 -2.0186  2.6255
 6984SOL    HW232586   3.658   2.378   2.847 -1.0203  0.2295 -0.1394
 6985SOL     OW32587   0.145   3.376   4.632 -0.0934 -0.8472 -0.2149
 6985SOL    HW132588   0.142   3.457   4.684  0.4523 -0.8435 -0.1926
 6985SOL    HW232589   0.051   3.360   4.618  0.5943 -1.9680 -3.4168
 6986SOL     OW32590   2.837   3.758   5.829  0.0772 -0.2856  0.0748
 6986SOL    HW132591   2.921   3.764   5.785  0.1009 -1.8882 -0.0739
 6986SOL    HW232592   2.857   3.750   5.923 -2.1534 -1.5417  0.4416
 6987SOL     OW32593   0.930   0.509  11.786  0.0332 -0.2426  0.0654
 6987SOL    HW132594   0.990   0.520  11.860 -0.9893  0.3551  0.8056
 6987SOL    HW232595   0.980   0.566  11.728  2.3378 -4.1579 -1.7831
 6988SOL     OW32596   4.106   3.250  10.869  0.6122  0.2435 -0.0006
 6988SOL    HW132597   4.164   3.277  10.940  0.6760  0.5322 -0.1625
 6988SOL    HW232598   4.041   3.196  10.914 -1.2127  3.4088  1.2355
 6989SOL     OW32599   4.689   0.736   1.594 -0.2776 -0.1671  0.1910
 6989SOL    HW132600   4.630   0.726   1.520 -1.2945 -0.4202  1.0413
 6989SOL    HW232601   0.032   0.761   1.547 -0.0410 -0.7430  0.2910
 6990SOL     OW32602   0.967   1.473   7.674  0.3255  0.2758  0.0857
 6990SOL    HW132603   0.930   1.553   7.635 -2.1975 -1.7565 -1.6808
 6990SOL    HW232604   0.890   1.423   7.700  0.5833 -0.2640 -0.2177
 6991SOL     OW32605   0.149   0.610   6.991 -0.2361 -0.2219 -0.6379
 6991SOL    HW132606   0.243   0.595   6.980  0.2956  1.8173  1.0370
 6991SOL    HW232607   0.109   0.552   6.926 -1.3639  0.7894 -0.8506
 6992SOL     OW32608   0.588   2.235   2.060 -0.5929  0.2516  0.0715
 6992SOL    HW132609   0.671   2.267   2.096  1.3578 -2.2739 -2.1583
 6992SOL    HW232610   0.599   2.264   1.969 -2.0931  0.1241 -0.1565
 6993SOL     OW32611   2.385   0.115   7.347 -0.2525 -0.4287  0.4688
 6993SOL    HW132612   2.335   0.131   7.268  0.2725  1.5181  0.5375
 6993SOL    HW232613   2.326   0.071   7.409 -1.2371  4.5780  3.0879
 6994SOL     OW32614   0.117   1.501   0.250  0.0784 -0.1994  0.0982
 6994SOL    HW132615   0.112   1.408   0.272 -1.5536 -0.1877 -0.2201
 6994SOL    HW232616   0.202   1.510   0.293  1.3214 -0.4639 -2.3042
 6995SOL     OW32617   0.893   4.451   2.274  0.1079 -0.2383 -0.2681
 6995SOL    HW132618   0.876   4.529   2.327  2.6593 -0.0199  0.2225
 6995SOL    HW232619   0.809   4.406   2.276 -0.5122  0.9191 -0.3249
 6996SOL     OW32620   0.441   4.636   9.214  0.1479 -0.5369 -0.1402
 6996SOL    HW132621   0.472   4.701   9.277 -3.2182  1.6302 -0.7163
 6996SOL    HW232622   0.470   4.552   9.251  0.7567  0.1667  0.9795
 6997SOL     OW32623   0.921   1.959   5.122  0.5847  0.5757 -0.0207
 6997SOL    HW132624   0.992   1.899   5.099  1.8564  2.1013  0.0234
 6997SOL    HW232625   0.841   1.907   5.111 -0.0656  1.3526  1.0021
 6998SOL     OW32626   3.516   1.363   1.399 -0.3797 -0.7813 -0.0451
 6998SOL    HW132627   3.432   1.406   1.415  0.0181 -0.3377  0.8823
 6998SOL    HW232628   3.516   1.366   1.304  1.1087  1.5106  0.0393
 6999SOL     OW32629   3.424   2.002   7.113  0.1387  0.1016 -0.7516
 6999SOL    HW132630   3.401   1.993   7.206  1.7682  1.1124 -0.2604
 6999SOL    HW232631   3.501   2.058   7.112 -0.7107  1.2367 -1.8663
 7000SOL     OW32632   2.025   1.883   5.726  0.0682  0.0662  0.4428
 7000SOL    HW132633   2.106   1.931   5.739 -0.4036  1.4090 -1.5269
 7000SOL    HW232634   2.024   1.862   5.632  1.2175  0.6386  0.3025
 7001SOL     OW32635   2.967   3.516   2.197  0.0893  0.0838  0.2964
 7001SOL    HW132636   3.050   3.510   2.151  0.2256  2.3048  0.2622
 7001SOL    HW232637   2.908   3.523   2.122  1.1302  2.3771 -0.3291
 7002SOL     OW32638   1.049   2.305   5.713  0.5816 -0.0905 -0.2278
 7002SOL    HW132639   0.992   2.309   5.790 -0.0893  1.6029 -0.8112
 7002SOL    HW232640   1.099   2.386   5.726  1.5403 -0.5806 -0.8397
 7003SOL     OW32641   2.635   3.974   8.942  0.5868  0.5213 -0.0254
 7003SOL    HW132642   2.679   4.024   9.011  1.3813  0.5109 -0.5392
 7003SOL    HW232643   2.697   3.902   8.932  0.4050  0.2017  1.0774
 7004SOL     OW32644   1.021   0.922   6.287 -0.4401  0.2249 -0.3294
 7004SOL    HW132645   1.032   0.986   6.357 -0.0312  0.5163 -0.6549
 7004SOL    HW232646   1.009   0.841   6.336 -0.7864  1.1266  1.0709
 7005SOL     OW32647   4.557   3.666   8.414 -0.1494  0.5022 -0.6091
 7005SOL    HW132648   4.647   3.695   8.402  0.0509  0.2099  0.1847
 7005SOL    HW232649   4.530   3.707   8.496 -2.1004  1.0545 -1.5230
 7006SOL     OW32650   0.952   4.206  11.662 -0.1326 -0.8031  0.9421
 7006SOL    HW132651   0.874   4.260  11.649  0.4530 -0.2092 -0.1295
 7006SOL    HW232652   1.006   4.266  11.714  0.0569  0.3998 -0.6410
 7007SOL     OW32653   0.610   3.015   6.360  0.3249 -0.7239 -0.2185
 7007SOL    HW132654   0.682   3.040   6.417 -0.3603 -2.9210  1.5936
 7007SOL    HW232655   0.659   2.988   6.282 -0.0195  2.0037 -1.3811
 7008SOL     OW32656   2.108   0.582  15.403 -0.1136  0.1252 -0.3773
 7008SOL    HW132657   2.098   0.499  15.356 -1.3351 -1.1375  2.1148
 7008SOL    HW232658   2.026   0.625  15.380  0.0285  1.0319  0.8319
 7009SOL     OW32659   2.233   1.683   2.088  0.3720  0.4289  0.4832
 7009SOL    HW132660   2.277   1.601   2.110 -0.2911  0.3993  1.6805
 7009SOL    HW232661   2.306   1.738   2.060 -1.2984  1.0688 -2.6423
 7010SOL     OW32662   0.981   3.798   8.203  0.3246 -0.0969 -0.1919
 7010SOL    HW132663   0.994   3.892   8.192 -0.5141 -0.1259 -1.5096
 7010SOL    HW232664   1.060   3.769   8.158  0.2015  1.1604 -1.2151
 7011SOL     OW32665   0.051   2.354  16.679 -0.1173 -0.4111 -0.4266
 7011SOL    HW132666   4.721   2.409  16.641  0.0702  0.9761  1.2231
 7011SOL    HW232667   0.010   2.354  16.766  0.3645  2.3788 -0.1787
 7012SOL     OW32668   4.510   0.626   7.820  0.4218 -0.1420 -0.1869
 7012SOL    HW132669   4.449   0.565   7.778  1.0158 -0.4096 -0.6530
 7012SOL    HW232670   4.485   0.623   7.912  0.2221 -1.2230 -0.2856
 7013SOL     OW32671   2.544   2.382   9.761  0.0071  0.1025  0.1689
 7013SOL    HW132672   2.548   2.292   9.728 -0.7769  0.4733 -0.9462
 7013SOL    HW232673   2.532   2.360   9.853  1.1242  1.1992  0.5596
 7014SOL     OW32674   1.220   3.135   8.599 -0.0448  0.3453 -0.6006
 7014SOL    HW132675   1.272   3.210   8.628  0.1643  0.0940 -0.3174
 7014SOL    HW232676   1.133   3.170   8.584 -0.2014  0.0089 -0.4618
 7015SOL     OW32677   4.534   0.128  10.379  0.2449  0.6954  0.0730
 7015SOL    HW132678   4.544   0.135  10.474 -1.0569  0.0397  0.2571
 7015SOL    HW232679   4.441   0.141  10.362  0.1802 -1.0671 -0.9493
 7016SOL     OW32680   1.305   1.373   6.456 -0.1180 -0.2566  0.2317
 7016SOL    HW132681   1.313   1.293   6.403  3.0734  1.4710 -1.9346
 7016SOL    HW232682   1.338   1.348   6.542 -0.5505 -0.5196  0.3252
 7017SOL     OW32683   4.115   3.366  15.993  0.4003 -0.1746 -0.1409
 7017SOL    HW132684   4.145   3.355  15.903 -0.2998  1.2330 -0.5419
 7017SOL    HW232685   4.132   3.287  16.044 -0.6581 -1.7480 -2.1768
 7018SOL     OW32686   1.970   4.666  14.943  0.5580 -0.2356 -0.4010
 7018SOL    HW132687   2.036   4.629  14.884  1.3923  1.9878 -0.8742
 7018SOL    HW232688   1.894   4.610  14.931  1.2710 -1.6116  1.4327
 7019SOL     OW32689   2.012   3.949   3.206  0.2165 -0.4209  0.1768
 7019SOL    HW132690   1.959   3.954   3.126 -0.9153  0.8518  0.9998
 7019SOL    HW232691   2.031   4.041   3.225  0.5501 -0.3251 -0.6699
 7020SOL     OW32692   2.765   1.005   9.241 -0.7960  0.5474 -0.4654
 7020SOL    HW132693   2.793   1.015   9.332 -1.5817  2.9456 -0.4951
 7020SOL    HW232694   2.721   1.089   9.226  0.1913  1.0828 -0.3928
 7021SOL     OW32695   1.485   3.093  14.315 -0.2488 -0.2361 -0.5201
 7021SOL    HW132696   1.560   3.148  14.294  0.6269 -1.6491 -1.0685
 7021SOL    HW232697   1.533   3.013  14.338  0.2408  0.5064  1.0341
 7022SOL     OW32698   0.592   4.601   0.011  0.3485  0.2874 -0.3154
 7022SOL    HW132699   0.578   4.519  17.712  1.2010  0.1536 -0.3507
 7022SOL    HW232700   0.499   4.614   0.028 -0.0444 -2.6089 -0.1664
 7023SOL     OW32701   3.086   3.082   5.521  0.1607  0.4829 -0.7766
 7023SOL    HW132702   3.075   3.177   5.519  3.7823  0.8826 -2.0740
 7023SOL    HW232703   3.068   3.049   5.433  1.2543  0.3830 -0.9628
 7024SOL     OW32704   0.065   3.449   7.881  0.4171  0.2955 -0.4163
 7024SOL    HW132705   0.007   3.393   7.830  1.0165 -1.9083  1.3512
 7024SOL    HW232706   0.009   3.494   7.944  0.7264 -1.9678  1.4756
 7025SOL     OW32707   2.511   0.996   8.258 -0.1005  0.2020  0.1707
 7025SOL    HW132708   2.602   0.965   8.251 -0.6753 -1.7550  1.4233
 7025SOL    HW232709   2.526   1.086   8.227 -1.9058  0.6817  0.7181
 7026SOL     OW32710   4.456   1.665   9.848 -0.3182  0.5408 -0.0090
 7026SOL    HW132711   4.435   1.735   9.785 -1.7997 -0.0445 -0.1654
 7026SOL    HW232712   4.469   1.717   9.927  1.6582 -0.4043  0.2607
 7027SOL     OW32713   3.307   1.307   7.846  0.0941 -0.5682  0.2839
 7027SOL    HW132714   3.285   1.367   7.918  0.8363  1.9261 -1.6005
 7027SOL    HW232715   3.228   1.253   7.844 -0.7477  0.5770  2.2167
 7028SOL     OW32716   2.420   2.630   2.983 -0.4809  0.3910  0.0564
 7028SOL    HW132717   2.448   2.702   3.040  0.2595  0.6927 -0.6917
 7028SOL    HW232718   2.483   2.619   2.912 -0.8105 -0.3805 -0.1194
 7029SOL     OW32719   0.155   2.307   4.697 -0.2049  0.7767 -0.2402
 7029SOL    HW132720   0.225   2.341   4.752  0.8726 -0.5015 -0.8099
 7029SOL    HW232721   0.074   2.333   4.741 -0.8258 -0.4519 -0.6505
 7030SOL     OW32722   1.781   4.494   1.489 -0.6421  0.0248  0.7564
 7030SOL    HW132723   1.745   4.412   1.524 -2.2940  0.8690  1.0516
 7030SOL    HW232724   1.876   4.483   1.484 -0.5002  1.4257  0.3115
 7031SOL     OW32725   3.818   3.831   7.077  0.6773  0.2484  0.6702
 7031SOL    HW132726   3.843   3.755   7.130 -0.7184 -1.0185 -0.4728
 7031SOL    HW232727   3.786   3.890   7.145 -0.1795 -1.2699  1.5996
 7032SOL     OW32728   1.995   4.717  17.685  0.1603 -0.4575 -0.2158
 7032SOL    HW132729   2.025   4.725   0.028  0.3120 -3.1516 -0.0389
 7032SOL    HW232730   1.921   4.657  17.690 -0.5331  0.5400  1.3622
 7033SOL     OW32731   0.357   0.122  13.641 -0.1108 -0.2012  0.4789
 7033SOL    HW132732   0.274   0.149  13.601 -0.1554 -2.3473 -0.8645
 7033SOL    HW232733   0.417   0.197  13.636  0.4772 -0.6879  0.2556
 7034SOL     OW32734   2.263   0.026  11.220 -0.0086 -0.6926 -0.5811
 7034SOL    HW132735   2.319   4.693  11.254  0.7121 -0.0356 -0.4126
 7034SOL    HW232736   2.335   0.088  11.217  0.3800 -1.1081  0.0076
 7035SOL     OW32737   3.183   2.278   9.310 -0.0154  0.3718  0.5050
 7035SOL    HW132738   3.195   2.279   9.215 -0.0910 -2.5547  0.4520
 7035SOL    HW232739   3.167   2.371   9.324 -0.8539  0.2092  0.6202
 7036SOL     OW32740   3.850   1.935   6.865  0.3500  0.0062  0.5983
 7036SOL    HW132741   3.820   1.944   6.774  0.0839  0.8266  0.7643
 7036SOL    HW232742   3.808   2.007   6.912  0.2706  1.1816 -1.2409
 7037SOL     OW32743   0.469   4.031   5.142  0.6657  0.1105  0.1936
 7037SOL    HW132744   0.423   3.967   5.197 -0.6193  2.4511  1.8438
 7037SOL    HW232745   0.504   4.091   5.207  0.2253  1.3767 -0.7388
 7038SOL     OW32746   3.562   2.382  12.042  0.6993  0.1184  0.3504
 7038SOL    HW132747   3.525   2.470  12.039  1.4599  0.4163 -0.5133
 7038SOL    HW232748   3.484   2.326  12.043 -1.6848  3.4459  0.3210
 7039SOL     OW32749   1.972   3.508   6.394  0.0876 -0.0515 -0.4108
 7039SOL    HW132750   1.884   3.539   6.371  0.8265  1.9618 -0.5177
 7039SOL    HW232751   1.952   3.420   6.428 -0.7717  1.4739  2.9784
 7040SOL     OW32752   1.249   0.586   7.892  0.0593 -0.0633  0.0689
 7040SOL    HW132753   1.324   0.578   7.833  0.0969  0.7784  0.0019
 7040SOL    HW232754   1.184   0.606   7.825 -0.0847 -0.6472  0.0328
 7041SOL     OW32755   0.098   1.019   2.075 -0.0354 -0.1776 -0.5060
 7041SOL    HW132756   0.016   1.048   2.115 -1.0890 -0.6756 -2.2975
 7041SOL    HW232757   0.077   0.927   2.059  1.3826 -0.7122  0.8144
 7042SOL     OW32758   1.702   1.216   0.382  0.1982 -0.1478 -0.0177
 7042SOL    HW132759   1.771   1.278   0.360  0.8616 -1.1407 -0.7820
 7042SOL    HW232760   1.624   1.260   0.349  0.0742 -2.2546 -2.5570
 7043SOL     OW32761   4.403   2.917  13.731  0.0635 -0.6206 -0.1837
 7043SOL    HW132762   4.342   2.928  13.804  0.2356 -0.6643 -0.0305
 7043SOL    HW232763   4.465   2.861  13.778 -0.2273 -2.1737 -1.6535
 7044SOL     OW32764   1.343   3.973   4.890  0.2106  0.2828 -0.0608
 7044SOL    HW132765   1.270   4.005   4.943 -0.3169  0.3702 -0.8330
 7044SOL    HW232766   1.399   3.944   4.962 -0.0879  1.2778  0.5834
 7045SOL     OW32767   0.105   3.302   7.366  0.1670 -0.1870  0.0828
 7045SOL    HW132768   0.117   3.392   7.399  1.4592 -1.2166  2.3965
 7045SOL    HW232769   0.181   3.283   7.311  0.2296 -0.6532  0.3349
 7046SOL     OW32770   4.370   2.562  16.728 -0.0571  0.0478 -0.6484
 7046SOL    HW132771   4.447   2.611  16.697 -0.6064 -0.5038 -2.8790
 7046SOL    HW232772   4.325   2.543  16.645  0.1391 -0.5441 -0.6253
 7047SOL     OW32773   1.690   4.023   5.673  0.4553  0.0559 -0.0905
 7047SOL    HW132774   1.753   3.951   5.662 -0.8767 -0.6586 -3.0220
 7047SOL    HW232775   1.651   3.987   5.753  1.2910 -1.0294 -0.1712
 7048SOL     OW32776   0.266   2.273   9.066 -0.1971 -0.5857 -0.0446
 7048SOL    HW132777   0.209   2.195   9.062 -0.5820 -0.3993  1.8785
 7048SOL    HW232778   0.256   2.310   9.153  0.7318  1.6473 -0.8923
 7049SOL     OW32779   0.686   3.994   5.757 -0.3278 -0.2936  1.0139
 7049SOL    HW132780   0.670   3.918   5.813 -0.0175 -0.8048  0.4026
 7049SOL    HW232781   0.704   4.055   5.829 -4.3052  0.8387  1.0468
 7050SOL     OW32782   3.840   3.587   5.938 -0.0788 -0.5307 -0.5304
 7050SOL    HW132783   3.895   3.597   6.015  0.3811  1.1611 -1.0906
 7050SOL    HW232784   3.906   3.625   5.881 -2.1359 -0.0710 -2.6135
 7051SOL     OW32785   4.581   2.220   2.256  0.6647 -0.3321 -0.1281
 7051SOL    HW132786   4.637   2.177   2.191 -3.0170 -1.7509 -2.3789
 7051SOL    HW232787   4.563   2.148   2.316 -0.8973 -0.5110 -0.8087
 7052SOL     OW32788   3.380   0.698   8.617  0.7274  0.0754 -0.0316
 7052SOL    HW132789   3.443   0.627   8.610 -1.0543 -1.5049 -0.0091
 7052SOL    HW232790   3.334   0.694   8.533 -0.9246  1.1205  0.8002
 7053SOL     OW32791   3.651   0.295   6.350 -0.4395  0.2618 -0.4235
 7053SOL    HW132792   3.625   0.312   6.259  0.8128  0.6058 -0.7186
 7053SOL    HW232793   3.746   0.296   6.351 -0.4547 -1.4942  2.0642
 7054SOL     OW32794   0.657   0.533  11.665 -0.0464 -0.7097 -0.3265
 7054SOL    HW132795   0.608   0.520  11.746  0.8308  0.8436  0.4433
 7054SOL    HW232796   0.748   0.526  11.694  1.1335  4.2121 -2.8093
 7055SOL     OW32797   2.928   4.261   6.681  0.2839 -0.4444 -0.2489
 7055SOL    HW132798   2.948   4.264   6.775  1.1626 -3.0071 -0.3804
 7055SOL    HW232799   3.015   4.245   6.645 -0.0458 -0.4555 -1.0268
 7056SOL     OW32800   1.157   3.444   9.509  0.0663  0.2338 -0.3566
 7056SOL    HW132801   1.192   3.516   9.457  2.0430  1.0401  2.1209
 7056SOL    HW232802   1.198   3.365   9.472  0.0850  0.9433 -1.8552
 7057SOL     OW32803   2.259   1.369  10.200  0.4596  0.1507  0.0250
 7057SOL    HW132804   2.221   1.299  10.254 -0.1908  0.3128 -0.2226
 7057SOL    HW232805   2.262   1.318  10.119 -0.0828 -0.1818  0.2138
 7058SOL     OW32806   1.286   3.420   7.736  0.1207  0.0968 -0.1658
 7058SOL    HW132807   1.369   3.443   7.695  0.4286  0.0999  0.4475
 7058SOL    HW232808   1.322   3.384   7.818 -1.4402 -0.6589  0.1827
 7059SOL     OW32809   1.225   2.962   3.827 -0.3879  0.5186  0.0929
 7059SOL    HW132810   1.298   3.019   3.850  0.0703 -0.9636  2.3466
 7059SOL    HW232811   1.263   2.878   3.851  0.2395  0.0345 -2.5832
 7060SOL     OW32812   3.005   4.623  16.430 -0.0561  0.4435 -0.2423
 7060SOL    HW132813   3.058   4.667  16.496 -0.2681  0.9361 -0.3950
 7060SOL    HW232814   2.918   4.629  16.469  0.3504 -2.5325  1.1107
 7061SOL     OW32815   2.863   2.110   1.735  0.0852 -0.0536  0.1860
 7061SOL    HW132816   2.843   2.172   1.805  1.7962  0.0837  0.5704
 7061SOL    HW232817   2.852   2.164   1.656  2.6975  0.9766  0.5240
 7062SOL     OW32818   0.152   0.904   2.432 -0.1131  0.3115 -0.2130
 7062SOL    HW132819   0.190   0.991   2.420 -0.5173  0.6915  1.2284
 7062SOL    HW232820   0.230   0.853   2.454  0.3003  0.9595 -0.1591
 7063SOL     OW32821   3.830   0.422   8.171 -0.4672 -0.0096  0.6301
 7063SOL    HW132822   3.852   0.334   8.201 -2.6651 -0.8205 -0.1739
 7063SOL    HW232823   3.736   0.408   8.187 -0.8550 -0.4533 -2.1908
 7064SOL     OW32824   2.809   3.757   6.623  0.1525  0.4738 -0.5931
 7064SOL    HW132825   2.807   3.758   6.718  1.2667 -1.9293 -0.5310
 7064SOL    HW232826   2.759   3.834   6.597 -1.4604  0.2721  1.9069
 7065SOL     OW32827   0.474   4.505   5.959  0.0109 -0.3555  0.0190
 7065SOL    HW132828   0.381   4.481   5.964  0.1709 -0.5485  2.1623
 7065SOL    HW232829   0.482   4.566   6.032  1.2175  1.8630 -1.9949
 7066SOL     OW32830   4.616   0.614   6.648 -0.4043  0.7306  0.2169
 7066SOL    HW132831   4.569   0.669   6.710 -1.4267  0.6982 -0.5342
 7066SOL    HW232832   4.691   0.597   6.705 -0.7905 -2.8367 -0.3285
 7067SOL     OW32833   4.635   2.772  10.695 -0.4188  0.0564 -0.5207
 7067SOL    HW132834   4.707   2.826  10.663 -0.4993  1.4877  1.6784
 7067SOL    HW232835   4.653   2.770  10.789 -2.2874  1.3812 -0.1415
 7068SOL     OW32836   3.650   0.746  15.902 -0.1251 -0.4683 -0.4662
 7068SOL    HW132837   3.744   0.766  15.908 -0.3058  0.0624  0.5606
 7068SOL    HW232838   3.629   0.767  15.811 -1.9297 -3.7690 -0.8199
 7069SOL     OW32839   3.322   2.493   3.592 -0.6145 -0.3819  0.0363
 7069SOL    HW132840   3.288   2.509   3.504 -1.3787 -1.4475  0.1341
 7069SOL    HW232841   3.417   2.489   3.580 -0.9005  2.0368 -2.7832
 7070SOL     OW32842   4.555   0.180  10.969  0.1693  0.3105 -0.1304
 7070SOL    HW132843   4.540   0.255  11.026  2.5702 -0.5492  1.6286
 7070SOL    HW232844   4.480   0.131  11.002  1.0566  0.8057  2.5954
 7071SOL     OW32845   0.601   2.527   7.940 -0.0373 -0.3877 -0.7807
 7071SOL    HW132846   0.686   2.501   7.976 -0.8162 -0.0461  1.3449
 7071SOL    HW232847   0.606   2.621   7.960  0.6389 -0.0475 -2.6267
 7072SOL     OW32848   4.104   2.238   8.306  0.3516 -0.3689 -0.6541
 7072SOL    HW132849   4.198   2.229   8.323 -0.2028 -0.4499  2.4122
 7072SOL    HW232850   4.078   2.291   8.381 -2.3382 -0.2236 -1.7021
 7073SOL     OW32851   1.388   1.525  16.541  0.1110  0.4184 -0.0317
 7073SOL    HW132852   1.431   1.527  16.626 -1.2215  0.1138  0.6484
 7073SOL    HW232853   1.395   1.619  16.521  0.7993  0.4259  0.2587
 7074SOL     OW32854   0.715   3.759   9.455  0.1319 -0.4446  0.3272
 7074SOL    HW132855   0.639   3.767   9.398  0.0542  1.6944  0.7209
 7074SOL    HW232856   0.737   3.667   9.442  1.4559  0.0754 -1.1855
 7075SOL     OW32857   1.037   2.247   4.138 -0.4153 -0.0748 -0.0759
 7075SOL    HW132858   1.055   2.310   4.208 -1.1271  0.3124 -0.2363
 7075SOL    HW232859   0.990   2.294   4.069 -1.3781 -2.2848 -0.9299
 7076SOL     OW32860   2.589   3.258   1.594  0.3922 -0.1800 -0.3758
 7076SOL    HW132861   2.576   3.200   1.669 -1.7191  1.2564  0.3862
 7076SOL    HW232862   2.631   3.197   1.534 -1.2945 -1.0082 -0.7319
 7077SOL     OW32863   4.091   3.696  10.168 -0.2457 -0.1524  0.3059
 7077SOL    HW132864   4.128   3.701  10.080  1.0982 -0.9785  0.8360
 7077SOL    HW232865   4.104   3.785  10.201 -0.0888 -0.9681  2.4136
 7078SOL     OW32866   3.528   0.153   4.334  0.0189  0.1551 -0.2336
 7078SOL    HW132867   3.534   0.125   4.243  2.0378 -1.2598  0.3378
 7078SOL    HW232868   3.528   0.063   4.368  1.7008  0.3886  0.3838
 7079SOL     OW32869   1.058   2.141  13.002 -0.2362  0.0596 -0.1030
 7079SOL    HW132870   1.006   2.139  13.082 -0.1023  0.0756 -0.0161
 7079SOL    HW232871   0.995   2.095  12.946 -0.7639 -0.5000  0.9528
 7080SOL     OW32872   3.557   0.172  15.995 -0.6064 -0.2372  0.1340
 7080SOL    HW132873   3.552   0.236  16.066 -0.4270 -0.0357 -0.0362
 7080SOL    HW232874   3.467   0.181  15.965 -0.7233  1.3361  0.9487
 7081SOL     OW32875   4.247   4.225   3.875 -0.0480 -0.2345 -0.0669
 7081SOL    HW132876   4.270   4.218   3.968  0.1004  0.9853 -0.0170
 7081SOL    HW232877   4.322   4.194   3.824  0.3585  0.6313  0.0165
 7082SOL     OW32878   1.438   2.770   6.531  0.1324 -0.9893  0.1442
 7082SOL    HW132879   1.410   2.774   6.440 -1.3923  1.2426  0.6990
 7082SOL    HW232880   1.521   2.725   6.516  0.0934 -0.6497 -1.0454
 7083SOL     OW32881   4.410   3.439  16.441  0.2589 -0.3142 -0.5557
 7083SOL    HW132882   4.432   3.508  16.504 -0.2387 -1.3716  0.7766
 7083SOL    HW232883   4.395   3.490  16.362  0.0735 -0.0177 -0.3308
 7084SOL     OW32884   4.386   4.417   6.147  0.2202 -0.3264 -0.5077
 7084SOL    HW132885   4.425   4.479   6.086  0.4343  0.2838  0.2550
 7084SOL    HW232886   4.292   4.435   6.149  0.8036  2.8417 -1.7755
 7085SOL     OW32887   2.291   1.120   7.384 -0.0450  0.7907 -0.2304
 7085SOL    HW132888   2.330   1.111   7.297  0.0517  1.9658 -0.3047
 7085SOL    HW232889   2.201   1.145   7.361  0.5171  1.5905 -1.5592
 7086SOL     OW32890   0.413   3.248   5.411 -0.1435 -0.4381 -0.4300
 7086SOL    HW132891   0.495   3.272   5.368  0.7102 -0.0141  1.4442
 7086SOL    HW232892   0.415   3.153   5.395  1.0043 -0.5059  0.1173
 7087SOL     OW32893   0.053   4.453   2.609  0.5676  0.1360  0.3993
 7087SOL    HW132894   0.072   4.516   2.679  2.0789 -0.1955  0.2820
 7087SOL    HW232895   0.135   4.405   2.620  0.9666  0.7630  0.1550
 7088SOL     OW32896   2.776   0.692  14.435 -0.4317  0.7305 -0.1232
 7088SOL    HW132897   2.794   0.602  14.462  0.9209  1.3102  0.9435
 7088SOL    HW232898   2.687   0.709  14.465  0.6574  0.0865  3.4945
 7089SOL     OW32899   4.731   1.715   7.277 -0.5354 -0.1843  0.1073
 7089SOL    HW132900   0.016   1.804   7.303  1.4106 -0.7941  0.4990
 7089SOL    HW232901   0.065   1.670   7.323 -1.1352 -1.3309 -0.0709
 7090SOL     OW32902   2.456   0.532  12.595 -0.2658  0.1108 -0.1176
 7090SOL    HW132903   2.445   0.598  12.526  0.8169 -0.7602 -1.1290
 7090SOL    HW232904   2.536   0.563  12.637 -0.0879 -0.2522 -0.1841
 7091SOL     OW32905   3.342   1.007  17.489  0.3537  0.0120  0.0890
 7091SOL    HW132906   3.407   1.076  17.498 -0.3945  0.6782  0.4275
 7091SOL    HW232907   3.373   0.956  17.414 -2.6230 -1.9738  0.1770
 7092SOL     OW32908   2.340   4.708  15.335  0.4768  0.6902  0.2189
 7092SOL    HW132909   2.350   4.641  15.267 -1.0574 -0.3370  0.9925
 7092SOL    HW232910   2.330   0.048  15.281 -0.9069  0.7124  0.4957
 7093SOL     OW32911   2.689   4.160   9.159 -0.0874 -0.1376 -0.0553
 7093SOL    HW132912   2.755   4.219   9.123  0.9973 -1.1841  0.2263
 7093SOL    HW232913   2.712   4.160   9.252  1.6585 -0.6164 -0.5019
 7094SOL     OW32914   4.518   1.049   5.766 -0.4965  0.4975  0.5030
 7094SOL    HW132915   4.511   1.108   5.841  2.3950 -1.2332  2.1618
 7094SOL    HW232916   4.563   0.979   5.814 -1.9951  0.5659  2.0208
 7095SOL     OW32917   3.296   3.975   8.915 -0.6336  0.0914 -0.4035
 7095SOL    HW132918   3.285   4.048   8.854 -1.4530 -0.4339 -0.8978
 7095SOL    HW232919   3.365   4.015   8.968 -1.7337  1.8108 -0.2873
 7096SOL     OW32920   0.096   1.277   0.666  0.2334  0.2970 -0.0002
 7096SOL    HW132921   0.112   1.199   0.613  1.3230  0.1892  0.4917
 7096SOL    HW232922   0.006   1.302   0.644  0.1105  0.5126  0.7452
 7097SOL     OW32923   3.922   3.186   5.270  0.8412  0.5382 -0.6995
 7097SOL    HW132924   3.924   3.241   5.191  0.3573  2.9930  1.0020
 7097SOL    HW232925   4.016   3.185   5.285  0.9941 -2.8343 -1.7879
 7098SOL     OW32926   3.043   2.083   7.874 -0.0084 -0.2280 -0.1622
 7098SOL    HW132927   3.067   2.066   7.783  1.3865 -0.3205  0.2261
 7098SOL    HW232928   2.979   2.154   7.870  1.0840  0.6090 -3.0630
 7099SOL     OW32929   3.113   2.886  12.797  0.1475  0.3765 -0.1327
 7099SOL    HW132930   3.048   2.892  12.726  0.4166 -1.4357 -0.5197
 7099SOL    HW232931   3.126   2.792  12.806  2.1354  0.5079 -1.4902
 7100SOL     OW32932   0.588   3.079  11.575 -0.4630 -0.4406 -0.2284
 7100SOL    HW132933   0.664   3.107  11.525  0.0148  0.6461  1.0971
 7100SOL    HW232934   0.528   3.154  11.570 -1.0874 -0.9074  0.3120
 7101SOL     OW32935   2.865   4.209   8.733 -0.2842  0.4454  0.3787
 7101SOL    HW132936   2.861   4.242   8.644  0.9179  0.7375  0.4254
 7101SOL    HW232937   2.892   4.119   8.713 -1.1673  0.2353  0.1320
 7102SOL     OW32938   3.184   4.249   6.596  0.4689 -0.2083  0.8038
 7102SOL    HW132939   3.218   4.337   6.615  0.5877  0.7664 -3.9127
 7102SOL    HW232940   3.257   4.195   6.627  1.5998 -0.0631 -1.6766
 7103SOL     OW32941   4.561   3.880  12.541 -0.2326 -0.0006  0.6373
 7103SOL    HW132942   4.644   3.899  12.585 -1.0992  0.7187  1.9624
 7103SOL    HW232943   4.534   3.793  12.569  1.3785 -0.5946  0.3714
 7104SOL     OW32944   3.690   0.945   0.615 -0.4215 -0.1712  0.0419
 7104SOL    HW132945   3.656   0.856   0.625 -2.8028  0.9806  2.2183
 7104SOL    HW232946   3.612   0.989   0.580 -0.5926 -1.2673 -0.9777
 7105SOL     OW32947   2.538   1.721   7.414 -0.3881  0.0138  0.1281
 7105SOL    HW132948   2.451   1.717   7.374 -0.7320 -0.2033  0.8853
 7105SOL    HW232949   2.583   1.647   7.375  0.2212 -0.1153  1.0752
 7106SOL     OW32950   2.449   0.972   6.756 -0.2661 -0.0434  0.5753
 7106SOL    HW132951   2.382   0.996   6.819 -1.1871  0.2567 -0.5186
 7106SOL    HW232952   2.440   1.045   6.694 -1.2189 -1.5316 -1.0631
 7107SOL     OW32953   4.517   1.985   2.413 -0.6993  0.0772 -0.1123
 7107SOL    HW132954   4.455   1.995   2.485 -0.8273  0.5712 -0.2874
 7107SOL    HW232955   4.595   1.939   2.444 -0.9088 -0.0274  0.2586
 7108SOL     OW32956   4.477   2.491  10.638 -0.4837  0.0941 -0.4326
 7108SOL    HW132957   4.554   2.522  10.591  0.7917  1.8845  2.7684
 7108SOL    HW232958   4.436   2.575  10.662  2.7405  0.8475  2.5254
 7109SOL     OW32959   3.449   0.842   2.356  0.9959 -0.2079 -0.3299
 7109SOL    HW132960   3.444   0.937   2.343 -0.4390 -0.5962 -2.6903
 7109SOL    HW232961   3.357   0.816   2.361  0.8566  0.1930 -0.7621
 7110SOL     OW32962   0.823   3.341  13.876  0.2326  0.1420 -0.5027
 7110SOL    HW132963   0.781   3.269  13.923 -0.5089  2.1480  1.8941
 7110SOL    HW232964   0.771   3.416  13.905  1.1461  0.6978 -0.2742
 7111SOL     OW32965   2.809   0.975  17.386 -0.1847  0.1626  0.0685
 7111SOL    HW132966   2.820   0.909  17.317 -3.1551 -0.9532  0.6905
 7111SOL    HW232967   2.780   0.926  17.462  0.8160 -2.1672 -1.0705
 7112SOL     OW32968   3.625   3.432   9.319  0.0267 -0.1845  0.1737
 7112SOL    HW132969   3.646   3.394   9.404  1.5284 -0.7916 -0.4666
 7112SOL    HW232970   3.618   3.354   9.264 -0.0436  0.0270 -0.1210
 7113SOL     OW32971   4.122   3.613   6.509  0.1231  0.3639 -0.1447
 7113SOL    HW132972   4.183   3.593   6.581 -0.2684  1.3723  0.4676
 7113SOL    HW232973   4.179   3.676   6.465 -0.1241  0.6004 -0.1274
 7114SOL     OW32974   0.895   2.605   5.972 -0.3654  0.5912  0.6546
 7114SOL    HW132975   0.985   2.627   5.996  0.3507 -1.1194 -0.5082
 7114SOL    HW232976   0.872   2.679   5.916 -0.2075 -0.8554 -1.2991
 7115SOL     OW32977   0.437   3.995   8.544 -0.1470 -0.6872 -0.3207
 7115SOL    HW132978   0.428   4.056   8.470  1.0273 -0.0758  0.0336
 7115SOL    HW232979   0.364   4.033   8.593  0.4399  1.7553 -1.3167
 7116SOL     OW32980   1.689   3.828   4.461  0.7192 -0.0628 -0.6315
 7116SOL    HW132981   1.703   3.829   4.555  0.0250  1.2365 -0.5410
 7116SOL    HW232982   1.606   3.875   4.456  1.2471  0.9322  0.0113
 7117SOL     OW32983   2.998   2.566  11.542 -0.1808  0.1010 -0.0326
 7117SOL    HW132984   3.072   2.620  11.515  0.8979 -0.9555  0.8457
 7117SOL    HW232985   3.041   2.499  11.594  3.7523  3.7526  1.4108
 7118SOL     OW32986   2.671   0.871   6.444 -0.1539 -0.3863 -0.0527
 7118SOL    HW132987   2.633   0.799   6.495 -0.3990  0.2306  0.6447
 7118SOL    HW232988   2.593   0.922   6.422 -0.2799 -0.4689  0.1994
 7119SOL     OW32989   1.745   1.950  15.821 -0.0195  0.5333 -0.4894
 7119SOL    HW132990   1.685   2.024  15.827  1.0162  1.3149  0.0739
 7119SOL    HW232991   1.801   1.979  15.749 -0.3017  1.6249 -0.2687
 7120SOL     OW32992   0.708   3.144  14.990  0.2611 -0.0785 -0.6277
 7120SOL    HW132993   0.802   3.145  15.005  0.1949 -3.4477  0.0522
 7120SOL    HW232994   0.717   3.134  14.895 -1.9351  2.3927 -1.0970
 7121SOL     OW32995   2.517   2.437   5.988  0.2416  0.1614 -0.0332
 7121SOL    HW132996   2.559   2.466   5.907  0.9194 -0.9615 -0.0748
 7121SOL    HW232997   2.445   2.389   5.948  0.2421  1.7197 -1.9201
 7122SOL     OW32998   4.689   2.459  15.244  0.5061 -0.2128 -0.4998
 7122SOL    HW132999   4.642   2.416  15.315  2.5494  1.0803  1.6388
 7122SOL    HW233000   0.005   2.527  15.285 -1.2609 -0.2311  1.8439
 7123SOL     OW33001   0.785   1.854   2.470 -0.1578 -0.2020 -0.0436
 7123SOL    HW133002   0.746   1.940   2.457  1.3935  0.4169 -0.6550
 7123SOL    HW233003   0.813   1.869   2.560  1.2188 -2.6546 -0.0584
 7124SOL     OW33004   2.609   3.462   4.258  0.4457  0.6067  0.1742
 7124SOL    HW133005   2.652   3.419   4.332  0.2456 -0.8424 -0.5561
 7124SOL    HW233006   2.685   3.484   4.205 -0.5353  1.4532 -0.8636
 7125SOL     OW33007   3.680   0.734   4.075 -0.2531  0.7098  0.4025
 7125SOL    HW133008   3.676   0.731   3.979  1.2992 -1.4053  0.4132
 7125SOL    HW233009   3.597   0.776   4.097  0.6312  1.2353  2.6977
 7126SOL     OW33010   2.056   4.540   6.025  0.1862 -0.2791 -0.3865
 7126SOL    HW133011   2.036   4.627   5.990  1.9169 -0.1618 -1.0832
 7126SOL    HW233012   2.094   4.511   5.942 -0.7657 -2.5515 -0.0212
 7127SOL     OW33013   4.533   1.827   2.859  0.2621 -0.3007  0.1249
 7127SOL    HW133014   4.612   1.779   2.885 -0.0531 -1.7741 -1.6216
 7127SOL    HW233015   4.493   1.870   2.934  1.8491  2.2671 -0.4924
 7128SOL     OW33016   1.752   1.650   3.003 -0.1395  0.1584  0.1742
 7128SOL    HW133017   1.824   1.703   3.036 -0.5425  0.5297  0.4643
 7128SOL    HW233018   1.748   1.679   2.912 -0.6604 -0.7894 -0.1027
 7129SOL     OW33019   3.679   4.720  10.176  0.6385  0.0430  0.6237
 7129SOL    HW133020   3.744   0.021  10.117  0.4411 -0.0660  0.3349
 7129SOL    HW233021   3.735   4.687  10.247 -1.3895  1.3348  2.8364
 7130SOL     OW33022   4.113   1.253   0.443 -0.0534 -0.2107 -0.1625
 7130SOL    HW133023   4.048   1.184   0.435  0.2274 -0.6927  1.8536
 7130SOL    HW233024   4.064   1.329   0.412  0.2025 -0.0568 -0.1965
 7131SOL     OW33025   2.521   1.124   2.096 -0.0614  0.3302 -0.2975
 7131SOL    HW133026   2.600   1.097   2.142 -0.8933 -2.8710 -0.7897
 7131SOL    HW233027   2.447   1.117   2.156 -0.0399 -0.9684 -0.4344
 7132SOL     OW33028   1.489   2.192   8.562  0.3951  0.3285  0.0208
 7132SOL    HW133029   1.517   2.231   8.645  0.4162  2.5285 -1.0164
 7132SOL    HW233030   1.536   2.249   8.501 -0.0603  0.4207 -0.2402
 7133SOL     OW33031   2.918   3.055   1.296 -0.8107  0.1525 -0.5378
 7133SOL    HW133032   2.863   3.016   1.365  1.9898  1.8072  2.6049
 7133SOL    HW233033   2.994   3.095   1.337  0.0710 -0.3862 -1.6567
 7134SOL     OW33034   0.855   2.493   9.939  0.5207  0.3354  0.1613
 7134SOL    HW133035   0.783   2.455   9.990  0.6476  1.5967  1.2717
 7134SOL    HW233036   0.917   2.520  10.007  1.8237 -0.5651 -0.6729
 7135SOL     OW33037   1.671   0.258   2.437  0.1838 -0.3157 -0.4643
 7135SOL    HW133038   1.683   0.184   2.497  0.8220 -1.4414 -1.9936
 7135SOL    HW233039   1.758   0.297   2.439 -0.1782  0.4653 -0.1413
 7136SOL     OW33040   1.676   2.202  16.048  0.3129  0.3067 -0.4411
 7136SOL    HW133041   1.766   2.186  16.078  0.1918  4.2934  2.0561
 7136SOL    HW233042   1.691   2.221  15.955  0.5455 -0.0547 -0.4779
 7137SOL     OW33043   4.434   0.389   0.849  0.2288 -0.2109 -0.0383
 7137SOL    HW133044   4.425   0.375   0.943 -2.0050 -0.4889 -0.2834
 7137SOL    HW233045   4.381   0.316   0.817 -1.1273  1.7991 -2.3818
 7138SOL     OW33046   3.581   0.231   1.706  0.3392 -0.0323 -0.5015
 7138SOL    HW133047   3.604   0.139   1.698  0.0239 -0.1750  0.2515
 7138SOL    HW233048   3.576   0.237   1.801 -1.5475 -1.2060 -0.5247
 7139SOL     OW33049   2.295   1.708   3.902  0.2672 -0.2204  0.3474
 7139SOL    HW133050   2.242   1.630   3.885 -1.4843  1.5133 -2.1170
 7139SOL    HW233051   2.241   1.779   3.866  1.7736  0.6382 -0.2625
 7140SOL     OW33052   1.930   0.013  13.940 -0.0815 -0.0434 -0.0501
 7140SOL    HW133053   1.890   4.732  13.855 -2.5791  1.2067  0.8662
 7140SOL    HW233054   1.909   0.106  13.951 -0.6676 -0.2423  0.4844
 7141SOL     OW33055   0.444   1.089   7.348  0.1833 -0.2075 -0.0348
 7141SOL    HW133056   0.457   1.058   7.259  4.7099  2.8079 -0.3769
 7141SOL    HW233057   0.536   1.097   7.374 -0.7382  1.8246  2.5890
 7142SOL     OW33058   2.846   4.299  10.724  0.3692  0.1129  0.1238
 7142SOL    HW133059   2.884   4.219  10.688 -0.6058 -0.0157 -0.6121
 7142SOL    HW233060   2.784   4.328  10.658 -0.7185  0.0011  1.0940
 7143SOL     OW33061   0.554   0.281  15.610 -0.0324 -0.4013 -0.4334
 7143SOL    HW133062   0.479   0.246  15.562 -0.5166  0.1254 -0.0605
 7143SOL    HW233063   0.544   0.245  15.698 -0.5291 -0.6023 -0.5722
 7144SOL     OW33064   3.287   1.508   5.416 -0.4237 -0.4877 -0.3197
 7144SOL    HW133065   3.355   1.447   5.388  0.0918  0.3171 -0.8174
 7144SOL    HW233066   3.277   1.558   5.335  1.0158 -0.4364 -0.4569
 7145SOL     OW33067   2.987   2.204   8.863  0.3452  0.1161 -0.7743
 7145SOL    HW133068   3.021   2.118   8.837  0.8058 -0.3063  1.1711
 7145SOL    HW233069   2.914   2.225   8.805 -1.1542 -2.1728  0.2757
 7146SOL     OW33070   0.959   1.935   7.211 -0.7062 -0.6049 -0.0618
 7146SOL    HW133071   1.004   1.978   7.138  1.3646  1.2694  2.3060
 7146SOL    HW233072   0.953   1.844   7.182  1.1465 -0.5348 -0.6321
 7147SOL     OW33073   1.820   2.836   2.554 -0.4266 -0.2473 -0.2837
 7147SOL    HW133074   1.862   2.911   2.598 -1.5483 -1.0113  2.0847
 7147SOL    HW233075   1.861   2.765   2.602 -1.5309 -1.0952 -0.6175
 7148SOL     OW33076   1.859   2.418   6.932  0.7980 -0.9229 -0.5867
 7148SOL    HW133077   1.885   2.508   6.951 -0.8940 -1.1968  2.8161
 7148SOL    HW233078   1.776   2.435   6.887  1.9557  2.6195 -1.3803
 7149SOL     OW33079   0.505   1.491   6.834  0.2457 -0.0248 -0.0715
 7149SOL    HW133080   0.576   1.555   6.825  0.3802 -0.2440 -0.5949
 7149SOL    HW233081   0.545   1.435   6.901 -0.0087 -1.8941 -1.4845
 7150SOL     OW33082   0.420   3.233  17.256  0.0348  0.4483 -0.3474
 7150SOL    HW133083   0.399   3.316  17.298  0.8128  0.8228 -0.7092
 7150SOL    HW233084   0.404   3.186  17.338  1.2097  1.5386  0.4936
 7151SOL     OW33085   3.335   2.720   8.209  0.3914  0.4367 -0.5155
 7151SOL    HW133086   3.426   2.750   8.217  1.6254 -3.0559 -1.3492
 7151SOL    HW233087   3.298   2.732   8.296  0.0745  0.6395 -0.6771
 7152SOL     OW33088   0.198   0.559   8.287  0.2590  0.0712  0.0528
 7152SOL    HW133089   0.232   0.538   8.200  0.5828 -0.0992  0.2178
 7152SOL    HW233090   0.274   0.590   8.337 -1.1833  1.1875  1.5430
 7153SOL     OW33091   4.195   4.511   8.067 -0.3766 -0.2988 -0.1366
 7153SOL    HW133092   4.115   4.531   8.018 -1.1171  1.9204  1.9735
 7153SOL    HW233093   4.222   4.442   8.006  2.0370  0.6378 -0.1227
 7154SOL     OW33094   0.832   3.096  11.754 -0.0306  0.2651 -0.1127
 7154SOL    HW133095   0.905   3.152  11.727 -0.8351  0.5325 -1.7494
 7154SOL    HW233096   0.836   3.016  11.702  2.5835 -0.7314  1.6008
 7155SOL     OW33097   4.001   0.963   3.185  0.0261 -0.3003 -0.1749
 7155SOL    HW133098   3.983   0.903   3.113 -0.9500 -0.8107  0.5016
 7155SOL    HW233099   4.070   0.915   3.231 -2.2158 -0.5275  2.9312
 7156SOL     OW33100   0.633   4.587   1.912  0.2307 -0.5398 -0.3180
 7156SOL    HW133101   0.620   4.632   1.828 -0.3571  1.3477  0.7961
 7156SOL    HW233102   0.719   4.624   1.933  0.1130  0.6837 -1.9716
 7157SOL     OW33103   1.594   0.504   1.997 -0.0778  0.4144 -0.3691
 7157SOL    HW133104   1.512   0.463   2.023  1.1545 -2.0228 -0.2988
 7157SOL    HW233105   1.602   0.577   2.058 -1.7206 -0.0372  0.3764
 7158SOL     OW33106   0.925   0.879   6.052  0.2424  0.4793 -0.5522
 7158SOL    HW133107   0.995   0.895   5.989 -0.0487  2.9450 -0.2501
 7158SOL    HW233108   0.963   0.906   6.135  0.1229 -1.9624  0.3031
 7159SOL     OW33109   0.675   0.144   5.422  0.9463 -0.0642  0.0153
 7159SOL    HW133110   0.658   0.181   5.509 -2.3129 -1.4174 -0.0621
 7159SOL    HW233111   0.769   0.161   5.414  1.1073 -1.0633 -0.2413
 7160SOL     OW33112   3.727   1.724  14.763  0.0719 -0.6003  0.1172
 7160SOL    HW133113   3.807   1.772  14.743 -1.1646  0.6559 -1.8312
 7160SOL    HW233114   3.666   1.773  14.708  1.1529 -0.5701 -1.0579
 7161SOL     OW33115   3.245   2.897   4.232  0.3073  0.2886  0.1565
 7161SOL    HW133116   3.247   2.831   4.162 -2.7033 -2.1464  2.3735
 7161SOL    HW233117   3.336   2.888   4.261  1.1626  1.0129 -2.2952
 7162SOL     OW33118   1.771   1.416  16.719 -0.1857 -0.1456  0.0790
 7162SOL    HW133119   1.840   1.407  16.654  1.0907  1.7051  1.1582
 7162SOL    HW233120   1.707   1.346  16.709  1.5855 -1.5133 -1.4834
 7163SOL     OW33121   3.858   0.095   6.972  0.3367 -0.2498 -0.0733
 7163SOL    HW133122   3.851   0.171   7.029 -0.4188 -0.9146  0.7095
 7163SOL    HW233123   3.792   0.038   7.010  1.9439 -1.1053  1.4238
 7164SOL     OW33124   0.819   3.368   9.692 -0.7324 -0.1135 -0.3494
 7164SOL    HW133125   0.786   3.281   9.667  2.6096 -1.6008  0.4815
 7164SOL    HW233126   0.734   3.405   9.716 -0.7729 -0.3233 -0.1633
 7165SOL     OW33127   1.185   0.228  17.545 -0.1382 -0.0881 -0.2081
 7165SOL    HW133128   1.212   0.165  17.479  0.8747 -0.3409  0.4413
 7165SOL    HW233129   1.129   0.287  17.495  0.6910  0.1781 -0.8078
 7166SOL     OW33130   0.509   3.299   9.161 -0.9375 -0.2833 -0.2144
 7166SOL    HW133131   0.451   3.262   9.228 -0.7496 -0.2584 -0.0369
 7166SOL    HW233132   0.550   3.219   9.128  2.2380  1.1346  0.3019
 7167SOL     OW33133   1.255   2.987   8.273 -0.1016 -0.7217  0.0009
 7167SOL    HW133134   1.160   2.985   8.266 -0.1891 -0.2634  1.0078
 7167SOL    HW233135   1.258   2.936   8.354 -1.7530 -1.0830 -0.1576
 7168SOL     OW33136   2.321   4.586   7.697  0.3882 -0.0855 -0.0385
 7168SOL    HW133137   2.300   4.627   7.613  2.7033 -1.5713 -1.3285
 7168SOL    HW233138   2.251   4.521   7.690 -0.3600  0.7808 -0.6137
 7169SOL     OW33139   3.983   1.499  16.165  0.3535  0.4035 -0.0488
 7169SOL    HW133140   3.998   1.582  16.210  2.0001 -0.9657  1.8819
 7169SOL    HW233141   3.943   1.532  16.084 -0.2925 -1.5284 -0.5308
 7170SOL     OW33142   2.449   1.765   9.115 -0.0443 -0.2296 -0.0025
 7170SOL    HW133143   2.427   1.693   9.057  0.2388  0.2768 -0.7423
 7170SOL    HW233144   2.496   1.712   9.179  1.5568  1.9442  0.6157
 7171SOL     OW33145   2.305   0.003  13.103 -0.2816 -0.4146 -0.4295
 7171SOL    HW133146   2.237   0.001  13.169  1.5512  0.1630  1.4711
 7171SOL    HW233147   2.265   4.720  13.018  2.4692 -1.8950 -1.3859
 7172SOL     OW33148   0.141   0.681   0.346  0.0332 -0.3485  0.0933
 7172SOL    HW133149   0.080   0.648   0.281 -1.9689 -0.4611  2.0386
 7172SOL    HW233150   0.083   0.693   0.422 -1.9106  0.7564 -1.5788
 7173SOL     OW33151   0.192   0.074  13.232  0.0348 -0.3480 -0.5483
 7173SOL    HW133152   0.205   0.142  13.167 -1.4279 -0.5527 -1.0518
 7173SOL    HW233153   0.103   0.088  13.263  0.0006 -1.2765 -0.2089
 7174SOL     OW33154   3.405   3.688   2.825  0.0649  0.1110  0.0994
 7174SOL    HW133155   3.318   3.700   2.863  0.0872 -0.8146  0.4411
 7174SOL    HW233156   3.459   3.677   2.903  0.9827 -2.3120 -0.8851
 7175SOL     OW33157   3.543   3.141   1.428  0.0133  0.6374  0.1404
 7175SOL    HW133158   3.520   3.228   1.395 -0.7914  0.7751  1.0616
 7175SOL    HW233159   3.455   3.101   1.427  0.1658  0.2676  2.5532
 7176SOL     OW33160   0.731   2.556   3.088 -0.6482 -0.1082  0.0858
 7176SOL    HW133161   0.639   2.529   3.080  0.2332 -2.1909 -3.0603
 7176SOL    HW233162   0.773   2.471   3.083  0.1517  0.3024 -0.0945
 7177SOL     OW33163   3.291   0.452   3.782 -0.6802 -0.0452  0.1101
 7177SOL    HW133164   3.321   0.529   3.830 -1.2147 -0.0442  0.4381
 7177SOL    HW233165   3.200   0.436   3.805 -0.3121 -1.1583  0.7961
 7178SOL     OW33166   0.970   3.223   5.720 -0.6886 -0.0214  0.7099
 7178SOL    HW133167   1.061   3.238   5.697 -0.9942  1.2647  0.3385
 7178SOL    HW233168   0.965   3.129   5.736 -0.1033 -0.0649  0.6369
 7179SOL     OW33169   2.857   1.799   1.324  1.4882 -0.3747 -0.1665
 7179SOL    HW133170   2.824   1.849   1.249  0.6729 -0.4463  0.1378
 7179SOL    HW233171   2.809   1.722   1.292 -0.9406  1.7835 -1.6907
 7180SOL     OW33172   1.556   0.643   1.264 -0.1593 -0.0159  0.1910
 7180SOL    HW133173   1.484   0.674   1.208 -0.2025 -0.5702 -0.0649
 7180SOL    HW233174   1.515   0.645   1.350  1.4388 -0.5999  0.9660
 7181SOL     OW33175   3.823   1.467  12.508  0.4763  0.4226  0.1322
 7181SOL    HW133176   3.792   1.412  12.435  1.0534  2.2395 -1.4917
 7181SOL    HW233177   3.788   1.427  12.587 -1.6721  2.2643  0.0881
 7182SOL     OW33178   1.956   2.156   1.653  0.0099 -0.1776  0.2518
 7182SOL    HW133179   2.046   2.128   1.638 -0.6420 -1.5823 -1.0954
 7182SOL    HW233180   1.965   2.191   1.741 -1.2810 -2.0692  1.1434
 7183SOL     OW33181   4.290   3.117   5.987  0.9501  0.4440  0.2250
 7183SOL    HW133182   4.278   3.208   6.015 -0.9758  0.5643 -1.0089
 7183SOL    HW233183   4.215   3.112   5.928  0.6596 -0.5231  0.6908
 7184SOL     OW33184   1.481   1.198   3.328 -0.1850  0.0051  0.0618
 7184SOL    HW133185   1.473   1.291   3.307 -1.9614 -0.4619 -1.2876
 7184SOL    HW233186   1.572   1.178   3.306  0.3533  0.5837  1.7191
 7185SOL     OW33187   1.225   2.351  11.824  0.0036 -0.0813  0.9735
 7185SOL    HW133188   1.176   2.400  11.758  1.6576  2.5601  1.7108
 7185SOL    HW233189   1.250   2.273  11.774 -0.9163 -0.2452  0.7793
 7186SOL     OW33190   0.752   4.721  16.616 -0.1514  0.3166  0.1445
 7186SOL    HW133191   0.838   0.016  16.642  0.6396 -1.2294 -0.5926
 7186SOL    HW233192   0.716   4.686  16.698 -0.7460  0.9297  0.1445
 7187SOL     OW33193   2.740   1.401  10.340  0.4608  0.3357  0.1381
 7187SOL    HW133194   2.828   1.434  10.322  0.0785  0.4440 -1.4575
 7187SOL    HW233195   2.726   1.405  10.435  0.8349 -0.3857  0.2223
 7188SOL     OW33196   0.758   1.831  14.845 -0.0349  0.5901  0.1454
 7188SOL    HW133197   0.712   1.879  14.776 -0.9455 -1.2798 -0.5273
 7188SOL    HW233198   0.823   1.789  14.790 -3.9929 -1.6744 -2.8000
 7189SOL     OW33199   1.446   1.714   6.107 -0.5368 -0.5463  0.0202
 7189SOL    HW133200   1.362   1.668   6.112 -0.7969 -0.0920 -0.1552
 7189SOL    HW233201   1.480   1.692   6.021  3.9907  1.3669  1.3465
 7190SOL     OW33202   2.972   3.727   7.640 -0.3792  0.6306  0.1180
 7190SOL    HW133203   3.003   3.817   7.629  1.2443  0.0177 -0.3913
 7190SOL    HW233204   2.932   3.703   7.557 -2.1307  1.6103  0.6842
 7191SOL     OW33205   1.278   3.055   3.156 -0.1493  0.3295  0.3112
 7191SOL    HW133206   1.283   2.966   3.190 -1.5650  1.0413  2.3300
 7191SOL    HW233207   1.291   3.105   3.237 -0.7686  0.6997  0.1780
 7192SOL     OW33208   1.834   3.219   4.302  0.5722 -0.1936 -0.0174
 7192SOL    HW133209   1.880   3.155   4.355  0.9467 -0.3842 -0.5794
 7192SOL    HW233210   1.901   3.282   4.276 -1.5206  1.5926 -1.1616
 7193SOL     OW33211   2.199   1.555   9.375  0.5989  0.3319 -0.1321
 7193SOL    HW133212   2.127   1.507   9.418  0.1084  1.3892  0.2339
 7193SOL    HW233213   2.147   1.618   9.326  0.9125  1.5138  1.0669
 7194SOL     OW33214   3.504   1.431   8.454 -0.2441  0.2693  0.1719
 7194SOL    HW133215   3.519   1.512   8.503 -1.1935 -0.1632  1.1921
 7194SOL    HW233216   3.531   1.461   8.367  2.1878 -0.7397  0.5533
 7195SOL     OW33217   1.765   2.812   1.793 -0.4556 -0.3830 -0.2304
 7195SOL    HW133218   1.709   2.869   1.847  1.4571  0.6109  0.7004
 7195SOL    HW233219   1.852   2.835   1.824 -1.4105  0.5327  1.7999
 7196SOL     OW33220   2.807   2.469   6.462 -0.1203  0.4285 -0.0376
 7196SOL    HW133221   2.822   2.445   6.370  2.4994  0.7373  0.3078
 7196SOL    HW233222   2.868   2.399   6.486 -1.8791 -0.8090  0.7159
 7197SOL     OW33223   1.789   2.258   8.183  0.3956 -0.2763 -0.0842
 7197SOL    HW133224   1.831   2.261   8.269 -0.7537  1.2696  0.4254
 7197SOL    HW233225   1.819   2.339   8.142 -0.5034  0.5563  0.9055
 7198SOL     OW33226   3.098   1.367   7.062 -0.0079  0.3931 -0.3635
 7198SOL    HW133227   3.052   1.313   6.997 -0.8935  0.4299  0.2257
 7198SOL    HW233228   3.155   1.297   7.093 -0.6482  0.0368  0.0179
 7199SOL     OW33229   3.565   4.615   8.362 -0.0077 -0.7797 -0.2607
 7199SOL    HW133230   3.474   4.642   8.371 -0.3155 -1.9701  0.1086
 7199SOL    HW233231   3.605   4.681   8.304 -2.9934  1.3887  0.1279
 7200SOL     OW33232   3.534   3.005   5.245  0.7706  0.5692 -0.3800
 7200SOL    HW133233   3.494   2.979   5.162 -0.1138  0.4180  0.0904
 7200SOL    HW233234   3.570   3.088   5.213  0.4495 -0.2570 -2.9526
 7201SOL     OW33235   4.491   2.753   1.340 -0.0322 -0.2256  0.2832
 7201SOL    HW133236   4.561   2.698   1.304 -1.7491 -1.4583 -1.1877
 7201SOL    HW233237   4.415   2.713   1.298 -1.5047  1.7649  1.0789
 7202SOL     OW33238   4.073   4.469   9.089  0.0552  0.4610 -0.8043
 7202SOL    HW133239   3.988   4.434   9.061 -0.1098 -0.0592  0.3691
 7202SOL    HW233240   4.126   4.417   9.029  0.4218  1.3628 -1.2553
 7203SOL     OW33241   1.290   3.486   1.616  0.1917  0.2874  0.2353
 7203SOL    HW133242   1.363   3.488   1.555 -0.5598  0.3401 -0.6750
 7203SOL    HW233243   1.319   3.437   1.693  0.4434  0.4390  0.2352
 7204SOL     OW33244   2.655   3.983   3.052 -0.0939  0.8858 -0.0516
 7204SOL    HW133245   2.574   3.953   3.011  0.4955 -1.6979  0.6571
 7204SOL    HW233246   2.644   3.955   3.143  1.1193 -0.5775 -0.3578
 7205SOL     OW33247   4.120   3.472  13.080  0.4992  0.0842 -0.4464
 7205SOL    HW133248   4.117   3.496  13.172  0.1869 -2.3914  0.1733
 7205SOL    HW233249   4.033   3.505  13.058  0.4155  0.1296 -0.0334
 7206SOL     OW33250   0.979   0.057   3.991  0.2208 -0.2141 -0.0553
 7206SOL    HW133251   0.920   4.720   3.986  1.1640 -0.8248 -2.0541
 7206SOL    HW233252   0.956   0.098   4.074  3.1294 -0.4952  0.9163
 7207SOL     OW33253   1.397   2.296   4.321  0.0931 -0.1733 -0.4327
 7207SOL    HW133254   1.479   2.255   4.350 -0.0261  1.9902  2.9999
 7207SOL    HW233255   1.356   2.210   4.313 -0.1261  0.1152 -2.4397
 7208SOL     OW33256   3.153   2.969  10.800  0.1662  0.3946 -0.3831
 7208SOL    HW133257   3.174   3.062  10.788 -0.5768  0.7817  1.2498
 7208SOL    HW233258   3.143   2.935  10.711 -2.2817  2.4095 -0.8767
 7209SOL     OW33259   3.620   2.767  13.759 -0.5624 -0.1192  0.1518
 7209SOL    HW133260   3.659   2.815  13.686 -0.7317 -0.2913 -0.0521
 7209SOL    HW233261   3.525   2.775  13.748 -0.4906  0.3965 -0.0690
 7210SOL     OW33262   1.998   0.367   3.818  0.6236 -0.5610 -0.3161
 7210SOL    HW133263   2.083   0.373   3.862 -0.3927  0.3438  1.5139
 7210SOL    HW233264   1.938   0.324   3.878 -1.1649  3.6163  0.8933
 7211SOL     OW33265   2.749   0.884   8.267  0.4123  0.0752  0.7821
 7211SOL    HW133266   2.808   0.879   8.191 -0.6974  1.0395 -0.1411
 7211SOL    HW233267   2.772   0.811   8.325 -1.5761 -1.0269  0.1951
 7212SOL     OW33268   1.356   1.279  16.691  0.0010 -0.1757  0.4271
 7212SOL    HW133269   1.361   1.372  16.669  1.2734 -0.6898 -1.4377
 7212SOL    HW233270   1.360   1.290  16.786  2.4271 -0.7116  0.3824
 7213SOL     OW33271   3.450   3.316   8.367  0.5592 -0.0059 -0.4002
 7213SOL    HW133272   3.511   3.282   8.301  0.2239 -2.6731  0.6675
 7213SOL    HW233273   3.379   3.252   8.361  1.9407 -1.7317  1.4002
 7214SOL     OW33274   0.527   0.359  16.801 -0.4783  0.0700  0.5696
 7214SOL    HW133275   0.600   0.359  16.739 -1.5668 -0.5444 -0.6913
 7214SOL    HW233276   0.565   0.293  16.858  1.7393  1.8910  1.2204
 7215SOL     OW33277   1.288   3.267   4.313  0.0219 -0.3642 -0.4503
 7215SOL    HW133278   1.216   3.205   4.300 -0.3372 -0.0281 -0.0623
 7215SOL    HW233279   1.352   3.215   4.266  0.8471 -1.8594  2.2974
 7216SOL     OW33280   3.991   4.624   0.773 -0.1114 -0.5432  0.0508
 7216SOL    HW133281   4.040   4.608   0.853 -0.7681  1.7876  0.9026
 7216SOL    HW233282   3.945   4.545   0.744 -0.8324 -0.7462  1.7751
 7217SOL     OW33283   2.154   1.274   4.352  0.1050 -0.0665  0.2516
 7217SOL    HW133284   2.112   1.200   4.309 -1.0288  0.5891  0.2064
 7217SOL    HW233285   2.095   1.342   4.318  0.9830  1.6754  2.2213
 7218SOL     OW33286   2.611   1.197   4.507  0.1637 -0.3127 -0.2495
 7218SOL    HW133287   2.567   1.142   4.443  0.4701  0.2096 -0.9177
 7218SOL    HW233288   2.639   1.129   4.568 -0.5991 -0.2305  0.1967
 7219SOL     OW33289   3.932   3.150   1.222  0.3047  0.4069  0.2555
 7219SOL    HW133290   3.891   3.141   1.136  0.2555  0.8634  0.2352
 7219SOL    HW233291   4.023   3.172   1.203 -0.2713  2.3410 -0.2832
 7220SOL     OW33292   2.052   4.362   2.228  0.0176 -0.3661  0.2897
 7220SOL    HW133293   2.041   4.415   2.150  0.4884 -2.1600 -0.9975
 7220SOL    HW233294   2.075   4.432   2.289  1.4939  0.5276 -1.3137
 7221SOL     OW33295   3.599   4.368   9.389 -0.4732 -0.9022  0.2940
 7221SOL    HW133296   3.612   4.367   9.294 -1.5033 -1.3033  0.1557
 7221SOL    HW233297   3.504   4.368   9.401 -0.6966 -2.0835 -1.5056
 7222SOL     OW33298   2.352   0.434   8.728 -0.3864  0.1755 -0.8067
 7222SOL    HW133299   2.410   0.507   8.708  0.3968 -0.6601 -1.5675
 7222SOL    HW233300   2.279   0.443   8.666  0.0067  0.2476 -1.2542
 7223SOL     OW33301   2.246   3.867   4.122  0.1752  0.3021 -0.2891
 7223SOL    HW133302   2.334   3.834   4.108  0.4833  2.4713 -3.5162
 7223SOL    HW233303   2.262   3.960   4.106  1.0403  0.3678  0.9734
 7224SOL     OW33304   2.849   3.986   2.013 -0.0840 -0.0997 -0.2332
 7224SOL    HW133305   2.791   3.940   1.952 -0.4689 -1.0901  0.8872
 7224SOL    HW233306   2.818   3.941   2.091 -1.2153  1.2424  0.1019
 7225SOL     OW33307   1.537   4.590  15.553  0.1463  0.0079 -0.3208
 7225SOL    HW133308   1.603   4.600  15.484 -1.6712  0.3713 -1.9907
 7225SOL    HW233309   1.522   4.497  15.536 -0.8604  0.1633 -0.2511
 7226SOL     OW33310   1.125   2.412   5.333 -0.1998 -0.3933 -0.2001
 7226SOL    HW133311   1.151   2.374   5.249 -0.8022  0.8958 -0.9645
 7226SOL    HW233312   1.172   2.352   5.391 -0.1003  0.9031  1.0467
 7227SOL     OW33313   2.048   2.930   0.600 -0.3826 -0.1854 -0.6122
 7227SOL    HW133314   2.127   2.877   0.605 -1.4323 -1.4520  2.6085
 7227SOL    HW233315   1.998   2.899   0.524 -0.2480 -0.8777 -0.4204
 7228SOL     OW33316   3.173   1.666  11.788 -0.6209 -0.0605 -0.5136
 7228SOL    HW133317   3.261   1.669  11.751 -0.1486 -0.0132  0.5984
 7228SOL    HW233318   3.149   1.756  11.808  2.6509  0.5668  0.5854
 7229SOL     OW33319   1.607   4.520   7.318 -0.2702 -0.1284 -0.1728
 7229SOL    HW133320   1.628   4.613   7.332 -0.2446 -0.3593  1.3045
 7229SOL    HW233321   1.521   4.512   7.358 -0.0997 -0.0952  0.2037
 7230SOL     OW33322   2.814   0.064  11.048  0.0969  0.2997 -0.2831
 7230SOL    HW133323   2.747   0.102  10.992  0.2565  0.0390 -0.6533
 7230SOL    HW233324   2.894   0.111  11.023  0.6149 -1.1113 -1.2835
 7231SOL     OW33325   0.073   2.680   8.288  0.0483 -0.1684 -0.3514
 7231SOL    HW133326   0.041   2.605   8.339  2.9786 -0.5865  0.8831
 7231SOL    HW233327   0.136   2.712   8.353  0.3819  0.4894 -0.9945
 7232SOL     OW33328   4.669   3.808   3.010 -0.4818  0.1379 -0.1288
 7232SOL    HW133329   4.677   3.714   3.000  0.2665 -0.0107  1.8564
 7232SOL    HW233330   4.580   3.827   2.980 -0.7952 -1.1055  0.0154
 7233SOL     OW33331   2.518   0.827   9.922  0.5454  0.3535  0.1020
 7233SOL    HW133332   2.505   0.920   9.936  0.9715  0.5064 -0.5471
 7233SOL    HW233333   2.430   0.802   9.894 -0.0775  1.6569  0.8883
 7234SOL     OW33334   1.422   1.132   2.830  0.3935  0.4192 -0.1466
 7234SOL    HW133335   1.349   1.124   2.892  1.6179 -0.8328  1.1267
 7234SOL    HW233336   1.463   1.213   2.859  0.1083  0.8816 -1.0381
 7235SOL     OW33337   1.511   3.514   4.219  0.2834 -0.4185 -0.8148
 7235SOL    HW133338   1.420   3.540   4.206  0.5202  0.2305 -1.2218
 7235SOL    HW233339   1.501   3.505   4.314 -0.3467 -0.9712 -0.9436
 7236SOL     OW33340   1.867   4.083   6.711  0.4096 -0.4282  0.5059
 7236SOL    HW133341   1.795   4.074   6.773  0.5403 -1.5435  0.4902
 7236SOL    HW233342   1.832   4.127   6.633 -0.6810 -1.6463  0.3269
 7237SOL     OW33343   0.244   3.629   6.594 -0.4454 -1.0841 -0.3668
 7237SOL    HW133344   0.244   3.534   6.586  2.1331 -1.1892  0.8947
 7237SOL    HW233345   0.335   3.658   6.584 -1.0638  0.5097 -1.3132
 7238SOL     OW33346   2.665   4.250   4.402 -0.6736  0.7309  0.2828
 7238SOL    HW133347   2.683   4.202   4.321  1.5397 -0.2444  1.3675
 7238SOL    HW233348   2.581   4.289   4.376 -1.1343  0.0291  0.7082
 7239SOL     OW33349   3.239   3.818   1.070  0.0503 -0.5195  0.4296
 7239SOL    HW133350   3.172   3.783   1.012 -0.4311 -0.4301  0.9318
 7239SOL    HW233351   3.219   3.912   1.071 -0.8559 -0.6625 -4.0767
 7240SOL     OW33352   1.094   4.462  17.591 -0.2398 -0.3546 -0.6009
 7240SOL    HW133353   1.154   4.391  17.613 -0.1669 -0.0105  0.3199
 7240SOL    HW233354   1.064   4.491  17.677  1.2454 -0.6880  0.0183
 7241SOL     OW33355   3.498   0.374  15.230 -0.2703 -0.2702  0.0814
 7241SOL    HW133356   3.544   0.368  15.146 -0.2713 -0.8141  0.1231
 7241SOL    HW233357   3.462   0.286  15.233  1.5240 -0.9068  2.7050
 7242SOL     OW33358   2.424   0.248   3.800 -0.8137 -0.4949  0.5956
 7242SOL    HW133359   2.458   0.180   3.859 -0.3248 -1.3971 -0.7484
 7242SOL    HW233360   2.333   0.220   3.790 -0.3866 -1.6204 -0.0760
 7243SOL     OW33361   0.277   0.648   1.668 -0.4419  0.0771  0.4840
 7243SOL    HW133362   0.287   0.634   1.574  0.7067 -3.4879  1.1388
 7243SOL    HW233363   0.227   0.730   1.672  0.4006  0.5161  2.0088
 7244SOL     OW33364   0.123   1.739   5.979  0.2644 -0.0150  0.0011
 7244SOL    HW133365   0.206   1.704   6.012 -0.2030  3.2830  4.7417
 7244SOL    HW233366   0.131   1.707   5.889  1.5133 -0.5786  0.3033
 7245SOL     OW33367   3.936   2.481   2.538 -0.6630 -0.2466  0.5443
 7245SOL    HW133368   3.883   2.556   2.565  0.1300  0.1602  0.9757
 7245SOL    HW233369   3.862   2.430   2.507 -1.4509  0.9792  0.3963
 7246SOL     OW33370   3.614   3.420   6.575  0.0584  0.3416  0.1893
 7246SOL    HW133371   3.543   3.356   6.563 -1.1206  1.6894  0.0356
 7246SOL    HW233372   3.645   3.430   6.484 -0.3437  1.1295  0.1447
 7247SOL     OW33373   2.673   4.321   2.342 -0.6937 -0.0052 -0.9041
 7247SOL    HW133374   2.640   4.406   2.314 -0.6103 -0.4086 -2.2576
 7247SOL    HW233375   2.631   4.308   2.427  2.6968  0.4558  0.8630
 7248SOL     OW33376   2.054   0.476   6.916 -0.3965 -0.4570  0.1861
 7248SOL    HW133377   1.990   0.457   6.847  0.4154  0.0728 -0.7186
 7248SOL    HW233378   2.017   0.419   6.983 -2.5287 -1.2345 -1.6587
 7249SOL     OW33379   2.219   2.222   7.915 -0.1248  0.1355  0.0588
 7249SOL    HW133380   2.257   2.208   7.828  0.6761  1.0973  0.2454
 7249SOL    HW233381   2.130   2.190   7.901 -0.1557 -0.0608  0.7182
 7250SOL     OW33382   4.327   1.368   2.349  0.7435  0.8328  0.0274
 7250SOL    HW133383   4.407   1.357   2.400  0.0956 -0.2616  0.8279
 7250SOL    HW233384   4.310   1.281   2.314  3.4496  1.0840 -1.8455
 7251SOL     OW33385   0.063   1.304   9.972  0.4055  0.0856  0.3071
 7251SOL    HW133386   0.137   1.362   9.986 -0.3413  0.7617  1.4998
 7251SOL    HW233387   0.067   1.243  10.046  0.0401 -1.3541 -0.8589
 7252SOL     OW33388   1.195   0.180   6.982 -0.7179 -0.0221  0.3010
 7252SOL    HW133389   1.190   0.273   6.958  0.2867  0.1873  0.9056
 7252SOL    HW233390   1.111   0.163   7.025 -1.2812  0.5146 -0.5848
 7253SOL     OW33391   0.161   4.693   9.565  0.5472 -0.4699  0.1348
 7253SOL    HW133392   0.195   0.017   9.500  1.0110  0.5509  1.3396
 7253SOL    HW233393   0.225   4.699   9.636 -0.2690 -0.5419  0.8787
 7254SOL     OW33394   4.604   4.187   2.045  0.4428 -0.2165  0.1686
 7254SOL    HW133395   4.549   4.115   2.076  0.3414  0.1362  0.7965
 7254SOL    HW233396   4.678   4.130   2.023  1.0798  0.5743  0.2761
 7255SOL     OW33397   1.416   1.866   2.071  0.1608  0.0314  0.0439
 7255SOL    HW133398   1.493   1.831   2.026 -0.5321  1.0772 -2.0002
 7255SOL    HW233399   1.361   1.887   1.995  1.2599 -0.3723 -0.8723
 7256SOL     OW33400   4.105   3.339   8.542  0.5643  0.4486 -0.0082
 7256SOL    HW133401   4.124   3.255   8.585  0.3273  0.7160  0.6235
 7256SOL    HW233402   4.166   3.389   8.597  0.4505 -0.8217  1.3007
 7257SOL     OW33403   4.567   2.326  15.020 -0.3509  0.3586 -0.1248
 7257SOL    HW133404   4.597   2.381  15.092  0.9288 -1.3446  0.6574
 7257SOL    HW233405   4.524   2.248  15.054  1.6843  0.0404  1.7356
 7258SOL     OW33406   4.186   2.955   8.534 -0.0116 -0.3630  0.5141
 7258SOL    HW133407   4.203   3.015   8.607  0.1068  0.3810 -0.1261
 7258SOL    HW233408   4.215   3.002   8.456 -0.9130  0.1002  0.4597
 7259SOL     OW33409   4.473   4.035  11.586  0.2539 -0.0065  0.2868
 7259SOL    HW133410   4.420   4.107  11.552 -2.2403 -1.0037  2.0290
 7259SOL    HW233411   4.545   4.085  11.624  0.4820 -0.6112  0.6479
 7260SOL     OW33412   2.309   2.462   2.422 -0.1529  0.1492  0.5263
 7260SOL    HW133413   2.300   2.535   2.361  3.4571  0.9410  0.9799
 7260SOL    HW233414   2.272   2.384   2.380  1.4619 -1.6336  2.4525
 7261SOL     OW33415   1.326   3.633   8.733  0.1404  0.4312 -0.2091
 7261SOL    HW133416   1.401   3.670   8.686 -0.2941 -0.0156 -1.2498
 7261SOL    HW233417   1.281   3.714   8.754 -1.1431 -0.0495 -1.1308
 7262SOL     OW33418   2.427   2.807   2.382  0.0080 -0.2275 -0.0782
 7262SOL    HW133419   2.347   2.827   2.430  0.6880  0.4371  0.7917
 7262SOL    HW233420   2.393   2.740   2.324 -1.1069 -0.7178  1.1526
 7263SOL     OW33421   0.995   1.997   6.904  0.1286 -0.2255  0.0186
 7263SOL    HW133422   0.926   2.058   6.879 -1.2348 -1.2497  1.3180
 7263SOL    HW233423   1.053   2.060   6.947  0.7425 -0.3581 -0.6079
 7264SOL     OW33424   3.155   2.582   2.582 -0.5120  0.9568  0.1801
 7264SOL    HW133425   3.167   2.506   2.638 -0.3769  0.5310 -0.4357
 7264SOL    HW233426   3.061   2.588   2.568 -0.0886  0.8700 -2.6222
 7265SOL     OW33427   4.365   0.408   1.981 -0.2913  0.2056 -0.1610
 7265SOL    HW133428   4.459   0.420   1.998 -0.1301 -0.8459 -0.3249
 7265SOL    HW233429   4.331   0.466   2.049 -0.4447 -0.1921  0.1006
 7266SOL     OW33430   1.760   2.122   0.677  0.1096 -0.1635 -0.1439
 7266SOL    HW133431   1.832   2.060   0.661  2.4156  2.2494  0.8840
 7266SOL    HW233432   1.685   2.066   0.696  0.5432 -1.4139 -2.1709
 7267SOL     OW33433   0.091   4.315   8.617  0.0080 -0.4680 -0.1251
 7267SOL    HW133434   0.016   4.288   8.670  0.7887 -1.3165  0.5456
 7267SOL    HW233435   0.124   4.229   8.593 -0.8857 -0.7002 -0.5318
 7268SOL     OW33436   0.669   3.049   5.711 -0.4890 -0.3676 -0.6041
 7268SOL    HW133437   0.610   3.121   5.733  2.4335  1.6039  0.7502
 7268SOL    HW233438   0.699   3.068   5.622 -0.3834  0.3980 -0.4009
 7269SOL     OW33439   2.392   0.408   8.374  0.4415  0.1016  0.3022
 7269SOL    HW133440   2.427   0.488   8.414 -0.7600 -0.0649  1.7036
 7269SOL    HW233441   2.470   0.365   8.339  0.5193  1.3091 -0.9991
 7270SOL     OW33442   1.481   1.764  16.569  0.3971  0.4603 -0.8379
 7270SOL    HW133443   1.465   1.855  16.541 -0.0253  0.9068  0.8459
 7270SOL    HW233444   1.487   1.766  16.665  1.9134 -1.4633 -0.8989
 7271SOL     OW33445   4.404   3.916   5.902 -0.2694  0.8954 -0.0758
 7271SOL    HW133446   4.312   3.916   5.930 -0.0616  0.2877  0.6148
 7271SOL    HW233447   4.408   3.966   5.821 -0.7139 -0.6375 -1.0567
 7272SOL     OW33448   4.283   1.129   2.199  0.3033 -0.3844 -0.6372
 7272SOL    HW133449   4.220   1.086   2.257  2.4747  0.1377  2.1136
 7272SOL    HW233450   4.249   1.091   2.118  2.7391 -2.1117 -0.8332
 7273SOL     OW33451   1.933   1.772   5.486  0.4765 -1.4213  0.4110
 7273SOL    HW133452   1.851   1.818   5.467  2.0934  2.4185  2.9158
 7273SOL    HW233453   1.928   1.705   5.417  1.5182 -2.8879  1.7556
 7274SOL     OW33454   4.163   2.186   6.559  0.4230 -0.0575  0.6320
 7274SOL    HW133455   4.092   2.136   6.519 -0.1397  1.4811 -0.2877
 7274SOL    HW233456   4.209   2.217   6.481 -0.8722 -2.7367 -1.1892
 7275SOL     OW33457   2.354   0.336   5.937 -0.2463 -0.0618  0.5179
 7275SOL    HW133458   2.425   0.397   5.917  0.1295 -0.5641  0.3081
 7275SOL    HW233459   2.293   0.359   5.867  0.0720 -0.8567 -0.0258
 7276SOL     OW33460   2.818   3.358   3.531  0.1369  0.2393  0.5769
 7276SOL    HW133461   2.752   3.289   3.538 -0.3630  0.6101 -0.5325
 7276SOL    HW233462   2.784   3.426   3.589 -1.0627 -0.1584  0.3413
 7277SOL     OW33463   1.808   0.944   3.144  0.5252 -0.3494 -0.7355
 7277SOL    HW133464   1.776   1.034   3.154  1.7975 -0.0711  1.0748
 7277SOL    HW233465   1.761   0.895   3.211 -0.5550  0.4940 -0.8818
 7278SOL     OW33466   2.954   1.888   2.582  0.1223  0.1908  0.0740
 7278SOL    HW133467   3.037   1.846   2.559 -0.6177 -2.3933  2.1706
 7278SOL    HW233468   2.893   1.820   2.555  0.8803 -0.6475  0.4869
 7279SOL     OW33469   0.693   1.099  17.036  0.2506  0.4900  0.5719
 7279SOL    HW133470   0.649   1.103  16.951 -0.3109 -2.3940  0.7178
 7279SOL    HW233471   0.740   1.182  17.045 -1.0432  1.1601  1.2557
 7280SOL     OW33472   2.087   1.432  10.592 -0.0648 -0.6876 -0.4493
 7280SOL    HW133473   2.015   1.388  10.637 -2.6584  3.8660 -0.0972
 7280SOL    HW233474   2.055   1.474  10.511  0.8718  1.6493  0.3898
 7281SOL     OW33475   1.646   1.295   8.939  0.2841  0.0550 -0.5223
 7281SOL    HW133476   1.680   1.205   8.933  0.3063  0.3290 -4.1162
 7281SOL    HW233477   1.678   1.336   8.859 -1.7263  1.6854 -0.4829
 7282SOL     OW33478   1.850   1.564  16.057  0.0424  0.0143  0.3277
 7282SOL    HW133479   1.770   1.604  16.022 -1.5856 -1.6928  2.0944
 7282SOL    HW233480   1.836   1.469  16.052  0.4454  0.0162 -0.8370
 7283SOL     OW33481   2.643   2.961   6.913 -0.4855 -0.1605  0.1328
 7283SOL    HW133482   2.718   2.902   6.915  0.3849  0.9256  0.1353
 7283SOL    HW233483   2.668   3.027   6.978  0.2995 -1.1422  0.8065
 7284SOL     OW33484   3.671   3.651   5.685 -0.4531  0.2852  0.4004
 7284SOL    HW133485   3.707   3.639   5.772  1.5040  2.8404 -0.0704
 7284SOL    HW233486   3.631   3.565   5.670 -3.3089  1.9906 -1.8311
 7285SOL     OW33487   2.637   2.021  13.918  0.3028  0.2239 -0.2450
 7285SOL    HW133488   2.644   2.100  13.971  2.1675  1.5811 -2.4943
 7285SOL    HW233489   2.664   1.962  13.988  0.2709  0.7431  0.1954
 7286SOL     OW33490   2.930   0.182   0.084 -0.4506 -0.6185  0.2219
 7286SOL    HW133491   2.859   0.149   0.029 -1.2157 -0.5247  1.1497
 7286SOL    HW233492   3.004   0.158   0.028  1.5848  2.3371  1.6083
 7287SOL     OW33493   1.011   1.368  15.271  0.2654  0.3058 -0.4272
 7287SOL    HW133494   1.087   1.352  15.326 -0.7749 -1.2095  0.6045
 7287SOL    HW233495   1.043   1.335  15.188 -1.7331  0.8824 -1.4398
 7288SOL     OW33496   4.008   4.154   8.420  0.5647  0.3506 -0.0444
 7288SOL    HW133497   4.077   4.087   8.424 -1.9824 -2.2439  0.4348
 7288SOL    HW233498   4.062   4.232   8.433  0.7722  0.0025  1.2216
 7289SOL     OW33499   0.491   4.624   6.884 -0.2196  0.2434 -0.0410
 7289SOL    HW133500   0.498   4.529   6.875  1.1078  0.1785  1.5985
 7289SOL    HW233501   0.403   4.637   6.848 -0.7357  0.3211  1.2269
 7290SOL     OW33502   3.837   0.006   4.813 -0.3386  0.3750 -0.4989
 7290SOL    HW133503   3.858   4.710   4.726 -0.7360  0.9222 -0.8000
 7290SOL    HW233504   3.741   0.000   4.814 -0.2837 -0.0566  3.7617
 7291SOL     OW33505   1.938   1.024   8.147  0.3262 -0.3219 -0.1557
 7291SOL    HW133506   1.968   1.033   8.056 -0.4565  0.9014 -0.2939
 7291SOL    HW233507   1.904   0.935   8.143 -1.5558  0.4646 -1.5156
 7292SOL     OW33508   3.897   2.159   7.173  0.6307  0.2925  0.3042
 7292SOL    HW133509   3.983   2.169   7.132  0.2182  1.0394 -0.3841
 7292SOL    HW233510   3.891   2.064   7.160 -1.6482  0.6513 -1.1867
 7293SOL     OW33511   4.534   1.494  13.914  0.1898 -0.6615 -0.0800
 7293SOL    HW133512   4.451   1.532  13.885  1.8267  1.5831 -1.8793
 7293SOL    HW233513   4.508   1.476  14.004 -2.7340  1.2848 -0.5570
 7294SOL     OW33514   2.286   4.297   8.125  0.0145 -0.6796 -0.4807
 7294SOL    HW133515   2.204   4.347   8.126 -1.5302 -3.2095 -1.6898
 7294SOL    HW233516   2.346   4.367   8.151 -2.3643  1.2122 -0.0955
 7295SOL     OW33517   3.641   0.017   0.812 -0.8768 -0.0160 -0.1603
 7295SOL    HW133518   3.655   0.103   0.773 -1.3286  0.2134  0.1817
 7295SOL    HW233519   3.656   0.035   0.905 -0.8521  1.8406 -0.5174
 7296SOL     OW33520   2.223   0.271   5.212  0.3634 -0.0419  0.0384
 7296SOL    HW133521   2.275   0.342   5.175  1.9124 -0.5144  1.3204
 7296SOL    HW233522   2.178   0.324   5.278 -1.3999 -0.8042 -0.5444
 7297SOL     OW33523   3.543   1.186  11.098 -0.2922  0.5551 -0.1385
 7297SOL    HW133524   3.525   1.278  11.076 -0.7485 -0.0195 -2.1653
 7297SOL    HW233525   3.542   1.194  11.194 -0.3838 -2.4450  0.0980
 7298SOL     OW33526   0.913   0.931  16.945  0.0305  0.4942 -0.2882
 7298SOL    HW133527   0.828   0.954  16.983 -0.7417 -1.1495 -1.0542
 7298SOL    HW233528   0.973   0.953  17.016 -0.4921 -0.9474  0.5963
 7299SOL     OW33529   1.034   1.573  12.867 -0.4909  0.1455 -0.5083
 7299SOL    HW133530   1.053   1.667  12.867 -0.1702  0.0822  0.0541
 7299SOL    HW233531   1.102   1.554  12.932 -0.0287 -0.7094 -1.2588
 7300SOL     OW33532   1.250   1.155  10.396  0.0003  0.1402  0.5688
 7300SOL    HW133533   1.265   1.186  10.307  0.3118 -1.9331 -0.1159
 7300SOL    HW233534   1.217   1.066  10.378  1.7887 -1.2639  4.1589
 7301SOL     OW33535   0.925   0.995   0.788  0.4134  0.7134 -0.7008
 7301SOL    HW133536   0.841   1.040   0.799  0.7846  0.8182  1.7697
 7301SOL    HW233537   0.981   1.072   0.784  0.1986  1.0201  2.4260
 7302SOL     OW33538   3.813   4.484   8.890  0.3602  0.0282  0.3468
 7302SOL    HW133539   3.723   4.505   8.863 -0.0206 -0.1703  1.4618
 7302SOL    HW233540   3.855   4.567   8.872  0.0341  0.0854 -0.1614
 7303SOL     OW33541   0.660   1.186   6.568  0.4864  0.3077  0.0316
 7303SOL    HW133542   0.678   1.241   6.644 -1.1892 -1.9037  2.0528
 7303SOL    HW233543   0.588   1.133   6.602  0.3896  0.1076 -0.4816
 7304SOL     OW33544   3.206   1.633   8.392  0.1305 -0.2510  0.0971
 7304SOL    HW133545   3.254   1.592   8.320  0.7244 -1.0646  0.9679
 7304SOL    HW233546   3.272   1.695   8.424 -0.6712  0.4137  0.4730
 7305SOL     OW33547   4.654   0.069   9.088 -0.2370  0.3717 -0.5164
 7305SOL    HW133548   4.608   0.042   9.167  2.1199 -0.7215  0.4948
 7305SOL    HW233549   4.737   0.032   9.119  0.8048  0.3875 -3.2680
 7306SOL     OW33550   4.358   0.410   9.289 -0.1495  0.8125  0.4774
 7306SOL    HW133551   4.334   0.317   9.283  4.5176 -0.3685 -0.3866
 7306SOL    HW233552   4.391   0.418   9.378  3.6910  0.1889 -0.8995
 7307SOL     OW33553   2.990   0.680   6.440  0.7719  0.0501 -0.2643
 7307SOL    HW133554   3.004   0.760   6.491  1.3595  1.2509 -2.3242
 7307SOL    HW233555   2.963   0.624   6.512  0.5597 -0.6925 -0.9240
 7308SOL     OW33556   4.479   4.062   9.522  0.1247  0.0779 -0.1549
 7308SOL    HW133557   4.536   4.129   9.559 -1.4406  2.4119 -1.9235
 7308SOL    HW233558   4.418   4.114   9.469  1.9598  0.3223 -2.0407
 7309SOL     OW33559   0.379   4.052   7.357  0.5492 -0.0784  0.1892
 7309SOL    HW133560   0.424   3.988   7.412  1.1108 -0.5106 -0.7752
 7309SOL    HW233561   0.312   4.074   7.422 -0.2192  2.0867 -1.3036
 7310SOL     OW33562   2.742   4.224   2.973  0.0630 -0.3998 -0.0136
 7310SOL    HW133563   2.661   4.271   2.952  0.7954 -0.5091 -3.0572
 7310SOL    HW233564   2.705   4.139   2.997 -0.6736 -0.1988 -0.4226
 7311SOL     OW33565   1.206   3.683   7.425 -0.1162  0.0921  0.4605
 7311SOL    HW133566   1.286   3.633   7.406  0.4991  1.0751  0.4799
 7311SOL    HW233567   1.189   3.719   7.338  0.1716  0.4532  0.5550
 7312SOL     OW33568   2.622   2.968   5.890 -0.3806 -0.3170  0.0799
 7312SOL    HW133569   2.582   2.992   5.806 -1.8612  1.6066  1.3519
 7312SOL    HW233570   2.548   2.973   5.951  0.6300  1.1997  1.1675
 7313SOL     OW33571   3.461   1.469   0.673  0.3195 -0.1737 -0.7976
 7313SOL    HW133572   3.406   1.391   0.666 -0.0215  0.0955 -1.1461
 7313SOL    HW233573   3.420   1.517   0.746  1.6617  0.6557 -0.5805
 7314SOL     OW33574   0.433   3.796   7.781  0.1392 -0.5180 -0.1944
 7314SOL    HW133575   0.378   3.724   7.813 -1.2382  0.5411 -0.1724
 7314SOL    HW233576   0.432   3.851   7.859  1.2235 -0.6656 -0.0742
 7315SOL     OW33577   1.283   3.007   7.156  0.6101 -0.1415  0.0535
 7315SOL    HW133578   1.336   3.032   7.231 -0.9463 -0.0827  1.1288
 7315SOL    HW233579   1.202   3.050   7.181  0.7016 -2.3206  4.1350
 7316SOL     OW33580   0.106   1.695  11.505  0.3988 -0.2566 -0.0311
 7316SOL    HW133581   0.103   1.694  11.601  5.3014 -0.7986  0.1153
 7316SOL    HW233582   0.042   1.763  11.484  0.5016  0.5051  2.0578
 7317SOL     OW33583   3.560   3.449  16.199  0.5423  0.1990 -0.3621
 7317SOL    HW133584   3.583   3.523  16.142  0.4627 -0.5895 -1.4106
 7317SOL    HW233585   3.530   3.504  16.272  2.5228 -0.8422  1.2515
 7318SOL     OW33586   1.913   3.224   5.562  0.5429 -0.4541  0.0143
 7318SOL    HW133587   1.920   3.140   5.608  0.4109 -0.1446  0.5972
 7318SOL    HW233588   2.007   3.240   5.552 -0.1382  2.8015 -1.2017
 7319SOL     OW33589   1.375   0.375   3.845  0.1149 -0.3871  0.2768
 7319SOL    HW133590   1.334   0.305   3.794 -2.2453  0.7778  0.5696
 7319SOL    HW233591   1.417   0.327   3.917 -0.5817 -1.3877  0.0142
 7320SOL     OW33592   0.513   0.951  17.560 -1.2192  0.0903  0.1332
 7320SOL    HW133593   0.527   0.857  17.557 -0.4643  0.1860  0.5109
 7320SOL    HW233594   0.604   0.983  17.558 -0.0515 -3.2538  0.3257
 7321SOL     OW33595   4.602   2.137   4.100  0.2139 -0.0546 -0.4302
 7321SOL    HW133596   4.657   2.152   4.177  0.9834 -2.4972 -0.5048
 7321SOL    HW233597   4.628   2.047   4.081 -1.3951 -0.5439 -0.2432
 7322SOL     OW33598   1.058   2.670   9.743 -0.5384  0.0760 -0.0633
 7322SOL    HW133599   1.012   2.659   9.659 -0.7785 -0.2833  0.1149
 7322SOL    HW233600   0.995   2.631   9.804 -0.4591  3.1449  1.9282
 7323SOL     OW33601   0.859   4.523   8.796  0.1229  0.5881 -0.0381
 7323SOL    HW133602   0.895   4.455   8.739  0.7648  1.4213 -0.6242
 7323SOL    HW233603   0.858   4.485   8.884  1.8684 -0.4581 -0.4667
 7324SOL     OW33604   0.937   2.205   5.242  0.5394 -0.4462  0.0387
 7324SOL    HW133605   1.018   2.237   5.202  0.2726  2.1635  1.5932
 7324SOL    HW233606   0.926   2.128   5.186  0.7540  0.0342 -0.6627
 7325SOL     OW33607   1.958   2.289  15.768 -0.2274  0.6826  0.0519
 7325SOL    HW133608   1.976   2.274  15.861  1.3147  1.9428 -0.0467
 7325SOL    HW233609   2.044   2.285  15.726 -0.3302 -1.5012  0.0647
 7326SOL     OW33610   4.359   0.983   7.504 -0.4982 -0.8975 -0.3304
 7326SOL    HW133611   4.375   0.987   7.599  0.0841  1.2333 -0.5281
 7326SOL    HW233612   4.403   1.065   7.481  0.3370 -1.6219 -1.2922
 7327SOL     OW33613   1.903   0.029   7.527  0.6465  0.2056 -0.1510
 7327SOL    HW133614   1.953   0.034   7.609  1.3513 -2.0195 -0.4338
 7327SOL    HW233615   1.882   4.673   7.527  0.5165  0.2354 -0.2129
 7328SOL     OW33616   3.370   2.340   9.564 -0.6269 -0.0691 -0.1280
 7328SOL    HW133617   3.321   2.292   9.497 -0.7033 -0.6738  0.3602
 7328SOL    HW233618   3.447   2.283   9.573 -1.5831 -1.5103 -1.0576
 7329SOL     OW33619   2.407   3.941  12.286 -0.3679  0.1706 -0.0937
 7329SOL    HW133620   2.382   4.033  12.293 -0.0973  0.2791 -0.5442
 7329SOL    HW233621   2.331   3.897  12.250 -0.0980  0.9046 -1.5352
 7330SOL     OW33622   4.683   4.208   1.366 -0.3608  0.3672 -0.3431
 7330SOL    HW133623   4.678   4.160   1.449 -1.7130  1.8502  0.4155
 7330SOL    HW233624   4.733   4.147   1.311  0.8579  0.2961  0.8534
 7331SOL     OW33625   3.790   2.208   5.975  0.0539 -0.0741 -0.2383
 7331SOL    HW133626   3.879   2.207   6.010  0.1203  0.6187 -0.3991
 7331SOL    HW233627   3.805   2.244   5.888 -1.4898  0.1286 -0.4281
 7332SOL     OW33628   2.914   2.374   3.771 -0.2416 -0.2870  0.1502
 7332SOL    HW133629   2.949   2.289   3.798 -1.1821 -0.3575  1.1854
 7332SOL    HW233630   2.821   2.351   3.766 -0.1237 -0.3542 -1.6675
 7333SOL     OW33631   0.299   2.501   8.391 -0.2273  0.0185 -0.7825
 7333SOL    HW133632   0.243   2.428   8.417  0.9796 -0.5372  0.2764
 7333SOL    HW233633   0.357   2.454   8.330  0.1881 -0.8999  0.3256
 7334SOL     OW33634   3.365   3.357   7.944 -0.2409 -0.2222 -0.3052
 7334SOL    HW133635   3.445   3.392   7.983  0.4671 -0.3402 -1.6544
 7334SOL    HW233636   3.381   3.263   7.950  4.1914  0.5408 -0.5452
 7335SOL     OW33637   0.292   1.018   9.829 -0.4213  0.7881  0.1883
 7335SOL    HW133638   0.333   1.066   9.901  1.2584 -0.2359 -0.1017
 7335SOL    HW233639   0.245   1.085   9.780 -0.9243 -0.2679 -0.7755
 7336SOL     OW33640   2.804   0.701  14.154 -0.5753  0.1016 -0.1053
 7336SOL    HW133641   2.867   0.631  14.142  0.3750  0.8955  0.1983
 7336SOL    HW233642   2.801   0.702  14.250  0.7081  1.5911 -0.0828
 7337SOL     OW33643   3.299   2.082   1.980 -0.2031 -0.6553 -0.2377
 7337SOL    HW133644   3.384   2.039   1.988  0.2389  0.2837  0.1537
 7337SOL    HW233645   3.267   2.064   2.068 -1.3366 -0.1493 -0.5426
 7338SOL     OW33646   2.998   3.010   4.292 -0.4107 -0.2168  0.0652
 7338SOL    HW133647   3.085   2.973   4.272 -0.5483 -0.5291  0.0444
 7338SOL    HW233648   3.007   3.104   4.278 -0.0584 -0.5705 -2.1904
 7339SOL     OW33649   4.636   2.801   6.738  0.0090  0.3197 -0.5546
 7339SOL    HW133650   4.676   2.860   6.674  0.4483  1.6434  0.9188
 7339SOL    HW233651   4.543   2.824   6.746  0.2429  1.1362 -0.1087
 7340SOL     OW33652   4.733   0.789  14.203 -0.3432  0.4398 -0.7180
 7340SOL    HW133653   0.085   0.787  14.168 -0.6744  0.5660 -1.5735
 7340SOL    HW233654   4.693   0.750  14.125  1.0925 -0.5058 -0.9755
 7341SOL     OW33655   1.584   1.273  17.096  0.2334  0.4173  0.0658
 7341SOL    HW133656   1.660   1.330  17.082  1.7571 -1.3034  1.4438
 7341SOL    HW233657   1.626   1.206  17.149  2.0510  0.5470 -1.2053
 7342SOL     OW33658   3.120   0.387   8.410 -0.1854  0.0562  0.0472
 7342SOL    HW133659   3.173   0.320   8.454 -1.5960 -1.1222 -0.0357
 7342SOL    HW233660   3.188   0.454   8.406 -0.4366  0.2813 -0.3763
 7343SOL     OW33661   3.913   0.878   5.987 -0.2938 -0.5518  0.4351
 7343SOL    HW133662   3.976   0.896   5.917 -1.4968  2.0265 -0.0000
 7343SOL    HW233663   3.955   0.928   6.057  1.4726  0.2982 -1.2064
 7344SOL     OW33664   3.903   4.244   6.339  0.2162  0.3420 -0.1088
 7344SOL    HW133665   3.809   4.250   6.320  0.6291  0.1355 -2.2188
 7344SOL    HW233666   3.932   4.188   6.267  2.4728  1.1226  0.1879
 7345SOL     OW33667   4.407   2.059   9.348 -0.5478 -0.3643  0.0674
 7345SOL    HW133668   4.490   2.058   9.396  0.5376 -0.1384 -1.7956
 7345SOL    HW233669   4.427   2.081   9.257  0.4081 -0.6834  0.1961
 7346SOL     OW33670   3.095   4.056  15.280 -0.6360  0.4467  0.1411
 7346SOL    HW133671   3.048   4.062  15.363 -1.9489 -1.7911 -0.4348
 7346SOL    HW233672   3.150   4.134  15.280 -1.3097  0.9212  0.0749
 7347SOL     OW33673   0.678   3.281   2.790 -0.2965 -0.1144 -0.2629
 7347SOL    HW133674   0.745   3.213   2.797  1.0647  1.4109  1.3569
 7347SOL    HW233675   0.636   3.270   2.875 -0.5573  1.4912 -0.1953
 7348SOL     OW33676   1.842   3.803   7.045  0.4081 -0.6183  0.3778
 7348SOL    HW133677   1.835   3.893   7.013  1.0048 -0.8005 -0.2564
 7348SOL    HW233678   1.914   3.819   7.105 -0.6090 -0.1202  1.4735
 7349SOL     OW33679   4.057   2.445   8.505 -0.4918  0.2418  0.5106
 7349SOL    HW133680   3.962   2.448   8.498 -0.5644 -2.0324  0.2892
 7349SOL    HW233681   4.089   2.530   8.474  1.8653 -0.8534 -0.0981
 7350SOL     OW33682   1.609   0.929   6.250 -0.0833 -0.4621  1.2040
 7350SOL    HW133683   1.699   0.957   6.239  0.0989 -1.3094  0.5272
 7350SOL    HW233684   1.583   0.894   6.164 -0.4244 -0.9979  1.5220
 7351SOL     OW33685   2.915   3.486   5.329 -0.9412 -0.1590 -0.0545
 7351SOL    HW133686   2.917   3.581   5.340 -0.1709 -0.0886 -0.8095
 7351SOL    HW233687   2.933   3.485   5.235  0.0104 -2.7957  0.1393
 7352SOL     OW33688   4.616   4.524   2.279 -0.0611  0.0956  0.5443
 7352SOL    HW133689   4.702   4.543   2.315 -0.3643  2.8503 -0.1376
 7352SOL    HW233690   4.605   4.605   2.229  1.4732  0.0143  0.0836
 7353SOL     OW33691   0.064   4.344   7.525 -0.0611 -0.1662 -0.4880
 7353SOL    HW133692   0.103   4.379   7.445 -0.8272  2.2442  0.2063
 7353SOL    HW233693   0.100   4.256   7.535 -0.2453 -0.4268 -2.1337
 7354SOL     OW33694   1.919   4.722   9.301  0.4451  0.3805 -0.5302
 7354SOL    HW133695   1.939   0.077   9.285  3.4205 -0.6863 -3.0643
 7354SOL    HW233696   1.926   4.696   9.209 -0.8537  0.7644 -0.7317
 7355SOL     OW33697   2.485   3.784   6.412  0.2122 -0.0843  0.5458
 7355SOL    HW133698   2.518   3.810   6.326  1.6433 -3.2005  0.1685
 7355SOL    HW233699   2.514   3.861   6.461 -1.5120 -0.4841  2.1880
 7356SOL     OW33700   2.657   4.336   0.561 -0.0588 -0.5766  0.6174
 7356SOL    HW133701   2.711   4.392   0.616  0.1650 -1.5711  1.4025
 7356SOL    HW233702   2.580   4.390   0.542  1.4186  1.1792 -0.3571
 7357SOL     OW33703   4.148   1.095   5.590 -0.0034  0.0826  0.2824
 7357SOL    HW133704   4.190   1.081   5.505  3.3769 -1.2396  2.1366
 7357SOL    HW233705   4.176   1.184   5.614 -0.8297  0.9999 -2.2491
 7358SOL     OW33706   1.135   3.107  10.413 -0.8613 -0.2424  0.2685
 7358SOL    HW133707   1.063   3.079  10.469 -1.9688 -1.5769 -1.8450
 7358SOL    HW233708   1.211   3.061  10.450 -0.6591 -0.4083 -0.3518
 7359SOL     OW33709   0.669   2.247   6.427  0.6905 -0.3151 -0.2682
 7359SOL    HW133710   0.597   2.302   6.396 -0.4671 -0.1241  2.7911
 7359SOL    HW233711   0.748   2.293   6.398  1.5181 -0.7215  1.3221
 7360SOL     OW33712   2.221   1.578  12.762  0.3151  0.4779  0.1181
 7360SOL    HW133713   2.199   1.501  12.710  0.7937  0.2664  0.2323
 7360SOL    HW233714   2.310   1.570  12.795 -0.6095  0.8742  2.6806
 7361SOL     OW33715   0.124   1.020   1.167 -0.4158  0.4421  0.6465
 7361SOL    HW133716   0.145   1.068   1.086 -1.6869 -0.2628 -0.1041
 7361SOL    HW233717   0.205   1.019   1.217 -0.7023 -1.6358  1.0568
 7362SOL     OW33718   0.734   3.461  15.861  0.0595  0.3111 -0.4053
 7362SOL    HW133719   0.709   3.538  15.810  3.1041  0.7547 -1.2379
 7362SOL    HW233720   0.777   3.513  15.929 -1.3421  0.3060  0.4614
 7363SOL     OW33721   1.665   1.106   4.779 -0.0491 -0.0896  0.0845
 7363SOL    HW133722   1.709   1.165   4.718  0.9665  0.0642  0.9567
 7363SOL    HW233723   1.639   1.168   4.848 -1.1763 -0.8159  0.3131
 7364SOL     OW33724   3.978   0.670   8.155  0.4317  0.6328  0.3054
 7364SOL    HW133725   4.050   0.621   8.195  1.7019  1.2251 -1.2314
 7364SOL    HW233726   3.904   0.610   8.163  1.0437  0.1357  2.1170
 7365SOL     OW33727   0.408   4.598  15.661 -0.5311  0.1603  0.4420
 7365SOL    HW133728   0.350   4.522  15.660 -0.2461 -0.0335 -1.4763
 7365SOL    HW233729   0.380   4.655  15.589  1.7056 -1.5022 -1.6991
 7366SOL     OW33730   3.055   1.683   7.689  0.6911  0.2026 -0.0796
 7366SOL    HW133731   3.059   1.777   7.671  0.3078  0.0592 -0.9410
 7366SOL    HW233732   3.064   1.646   7.601  0.0283  0.9324 -0.4517
 7367SOL     OW33733   2.568   4.496   5.579 -0.1551  0.1491 -0.3663
 7367SOL    HW133734   2.618   4.547   5.642 -1.9048  1.8470 -0.3762
 7367SOL    HW233735   2.570   4.412   5.626 -1.1588  0.3959  0.1036
 7368SOL     OW33736   3.941   3.430   5.491  0.0438  0.1475  0.1656
 7368SOL    HW133737   3.900   3.441   5.578 -0.8399  2.6451 -0.5650
 7368SOL    HW233738   3.908   3.340   5.489 -1.7737  0.7635  1.8488
 7369SOL     OW33739   2.676   2.314  11.391  0.6270  0.4858  0.3009
 7369SOL    HW133740   2.723   2.315  11.475  1.1788 -0.1707  0.0012
 7369SOL    HW233741   2.727   2.244  11.349 -1.0085  0.5242 -1.7406
 7370SOL     OW33742   3.565   0.180   3.324 -0.3810 -0.1814 -0.2121
 7370SOL    HW133743   3.577   0.271   3.352  0.4872  0.3796 -2.3869
 7370SOL    HW233744   3.640   0.133   3.362 -1.4174 -2.5913 -1.1283
 7371SOL     OW33745   1.801   0.935   7.685 -0.0641 -0.7640  0.4428
 7371SOL    HW133746   1.742   0.884   7.629  1.8128 -2.4367  0.0276
 7371SOL    HW233747   1.883   0.924   7.638  1.1996 -0.1285  2.4988
 7372SOL     OW33748   1.508   2.603   8.600 -0.3999 -0.2696 -0.3249
 7372SOL    HW133749   1.475   2.582   8.513  1.0510 -0.3043 -0.8660
 7372SOL    HW233750   1.603   2.600   8.591 -0.5130 -0.1659 -1.6090
 7373SOL     OW33751   2.891   1.792   4.752  0.0743  0.2948  0.3209
 7373SOL    HW133752   2.867   1.700   4.767  1.2372  0.1016  0.9878
 7373SOL    HW233753   2.970   1.780   4.700  0.3643 -1.3332  1.1283
 7374SOL     OW33754   4.583   0.448   3.385  0.7724 -0.1731 -0.0525
 7374SOL    HW133755   4.622   0.467   3.300 -0.9349  0.9278 -0.5852
 7374SOL    HW233756   4.660   0.450   3.443  1.3384  0.6616 -0.8371
 7375SOL     OW33757   1.291   4.044   3.925  0.4985  0.4260  0.0650
 7375SOL    HW133758   1.362   4.023   3.863 -0.3511  1.8406 -1.3866
 7375SOL    HW233759   1.284   4.134   3.894  2.2896  0.4616 -0.2428
 7376SOL     OW33760   2.681   1.510   8.597 -0.4550  0.0726 -0.4033
 7376SOL    HW133761   2.729   1.467   8.668  1.6482  0.5905 -1.5084
 7376SOL    HW233762   2.705   1.451   8.525 -0.2724 -0.0522 -0.2399
 7377SOL     OW33763   2.346   0.188  15.170 -0.2456  0.1556  0.3037
 7377SOL    HW133764   2.293   0.200  15.091  1.4110  1.4420 -0.6224
 7377SOL    HW233765   2.420   0.247  15.156 -0.9537  0.6440 -1.4747
 7378SOL     OW33766   0.529   1.832  11.616  0.2202  0.3735  0.4428
 7378SOL    HW133767   0.569   1.877  11.541 -1.0290  0.5576 -0.1180
 7378SOL    HW233768   0.475   1.899  11.659  1.4588  0.3245  2.0864
 7379SOL     OW33769   1.470   2.583   4.090 -0.2105  0.3950 -0.5041
 7379SOL    HW133770   1.479   2.533   4.009 -1.5551 -0.8450  0.1208
 7379SOL    HW233771   1.391   2.535   4.114 -0.0232  0.7220  0.8015
 7380SOL     OW33772   0.061   2.383   4.263  0.2576 -0.1184 -0.2267
 7380SOL    HW133773   0.089   2.458   4.315 -0.4859 -0.2913  0.4359
 7380SOL    HW233774   0.059   2.423   4.176  0.7245 -0.8970 -0.5937
 7381SOL     OW33775   4.300   2.683  14.412 -0.1977 -0.1383 -0.1267
 7381SOL    HW133776   4.239   2.671  14.485  0.1740 -0.3031  0.1500
 7381SOL    HW233777   4.246   2.700  14.334 -0.7936  0.6754  0.4697
 7382SOL     OW33778   1.564   3.151   3.322  0.4976 -0.4287 -0.5558
 7382SOL    HW133779   1.566   3.242   3.295  1.0259 -0.8045 -1.7615
 7382SOL    HW233780   1.477   3.142   3.362  1.1515 -0.5937  0.8608
 7383SOL     OW33781   4.555   3.834   4.565  0.2203  0.0998 -0.4488
 7383SOL    HW133782   4.554   3.834   4.661 -1.2087  0.3303 -0.4548
 7383SOL    HW233783   4.477   3.887   4.548  1.4154  1.4541 -1.6343
 7384SOL     OW33784   4.195   2.953   2.374 -0.0504  0.6718 -0.2154
 7384SOL    HW133785   4.217   2.886   2.440 -2.0135  0.0719 -0.1734
 7384SOL    HW233786   4.226   2.902   2.299 -0.2433 -0.7980  0.6976
 7385SOL     OW33787   4.474   4.501  13.036 -0.5489 -0.1954  0.2467
 7385SOL    HW133788   4.433   4.587  13.030  0.8222  0.4251 -0.3992
 7385SOL    HW233789   4.417   4.441  12.988  0.5025 -0.7287 -0.3455
 7386SOL     OW33790   3.723   3.705   7.631  0.2053 -0.3008  0.3288
 7386SOL    HW133791   3.652   3.655   7.669 -2.1076  1.1581 -2.0857
 7386SOL    HW233792   3.799   3.647   7.634 -0.6937 -1.4734 -0.0719
 7387SOL     OW33793   4.378   0.280   6.140  0.2413 -0.2210  0.2080
 7387SOL    HW133794   4.400   0.286   6.233 -1.1087 -1.3628  0.6070
 7387SOL    HW233795   4.292   0.321   6.137 -0.1137 -0.8499  1.9345
 7388SOL     OW33796   1.605   4.027   9.178  0.2305  0.0444  0.1163
 7388SOL    HW133797   1.543   4.054   9.246  1.2993 -0.7286  1.4148
 7388SOL    HW233798   1.682   4.013   9.234  2.0982 -0.5920 -2.5721
 7389SOL     OW33799   4.454   1.051   6.476 -0.3985  0.3598  0.4573
 7389SOL    HW133800   4.479   0.960   6.457 -2.2110  0.2483 -1.2671
 7389SOL    HW233801   4.530   1.099   6.443 -0.2457  1.3576  2.2713
 7390SOL     OW33802   4.517   0.392   3.853 -0.5216 -0.1082 -0.0103
 7390SOL    HW133803   4.454   0.448   3.807 -0.4256 -0.4338 -0.5472
 7390SOL    HW233804   4.589   0.379   3.791  1.2780  1.1749  1.8317
 7391SOL     OW33805   1.558   1.531  17.507 -0.1972 -0.0993 -0.0697
 7391SOL    HW133806   1.494   1.485  17.562 -0.1578 -1.8507 -1.5169
 7391SOL    HW233807   1.556   1.618  17.547  0.4592 -0.3710  0.5475
 7392SOL     OW33808   2.052   3.774   4.726  0.5469  0.1779  0.3538
 7392SOL    HW133809   2.083   3.766   4.636  0.9748 -0.6918  0.5784
 7392SOL    HW233810   2.136   3.792   4.769 -0.4622  2.1152  1.5438
 7393SOL     OW33811   1.791   1.435  17.053  0.6966  0.4600  0.1360
 7393SOL    HW133812   1.848   1.432  17.129 -0.5892 -0.8820  1.0525
 7393SOL    HW233813   1.848   1.404  16.982  0.7018  0.0977  0.3002
 7394SOL     OW33814   2.386   3.365   4.543  0.8223  0.0377  0.0626
 7394SOL    HW133815   2.391   3.460   4.535 -1.0683  0.2022  1.0025
 7394SOL    HW233816   2.406   3.355   4.636 -0.7369  2.2372  0.6169
 7395SOL     OW33817   0.749   2.595   1.925 -0.3046  0.7996  0.0139
 7395SOL    HW133818   0.753   2.658   1.853  1.3475  1.0509  0.3290
 7395SOL    HW233819   0.838   2.565   1.943  0.0635  1.5412 -0.5730
 7396SOL     OW33820   3.303   3.025   6.398 -0.1556  0.3947  0.4873
 7396SOL    HW133821   3.222   2.973   6.397 -0.3794  0.7467  0.2574
 7396SOL    HW233822   3.281   3.082   6.324 -0.2025 -0.0322  0.1697
 7397SOL     OW33823   3.252   2.951  17.741 -0.1323 -0.6722 -0.3610
 7397SOL    HW133824   3.318   2.905   0.046  0.5231 -1.7855 -2.1265
 7397SOL    HW233825   3.235   3.031   0.042  1.9231 -0.2114 -0.3896
 7398SOL     OW33826   2.871   4.325   8.983 -0.5719  0.4681  0.0375
 7398SOL    HW133827   2.960   4.295   9.003 -0.1498  2.0279  0.5343
 7398SOL    HW233828   2.873   4.304   8.890 -2.1056 -1.1893  0.3834
 7399SOL     OW33829   3.585   1.872  15.006 -0.5610  0.4444 -0.5153
 7399SOL    HW133830   3.632   1.951  15.031  1.6792 -0.2638 -2.5068
 7399SOL    HW233831   3.634   1.836  14.932 -1.0640 -0.9862 -0.1569
 7400SOL     OW33832   0.939   2.797   6.627  0.4000 -0.6670 -0.0352
 7400SOL    HW133833   1.021   2.838   6.655 -0.0956 -0.3226  0.9363
 7400SOL    HW233834   0.900   2.856   6.563 -2.1803  0.4585  2.5306
 7401SOL     OW33835   1.127   1.548   6.679 -0.0678  0.3912  0.8248
 7401SOL    HW133836   1.175   1.576   6.601  0.8909 -2.8831  0.2271
 7401SOL    HW233837   1.089   1.629   6.714  0.5705  0.9554  0.2240
 7402SOL     OW33838   2.010   1.231   7.031  0.1286 -0.1337 -0.1697
 7402SOL    HW133839   2.015   1.162   7.097 -2.3038 -0.4865 -0.3392
 7402SOL    HW233840   1.933   1.196   6.986 -0.6960 -0.8996  1.8510
 7403SOL     OW33841   2.132   0.057   0.773 -0.3256  0.2232  0.0841
 7403SOL    HW133842   2.064   0.037   0.708  0.1902 -1.8797  0.1962
 7403SOL    HW233843   2.215   0.067   0.727  0.1024  0.2809  0.8728
 7404SOL     OW33844   3.966   2.832  11.680 -0.0844 -0.3870  0.1006
 7404SOL    HW133845   4.055   2.807  11.653 -1.2880 -0.8580 -3.3791
 7404SOL    HW233846   3.948   2.767  11.748  2.1750 -2.8807 -1.6889
 7405SOL     OW33847   2.836   3.234  12.459  0.0586  0.3886 -0.3399
 7405SOL    HW133848   2.844   3.164  12.523 -0.1934  0.1701 -0.5455
 7405SOL    HW233849   2.867   3.190  12.380 -2.3216 -1.9154  0.0198
 7406SOL     OW33850   3.102   2.060   6.430 -0.0717 -0.0902 -0.6490
 7406SOL    HW133851   3.070   2.001   6.361  2.0405 -0.9143 -0.9362
 7406SOL    HW233852   3.041   2.025   6.495  1.4911  1.6928  1.7598
 7407SOL     OW33853   3.507   0.750  11.503 -0.3606  0.7012  0.1677
 7407SOL    HW133854   3.601   0.764  11.500 -0.2772 -0.1164 -0.8467
 7407SOL    HW233855   3.492   0.657  11.487  1.0130  0.6211 -0.5732
 7408SOL     OW33856   0.048   2.793   5.297 -0.1651  0.8644 -0.2451
 7408SOL    HW133857   4.707   2.834   5.334  0.9091  1.3673  1.4702
 7408SOL    HW233858   0.020   2.702   5.287 -0.0435  0.6922  0.9604
 7409SOL     OW33859   0.748   0.796  14.583 -0.0890 -0.0394  0.3967
 7409SOL    HW133860   0.805   0.728  14.547 -0.3803  2.0096 -3.8717
 7409SOL    HW233861   0.683   0.818  14.517  2.3021 -0.8447 -2.2254
 7410SOL     OW33862   3.909   1.014   0.785 -0.5593  0.2470 -0.6644
 7410SOL    HW133863   3.838   0.964   0.744 -1.0398 -0.2295  0.7521
 7410SOL    HW233864   3.984   0.984   0.734  1.1298  1.6753  0.9787
 7411SOL     OW33865   0.775   3.994   4.859  0.8132  0.2590  0.1035
 7411SOL    HW133866   0.735   3.931   4.918  0.6734  0.6882  0.4697
 7411SOL    HW233867   0.706   4.008   4.794  0.8894 -0.7547 -0.1864
 7412SOL     OW33868   3.753   3.108   1.861  0.3437  0.0716  0.3580
 7412SOL    HW133869   3.708   3.074   1.938 -2.4628  0.7293 -1.0045
 7412SOL    HW233870   3.697   3.173   1.819 -0.6205 -0.9807  0.0131
 7413SOL     OW33871   3.649   0.895  10.883  0.0794  0.0920 -0.3132
 7413SOL    HW133872   3.718   0.900  10.948 -2.2813 -1.6940  2.3140
 7413SOL    HW233873   3.660   0.980  10.839 -0.1538  0.5778  0.5607
 7414SOL     OW33874   2.273   3.342  10.027  0.1093  0.2952  0.7894
 7414SOL    HW133875   2.208   3.335   9.957  0.9736  0.5582 -0.0362
 7414SOL    HW233876   2.249   3.424  10.070  1.4733 -0.0420  2.1953
 7415SOL     OW33877   1.950   2.303   5.967 -0.1885  0.9019 -0.0631
 7415SOL    HW133878   2.040   2.271   5.975 -1.0292 -0.8977  2.1950
 7415SOL    HW233879   1.929   2.321   6.059  0.7996 -1.8443  0.7080
 7416SOL     OW33880   4.530   2.322   5.063 -0.1399 -0.6240 -0.4618
 7416SOL    HW133881   4.439   2.324   5.090 -0.2190 -3.2844 -0.5499
 7416SOL    HW233882   4.571   2.396   5.109 -0.7999  0.0430 -0.9424
 7417SOL     OW33883   2.394   0.045   9.743  0.0319 -0.1048  0.4436
 7417SOL    HW133884   2.423   0.132   9.716  0.3404 -0.7147 -1.1698
 7417SOL    HW233885   2.420   0.054   9.835 -0.6165  1.3951  0.4907
 7418SOL     OW33886   3.484   2.606  15.334 -0.0424  0.6043 -0.3102
 7418SOL    HW133887   3.553   2.541  15.319  0.9446  2.0548 -1.9518
 7418SOL    HW233888   3.444   2.614  15.248 -3.0990 -0.9584  0.9660
 7419SOL     OW33889   1.201   1.191  11.351 -0.3424 -0.4805 -0.2768
 7419SOL    HW133890   1.110   1.219  11.337 -0.1103 -0.2743 -1.4211
 7419SOL    HW233891   1.240   1.215  11.267  0.7420  0.0159  0.3623
 7420SOL     OW33892   3.524   2.378  13.785 -0.6516  0.3652  0.0348
 7420SOL    HW133893   3.459   2.308  13.782 -3.1921  2.7011  1.1020
 7420SOL    HW233894   3.537   2.385  13.691  1.0207  0.2623  0.2531
 7421SOL     OW33895   1.504   3.759   5.398 -0.1546  0.0723 -0.4175
 7421SOL    HW133896   1.575   3.805   5.354  1.8755 -2.2492  0.4902
 7421SOL    HW233897   1.442   3.764   5.325  0.0839  0.0812 -0.6181
 7422SOL     OW33898   0.352   4.514  13.164 -0.2885  0.5713 -0.3126
 7422SOL    HW133899   0.352   4.598  13.117  1.7942  1.0283  0.5142
 7422SOL    HW233900   0.341   4.543  13.255  0.7322 -2.5019  0.7843
 7423SOL     OW33901   4.683   1.540   5.563  0.3863 -0.0775 -0.1180
 7423SOL    HW133902   4.674   1.528   5.657 -1.8953 -3.4038 -0.7641
 7423SOL    HW233903   0.038   1.566   5.559  0.5667 -0.5451  0.9415
 7424SOL     OW33904   2.684   1.622   2.323  0.1505  0.3012  0.1561
 7424SOL    HW133905   2.665   1.574   2.242 -3.0332  1.3099  0.2992
 7424SOL    HW233906   2.754   1.681   2.294  2.6577 -3.2244 -1.0940
 7425SOL     OW33907   0.031   0.131   5.492 -0.1690  0.4609  0.2515
 7425SOL    HW133908   0.085   0.114   5.415  0.4671  2.4571  0.2611
 7425SOL    HW233909   0.057   0.223   5.500 -0.9893  0.5974  1.1996
 7426SOL     OW33910   1.963   0.294   8.999 -0.5302 -0.0105  0.5208
 7426SOL    HW133911   2.058   0.289   9.007 -0.3326  0.6360 -1.2866
 7426SOL    HW233912   1.940   0.241   8.923 -0.8941 -0.4013  0.9031
 7427SOL     OW33913   0.789   1.734   3.619  0.1416  0.1991  0.3057
 7427SOL    HW133914   0.876   1.744   3.656  0.4389  0.8759 -0.6010
 7427SOL    HW233915   0.743   1.754   3.701 -1.9231 -0.1574 -0.7695
 7428SOL     OW33916   3.894   0.447   5.640  0.1914 -0.3951  0.3401
 7428SOL    HW133917   3.815   0.424   5.688  1.0791 -2.1149  0.9609
 7428SOL    HW233918   3.952   0.421   5.711 -1.1834 -2.8317  0.5906
 7429SOL     OW33919   2.811   2.280   4.131 -0.0692  0.4994  0.0572
 7429SOL    HW133920   2.792   2.243   4.218  0.3132  1.2044  0.4428
 7429SOL    HW233921   2.876   2.214   4.108 -1.0173 -0.4967  0.2120
 7430SOL     OW33922   2.689   1.000   3.743 -0.2071  0.1000 -0.0992
 7430SOL    HW133923   2.742   1.079   3.751  0.3130 -0.1006 -1.7303
 7430SOL    HW233924   2.624   1.027   3.678  1.0682 -2.2380 -2.3560
 7431SOL     OW33925   1.897   4.301   3.911 -0.4040  0.3004 -0.1772
 7431SOL    HW133926   1.863   4.227   3.962 -2.0082  0.1211 -1.5315
 7431SOL    HW233927   1.971   4.253   3.872 -1.1468 -1.1380  0.1737
 7432SOL     OW33928   4.129   2.867   3.327  0.6393 -0.1580 -0.7104
 7432SOL    HW133929   4.138   2.959   3.351  1.3814 -0.2675 -0.5725
 7432SOL    HW233930   4.155   2.876   3.235 -0.2456 -1.5805 -1.1064
 7433SOL     OW33931   1.981   3.185   2.442  0.5985 -0.2767 -0.0261
 7433SOL    HW133932   1.909   3.170   2.503  1.0283  0.8573  0.7641
 7433SOL    HW233933   1.971   3.104   2.393  0.2504 -1.4521  1.9856
 7434SOL     OW33934   4.268   2.310   3.477  0.1454  0.1696  0.1487
 7434SOL    HW133935   4.199   2.261   3.433 -2.5852  2.6312  1.6708
 7434SOL    HW233936   4.323   2.232   3.481  0.9078  0.6915 -0.1777
 7435SOL     OW33937   1.201   2.610   7.133 -0.2976  0.0127 -0.1394
 7435SOL    HW133938   1.238   2.667   7.065  0.9398 -0.5166  0.0938
 7435SOL    HW233939   1.281   2.568   7.164 -0.6156 -0.3511  0.1916
 7436SOL     OW33940   1.094   4.688   2.657 -0.1396  0.1483  0.3684
 7436SOL    HW133941   1.056   4.600   2.649  0.4426 -0.1756  1.1244
 7436SOL    HW233942   1.060   4.720   2.741 -2.7607  0.1134 -0.6637
 7437SOL     OW33943   1.779   1.098  17.663 -0.5148 -0.5843  0.3355
 7437SOL    HW133944   1.758   1.123  17.573  0.3084  1.6596  0.7838
 7437SOL    HW233945   1.845   1.031  17.647 -0.9189 -1.1546  1.0505
 7438SOL     OW33946   1.312   4.488   5.623  0.2304 -0.1295  0.0154
 7438SOL    HW133947   1.330   4.397   5.649 -2.6361 -0.5594  0.6025
 7438SOL    HW233948   1.314   4.536   5.706  3.0521 -1.9159  0.9893
 7439SOL     OW33949   3.921   4.570   6.331 -0.0459 -0.0401  0.4600
 7439SOL    HW133950   3.883   4.485   6.311 -1.7756  0.6848  0.6326
 7439SOL    HW233951   3.886   4.629   6.263 -1.7458 -0.2305  1.1744
 7440SOL     OW33952   0.556   2.973  16.922  0.0812  0.4615  0.0227
 7440SOL    HW133953   0.578   2.929  17.004 -2.1789  0.9160  0.8631
 7440SOL    HW233954   0.513   2.905  16.870 -1.8276  1.4048  0.3494
 7441SOL     OW33955   3.618   2.448   9.808  0.0280 -0.0248 -0.1416
 7441SOL    HW133956   3.581   2.533   9.785 -2.0763 -1.0376 -0.5077
 7441SOL    HW233957   3.585   2.397   9.733  1.5359 -0.2646 -0.6285
 7442SOL     OW33958   1.798   2.918   4.833  0.0306 -0.0553 -0.4343
 7442SOL    HW133959   1.802   3.013   4.844  1.3910 -0.1109 -0.4507
 7442SOL    HW233960   1.744   2.910   4.754 -0.8497 -1.1888  0.2863
 7443SOL     OW33961   2.096   0.838   3.466 -0.8063 -0.4118 -0.0515
 7443SOL    HW133962   2.070   0.916   3.516  1.1878  0.6828 -0.7416
 7443SOL    HW233963   2.086   0.872   3.377 -1.1105 -0.4694 -0.0410
 7444SOL     OW33964   2.433   3.708   9.134 -0.4781  0.1434  0.4900
 7444SOL    HW133965   2.353   3.681   9.089  1.8930 -1.1679 -2.8864
 7444SOL    HW233966   2.489   3.693   9.058 -0.0262 -0.7915  1.0005
 7445SOL     OW33967   2.974   0.088  16.911 -0.3443 -0.2660 -0.0292
 7445SOL    HW133968   2.921   0.116  16.986  1.6453 -0.0588  1.3024
 7445SOL    HW233969   3.057   0.131  16.931  0.3392 -0.8209 -1.6976
 7446SOL     OW33970   0.441   2.298   8.256 -0.3217 -0.0127 -0.2344
 7446SOL    HW133971   0.514   2.261   8.207  0.9536  1.3065  0.6743
 7446SOL    HW233972   0.452   2.244   8.334 -1.3401 -0.2253 -0.2376
 7447SOL     OW33973   2.617   0.789   2.865  0.3515 -0.0817  0.0570
 7447SOL    HW133974   2.706   0.788   2.829  0.3054  1.5594 -0.0940
 7447SOL    HW233975   2.580   0.874   2.841 -1.3793 -0.6539  0.7234
 7448SOL     OW33976   3.916   1.261  17.003  0.4192 -0.2100  0.5217
 7448SOL    HW133977   3.896   1.349  16.972  1.8239 -0.1167 -0.1276
 7448SOL    HW233978   3.980   1.277  17.073  1.5904  0.8683 -0.7954
 7449SOL     OW33979   0.528   2.440  13.506  0.0538  0.1046  0.7102
 7449SOL    HW133980   0.488   2.494  13.574 -0.5618  0.4650  0.0613
 7449SOL    HW233981   0.465   2.452  13.435 -2.4408 -0.6377  2.7670
 7450SOL     OW33982   4.566   0.617  14.032  0.0983 -0.0330 -0.0288
 7450SOL    HW133983   4.562   0.662  13.948  3.2121 -2.0050 -1.2586
 7450SOL    HW233984   4.494   0.554  14.028 -1.5727  2.0254 -2.3101
 7451SOL     OW33985   4.633   0.528   7.555  0.7513 -0.2902  0.1867
 7451SOL    HW133986   4.682   0.608   7.534 -0.9591  0.8261  0.4833
 7451SOL    HW233987   4.566   0.572   7.607  0.8214 -0.5829  0.5302
 7452SOL     OW33988   2.225   0.481  15.634  0.1599  0.4542 -0.2677
 7452SOL    HW133989   2.217   0.534  15.554  1.0827  1.5518  0.3549
 7452SOL    HW233990   2.298   0.422  15.614 -0.7376 -0.8823  0.4084
 7453SOL     OW33991   2.466   1.808   4.910 -0.1281  0.2569  0.3668
 7453SOL    HW133992   2.437   1.893   4.876  1.9505  1.4812  1.5852
 7453SOL    HW233993   2.402   1.743   4.883  0.1201  0.6897 -1.2772
 7454SOL     OW33994   1.012   4.465  16.074 -0.4313 -0.2413  0.6523
 7454SOL    HW133995   1.070   4.541  16.061 -0.2178 -0.4263  0.5128
 7454SOL    HW233996   0.928   4.510  16.084  0.9747  3.1060 -2.3846
 7455SOL     OW33997   4.155   1.584  17.041 -0.0293  0.1027 -0.3692
 7455SOL    HW133998   4.242   1.548  17.054 -2.1678 -3.7062  3.3802
 7455SOL    HW233999   4.176   1.646  16.971  1.3533 -1.5898 -1.4396
 7456SOL     OW34000   4.308   2.871   1.548 -0.2461 -0.4564  0.3078
 7456SOL    HW134001   4.330   2.857   1.640 -2.9121 -2.2429  0.6924
 7456SOL    HW234002   4.393   2.845   1.514 -0.6733 -2.2351  0.5947
 7457SOL     OW34003   2.344   0.989   9.096  0.4114  0.1466 -0.1047
 7457SOL    HW134004   2.413   0.948   9.148  0.2944  1.1136  0.8233
 7457SOL    HW234005   2.289   0.913   9.077 -1.2318  1.1924  0.3999
 7458SOL     OW34006   4.571   1.346   2.470  0.2389 -0.0699 -0.2089
 7458SOL    HW134007   4.608   1.258   2.472 -0.0171 -0.2260 -2.5916
 7458SOL    HW234008   4.608   1.383   2.390  1.3583 -0.3983  0.1546
 7459SOL     OW34009   0.089   2.040   9.046  0.0793 -0.6190  0.3657
 7459SOL    HW134010   0.156   1.995   8.994  0.8915  0.8806  0.1140
 7459SOL    HW234011   0.032   2.052   8.971  0.9799  0.6932 -0.1049
 7460SOL     OW34012   0.542   0.962   8.075 -0.1690 -0.6430  0.2819
 7460SOL    HW134013   0.530   1.049   8.038  0.3103  0.1638  2.0218
 7460SOL    HW234014   0.461   0.941   8.121 -0.6029 -0.8505 -0.5863
 7461SOL     OW34015   3.635   0.044   8.156 -0.3677 -0.6268 -0.7497
 7461SOL    HW134016   3.545   0.073   8.140 -0.5441 -1.3717 -1.1100
 7461SOL    HW234017   3.677   0.055   8.071  1.0032 -1.6875 -0.2158
 7462SOL     OW34018   0.110   0.050   4.801  0.1808 -0.0824  0.2219
 7462SOL    HW134019   0.067   4.702   4.797  1.4056 -0.7538  1.0508
 7462SOL    HW234020   0.178   0.034   4.735 -0.1098  1.1361 -0.3651
 7463SOL     OW34021   1.887   3.628   2.371  0.2942 -0.0739  0.4669
 7463SOL    HW134022   1.856   3.679   2.446  0.2560  1.0144 -0.2951
 7463SOL    HW234023   1.863   3.540   2.402  0.7587 -0.6324 -0.7525
 7464SOL     OW34024   3.958   3.341   3.470  0.9634 -0.2686 -0.0976
 7464SOL    HW134025   4.038   3.294   3.448  1.3374  0.6364 -0.7183
 7464SOL    HW234026   3.903   3.265   3.457 -0.0008  0.4243 -0.0512
 7465SOL     OW34027   1.831   0.912   5.008  0.0259 -0.2094 -0.3758
 7465SOL    HW134028   1.871   0.833   5.046  0.0403  0.7757  1.6919
 7465SOL    HW234029   1.890   0.942   4.938  0.0971 -0.8737 -0.5991
 7466SOL     OW34030   1.090   3.953   3.736 -0.1348  0.3343 -0.2246
 7466SOL    HW134031   1.158   3.982   3.797  0.0509  0.2816 -0.4118
 7466SOL    HW234032   1.020   4.017   3.753  0.7634  1.2543 -0.0302
 7467SOL     OW34033   0.532   2.941  13.198 -0.1996  0.4142  0.0631
 7467SOL    HW134034   0.462   3.005  13.194  0.6021  1.2261 -1.0601
 7467SOL    HW234035   0.551   2.966  13.289 -1.5139  0.2832  0.3649
 7468SOL     OW34036   3.895   3.453   7.813  0.0890 -0.1039 -0.2072
 7468SOL    HW134037   3.806   3.426   7.791  0.3517 -1.5705  0.5510
 7468SOL    HW234038   3.880   3.490   7.900  3.8960  1.0627 -0.0654
 7469SOL     OW34039   4.260   1.722   1.615 -0.2185 -0.0153  0.8429
 7469SOL    HW134040   4.278   1.789   1.549 -0.6790  0.4209  1.1505
 7469SOL    HW234041   4.174   1.690   1.587 -0.2738  0.9386 -0.1105
 7470SOL     OW34042   2.142   0.403   5.437  0.0202  0.0225  0.2479
 7470SOL    HW134043   2.048   0.402   5.457  0.1718  0.8866  1.0216
 7470SOL    HW234044   2.161   0.495   5.422 -1.1677  0.6820  2.8199
 7471SOL     OW34045   1.044   3.482   1.847 -0.3132 -0.2270 -0.3312
 7471SOL    HW134046   1.013   3.508   1.760 -0.6121  0.0089 -0.1553
 7471SOL    HW234047   1.074   3.394   1.828  0.9296  0.3231 -0.8978
 7472SOL     OW34048   0.659   3.004   8.598  0.0567 -0.0319  0.0245
 7472SOL    HW134049   0.706   3.072   8.550  0.7867  0.4685  1.4556
 7472SOL    HW234050   0.613   3.059   8.661  1.5317  0.7899  0.3824
 7473SOL     OW34051   4.117   4.127   5.599  0.5629 -0.1459 -0.1081
 7473SOL    HW134052   4.149   4.146   5.511  0.3601  0.6274 -0.0134
 7473SOL    HW234053   4.109   4.032   5.586 -2.7934  0.1040 -0.0778
 7474SOL     OW34054   0.005   1.576  15.551 -0.4490 -0.0071  0.1639
 7474SOL    HW134055   0.057   1.629  15.612 -0.5757  1.0089 -0.6072
 7474SOL    HW234056   0.063   1.563  15.475 -1.6304 -1.4957 -0.4688
 7475SOL     OW34057   3.993   3.642  10.622  0.2073 -0.2547  0.6571
 7475SOL    HW134058   4.025   3.577  10.685 -1.0500  0.2804  1.8451
 7475SOL    HW234059   3.944   3.702  10.678 -0.6469 -0.1829 -0.1805
 7476SOL     OW34060   2.564   1.282   6.314 -0.4309 -0.3542  0.5759
 7476SOL    HW134061   2.556   1.276   6.219 -1.5992  2.8873  0.4588
 7476SOL    HW234062   2.548   1.190   6.334  0.7054 -0.0384  2.9484
 7477SOL     OW34063   4.423   4.613   1.234  0.6913 -0.6459 -0.1844
 7477SOL    HW134064   4.350   4.552   1.236  0.0667  0.1086  0.0407
 7477SOL    HW234065   4.483   4.556   1.282  0.8810 -1.3879 -1.2826
 7478SOL     OW34066   2.224   0.842  16.470 -0.5134 -0.1751 -0.8966
 7478SOL    HW134067   2.243   0.808  16.557  0.6818 -0.8710 -1.4412
 7478SOL    HW234068   2.170   0.917  16.498 -2.8224 -1.1791 -2.6231
 7479SOL     OW34069   2.689   4.644   9.721  0.1050  0.0286 -0.1707
 7479SOL    HW134070   2.677   4.582   9.793 -0.6421 -0.2373 -0.5198
 7479SOL    HW234071   2.622   4.613   9.660 -0.1959  1.7036 -0.6768
 7480SOL     OW34072   0.606   0.103  14.610  0.3624 -0.2082 -0.1396
 7480SOL    HW134073   0.545   0.044  14.566  0.6105  0.8737 -1.9834
 7480SOL    HW234074   0.630   0.063  14.693  0.6190  0.3108  0.0400
 7481SOL     OW34075   3.072   0.312   6.520 -0.5595 -0.0821 -0.3383
 7481SOL    HW134076   3.015   0.311   6.598  1.3363  3.3998  1.0687
 7481SOL    HW234077   3.016   0.347   6.451 -1.5566  0.3141  0.6530
 7482SOL     OW34078   4.488   2.775   3.955 -0.0312 -0.1175 -0.1955
 7482SOL    HW134079   4.445   2.689   3.949 -0.4231  0.1416 -1.0691
 7482SOL    HW234080   4.516   2.759   4.046  1.0727  1.0717 -0.3338
 7483SOL     OW34081   3.325   4.501   5.072  0.0477  0.2576  0.1577
 7483SOL    HW134082   3.420   4.504   5.077  0.1417 -0.5190 -1.1507
 7483SOL    HW234083   3.299   4.501   4.980  0.7638  0.4720 -0.0425
 7484SOL     OW34084   3.382   1.961   1.407  0.1186  0.4525 -0.2277
 7484SOL    HW134085   3.410   1.973   1.316 -1.3513  0.6367 -0.6594
 7484SOL    HW234086   3.465   1.960   1.456  0.8826 -1.3216 -1.5727
 7485SOL     OW34087   0.584   0.899   9.372 -0.0215  0.1815  0.0057
 7485SOL    HW134088   0.560   0.940   9.454  0.7104 -0.4161  0.5228
 7485SOL    HW234089   0.604   0.812   9.407 -2.9332 -0.2424  0.6227
 7486SOL     OW34090   3.113   2.869   7.352  0.3873 -0.3975  0.5269
 7486SOL    HW134091   3.117   2.791   7.407 -1.3833  0.2293  1.5713
 7486SOL    HW234092   3.167   2.843   7.278  1.0096 -0.1099  0.8747
 7487SOL     OW34093   2.563   3.802  15.828  0.0634  0.5998  0.3682
 7487SOL    HW134094   2.492   3.795  15.892  0.8872 -0.4357  1.1749
 7487SOL    HW234095   2.522   3.759  15.753 -1.9138  1.8574  0.7171
 7488SOL     OW34096   1.224   1.859   0.868  0.5497  0.2949 -0.6958
 7488SOL    HW134097   1.309   1.828   0.837 -0.4273 -1.2962 -1.7958
 7488SOL    HW234098   1.165   1.809   0.812  0.0543  0.8461 -0.6617
 7489SOL     OW34099   4.722   2.431  12.345 -0.0644 -0.3422 -0.6706
 7489SOL    HW134100   0.021   2.404  12.429 -1.8508  1.4544  0.6999
 7489SOL    HW234101   4.653   2.365  12.334  0.9098 -1.5658  0.7702
 7490SOL     OW34102   2.137   3.100   7.962 -0.2056 -0.2452 -0.2019
 7490SOL    HW134103   2.145   3.008   7.937 -1.4470 -0.2355 -0.6498
 7490SOL    HW234104   2.089   3.130   7.885  0.1117  0.2197 -0.2186
 7491SOL     OW34105   1.893   2.097  12.364 -0.0924  0.0136  0.2537
 7491SOL    HW134106   1.811   2.047  12.360 -0.0226 -0.0540 -0.3369
 7491SOL    HW234107   1.933   2.036  12.427  1.2985  1.1594  0.4818
 7492SOL     OW34108   4.555   0.460  11.706  0.1418 -0.0203 -0.4330
 7492SOL    HW134109   4.536   0.512  11.628  0.2345 -1.0464 -1.1587
 7492SOL    HW234110   4.469   0.456  11.748  0.5584 -3.0692  0.1929
 7493SOL     OW34111   1.310   0.688  12.566  0.2830  0.0815  0.4483
 7493SOL    HW134112   1.282   0.759  12.624  1.8834  0.1859  1.0877
 7493SOL    HW234113   1.400   0.672  12.594  0.1092 -2.8884 -0.6314
 7494SOL     OW34114   0.167   1.596   9.717  0.1855 -0.1489  0.2468
 7494SOL    HW134115   0.172   1.518   9.773  0.1936 -0.9255 -0.8289
 7494SOL    HW234116   0.226   1.657   9.760 -2.4203  1.4670  1.5036
 7495SOL     OW34117   3.107   3.516   7.154  0.4176  0.1144 -0.8511
 7495SOL    HW134118   3.111   3.580   7.225 -1.3220 -0.8476  0.1151
 7495SOL    HW234119   3.056   3.450   7.201 -2.0190  0.6095 -2.7826
 7496SOL     OW34120   3.498   1.559   4.301  0.4417  0.4203  0.1595
 7496SOL    HW134121   3.436   1.609   4.247  0.1635 -0.3980 -0.2711
 7496SOL    HW234122   3.459   1.582   4.385  1.0432  0.8963  0.3116
 7497SOL     OW34123   1.842   0.577   3.748 -0.0378  0.4936  0.4330
 7497SOL    HW134124   1.902   0.509   3.780 -1.0363  0.0251  1.3012
 7497SOL    HW234125   1.760   0.553   3.791 -0.2826 -0.2485 -0.4488
 7498SOL     OW34126   2.576   3.108   1.842 -0.3825 -0.1947 -0.1831
 7498SOL    HW134127   2.539   3.116   1.930 -0.4095 -0.2154 -0.1924
 7498SOL    HW234128   2.614   3.020   1.848  2.1069  0.7241 -2.3895
 7499SOL     OW34129   2.228   0.081  10.160  0.5659 -0.2395  0.1323
 7499SOL    HW134130   2.218   0.174  10.179 -0.1905  0.0972 -1.9160
 7499SOL    HW234131   2.267   0.058  10.245  0.2879  2.4804  1.0066
 7500SOL     OW34132   4.333   2.954   6.856 -0.4626  0.3588  0.4760
 7500SOL    HW134133   4.310   2.982   6.768  2.0032  1.7132  0.2520
 7500SOL    HW234134   4.336   3.043   6.893  1.9442  0.4874 -0.0029
 7501SOL     OW34135   2.496   4.500   4.648 -0.6907  0.2976 -0.9484
 7501SOL    HW134136   2.510   4.500   4.743 -2.2463  0.3621 -0.7295
 7501SOL    HW234137   2.416   4.449   4.640 -1.3146  0.7204  2.7016
 7502SOL     OW34138   2.727   0.019  17.631  0.0137  0.2236 -0.4602
 7502SOL    HW134139   2.662   0.085  17.606  0.6015  1.4015  1.1255
 7502SOL    HW234140   2.671   4.690  17.670  0.9654 -0.8347 -0.9170
 7503SOL     OW34141   2.771   0.069   3.712  0.5139 -0.0900  0.4827
 7503SOL    HW134142   2.823   0.119   3.649  1.5419  1.2179  2.3715
 7503SOL    HW234143   2.736   4.735   3.658 -1.2389  0.5157  0.8256
 7504SOL     OW34144   2.367   4.338   6.059 -0.0419 -0.4106 -0.3836
 7504SOL    HW134145   2.289   4.292   6.029 -1.6034  2.1704 -0.2731
 7504SOL    HW234146   2.386   4.277   6.131  0.9702  2.1646  1.5499
 7505SOL     OW34147   3.689   3.722   6.201  0.2153 -0.2524  0.2958
 7505SOL    HW134148   3.629   3.773   6.147  1.8710 -0.1822 -1.4947
 7505SOL    HW234149   3.758   3.781   6.231  0.7612 -0.4857 -0.5095
 7506SOL     OW34150   4.419   0.528   3.068  0.3366  0.0288  0.3763
 7506SOL    HW134151   4.363   0.503   2.995 -0.5535  1.0622  0.7101
 7506SOL    HW234152   4.356   0.515   3.138  1.1887  0.3930  1.2127
 7507SOL     OW34153   3.092   4.624   4.277  0.0131 -0.8486  0.2963
 7507SOL    HW134154   3.144   4.700   4.304  0.6303 -1.0547 -0.2922
 7507SOL    HW234155   3.051   4.594   4.357  0.5282 -2.5791 -0.0782
 7508SOL     OW34156   3.578   1.739  17.436 -0.0970 -0.1840 -0.2576
 7508SOL    HW134157   3.601   1.694  17.518 -2.2504 -0.1060  0.3957
 7508SOL    HW234158   3.541   1.667  17.385  1.6389 -0.0206 -1.7229
 7509SOL     OW34159   0.209   2.982  16.144  0.1546 -0.3154  0.1828
 7509SOL    HW134160   0.149   3.042  16.100 -0.8893 -1.0095  0.6770
 7509SOL    HW234161   0.292   3.025  16.123  1.1196 -1.1806  2.1947
 7510SOL     OW34162   1.426   2.485   1.789 -0.9610  0.3156 -0.1408
 7510SOL    HW134163   1.379   2.568   1.776  1.4592  2.0924  2.5709
 7510SOL    HW234164   1.516   2.516   1.783 -0.4356 -1.1703  0.2908
 7511SOL     OW34165   3.774   0.394  14.441 -0.2172  0.1652  0.1916
 7511SOL    HW134166   3.692   0.401  14.391  1.0094  2.6744 -1.4761
 7511SOL    HW234167   3.751   0.318  14.494  1.5478 -0.5787 -0.0943
 7512SOL     OW34168   3.546   1.643   3.611 -0.3516 -0.5224 -0.2390
 7512SOL    HW134169   3.579   1.624   3.523  1.5202  0.8046  0.1901
 7512SOL    HW234170   3.566   1.736   3.610 -2.6404 -0.0370  0.0001
 7513SOL     OW34171   1.802   0.200  10.261 -0.5971 -0.4283 -0.2820
 7513SOL    HW134172   1.884   0.243  10.287 -1.3799  0.3831  0.9077
 7513SOL    HW234173   1.784   0.261  10.189 -1.3643 -0.7571 -0.3665
 7514SOL     OW34174   0.545   2.980   6.960 -0.0044 -0.2211  0.2249
 7514SOL    HW134175   0.569   3.022   7.043 -1.2065  0.0112  0.4614
 7514SOL    HW234176   0.622   2.988   6.903 -0.7114 -0.2589 -0.7346
 7515SOL     OW34177   2.362   2.615   0.925 -0.0504 -0.3548  1.0077
 7515SOL    HW134178   2.337   2.526   0.947 -0.9559 -0.0917  1.0407
 7515SOL    HW234179   2.276   2.657   0.930 -0.4018 -0.4832 -4.8736
 7516SOL     OW34180   2.084   1.494   5.114 -0.3805 -0.0459  0.5742
 7516SOL    HW134181   2.145   1.564   5.091 -0.3119 -0.7528 -1.3823
 7516SOL    HW234182   2.084   1.505   5.209  0.0867  0.9378  0.4626
 7517SOL     OW34183   2.967   0.505   2.992 -0.4021  0.1907 -0.4726
 7517SOL    HW134184   3.045   0.556   3.014 -0.7610  1.1705 -1.4546
 7517SOL    HW234185   2.994   0.422   3.030 -2.3062 -0.5796 -0.8073
 7518SOL     OW34186   2.474   0.268   3.193  0.2028  0.2232  0.0789
 7518SOL    HW134187   2.424   0.344   3.164 -2.0054 -1.4875 -0.6562
 7518SOL    HW234188   2.559   0.309   3.203 -0.4036  0.9364  2.3319
 7519SOL     OW34189   2.382   4.531   8.235  0.9963 -0.0384 -0.4042
 7519SOL    HW134190   2.435   4.586   8.177 -1.4791  2.7443 -0.0109
 7519SOL    HW234191   2.446   4.521   8.305  1.1158  0.4742 -0.4466
 7520SOL     OW34192   0.068   0.774  10.691  0.0227  0.7978 -0.1595
 7520SOL    HW134193   4.712   0.790  10.674 -0.4868 -0.1431  1.8057
 7520SOL    HW234194   0.065   0.695  10.744  0.5689  0.3897 -0.7354
 7521SOL     OW34195   4.454   3.942   2.108  0.3754  1.0210  0.4728
 7521SOL    HW134196   4.370   3.988   2.104 -0.4029 -0.4779 -0.5121
 7521SOL    HW234197   4.423   3.866   2.060  0.5391 -0.2802  2.4604
 7522SOL     OW34198   1.425   3.742   3.122  0.6903 -0.5240 -0.2109
 7522SOL    HW134199   1.411   3.714   3.212  0.0601 -1.7430 -0.6886
 7522SOL    HW234200   1.516   3.717   3.102  1.1336 -0.3030  1.5469
 7523SOL     OW34201   0.564   1.176  13.498 -0.3984  0.0936 -0.2754
 7523SOL    HW134202   0.481   1.214  13.527 -0.4226 -0.3602  0.2452
 7523SOL    HW234203   0.622   1.241  13.536 -0.1505 -1.9482  2.8473
 7524SOL     OW34204   0.376   0.488   2.283 -0.2002  0.2535  0.0301
 7524SOL    HW134205   0.407   0.563   2.333 -0.0593 -0.5648  1.1670
 7524SOL    HW234206   0.455   0.435   2.276 -0.3096 -0.0644  1.2666
 7525SOL     OW34207   1.291   1.269   6.972  0.4023 -0.1248  0.2566
 7525SOL    HW134208   1.204   1.300   6.948  0.0419 -1.2205  0.1607
 7525SOL    HW234209   1.304   1.323   7.050  0.9113  0.1601 -0.0219
 7526SOL     OW34210   2.057   4.732   0.193  0.2292 -0.1121 -0.1251
 7526SOL    HW134211   2.006   4.661   0.232  0.2475  0.6547  1.3149
 7526SOL    HW234212   2.128   0.014   0.255 -0.4423 -2.6791  1.4175
 7527SOL     OW34213   0.024   0.056   4.496 -0.2087  0.2994  0.1365
 7527SOL    HW134214   4.695   0.032   4.432  0.5180  0.0355 -0.5227
 7527SOL    HW234215   0.066   0.128   4.448  2.7532 -0.2303  1.9178
 7528SOL     OW34216   2.813   3.263   3.917  0.1674  0.7014 -0.4618
 7528SOL    HW134217   2.789   3.249   3.825  0.7976  1.2489 -0.7138
 7528SOL    HW234218   2.830   3.178   3.958 -0.8186  0.7372  0.0240
 7529SOL     OW34219   2.043   1.082   3.560 -0.3029  0.2499  1.1277
 7529SOL    HW134220   1.954   1.117   3.555  0.2731  1.7842  1.5432
 7529SOL    HW234221   2.103   1.152   3.532 -0.5616  0.2411  0.5394
 7530SOL     OW34222   0.663   4.496   4.481  0.3365 -0.3004  0.2711
 7530SOL    HW134223   0.592   4.520   4.421  1.7311  2.0424 -0.4693
 7530SOL    HW234224   0.742   4.473   4.432 -0.0728 -0.4954 -0.3044
 7531SOL     OW34225   1.744   0.015  11.849 -0.2716  0.3137  0.3348
 7531SOL    HW134226   1.792   0.079  11.797 -0.3159  0.7260  0.8011
 7531SOL    HW234227   1.818   4.700  11.880 -0.8105 -0.6458  0.0078
 7532SOL     OW34228   4.195   4.300  15.023  0.4092  0.3463 -0.3221
 7532SOL    HW134229   4.279   4.314  15.067 -0.0784 -0.2520  0.8088
 7532SOL    HW234230   4.152   4.381  15.049  0.5559  0.3074  0.0370
 7533SOL     OW34231   1.536   2.433   3.867  0.3322  0.0683  0.0602
 7533SOL    HW134232   1.625   2.409   3.842  0.3224  0.1814 -0.0811
 7533SOL    HW234233   1.495   2.349   3.888  0.2358 -0.0844 -0.7210
 7534SOL     OW34234   2.777   1.014  10.131  0.3581 -0.3728  0.1402
 7534SOL    HW134235   2.727   0.975  10.202  1.2944 -0.1148  0.9446
 7534SOL    HW234236   2.718   1.087  10.113  0.5541  0.1041  1.4580
 7535SOL     OW34237   3.730   4.009   2.017 -0.4083 -0.5440 -0.8122
 7535SOL    HW134238   3.767   4.026   1.931  0.2570 -1.5815 -0.7274
 7535SOL    HW234239   3.647   4.057   2.015 -0.1200 -0.0282 -0.2748
 7536SOL     OW34240   0.650   4.447   6.514 -0.0956  0.7746 -0.1726
 7536SOL    HW134241   0.688   4.522   6.559  0.7319  0.9808 -1.2066
 7536SOL    HW234242   0.714   4.382   6.544  1.7384  1.7536 -1.9822
 7537SOL     OW34243   0.426   4.311   6.388  0.2516 -0.3648 -0.1355
 7537SOL    HW134244   0.395   4.289   6.476 -0.6152  2.4720  0.2597
 7537SOL    HW234245   0.504   4.358   6.417  0.5870 -1.8284  1.3441
 7538SOL     OW34246   1.618   3.530  16.779 -0.4405 -0.4325 -0.6466
 7538SOL    HW134247   1.654   3.594  16.840 -0.3048 -1.6054  0.4937
 7538SOL    HW234248   1.700   3.506  16.735  0.3869  1.2285 -0.0317
 7539SOL     OW34249   2.928   0.934   5.835 -0.2055  0.3919 -0.1510
 7539SOL    HW134250   2.965   0.966   5.918 -0.5177 -0.4634  0.3137
 7539SOL    HW234251   2.878   0.859   5.867 -0.3771  0.4482 -0.2823
 7540SOL     OW34252   2.683   4.027   9.447  0.5133  0.0629  0.3952
 7540SOL    HW134253   2.588   4.026   9.436  0.8727  1.9374 -3.0172
 7540SOL    HW234254   2.700   4.121   9.444 -1.0309  0.3099 -0.9047
 7541SOL     OW34255   0.879   3.688   4.992  0.0949  0.0185 -0.2986
 7541SOL    HW134256   0.909   3.701   4.902  0.5145 -2.4485 -0.5236
 7541SOL    HW234257   0.809   3.753   4.999  0.3832  0.3832 -0.8687
 7542SOL     OW34258   1.460   2.924  12.313 -0.0618 -0.0923  0.2382
 7542SOL    HW134259   1.466   2.839  12.356 -1.8472 -0.8836 -1.0689
 7542SOL    HW234260   1.548   2.954  12.336  0.5065 -0.5572 -1.3525
 7543SOL     OW34261   3.852   0.654   6.785  0.4541 -0.1833 -0.0355
 7543SOL    HW134262   3.840   0.745   6.811  0.5359  0.2558 -1.5724
 7543SOL    HW234263   3.764   0.627   6.811  0.6527 -0.0171  0.8080
 7544SOL     OW34264   4.042   4.323   1.451 -0.0818 -0.4074 -0.6461
 7544SOL    HW134265   4.099   4.262   1.498 -1.0309 -2.1414 -1.7676
 7544SOL    HW234266   3.960   4.275   1.468 -0.6831  1.3371  1.4203
 7545SOL     OW34267   1.270   3.254   8.226 -0.2441  0.1402  0.2651
 7545SOL    HW134268   1.182   3.252   8.265  0.0025  1.3692  0.9060
 7545SOL    HW234269   1.283   3.163   8.201  3.9157  1.7208 -3.2056
 7546SOL     OW34270   0.739   3.952   6.734 -0.1229 -0.2149  0.4366
 7546SOL    HW134271   0.660   3.985   6.691 -0.1494 -0.1543  0.5331
 7546SOL    HW234272   0.731   3.857   6.743 -1.0829  0.0069  1.8741
 7547SOL     OW34273   0.721   1.262   1.538 -0.1706  0.7387  0.6638
 7547SOL    HW134274   0.800   1.229   1.496 -0.9157  1.6670 -1.4808
 7547SOL    HW234275   0.697   1.179   1.578 -1.1282  0.8476  0.3229
 7548SOL     OW34276   1.920   0.098   8.815 -0.0718  0.1544  0.3019
 7548SOL    HW134277   1.878   0.035   8.756  0.5613  0.7654 -0.7996
 7548SOL    HW234278   2.007   0.097   8.776 -0.2750 -0.7082 -0.1396
 7549SOL     OW34279   4.733   3.532   4.994  0.4518 -0.6024 -0.0527
 7549SOL    HW134280   4.652   3.547   5.043  1.6783  0.2780  1.7183
 7549SOL    HW234281   0.015   3.438   4.991 -0.5270 -0.8165  0.5075
 7550SOL     OW34282   4.160   1.500   9.173 -0.5879  0.0171  0.3579
 7550SOL    HW134283   4.079   1.498   9.122  0.3441  0.8919 -1.1445
 7550SOL    HW234284   4.147   1.426   9.233 -0.8690  0.9180  1.4190
 7551SOL     OW34285   4.680   0.914   3.047  0.4277 -0.2354  0.0245
 7551SOL    HW134286   4.599   0.964   3.037  2.0376  1.8942 -2.6172
 7551SOL    HW234287   4.727   0.959   3.117 -2.4450  2.0703  0.4958
 7552SOL     OW34288   2.132   0.598  16.334 -0.4284  0.5353  0.5804
 7552SOL    HW134289   2.178   0.621  16.253 -0.9219  3.3152  1.1095
 7552SOL    HW234290   2.168   0.670  16.386 -0.0038 -0.0526  1.1023
 7553SOL     OW34291   1.989   3.601   7.995  0.2167 -0.7515 -0.1413
 7553SOL    HW134292   2.030   3.556   7.922  3.4169  2.4384 -0.2917
 7553SOL    HW234293   1.965   3.534   8.059 -0.8147  0.0351  0.3158
 7554SOL     OW34294   4.720   3.203   8.580 -0.3533  0.0327 -0.0207
 7554SOL    HW134295   0.027   3.263   8.520 -1.1509  0.3106 -0.3368
 7554SOL    HW234296   4.635   3.245   8.588 -0.5488 -0.3102 -0.2670
 7555SOL     OW34297   1.431   1.411   2.895  0.5558  0.0173  0.2373
 7555SOL    HW134298   1.393   1.470   2.961 -1.9608 -0.4312 -0.8034
 7555SOL    HW234299   1.435   1.470   2.820  1.6999  0.1860  0.4341
 7556SOL     OW34300   3.557   0.153  11.869  0.1160 -0.3514 -0.1286
 7556SOL    HW134301   3.493   0.105  11.922  0.0275 -1.8658 -1.5851
 7556SOL    HW234302   3.566   0.102  11.789 -0.6883 -2.4568  1.1134
 7557SOL     OW34303   1.538   0.497   4.659  0.3014 -0.1752 -0.5657
 7557SOL    HW134304   1.574   0.528   4.576  0.2582  1.5507  0.0695
 7557SOL    HW234305   1.473   0.435   4.624 -1.8469  2.2041 -0.7569
 7558SOL     OW34306   0.712   2.866  15.032  0.0426  0.3781 -0.3432
 7558SOL    HW134307   0.751   2.839  14.949 -0.0064 -0.4096 -0.1049
 7558SOL    HW234308   0.711   2.960  15.013 -1.2873  0.4521  0.0669
 7559SOL     OW34309   3.227   1.966   4.245 -0.5427 -0.4751  0.0530
 7559SOL    HW134310   3.234   2.013   4.329  1.3136 -1.5381  0.5120
 7559SOL    HW234311   3.312   1.978   4.202 -0.7014 -0.6051 -0.2937
 7560SOL     OW34312   1.274   2.879   4.921  0.4035  0.4045  0.1825
 7560SOL    HW134313   1.219   2.926   4.984 -1.3244  1.9180 -2.4513
 7560SOL    HW234314   1.339   2.850   4.984 -0.4822 -1.0035  0.4553
 7561SOL     OW34315   1.004   0.665   4.081 -0.7201 -0.1646 -0.0856
 7561SOL    HW134316   1.074   0.702   4.136 -0.3769 -0.4797 -0.3057
 7561SOL    HW234317   1.011   0.570   4.083 -3.8953 -0.3806  0.4957
 7562SOL     OW34318   2.502   3.123   7.869  0.3948 -0.1707  0.3776
 7562SOL    HW134319   2.595   3.145   7.859  0.2360  0.9795  1.4812
 7562SOL    HW234320   2.484   3.065   7.794  1.7499  0.2342 -0.2669
 7563SOL     OW34321   0.903   2.409  16.572  0.3250 -0.1694 -0.6140
 7563SOL    HW134322   0.989   2.416  16.613  0.9886  1.5811 -2.3129
 7563SOL    HW234323   0.867   2.494  16.598 -0.7137 -0.3965 -1.2903
 7564SOL     OW34324   3.532   0.705   9.078  0.0361  0.0154 -0.1841
 7564SOL    HW134325   3.456   0.652   9.101 -0.2405  1.5655  2.3946
 7564SOL    HW234326   3.583   0.711   9.158  0.7190 -1.4242 -0.5016
 7565SOL     OW34327   0.089   1.578   6.520  0.2631 -0.0544 -0.5136
 7565SOL    HW134328   0.176   1.565   6.557 -0.3782  0.0582  1.0348
 7565SOL    HW234329   0.106   1.543   6.432 -0.5168  0.7909 -1.0104
 7566SOL     OW34330   1.582   0.833   6.942  0.7305 -0.0298 -0.0375
 7566SOL    HW134331   1.497   0.877   6.935 -0.5079 -2.4437 -0.0983
 7566SOL    HW234332   1.611   0.820   6.852  3.1027 -0.1436  0.7648
 7567SOL     OW34333   4.473   0.634  12.820  0.6320  0.2143  0.0871
 7567SOL    HW134334   4.527   0.688  12.877  1.6260  2.3781 -2.8887
 7567SOL    HW234335   4.543   0.587  12.774 -1.5751 -1.3839 -1.6330
 7568SOL     OW34336   2.800   4.056   8.443 -0.1935  0.7357 -0.0880
 7568SOL    HW134337   2.740   3.981   8.438 -0.3265  1.1528 -4.5474
 7568SOL    HW234338   2.887   4.026   8.418  0.5103  2.1044  0.7451
 7569SOL     OW34339   1.479   3.053   7.406  0.4349  0.3351 -0.1339
 7569SOL    HW134340   1.503   3.146   7.408  1.2641  0.1068  0.7390
 7569SOL    HW234341   1.387   3.071   7.424  0.0971 -0.6639 -0.8901
 7570SOL     OW34342   3.155   3.024   7.628 -0.1217 -0.0382 -0.3903
 7570SOL    HW134343   3.071   3.052   7.593 -0.8540 -3.0616 -1.0435
 7570SOL    HW234344   3.177   2.948   7.574  1.8732 -1.1111  1.9071
 7571SOL     OW34345   2.145   1.796   5.196  0.0899  0.3114  0.4482
 7571SOL    HW134346   2.176   1.774   5.284  2.9509  0.5145 -0.5132
 7571SOL    HW234347   2.134   1.889   5.218  1.6007  0.0031  2.5723
 7572SOL     OW34348   4.686   2.156  10.211 -0.2563  0.4833  0.2061
 7572SOL    HW134349   4.626   2.212  10.260 -0.5160 -0.5656  1.0930
 7572SOL    HW234350   4.647   2.076  10.246  0.2479 -0.3999 -1.2330
 7573SOL     OW34351   4.050   2.854  16.283  0.1425  0.7598  0.0715
 7573SOL    HW134352   4.021   2.822  16.198 -0.3579 -0.7356  0.8016
 7573SOL    HW234353   4.018   2.944  16.274  3.2198  2.0032  1.6728
 7574SOL     OW34354   0.857   2.990   3.589 -0.2043  0.1053 -0.9931
 7574SOL    HW134355   0.928   2.926   3.585  0.2682  0.6331 -0.9900
 7574SOL    HW234356   0.868   3.034   3.673 -1.1951 -0.3650 -0.6121
 7575SOL     OW34357   1.010   3.903   6.213 -0.0694 -0.4089  0.6591
 7575SOL    HW134358   1.089   3.849   6.211 -0.1658 -0.5288  0.1635
 7575SOL    HW234359   1.015   3.957   6.292  1.8795  0.7947 -0.2939
 7576SOL     OW34360   2.123   1.758   9.185 -0.1973  0.1122 -0.1778
 7576SOL    HW134361   2.062   1.832   9.186 -0.4837 -0.1444  0.7570
 7576SOL    HW234362   2.162   1.770   9.098 -2.5353 -1.2294 -1.4204
 7577SOL     OW34363   1.292   3.856   7.649  0.3188 -0.0511 -0.1109
 7577SOL    HW134364   1.222   3.878   7.710  1.6043 -0.1336  1.4085
 7577SOL    HW234365   1.241   3.802   7.588 -2.4353  1.4384  0.9104
 7578SOL     OW34366   0.332   1.841  13.488  0.0741 -0.6560 -0.0799
 7578SOL    HW134367   0.257   1.790  13.516  0.4543 -1.2982 -0.2306
 7578SOL    HW234368   0.294   1.928  13.499  0.2712 -0.5180 -0.4885
 7579SOL     OW34369   0.758   1.646   7.578 -0.4937 -0.1660  0.0549
 7579SOL    HW134370   0.734   1.667   7.487  0.7483 -0.4818 -0.3354
 7579SOL    HW234371   0.676   1.661   7.625 -0.6757  0.7292 -0.5410
 7580SOL     OW34372   3.781   2.727  14.458 -0.6345 -0.1367 -0.4896
 7580SOL    HW134373   3.723   2.703  14.386 -1.6766  0.9538 -0.0266
 7580SOL    HW234374   3.869   2.711  14.424  0.0139  1.8066  0.2884
 7581SOL     OW34375   3.992   1.365   7.605  0.2679 -1.0409 -0.4159
 7581SOL    HW134376   4.033   1.331   7.684 -0.3622  1.4461  0.9686
 7581SOL    HW234377   4.035   1.450   7.599 -1.5300 -0.1582 -0.7705
 7582SOL     OW34378   1.102   4.597   3.444  0.0693  0.0368 -0.6877
 7582SOL    HW134379   1.089   4.673   3.500 -2.2677 -2.0364  1.5845
 7582SOL    HW234380   1.191   4.616   3.415  0.2620 -2.8931 -2.0118
 7583SOL     OW34381   4.072   2.476   6.083 -1.0991 -0.3334  0.3390
 7583SOL    HW134382   4.068   2.477   6.179  0.2478 -3.0876  0.4112
 7583SOL    HW234383   4.087   2.384   6.059 -0.3677 -0.7687  2.5212
 7584SOL     OW34384   4.420   3.386   5.883 -0.6148 -0.4127  0.2373
 7584SOL    HW134385   4.464   3.436   5.951 -0.0228  1.5880 -1.6483
 7584SOL    HW234386   4.494   3.344   5.839 -0.1154  2.0749 -1.2928
 7585SOL     OW34387   4.256   2.009   7.689  0.0038 -0.3159 -0.7431
 7585SOL    HW134388   4.342   2.040   7.660  0.1438  0.2781  0.3112
 7585SOL    HW234389   4.275   1.919   7.717  1.0887  0.7151  1.8749
 7586SOL     OW34390   0.509   3.006   3.291 -0.4267 -0.0860  0.0577
 7586SOL    HW134391   0.513   2.928   3.236 -0.1110 -0.1373  0.1490
 7586SOL    HW234392   0.523   2.961   3.374 -3.4619  0.3767  0.7834
 7587SOL     OW34393   4.522   4.527   2.575  0.3469 -0.5434  0.1321
 7587SOL    HW134394   4.610   4.494   2.593  0.2175 -1.1686 -0.3813
 7587SOL    HW234395   4.518   4.613   2.617  1.7410 -0.1091 -0.6154
 7588SOL     OW34396   2.869   4.223  10.054 -0.3591 -0.4234 -0.2690
 7588SOL    HW134397   2.822   4.171  10.119  0.4367  0.2686  0.8547
 7588SOL    HW234398   2.836   4.187   9.971 -1.0671  2.3975 -1.2099
 7589SOL     OW34399   1.674   2.518   4.263  0.2014  0.1621  0.9456
 7589SOL    HW134400   1.611   2.579   4.224 -1.2299 -1.8997  0.0007
 7589SOL    HW234401   1.745   2.537   4.202 -1.2995  1.9835 -0.2653
 7590SOL     OW34402   1.559   0.600   3.780 -0.0674  0.7971 -0.0608
 7590SOL    HW134403   1.498   0.526   3.780  2.0746 -1.0022 -3.1209
 7590SOL    HW234404   1.539   0.643   3.863  0.9359 -0.6927  0.9629
 7591SOL     OW34405   3.064   0.897  12.642  0.0997  0.2015 -0.4102
 7591SOL    HW134406   2.987   0.941  12.677  0.5094  1.0225 -0.5496
 7591SOL    HW234407   3.133   0.942  12.691 -0.3906  0.8378 -0.3102
 7592SOL     OW34408   4.701   2.006   1.407  0.1370 -0.1037  0.0470
 7592SOL    HW134409   4.645   1.964   1.342  2.8496 -3.1174 -0.3588
 7592SOL    HW234410   4.657   1.997   1.491 -1.7751 -0.9038 -1.0240
 7593SOL     OW34411   3.143   3.484   1.997 -0.2743 -0.5911 -0.5353
 7593SOL    HW134412   3.208   3.555   1.990 -0.7103 -0.0471  1.0788
 7593SOL    HW234413   3.194   3.404   2.012 -1.3205 -1.5319 -1.9870
 7594SOL     OW34414   2.396   1.381   9.262  0.3715 -0.1277  0.0249
 7594SOL    HW134415   2.410   1.325   9.339 -1.2657 -0.7579 -0.1294
 7594SOL    HW234416   2.326   1.433   9.302  3.6535  1.9263  3.0148
 7595SOL     OW34417   3.375   3.568   4.348  0.3567 -0.1089 -0.3250
 7595SOL    HW134418   3.380   3.608   4.435  0.9289  1.0225 -0.8759
 7595SOL    HW234419   3.282   3.544   4.349  1.0297 -2.6197  3.0695
 7596SOL     OW34420   3.956   2.030  12.266  0.1333 -0.3989 -0.1378
 7596SOL    HW134421   3.940   1.938  12.286 -2.3927 -0.2711 -1.5297
 7596SOL    HW234422   3.867   2.063  12.251 -0.7090 -2.3458  0.5966
 7597SOL     OW34423   1.502   1.370  16.059  0.1386  0.1958  0.1619
 7597SOL    HW134424   1.592   1.342  16.043  0.0980  0.2593 -0.1676
 7597SOL    HW234425   1.507   1.386  16.154 -0.2091  2.1875 -0.1438
 7598SOL     OW34426   4.113   1.480   0.708 -0.3606  0.0256  0.2324
 7598SOL    HW134427   4.047   1.536   0.667 -0.2446  0.0252  0.0470
 7598SOL    HW234428   4.063   1.402   0.734 -1.0358 -0.1025 -1.4478
 7599SOL     OW34429   1.526   0.108   6.183  0.5814 -0.2822  0.4306
 7599SOL    HW134430   1.500   0.200   6.189 -0.1825 -0.3178 -2.2137
 7599SOL    HW234431   1.465   0.060   6.239 -0.8098  0.1964 -0.6639
 7600SOL     OW34432   4.141   2.555   3.175  0.4038  0.2855  0.0185
 7600SOL    HW134433   4.112   2.641   3.147  2.7448  0.3773 -2.0602
 7600SOL    HW234434   4.223   2.583   3.216  0.8722 -1.4808  0.2912
 7601SOL     OW34435   1.689   1.146  12.647  0.0977  0.3326  0.3723
 7601SOL    HW134436   1.747   1.168  12.574  1.1381 -0.0652  1.0649
 7601SOL    HW234437   1.604   1.127  12.609 -1.2788  1.0446  3.0994
 7602SOL     OW34438   1.968   4.617   8.560 -0.2023 -0.4062 -0.0694
 7602SOL    HW134439   1.887   4.608   8.509 -0.0483  1.6318 -0.6619
 7602SOL    HW234440   2.026   4.606   8.484 -0.3218 -0.1484 -0.1989
 7603SOL     OW34441   0.947   1.090   8.663  0.0652 -0.1148 -0.3039
 7603SOL    HW134442   0.854   1.111   8.656 -0.2734 -0.9706  1.5584
 7603SOL    HW234443   0.974   1.067   8.574 -0.4764 -2.9878  0.2522
 7604SOL     OW34444   3.760   0.417   4.049  0.2299  0.6498 -0.1570
 7604SOL    HW134445   3.753   0.456   4.136 -2.2857  0.6001 -0.3446
 7604SOL    HW234446   3.704   0.478   4.002 -0.4939 -1.0013 -1.4219
 7605SOL     OW34447   3.539   4.718   1.956 -0.1780 -0.1906 -0.4094
 7605SOL    HW134448   3.579   0.062   1.989  1.7427 -1.5570  0.6033
 7605SOL    HW234449   3.446   0.005   1.951 -1.0117 -2.7547  2.7729
 7606SOL     OW34450   1.577   1.952   0.752  0.0009  0.3199  0.2914
 7606SOL    HW134451   1.594   1.969   0.845 -0.9449 -1.8753  0.8557
 7606SOL    HW234452   1.539   1.865   0.750  1.8078 -0.4368 -0.9115
 7607SOL     OW34453   4.449   0.099   5.570  0.1800  0.4430 -0.7371
 7607SOL    HW134454   4.467   0.057   5.486  0.0840 -1.4667  0.2047
 7607SOL    HW234455   4.503   0.051   5.632 -0.1347  0.8239 -0.1603
 7608SOL     OW34456   0.848   1.778   8.772 -0.1359 -0.5994 -0.4071
 7608SOL    HW134457   0.883   1.689   8.765  0.1898 -0.4487 -0.6667
 7608SOL    HW234458   0.802   1.793   8.855  1.0514 -0.5502  0.2295
 7609SOL     OW34459   2.394   0.153   3.442  0.3141  0.1929  0.2167
 7609SOL    HW134460   2.450   0.191   3.510 -0.9441  3.0634 -0.3408
 7609SOL    HW234461   2.411   0.207   3.365 -0.7976  0.3441  0.0880
 7610SOL     OW34462   4.027   2.562   4.460  0.0854  0.2276 -0.3503
 7610SOL    HW134463   4.004   2.582   4.370  1.2526 -0.4926 -0.8095
 7610SOL    HW234464   3.983   2.477   4.465 -3.2976  2.0316  0.5042
 7611SOL     OW34465   0.968   2.108  16.703 -0.1669 -0.1399  0.0675
 7611SOL    HW134466   1.014   2.192  16.692  2.3022 -1.5222 -0.1103
 7611SOL    HW234467   1.022   2.047  16.653  0.5847 -1.5613  2.6641
 7612SOL     OW34468   4.724   0.103   1.313 -0.0729 -0.5474  0.1003
 7612SOL    HW134469   4.687   0.189   1.290 -0.0952 -0.0057  2.1270
 7612SOL    HW234470   4.704   0.053   1.234 -0.0311  0.8492 -0.8138
 7613SOL     OW34471   0.666   3.546   3.142  0.8696 -0.1331 -0.0833
 7613SOL    HW134472   0.634   3.614   3.083 -0.0747 -0.2076  0.3455
 7613SOL    HW234473   0.692   3.598   3.217  1.9036 -1.1530  0.2634
 7614SOL     OW34474   3.744   3.628   8.557 -0.0785  0.0373  0.3903
 7614SOL    HW134475   3.771   3.708   8.511 -2.5593  0.1387 -0.8604
 7614SOL    HW234476   3.694   3.582   8.490  4.1171  1.5825 -3.8355
 7615SOL     OW34477   1.635   2.811  15.771  0.2087  0.2290  0.1046
 7615SOL    HW134478   1.672   2.863  15.842  2.8241 -0.1665 -0.9536
 7615SOL    HW234479   1.560   2.781  15.822  0.8398  0.9582  1.4613
 7616SOL     OW34480   0.228   4.112   8.954  0.1395 -0.0536 -0.3452
 7616SOL    HW134481   0.262   4.023   8.968 -1.0786 -0.6250 -0.9847
 7616SOL    HW234482   0.307   4.158   8.927 -0.8428  2.1375  0.5161
 7617SOL     OW34483   1.845   3.989   2.172 -0.2330  0.3523 -0.2874
 7617SOL    HW134484   1.791   3.915   2.200 -0.6876  0.3036 -1.3190
 7617SOL    HW234485   1.848   4.049   2.247  1.8372  0.4536 -0.4552
 7618SOL     OW34486   0.944   1.611   4.345 -0.3716  0.0154 -0.1600
 7618SOL    HW134487   0.891   1.633   4.268 -0.9190  2.0915  0.8368
 7618SOL    HW234488   0.880   1.579   4.408 -1.0100  2.2292  0.2980
 7619SOL     OW34489   3.513   3.571  17.243 -0.5063 -0.2303 -0.7440
 7619SOL    HW134490   3.502   3.574  17.148 -0.6936  1.0991 -0.6814
 7619SOL    HW234491   3.460   3.496  17.269 -1.0734  0.7082  0.7936
 7620SOL     OW34492   3.649   0.170   2.686  0.4444 -0.0424  0.5902
 7620SOL    HW134493   3.587   0.174   2.759  0.5532 -0.4465  0.7028
 7620SOL    HW234494   3.720   0.116   2.720  2.2352  1.3697 -0.9448
 7621SOL     OW34495   4.247   3.005   6.603  0.0314 -0.4458  0.7183
 7621SOL    HW134496   4.277   3.045   6.521  0.7462 -0.2488  1.0759
 7621SOL    HW234497   4.163   3.048   6.620  1.1015  1.8116  0.3312
 7622SOL     OW34498   3.933   1.665   2.145 -0.1922 -0.2200 -0.1430
 7622SOL    HW134499   3.989   1.633   2.074 -0.0736 -0.6275  0.1308
 7622SOL    HW234500   3.955   1.598   2.210 -4.0783  1.0847  2.4968
 7623SOL     OW34501   2.604   2.772   4.467 -0.6270 -0.5275  0.3139
 7623SOL    HW134502   2.580   2.682   4.444 -1.9090 -0.7316  2.4360
 7623SOL    HW234503   2.656   2.778   4.387 -1.2745  0.7125 -0.0124
 7624SOL     OW34504   3.404   4.105   4.953 -0.1404 -0.3330  0.2613
 7624SOL    HW134505   3.421   4.158   5.031 -0.6738 -0.4731  0.4713
 7624SOL    HW234506   3.468   4.034   4.962 -0.0481 -0.4383 -1.3607
 7625SOL     OW34507   0.424   2.752   3.153  0.2276  0.7727 -0.2501
 7625SOL    HW134508   0.396   2.811   3.083  0.9759  0.2708 -0.9698
 7625SOL    HW234509   0.423   2.665   3.114 -0.3498 -0.0706  1.6273
 7626SOL     OW34510   1.795   4.463   4.199  0.5787 -0.8084  0.6687
 7626SOL    HW134511   1.809   4.373   4.169  0.0364 -1.1444  1.3980
 7626SOL    HW234512   1.737   4.492   4.129  1.5938  0.0414  0.1757
 7627SOL     OW34513   4.379   4.217   0.570  0.3768  0.4026  0.2516
 7627SOL    HW134514   4.290   4.184   0.559  0.2200  0.1295  2.3571
 7627SOL    HW234515   4.366   4.312   0.572  0.5327  0.4453 -0.7844
 7628SOL     OW34516   4.548   1.680   6.556  0.0028 -0.0671  0.2664
 7628SOL    HW134517   4.631   1.650   6.521 -0.1396 -0.0161 -0.1189
 7628SOL    HW234518   4.530   1.617   6.625  0.1025  0.3319  0.6556
 7629SOL     OW34519   4.362   1.155  17.715  0.5320 -0.3836  0.2773
 7629SOL    HW134520   4.316   1.235  17.689 -0.2424 -0.2613  1.9730
 7629SOL    HW234521   4.412   1.142  17.635 -0.6701 -1.6670 -0.2607
 7630SOL     OW34522   0.716   3.399  17.531  0.0697  0.3265  0.2357
 7630SOL    HW134523   0.658   3.329  17.562  1.3909 -1.2691 -0.8834
 7630SOL    HW234524   0.793   3.351  17.501 -0.5662 -0.1514 -0.6377
 7631SOL     OW34525   4.547   1.262   9.902  0.1630  0.5796  0.0567
 7631SOL    HW134526   4.552   1.214   9.984 -1.3446  0.1658 -0.0836
 7631SOL    HW234527   4.636   1.294   9.889 -0.0883  1.2074 -0.1396
 7632SOL     OW34528   1.880   2.573  15.113 -0.0374  0.2202 -0.0616
 7632SOL    HW134529   1.854   2.664  15.107 -2.3701 -0.4455 -0.0206
 7632SOL    HW234530   1.796   2.527  15.111 -1.1175  2.1865  0.5642
 7633SOL     OW34531   1.619   4.195  11.358 -0.3070 -0.8578  0.0445
 7633SOL    HW134532   1.547   4.167  11.414  1.2866 -1.8149  1.6296
 7633SOL    HW234533   1.658   4.256  11.420 -0.9147 -1.6376  1.1823
 7634SOL     OW34534   3.342   1.986   7.372  0.2396  0.5431  0.0994
 7634SOL    HW134535   3.310   1.906   7.416 -0.5797 -0.2937 -2.0371
 7634SOL    HW234536   3.300   2.057   7.420 -0.4283 -0.3847  0.9088
 7635SOL     OW34537   3.055   1.893   5.464  0.0801 -0.2295 -0.4076
 7635SOL    HW134538   3.150   1.882   5.459  0.0215 -0.8805 -0.1504
 7635SOL    HW234539   3.034   1.907   5.372 -2.0449 -1.1999 -0.0814
 7636SOL     OW34540   1.996   3.263   1.606 -0.0767  0.2210 -0.6735
 7636SOL    HW134541   2.069   3.206   1.581 -0.4960 -0.5448 -0.1671
 7636SOL    HW234542   2.019   3.270   1.699 -0.0649 -0.9587 -0.5866
 7637SOL     OW34543   0.931   2.458  16.304  0.0508 -0.3890 -0.2086
 7637SOL    HW134544   0.905   2.376  16.261 -0.4412  0.0983 -0.8343
 7637SOL    HW234545   0.911   2.439  16.395  1.1909  0.7314  0.2705
 7638SOL     OW34546   2.567   4.470   7.754  1.2009  0.0501  0.2935
 7638SOL    HW134547   2.527   4.419   7.824 -2.4089  2.6823  0.1728
 7638SOL    HW234548   2.488   4.483   7.702  0.4304 -0.9160  1.2265
 7639SOL     OW34549   4.681   1.479   7.110 -0.2195  0.0396 -0.0070
 7639SOL    HW134550   0.016   1.522   7.063 -0.3103  0.0112 -0.1709
 7639SOL    HW234551   4.649   1.555   7.158 -0.1823  0.6146 -0.8871
 7640SOL     OW34552   3.105   1.640  14.930  0.7574  0.0538 -0.1783
 7640SOL    HW134553   3.162   1.658  15.005 -1.5092 -1.2964  1.8573
 7640SOL    HW234554   3.168   1.629  14.858  0.6827  1.2226 -0.4235
 7641SOL     OW34555   2.700   3.027   1.455  0.3693 -0.4486 -0.4874
 7641SOL    HW134556   2.666   2.950   1.500 -3.2275  0.6064 -1.3879
 7641SOL    HW234557   2.653   3.013   1.374 -1.1203  2.4984 -0.1444
 7642SOL     OW34558   2.748   3.297   4.447  0.4915 -0.2780 -0.7418
 7642SOL    HW134559   2.833   3.309   4.404  0.1586 -0.0312 -1.3277
 7642SOL    HW234560   2.716   3.215   4.410 -0.0466 -0.4493  0.0976
 7643SOL     OW34561   2.457   4.361   9.651 -0.0094  0.9165  0.1188
 7643SOL    HW134562   2.490   4.283   9.605  2.8924  2.5325 -0.5438
 7643SOL    HW234563   2.457   4.429   9.583 -0.4862  0.6863 -0.1124
 7644SOL     OW34564   1.965   4.723   0.565  0.4930 -0.3179  0.7024
 7644SOL    HW134565   1.900   0.042   0.522  1.2549 -2.4228 -3.1274
 7644SOL    HW234566   1.954   4.643   0.515 -0.7745 -0.2544  0.8570
 7645SOL     OW34567   0.588   3.440  10.625  0.1362 -0.5470 -0.3158
 7645SOL    HW134568   0.622   3.529  10.635  0.8658 -0.7510 -0.9971
 7645SOL    HW234569   0.674   3.408  10.653  0.9334  1.3203 -0.5755
 7646SOL     OW34570   1.982   2.752   6.559 -0.6728 -0.3200 -0.2940
 7646SOL    HW134571   1.948   2.713   6.639  0.6459 -1.6888 -0.3996
 7646SOL    HW234572   2.076   2.737   6.573 -0.2569  3.0975  0.5218
 7647SOL     OW34573   4.062   3.654   8.265  0.9711 -0.1287 -0.3110
 7647SOL    HW134574   4.157   3.642   8.262  1.0844  0.5505  0.7501
 7647SOL    HW234575   4.055   3.664   8.360 -0.2798 -0.7517 -0.3466
 7648SOL     OW34576   0.749   1.369   4.997  0.4663  0.1303  0.3605
 7648SOL    HW134577   0.830   1.388   5.045  0.0079 -0.1112  1.2300
 7648SOL    HW234578   0.760   1.413   4.913 -0.6933 -3.8528 -1.8845
 7649SOL     OW34579   3.170   4.158   1.364  0.5045  0.0843  0.1640
 7649SOL    HW134580   3.097   4.108   1.400  0.4299 -0.0942 -0.2345
 7649SOL    HW234581   3.175   4.228   1.430  0.3139  1.4752 -1.3045
 7650SOL     OW34582   3.137   3.944   3.202 -0.3076 -0.0515 -0.0799
 7650SOL    HW134583   3.146   4.035   3.231  0.2893 -0.0413 -0.3069
 7650SOL    HW234584   3.076   3.952   3.128 -0.2025 -1.1060 -0.2805
 7651SOL     OW34585   2.414   2.777   3.939  0.4749 -0.2375 -0.1963
 7651SOL    HW134586   2.354   2.845   3.910 -0.8283 -0.9916  0.7524
 7651SOL    HW234587   2.353   2.720   3.985  1.6791 -0.3420  1.2978
 7652SOL     OW34588   3.575   1.169   8.430 -0.2236 -0.4375 -0.4208
 7652SOL    HW134589   3.494   1.135   8.391  0.1153 -2.2391  0.4299
 7652SOL    HW234590   3.557   1.263   8.438  0.5631 -0.3263 -0.0045
 7653SOL     OW34591   1.448   0.553   7.721  0.2946  0.5486 -0.2230
 7653SOL    HW134592   1.541   0.573   7.731  0.9459 -1.9421 -1.1276
 7653SOL    HW234593   1.439   0.576   7.629  0.7925  0.1678 -0.3690
 7654SOL     OW34594   3.512   4.049  17.210 -0.2186  0.2102  0.0922
 7654SOL    HW134595   3.590   4.014  17.164 -0.1900  0.0003  0.3008
 7654SOL    HW234596   3.511   3.980  17.276  2.2825 -0.9058 -0.9813
 7655SOL     OW34597   1.226   1.958  17.496 -0.5911 -0.6003 -0.0279
 7655SOL    HW134598   1.209   2.049  17.518 -0.5841 -0.9349  1.3873
 7655SOL    HW234599   1.223   1.930  17.588  0.6422 -0.5047  0.0351
 7656SOL     OW34600   1.987   0.396  14.991 -0.4718 -0.9316 -0.5186
 7656SOL    HW134601   2.023   0.468  14.939 -0.4571 -2.5154 -2.6717
 7656SOL    HW234602   1.893   0.410  15.002 -0.1231  3.5837 -3.4394
 7657SOL     OW34603   3.620   1.051  15.450 -0.0447  0.4125 -0.2379
 7657SOL    HW134604   3.548   1.108  15.420 -2.0026 -2.8009 -1.6629
 7657SOL    HW234605   3.612   0.993  15.374  1.3409 -2.3528  1.7270
 7658SOL     OW34606   0.654   3.629   2.331 -0.6635  0.3234  0.3598
 7658SOL    HW134607   0.603   3.548   2.338  1.9143 -1.4216 -1.4570
 7658SOL    HW234608   0.588   3.691   2.362 -1.2895 -0.4538  0.5959
 7659SOL     OW34609   1.091   3.755  14.914 -0.0917  0.3420  0.3982
 7659SOL    HW134610   1.034   3.728  14.985 -0.5833  4.2198  1.5091
 7659SOL    HW234611   1.118   3.839  14.952  0.4813  0.3848 -0.1037
 7660SOL     OW34612   2.659   0.002   7.669 -0.3148  0.4467 -0.0032
 7660SOL    HW134613   2.616   4.655   7.685 -1.9310  0.9022 -2.0033
 7660SOL    HW234614   2.655   0.004   7.574 -3.6311  0.5226  0.1534
 7661SOL     OW34615   4.356   2.214   5.667  0.3408  0.1502 -0.2302
 7661SOL    HW134616   4.363   2.247   5.577 -1.9403 -1.3937 -0.9848
 7661SOL    HW234617   4.407   2.134   5.654  0.5219  0.4805 -1.5331
 7662SOL     OW34618   1.067   0.236   7.424  0.2328 -0.5280 -0.3078
 7662SOL    HW134619   1.132   0.256   7.357 -0.3718 -1.8062 -1.2772
 7662SOL    HW234620   1.015   0.314   7.405 -2.0360 -1.4039  2.3304
 7663SOL     OW34621   4.007   3.146   6.624  0.1152 -0.4876  0.5304
 7663SOL    HW134622   3.943   3.210   6.653  0.3266  0.0066 -0.0818
 7663SOL    HW234623   3.952   3.108   6.555  3.2658 -1.3759 -1.5193
 7664SOL     OW34624   4.471   4.358  16.848 -0.1498 -0.6826 -0.2442
 7664SOL    HW134625   4.480   4.453  16.854  0.5024 -0.9146  2.3814
 7664SOL    HW234626   4.520   4.328  16.773  2.5437  0.2410  1.1556
 7665SOL     OW34627   3.851   1.026   2.238 -0.5343  0.7447 -0.0874
 7665SOL    HW134628   3.852   0.981   2.153  0.6450  0.1084  0.2523
 7665SOL    HW234629   3.943   1.011   2.260 -0.7362  1.5514  1.2983
 7666SOL     OW34630   2.468   3.981   5.145 -0.3366  0.4541 -0.5259
 7666SOL    HW134631   2.500   3.925   5.216 -2.9384  2.4315  2.1814
 7666SOL    HW234632   2.414   4.044   5.192 -0.6558 -0.8722  0.8559
 7667SOL     OW34633   2.861   2.664   8.130 -0.7102 -0.1574 -0.3872
 7667SOL    HW134634   2.894   2.752   8.111  0.2862 -0.2212  1.0730
 7667SOL    HW234635   2.942   2.613   8.126 -2.1143 -2.2378 -2.3278
 7668SOL     OW34636   3.276   3.474   4.808  0.4647 -0.5747  0.7360
 7668SOL    HW134637   3.287   3.532   4.883 -0.0112  0.1576  0.2425
 7668SOL    HW234638   3.288   3.384   4.837 -0.9820 -1.0098 -0.0082
 7669SOL     OW34639   0.769   3.149  11.377 -0.0040 -0.3963  0.6897
 7669SOL    HW134640   0.731   3.182  11.296  3.8821 -0.0946 -0.9990
 7669SOL    HW234641   0.854   3.192  11.387  0.0796 -0.2300 -0.8124
 7670SOL     OW34642   1.944   3.859   7.778  0.3070  0.1817 -0.0684
 7670SOL    HW134643   2.010   3.850   7.710  0.5906  1.0800  0.0769
 7670SOL    HW234644   1.878   3.796   7.752  0.3300 -0.6042  1.7497
 7671SOL     OW34645   4.443   3.679   6.008 -0.9432  0.5932 -0.3274
 7671SOL    HW134646   4.512   3.714   6.065 -1.0796  2.6542 -1.4424
 7671SOL    HW234647   4.425   3.759   5.958 -2.7618  1.4023  1.6265
 7672SOL     OW34648   3.677   2.685   5.967 -0.1282 -0.2709  0.1301
 7672SOL    HW134649   3.702   2.608   5.916 -1.7330 -0.6042 -0.1354
 7672SOL    HW234650   3.686   2.746   5.894 -0.7460 -0.3385  0.0019
 7673SOL     OW34651   2.224   4.414  11.573  0.1453  0.0209  0.1105
 7673SOL    HW134652   2.311   4.398  11.610  0.9305 -0.1442 -1.8133
 7673SOL    HW234653   2.179   4.331  11.587  3.4471 -1.5421  1.4589
 7674SOL     OW34654   0.202   1.264  16.875  0.8231 -0.2464  0.3096
 7674SOL    HW134655   0.272   1.275  16.811  0.1386  0.0300 -0.3957
 7674SOL    HW234656   0.191   1.354  16.903 -0.5545 -1.0969  2.5274
 7675SOL     OW34657   3.392   0.554   5.820  0.2385 -0.1188  0.3732
 7675SOL    HW134658   3.299   0.569   5.835 -0.7570 -2.5163 -3.6278
 7675SOL    HW234659   3.429   0.608   5.890 -0.0762  1.4132 -0.6351
 7676SOL     OW34660   3.806   4.123   1.782 -0.3289 -0.0900 -0.0544
 7676SOL    HW134661   3.741   4.193   1.782 -1.1799 -0.8965  1.9949
 7676SOL    HW234662   3.833   4.115   1.690  0.6253 -1.1589  0.3224
 7677SOL     OW34663   4.051   3.230   3.729  0.2452  0.3840 -0.6171
 7677SOL    HW134664   4.018   3.239   3.818 -0.3869 -0.5075 -0.7587
 7677SOL    HW234665   4.067   3.322   3.707  1.1906  0.0818 -1.2277
 7678SOL     OW34666   0.210   4.736  14.668 -0.1222 -0.3410  0.7963
 7678SOL    HW134667   0.231   0.056  14.595 -0.7534 -0.4747  0.5104
 7678SOL    HW234668   0.131   4.688  14.644  0.9074 -1.1147 -1.0159
 7679SOL     OW34669   2.549   3.384   2.179 -0.2228  0.0202  0.1080
 7679SOL    HW134670   2.615   3.443   2.144  0.3259 -0.7652 -0.1706
 7679SOL    HW234671   2.592   3.302   2.201  1.0627  0.4693 -0.7522
 7680SOL     OW34672   3.625   0.186   0.238 -0.3761  0.2981  0.1386
 7680SOL    HW134673   3.707   0.147   0.209 -0.4314  0.0041  0.3763
 7680SOL    HW234674   3.654   0.276   0.222 -3.1866  0.8337 -2.0130
 7681SOL     OW34675   0.577   2.911  14.345  0.2072  0.1139  0.2804
 7681SOL    HW134676   0.552   2.845  14.409  0.9585 -0.7684 -0.3397
 7681SOL    HW234677   0.515   2.889  14.276  1.4496 -4.2524  0.5821
 7682SOL     OW34678   0.871   3.018   4.090 -0.8416  0.7353 -0.1966
 7682SOL    HW134679   0.873   3.113   4.100  0.9729  0.8210 -1.2894
 7682SOL    HW234680   0.795   2.992   4.142  0.2190  0.1208  1.0345
 7683SOL     OW34681   1.030   0.919  12.563 -0.0808 -0.4244  0.1375
 7683SOL    HW134682   0.937   0.933  12.576  0.2333  0.5503  1.3080
 7683SOL    HW234683   1.062   0.975  12.634 -0.3493  0.2514 -0.2823
 7684SOL     OW34684   1.225   3.018  17.065  0.5608 -0.2435 -0.4267
 7684SOL    HW134685   1.181   3.098  17.095  2.6395  1.6825 -2.4376
 7684SOL    HW234686   1.210   3.025  16.970 -2.6918 -2.9156 -0.1074
 7685SOL     OW34687   2.707   4.260   7.445 -0.5385 -0.2275  0.4539
 7685SOL    HW134688   2.699   4.165   7.444 -1.0005 -0.1986  1.2291
 7685SOL    HW234689   2.668   4.285   7.361 -0.1910  0.9194  0.6355
 7686SOL     OW34690   1.600   4.636   1.343 -0.5847 -0.6679  0.2831
 7686SOL    HW134691   1.530   4.580   1.377 -1.3252 -0.2194 -0.5073
 7686SOL    HW234692   1.675   4.592   1.383 -0.0053 -0.0239 -0.0943
 7687SOL     OW34693   1.139   1.186  13.028 -0.2561 -0.3819  0.8202
 7687SOL    HW134694   1.078   1.130  12.979 -2.9491  1.1066  2.4669
 7687SOL    HW234695   1.109   1.152  13.112  0.7126  0.6667  1.5928
 7688SOL     OW34696   3.120   2.267  16.774  0.0444 -0.3076 -0.0763
 7688SOL    HW134697   3.154   2.214  16.702 -2.8695 -2.4421  0.1250
 7688SOL    HW234698   3.092   2.348  16.732  0.4590 -0.7363 -1.1779
 7689SOL     OW34699   0.354   1.539  17.216  0.5163  0.2729 -0.1098
 7689SOL    HW134700   0.345   1.586  17.133 -0.4167 -0.0833 -0.2157
 7689SOL    HW234701   0.446   1.515  17.204  0.6515 -0.5198  2.5250
 7690SOL     OW34702   1.884   2.649   4.144 -0.9534  0.3713  0.6515
 7690SOL    HW134703   1.876   2.722   4.083 -0.2616 -0.0025  0.1119
 7690SOL    HW234704   1.954   2.681   4.200 -0.0182 -0.1861 -0.2048
 7691SOL     OW34705   2.957   1.250   9.115 -0.6281 -0.5915  0.0830
 7691SOL    HW134706   2.921   1.162   9.127  2.7786 -2.2851 -2.1776
 7691SOL    HW234707   2.981   1.257   9.023 -0.1780 -1.2070  0.1547
 7692SOL     OW34708   0.488   3.528   8.764 -0.3211  0.0854  0.3183
 7692SOL    HW134709   0.553   3.458   8.771 -1.7313 -1.5155 -2.2966
 7692SOL    HW234710   0.542   3.581   8.705  2.3805 -0.9582  1.8591
 7693SOL     OW34711   2.917   4.021   2.537 -0.0600 -0.0800 -0.5653
 7693SOL    HW134712   2.968   4.077   2.596 -3.5256 -0.5763  2.8740
 7693SOL    HW234713   2.876   3.963   2.601 -1.7815  0.0182 -1.5891
 7694SOL     OW34714   1.068   4.529   6.134 -0.2377  0.1236  0.9168
 7694SOL    HW134715   1.102   4.443   6.159  2.5070  0.7231 -0.7890
 7694SOL    HW234716   1.022   4.558   6.212  0.7456  0.2196  1.4562
 7695SOL     OW34717   1.143   0.415   6.871  0.3920 -0.7972  0.5428
 7695SOL    HW134718   1.060   0.460   6.857  2.1435  1.8196 -1.4932
 7695SOL    HW234719   1.190   0.470   6.933  1.2003  1.4381 -2.0378
 7696SOL     OW34720   3.397   4.218   7.952  0.0101 -0.5256  0.3987
 7696SOL    HW134721   3.429   4.200   8.041 -0.4228 -0.3077  0.5950
 7696SOL    HW234722   3.319   4.270   7.970  0.8688  1.0045 -0.2828
 7697SOL     OW34723   4.355   2.061   8.530 -0.7113  0.4988  0.0872
 7697SOL    HW134724   4.403   2.042   8.450  2.2324  1.0972  1.7310
 7697SOL    HW234725   4.339   2.151   8.501 -2.7313 -0.1141 -0.6930
 7698SOL     OW34726   4.096   4.451   6.143 -0.7497  0.0495 -0.2531
 7698SOL    HW134727   4.054   4.537   6.144 -2.7203 -0.9322  2.1702
 7698SOL    HW234728   4.063   4.424   6.229 -2.4029  2.9630  0.0243
 7699SOL     OW34729   0.344   3.332   8.197  0.2061 -0.2211  0.5855
 7699SOL    HW134730   0.249   3.330   8.182 -0.1189  0.9839  2.4788
 7699SOL    HW234731   0.346   3.376   8.282  1.9641 -1.0854  0.9968
 7700SOL     OW34732   1.685   3.562  16.428  0.3837  0.1375 -0.2602
 7700SOL    HW134733   1.681   3.471  16.398 -0.8396  0.6667 -1.7533
 7700SOL    HW234734   1.610   3.602  16.383  0.9382  0.4134 -0.9404
 7701SOL     OW34735   4.108   0.192   2.811 -0.1891 -0.3099 -0.0069
 7701SOL    HW134736   4.139   0.212   2.723 -0.4195 -1.3413 -0.3264
 7701SOL    HW234737   4.150   0.108   2.831 -0.4829 -0.4991 -0.1784
 7702SOL     OW34738   0.405   1.329  17.464  0.0790 -0.8072  0.2563
 7702SOL    HW134739   0.447   1.259  17.415  0.4810 -0.8823  0.7034
 7702SOL    HW234740   0.463   1.400  17.438 -1.3767  0.5944  0.7970
 7703SOL     OW34741   1.743   1.282  16.007 -0.4251 -0.1884  0.2598
 7703SOL    HW134742   1.745   1.194  16.044 -0.0287 -0.2568  0.0715
 7703SOL    HW234743   1.787   1.270  15.923 -2.7304 -0.9002 -0.8402
 7704SOL     OW34744   1.846   2.549   9.075 -0.1762 -0.2954 -0.0291
 7704SOL    HW134745   1.801   2.507   9.149 -0.8161  1.9721  0.8845
 7704SOL    HW234746   1.782   2.528   9.007  2.0070 -2.3087 -1.4607
 7705SOL     OW34747   0.319   2.053   3.375  0.1837 -0.5474  0.4054
 7705SOL    HW134748   0.245   2.086   3.324  0.0753  0.3417  1.1218
 7705SOL    HW234749   0.382   2.016   3.314  1.0559  1.7232 -0.0437
 7706SOL     OW34750   3.861   0.921  17.727 -0.4900  0.9212  0.3248
 7706SOL    HW134751   3.949   0.937  17.692 -0.6675 -0.5873 -0.8031
 7706SOL    HW234752   3.873   0.837   0.024 -0.8093  1.5167  1.5247
 7707SOL     OW34753   4.300   2.856   7.580 -0.0557 -0.2547  0.1424
 7707SOL    HW134754   4.313   2.765   7.553 -2.9453 -0.5217 -0.4030
 7707SOL    HW234755   4.258   2.833   7.663  0.2150  0.2805  0.4222
 7708SOL     OW34756   1.142   4.520   7.141  0.0770  0.0109  0.7151
 7708SOL    HW134757   1.071   4.456   7.149 -0.3268  0.2996 -0.5592
 7708SOL    HW234758   1.132   4.594   7.200 -0.4414 -0.6082  1.4079
 7709SOL     OW34759   3.043   0.906   7.899  0.5995 -0.2857 -0.7248
 7709SOL    HW134760   2.994   0.895   7.818 -0.7903  0.5006  0.0295
 7709SOL    HW234761   3.075   0.996   7.901  2.0354 -0.7798 -1.7723
 7710SOL     OW34762   3.445   2.859   4.594 -0.2873 -0.1895  0.4503
 7710SOL    HW134763   3.495   2.873   4.514  2.0746  0.4078  2.0437
 7710SOL    HW234764   3.362   2.905   4.581  0.6358  1.6382  1.0432
 7711SOL     OW34765   1.350   2.532  12.408  0.3537  0.1437 -0.3115
 7711SOL    HW134766   1.446   2.530  12.415  0.3153  1.6403  0.6973
 7711SOL    HW234767   1.335   2.508  12.500  0.9117  0.0147 -0.2551
 7712SOL     OW34768   4.194   2.373   9.043 -0.2249  0.2878  0.5115
 7712SOL    HW134769   4.105   2.398   9.066 -0.1668  1.1338 -0.2119
 7712SOL    HW234770   4.233   2.369   9.130 -0.4491  0.5625  0.6232
 7713SOL     OW34771   3.421   0.713   3.011 -0.1010 -0.4307 -0.1935
 7713SOL    HW134772   3.505   0.732   3.051 -1.1508 -0.7760  2.2041
 7713SOL    HW234773   3.442   0.638   2.955  2.2275 -0.7434  1.1044
 7714SOL     OW34774   1.701   1.781   9.290  0.1705 -0.8737 -0.5132
 7714SOL    HW134775   1.607   1.785   9.307  0.3585 -1.1010  0.5721
 7714SOL    HW234776   1.696   1.731   9.208  3.2728 -1.1471 -0.5630
 7715SOL     OW34777   3.999   0.992   2.684 -0.0933  0.4678  0.0313
 7715SOL    HW134778   3.982   1.084   2.704 -0.3113  0.4493 -0.0675
 7715SOL    HW234779   4.095   0.994   2.680 -0.1356  0.9891 -0.7347
 7716SOL     OW34780   2.781   4.158  12.608  0.3301 -0.4682  0.4165
 7716SOL    HW134781   2.764   4.126  12.520 -0.7097 -1.2729  0.9138
 7716SOL    HW234782   2.869   4.122  12.620  0.4932 -1.4341 -3.6888
 7717SOL     OW34783   3.714   1.127   5.781 -0.3209 -0.1773  0.5785
 7717SOL    HW134784   3.788   1.175   5.743  1.3347 -2.0775  1.3471
 7717SOL    HW234785   3.646   1.193   5.792 -2.1342 -2.1573  1.1286
 7718SOL     OW34786   2.708   4.659   7.155  0.5072  0.3789 -0.5080
 7718SOL    HW134787   2.754   0.005   7.170  2.2242 -1.1563  2.6579
 7718SOL    HW234788   2.744   4.638   7.069  1.5263 -1.5802  0.3944
 7719SOL     OW34789   0.737   3.788   8.011  0.0211  0.2315  0.1066
 7719SOL    HW134790   0.670   3.763   8.075  0.0218 -0.2903 -0.0952
 7719SOL    HW234791   0.816   3.782   8.065  0.9782  1.8892 -1.1003
 7720SOL     OW34792   0.780   1.110   8.230  0.4161 -0.3992 -0.2257
 7720SOL    HW134793   0.709   1.047   8.222  0.5383 -0.8216  2.1365
 7720SOL    HW234794   0.835   1.079   8.158 -1.3796 -0.6665 -1.4833
 7721SOL     OW34795   0.360   1.053  17.196 -0.0488  0.3668 -0.0097
 7721SOL    HW134796   0.361   0.958  17.183  0.8477  0.4373 -0.4583
 7721SOL    HW234797   0.268   1.068  17.173  0.4121  2.7394 -0.3751
 7722SOL     OW34798   2.252   0.009   5.304 -0.3551 -0.0115 -0.4491
 7722SOL    HW134799   2.251   0.096   5.265  1.5853 -0.6057 -1.8385
 7722SOL    HW234800   2.177   4.729   5.362 -2.0291 -0.7475 -2.8361
 7723SOL     OW34801   2.268   2.562   4.046  0.6028 -0.3267 -0.2212
 7723SOL    HW134802   2.277   2.499   3.974  0.8375 -0.9096  0.3226
 7723SOL    HW234803   2.189   2.526   4.084 -1.1694  0.7030 -2.9054
 7724SOL     OW34804   0.475   1.259   3.456 -0.0652  0.6368 -0.2219
 7724SOL    HW134805   0.466   1.259   3.551  1.1240 -0.1835 -0.1026
 7724SOL    HW234806   0.528   1.337   3.439 -0.6359  1.0096 -0.2938
 7725SOL     OW34807   1.088   2.780  12.073  0.4874  0.5435  0.2195
 7725SOL    HW134808   1.107   2.789  11.980  2.0225 -0.1866  0.4698
 7725SOL    HW234809   1.160   2.727  12.106  1.5429  1.4271 -0.6695
 7726SOL     OW34810   2.805   2.312   5.608  0.0562  0.0377  0.0462
 7726SOL    HW134811   2.883   2.350   5.567 -0.9624  1.4092 -0.5977
 7726SOL    HW234812   2.800   2.233   5.554 -1.3612 -0.7664  1.3476
 7727SOL     OW34813   4.223   0.826   4.879  0.1820 -0.0864  0.0335
 7727SOL    HW134814   4.157   0.856   4.942  0.4211 -0.0011  0.2430
 7727SOL    HW234815   4.219   0.903   4.822  3.0264  1.0633  1.3402
 7728SOL     OW34816   0.252   2.422   9.992 -0.2343 -0.7456  0.2027
 7728SOL    HW134817   0.163   2.457   9.983  0.0994  0.2746  0.8937
 7728SOL    HW234818   0.262   2.426  10.087 -1.0730  0.2400  0.2485
 7729SOL     OW34819   1.680   4.203   4.512  0.1473 -0.4443 -0.4870
 7729SOL    HW134820   1.623   4.140   4.555  2.1147 -1.3561  0.7925
 7729SOL    HW234821   1.761   4.166   4.548 -1.3381 -1.6756  1.5854
 7730SOL     OW34822   4.559   0.155  10.111  0.2796 -0.2003  0.1042
 7730SOL    HW134823   4.617   0.227  10.134  1.2413 -1.1802  0.7177
 7730SOL    HW234824   4.533   0.123  10.198 -0.2191  1.0173  0.4064
 7731SOL     OW34825   2.243   2.382   3.409 -0.0502 -0.6488  0.0979
 7731SOL    HW134826   2.287   2.298   3.420 -0.9438 -0.8753  1.9617
 7731SOL    HW234827   2.165   2.377   3.465 -0.5167  1.7694 -0.3270
 7732SOL     OW34828   0.521   4.422   3.403 -0.0552 -1.0127 -0.2874
 7732SOL    HW134829   0.512   4.330   3.428 -3.1720 -1.0317 -1.4039
 7732SOL    HW234830   0.430   4.440   3.379 -0.5964  1.3580  3.5025
 7733SOL     OW34831   1.157   2.881   1.898 -1.0573 -0.2347  0.2279
 7733SOL    HW134832   1.209   2.947   1.852 -3.9122 -0.3801 -3.2034
 7733SOL    HW234833   1.066   2.912   1.892 -0.5144  0.7753 -2.7360
 7734SOL     OW34834   0.539   1.007   9.649  0.1069 -0.1164  0.1695
 7734SOL    HW134835   0.477   0.977   9.715  0.7383  0.6184  1.0967
 7734SOL    HW234836   0.526   1.102   9.655  2.5534  0.3645 -2.4284
 7735SOL     OW34837   1.151   4.618   2.996  0.4524  0.0195  0.1574
 7735SOL    HW134838   1.113   4.543   2.950 -0.0244 -0.4424  1.2867
 7735SOL    HW234839   1.081   4.682   2.982  2.5703  1.7843 -2.4440
 7736SOL     OW34840   4.450   4.386   8.435  0.2845 -0.4167  0.3489
 7736SOL    HW134841   4.473   4.392   8.343  2.2764 -0.4937  0.8313
 7736SOL    HW234842   4.510   4.316   8.463  0.2909 -1.5599 -2.5970
 7737SOL     OW34843   4.181   0.019  14.855 -0.6789 -0.1180 -0.1172
 7737SOL    HW134844   4.216   0.046  14.770 -0.0002  1.3717  0.6248
 7737SOL    HW234845   4.141   4.674  14.828  1.9514 -0.7096 -2.2278
 7738SOL     OW34846   0.408   2.277  13.713  0.2690  0.3015  0.2900
 7738SOL    HW134847   0.465   2.325  13.654  0.5613  1.2610  1.3585
 7738SOL    HW234848   0.464   2.273  13.791  2.5833 -0.7080 -1.4304
 7739SOL     OW34849   1.612   2.525  12.318  0.3271  0.2366 -0.2720
 7739SOL    HW134850   1.668   2.597  12.348  1.3532 -1.3808  1.6621
 7739SOL    HW234851   1.606   2.543  12.224  0.4706  2.1907  0.0838
 7740SOL     OW34852   4.712   1.004  14.771  0.0699  0.3960  0.1440
 7740SOL    HW134853   0.012   0.973  14.689 -0.0375  1.0744 -0.1607
 7740SOL    HW234854   0.057   1.031  14.810 -0.3271 -0.0876  1.3175
 7741SOL     OW34855   2.181   1.115  14.827  0.6098  0.1811 -0.9937
 7741SOL    HW134856   2.260   1.168  14.815  0.7342  0.1343 -0.4105
 7741SOL    HW234857   2.200   1.032  14.784  1.0144 -0.6852  0.8267
 7742SOL     OW34858   2.805   1.932   7.309 -0.0711 -0.1988  0.7807
 7742SOL    HW134859   2.789   1.943   7.403  2.1553  2.3011  0.8722
 7742SOL    HW234860   2.737   1.989   7.275  1.7210  2.0177  0.9243
 7743SOL     OW34861   2.832   1.831  10.305  0.1075  0.2456  1.2424
 7743SOL    HW134862   2.755   1.818  10.250  1.5368  0.4372 -0.7847
 7743SOL    HW234863   2.800   1.796  10.389 -2.0332 -0.9913 -0.0927
 7744SOL     OW34864   4.349   2.298   8.410  0.3383  0.9559 -0.4569
 7744SOL    HW134865   4.437   2.320   8.377  0.2789  0.3022 -1.0491
 7744SOL    HW234866   4.327   2.381   8.451  1.9924  1.0534  0.2464
 7745SOL     OW34867   2.874   4.524   2.716  0.1483  0.4957  0.2949
 7745SOL    HW134868   2.835   4.553   2.798 -0.5403  0.2558  0.0532
 7745SOL    HW234869   2.898   4.434   2.737  0.6301  0.6164  0.2546
 7746SOL     OW34870   1.249   3.793   4.685 -0.1541  0.3060 -0.1557
 7746SOL    HW134871   1.337   3.759   4.700 -0.3014 -0.3686 -0.7961
 7746SOL    HW234872   1.250   3.877   4.731 -0.2008 -0.3319  0.9968
 7747SOL     OW34873   3.597   3.136   6.970  0.5219 -0.0291 -0.1733
 7747SOL    HW134874   3.657   3.080   7.019 -2.7673 -1.2696  2.4326
 7747SOL    HW234875   3.564   3.084   6.896  1.0732  1.0473 -1.1676
 7748SOL     OW34876   3.326   1.866  17.238  0.5051  0.2037  0.4356
 7748SOL    HW134877   3.408   1.885  17.284  0.1959  0.9788  0.6633
 7748SOL    HW234878   3.322   1.948  17.189  1.4895 -0.6525 -1.0836
 7749SOL     OW34879   2.415   3.909  13.296  0.1175  0.0163 -0.2690
 7749SOL    HW134880   2.498   3.901  13.249  0.4076  0.6539  0.1397
 7749SOL    HW234881   2.416   4.004  13.308 -1.3316 -0.1022  0.8186
 7750SOL     OW34882   0.073   1.881   8.165  0.3039 -0.1918  0.1672
 7750SOL    HW134883   0.112   1.920   8.087 -1.2784  1.5697  0.2527
 7750SOL    HW234884   4.723   1.854   8.139 -0.4428  1.4175  0.9902
 7751SOL     OW34885   4.307   2.314   9.289 -0.1783 -0.2868  0.5060
 7751SOL    HW134886   4.333   2.364   9.366  0.1627 -0.8873  0.7840
 7751SOL    HW234887   4.332   2.226   9.319 -1.9554 -0.6555  0.9087
 7752SOL     OW34888   4.058   0.471   0.956  0.2988 -0.4684  0.3942
 7752SOL    HW134889   4.066   0.383   0.993 -0.7288 -0.9795 -0.5905
 7752SOL    HW234890   4.026   0.520   1.031 -2.0087 -1.0849 -0.1683
 7753SOL     OW34891   4.088   0.129   8.686  0.6400 -0.4541  0.4576
 7753SOL    HW134892   4.178   0.158   8.671  1.4877 -2.8456  0.7810
 7753SOL    HW234893   4.038   0.207   8.709  2.0674  1.2495 -2.1617
 7754SOL     OW34894   0.454   4.688  15.393  0.0982 -0.1777 -0.0397
 7754SOL    HW134895   0.549   4.683  15.394 -0.0639 -2.9654  0.3741
 7754SOL    HW234896   0.428   4.631  15.321  1.4495  1.0175 -1.4587
 7755SOL     OW34897   1.367   4.449   6.058  0.4163  0.1393  0.1916
 7755SOL    HW134898   1.440   4.487   6.009 -1.6537 -1.5887 -4.2326
 7755SOL    HW234899   1.295   4.503   6.028  0.1265 -0.3623 -0.0172
 7756SOL     OW34900   2.888   0.880   4.534 -0.3881  1.1937 -0.9192
 7756SOL    HW134901   2.818   0.889   4.599  1.2080  1.2434  0.8196
 7756SOL    HW234902   2.931   0.964   4.549  2.0547 -0.4655  1.4646
 7757SOL     OW34903   3.929   4.186   2.353  0.1203 -0.7694  0.0097
 7757SOL    HW134904   3.912   4.280   2.342  2.0847 -0.5291 -1.0128
 7757SOL    HW234905   3.838   4.162   2.337 -0.3474 -0.4711  2.2014
 7758SOL     OW34906   3.443   4.100   9.143 -0.4963  0.3537 -0.3341
 7758SOL    HW134907   3.423   4.169   9.206 -1.3679 -0.7060  0.5537
 7758SOL    HW234908   3.394   4.031   9.189  0.3215  0.1162  0.1751
 7759SOL     OW34909   3.340   1.501   7.057 -0.3948  0.2678 -0.3322
 7759SOL    HW134910   3.312   1.510   6.966 -3.0128 -0.9185  0.3614
 7759SOL    HW234911   3.256   1.467   7.088  1.3772 -0.7978  3.3670
 7760SOL     OW34912   1.078   4.235   7.335 -0.3797 -0.0344 -0.4467
 7760SOL    HW134913   1.052   4.146   7.360  0.7274  0.5584  2.8525
 7760SOL    HW234914   1.127   4.251   7.416 -0.2978  0.0196 -0.5073
 7761SOL     OW34915   1.011   2.063   3.326 -0.0643  0.5043  0.2745
 7761SOL    HW134916   0.937   2.106   3.283  0.5450  1.1239 -0.1489
 7761SOL    HW234917   1.086   2.089   3.273 -0.8733  2.0121 -0.1399
 7762SOL     OW34918   0.035   1.211  14.495 -0.3018  0.1636  0.0270
 7762SOL    HW134919   0.119   1.172  14.517 -1.6259 -2.4662  0.4345
 7762SOL    HW234920   4.728   1.153  14.433 -0.7814 -0.2877  0.7893
 7763SOL     OW34921   0.903   1.369   9.293  0.2584 -0.1983 -0.4826
 7763SOL    HW134922   0.860   1.350   9.376  1.9746  0.9034  0.6405
 7763SOL    HW234923   0.831   1.415   9.249 -1.6408 -1.1846  1.6217
 7764SOL     OW34924   3.508   2.828   3.608 -0.2068 -0.3127 -0.4959
 7764SOL    HW134925   3.489   2.746   3.563 -0.2890 -0.7912  0.4230
 7764SOL    HW234926   3.494   2.898   3.544 -0.8854 -0.3823 -0.4274
 7765SOL     OW34927   3.122   4.015   3.867 -0.0943  0.3401 -0.5604
 7765SOL    HW134928   3.183   4.086   3.886 -2.0225  2.2477 -1.4450
 7765SOL    HW234929   3.179   3.938   3.869 -0.1968  0.2788 -0.0001
 7766SOL     OW34930   3.677   3.945   7.756  0.4849  0.3416 -0.2170
 7766SOL    HW134931   3.708   3.870   7.705 -0.8597  0.5608 -1.3623
 7766SOL    HW234932   3.734   4.011   7.717 -0.1597  0.5137 -0.8759
 7767SOL     OW34933   4.048   3.837   6.077  0.1200 -0.3012  0.0641
 7767SOL    HW134934   4.010   3.885   6.151  0.8495  1.3490 -0.6313
 7767SOL    HW234935   4.057   3.907   6.013  0.2002  1.0126  1.5057
 7768SOL     OW34936   2.610   1.726  10.171 -0.5080  0.0916 -0.6122
 7768SOL    HW134937   2.540   1.764  10.117  0.2865  0.7843 -1.1545
 7768SOL    HW234938   2.560   1.672  10.232 -1.0031  1.0088 -0.2219
 7769SOL     OW34939   0.845   1.708   3.342 -0.2991 -0.4482 -0.4921
 7769SOL    HW134940   0.841   1.731   3.435 -0.2516  0.2403 -0.6572
 7769SOL    HW234941   0.816   1.617   3.350  0.7629 -0.9468 -2.2874
 7770SOL     OW34942   1.251   1.993   8.315  0.0105  0.0889 -0.1972
 7770SOL    HW134943   1.205   1.909   8.316 -2.5983  1.5291 -0.3058
 7770SOL    HW234944   1.338   1.968   8.284  0.3640  1.2128 -0.0911
 7771SOL     OW34945   0.346   0.170  15.465 -0.0951 -0.2786  0.3066
 7771SOL    HW134946   0.255   0.140  15.467  0.8170 -3.0364 -0.8419
 7771SOL    HW234947   0.389   0.096  15.423 -0.4113 -0.3498  0.1041
 7772SOL     OW34948   2.925   2.447   1.675  0.4486 -0.0478  0.1125
 7772SOL    HW134949   3.014   2.448   1.639  0.9385  0.7544  1.3422
 7772SOL    HW234950   2.949   2.418   1.764 -1.3441  0.8271  0.8667
 7773SOL     OW34951   2.480   0.161   6.118 -0.0842 -0.0756  0.5603
 7773SOL    HW134952   2.565   0.184   6.081 -1.3096  1.3682 -1.3928
 7773SOL    HW234953   2.425   0.218   6.063  1.5390  1.2042  0.2674
 7774SOL     OW34954   0.422   2.152  10.055 -0.5452  0.1164 -0.0902
 7774SOL    HW134955   0.410   2.109  10.140  1.8168  2.6378  1.5146
 7774SOL    HW234956   0.363   2.225  10.071 -1.2225 -1.2653  3.6928
 7775SOL     OW34957   2.145   2.786   3.157  0.4781  0.4001 -0.2750
 7775SOL    HW134958   2.216   2.835   3.116  0.0417  0.9132 -0.4207
 7775SOL    HW234959   2.180   2.729   3.225  3.2412  1.5308 -0.7423
 7776SOL     OW34960   4.015   2.487  11.328 -0.0589 -0.5243  0.7236
 7776SOL    HW134961   4.096   2.482  11.278 -0.3787  0.3959  0.1079
 7776SOL    HW234962   4.025   2.416  11.392 -0.8611 -1.4318 -0.1687
 7777SOL     OW34963   1.294   2.748   9.649 -0.1665  0.2549  0.6780
 7777SOL    HW134964   1.337   2.744   9.735 -0.6161 -0.7901  0.8559
 7777SOL    HW234965   1.205   2.730   9.679 -1.5208  2.2577 -2.1504
 7778SOL     OW34966   2.409   2.418  14.137 -0.1209 -0.1299  0.0280
 7778SOL    HW134967   2.464   2.490  14.107 -0.4874  0.2856  0.3453
 7778SOL    HW234968   2.429   2.359  14.064  1.3836 -0.6041  0.8299
 7779SOL     OW34969   1.649   3.038   5.940 -0.1297 -0.6487 -0.1593
 7779SOL    HW134970   1.703   2.986   5.881  0.6785  0.2547 -0.2344
 7779SOL    HW234971   1.590   2.971   5.974 -0.7441  0.0088  0.0703
 7780SOL     OW34972   1.190   3.827   9.752  0.3183 -0.1363 -0.9121
 7780SOL    HW134973   1.122   3.789   9.697 -2.0184 -0.3423  2.1206
 7780SOL    HW234974   1.229   3.751   9.796  0.4741  1.0117  0.9145
 7781SOL     OW34975   4.364   2.321   8.032 -0.5150 -0.1678 -0.0332
 7781SOL    HW134976   4.339   2.229   8.027 -1.4334 -0.0338  1.8885
 7781SOL    HW234977   4.460   2.319   8.038 -0.5861  0.2155  1.2374
 7782SOL     OW34978   4.489   2.017   8.279  0.2715  0.5482  0.8419
 7782SOL    HW134979   4.528   1.935   8.250 -0.5552 -0.1555  1.7195
 7782SOL    HW234980   4.418   2.028   8.216  0.5538  1.1730  0.6362
 7783SOL     OW34981   3.216   3.939  12.693  0.3258 -0.2258  0.0394
 7783SOL    HW134982   3.224   3.853  12.736 -0.9386 -0.8943 -1.0664
 7783SOL    HW234983   3.308   3.964  12.704  0.9563 -1.6114 -2.1326
 7784SOL     OW34984   4.167   4.549   3.116 -0.4176 -0.0355 -0.2598
 7784SOL    HW134985   4.173   4.578   3.207 -0.3676  1.4091 -0.7139
 7784SOL    HW234986   4.104   4.477   3.122  0.5653 -0.9439 -0.8740
 7785SOL     OW34987   3.883   0.015   5.634  0.0184  0.0453  0.4307
 7785SOL    HW134988   3.965   4.704   5.631  1.6517  2.7042  1.7398
 7785SOL    HW234989   3.886   0.063   5.717  2.1870 -0.9501  0.9085
 7786SOL     OW34990   1.689   4.468   3.902 -0.3393 -0.6901  0.3968
 7786SOL    HW134991   1.760   4.406   3.891  1.4666  1.2007  1.3982
 7786SOL    HW234992   1.616   4.418   3.866 -1.1934  1.1163 -0.3799
 7787SOL     OW34993   1.819   0.365   2.157 -0.0681  0.6646  0.1088
 7787SOL    HW134994   1.763   0.288   2.156 -0.9197  1.3574 -2.5280
 7787SOL    HW234995   1.775   0.416   2.090 -1.0792 -4.0514 -2.8620
 7788SOL     OW34996   3.589   3.037  15.547  0.3691  0.8333 -0.0828
 7788SOL    HW134997   3.620   2.966  15.491  0.7043  1.0992 -0.2319
 7788SOL    HW234998   3.601   2.989  15.629  0.1639 -2.1332 -1.7926
 7789SOL     OW34999   2.128   0.038   2.569 -0.2746  0.1695 -0.0312
 7789SOL    HW135000   2.063   0.105   2.547  0.9170  1.2147 -0.3724
 7789SOL    HW235001   2.148   0.048   2.662  3.1687 -0.0958 -0.7354
 7790SOL     OW35002   0.821   3.972  14.992  0.0521 -0.0959 -0.4501
 7790SOL    HW135003   0.849   3.994  15.081 -0.8124 -1.3752  0.1288
 7790SOL    HW235004   0.908   3.970  14.953  0.0281 -1.2893 -0.4344
 7791SOL     OW35005   2.427   2.851   4.692 -0.1620 -0.5578  0.2812
 7791SOL    HW135006   2.394   2.936   4.662 -2.3967 -1.4884  0.0932
 7791SOL    HW235007   2.472   2.822   4.613 -1.6989  0.0984 -0.8584
 7792SOL     OW35008   0.773   4.330   5.660  0.7562 -0.6434 -1.0406
 7792SOL    HW135009   0.862   4.313   5.691 -0.2037  0.5846  2.3433
 7792SOL    HW235010   0.724   4.330   5.742  1.3535  2.3229 -0.6877
 7793SOL     OW35011   3.692   0.029   6.714 -0.1599 -0.8027 -0.4435
 7793SOL    HW135012   3.700   0.103   6.655 -0.0373  0.7228  1.4958
 7793SOL    HW235013   3.760   0.049   6.778  0.0659 -1.2654 -0.5338
 7794SOL     OW35014   4.059   3.316   7.482 -0.2137 -0.1377  0.2716
 7794SOL    HW135015   4.121   3.360   7.423 -2.8406  1.2745 -1.4167
 7794SOL    HW235016   4.005   3.261   7.425  1.5403  0.1183 -1.6607
 7795SOL     OW35017   2.989   0.219   8.203  0.0993  0.2954 -0.0013
 7795SOL    HW135018   3.028   0.260   8.126  1.1804  0.0425  0.4134
 7795SOL    HW235019   3.048   0.247   8.273 -1.5906  0.8163  1.2181
 7796SOL     OW35020   4.331   2.097   8.793 -0.3453  0.3327 -0.0983
 7796SOL    HW135021   4.345   2.099   8.698  0.7002  0.2843  0.0632
 7796SOL    HW235022   4.240   2.127   8.788 -0.6082 -0.6873 -1.5761
 7797SOL     OW35023   1.180   0.198  16.076  0.0968 -0.3383 -0.2431
 7797SOL    HW135024   1.263   0.239  16.053  0.9768 -1.8592  0.1633
 7797SOL    HW235025   1.148   0.257  16.145  1.5894  0.7069 -0.4611
 7798SOL     OW35026   3.291   0.281  12.526 -0.1915 -0.2189  0.4171
 7798SOL    HW135027   3.375   0.309  12.489 -0.1735  0.4035  0.9382
 7798SOL    HW235028   3.226   0.341  12.490 -0.2847  0.7648  2.2218
 7799SOL     OW35029   4.489   1.486  17.622 -0.1252 -0.2055  0.6328
 7799SOL    HW135030   4.465   1.512  17.711 -0.0935 -0.1799  0.6337
 7799SOL    HW235031   4.577   1.523  17.622  0.1658 -0.8956 -0.5226
 7800SOL     OW35032   3.374   0.564   2.581  0.4968 -0.1396  0.0347
 7800SOL    HW135033   3.438   0.570   2.652 -0.3341 -0.1741  0.7737
 7800SOL    HW235034   3.329   0.482   2.601  1.8007 -0.3914  1.9347
 7801SOL     OW35035   0.971   3.089   3.803  0.5397 -0.4569 -0.2329
 7801SOL    HW135036   0.952   3.104   3.896 -1.1445 -0.2919 -0.5986
 7801SOL    HW235037   1.048   3.032   3.805 -0.0514 -1.2281  1.0844
 7802SOL     OW35038   3.868   0.642   1.523  0.3973 -0.5905  0.1395
 7802SOL    HW135039   3.844   0.654   1.615 -0.5271  1.3246 -0.3499
 7802SOL    HW235040   3.792   0.593   1.492 -0.0434  0.1238  0.0823
 7803SOL     OW35041   3.911   1.500  14.140  0.2681  0.5017  0.2531
 7803SOL    HW135042   3.982   1.440  14.117 -0.2747 -0.4462  1.0613
 7803SOL    HW235043   3.833   1.454  14.109  0.0949 -0.1641  1.6737
 7804SOL     OW35044   3.984   1.949   3.415 -0.0254  0.3470  0.0806
 7804SOL    HW135045   3.925   1.874   3.419 -3.3868  3.0013  0.8893
 7804SOL    HW235046   4.068   1.906   3.398  0.0062 -0.1985  1.6829
 7805SOL     OW35047   0.123   3.699   7.100 -0.2629  0.5613 -0.2595
 7805SOL    HW135048   0.186   3.674   7.033  0.6764 -1.2728  1.3209
 7805SOL    HW235049   0.168   3.778   7.130  1.0684 -0.5072  0.5393
 7806SOL     OW35050   0.134   2.227   2.781 -0.3309  0.0894 -0.3652
 7806SOL    HW135051   0.118   2.192   2.693 -0.0153 -1.8995  0.3627
 7806SOL    HW235052   0.185   2.151   2.810  0.5682  0.7327 -0.2867
 7807SOL     OW35053   1.405   4.648   8.599 -0.2987 -0.6898 -0.7163
 7807SOL    HW135054   1.370   4.632   8.687  0.6447  1.4033  0.0559
 7807SOL    HW235055   1.333   4.703   8.568 -0.3825 -0.7190 -0.5749
 7808SOL     OW35056   0.438   3.598   2.760 -0.0354 -0.1625  0.0161
 7808SOL    HW135057   0.488   3.677   2.739 -1.6992  1.1192  0.8713
 7808SOL    HW235058   0.380   3.647   2.819 -0.1226 -1.9464  1.4086
 7809SOL     OW35059   1.502   3.840   8.984 -0.1260 -0.1920  0.5827
 7809SOL    HW135060   1.543   3.895   9.051  1.7371 -0.1611 -0.5977
 7809SOL    HW235061   1.444   3.906   8.946  3.0933  2.4991  0.3168
 7810SOL     OW35062   3.846   0.201   1.243 -0.5898  0.1520 -0.1176
 7810SOL    HW135063   3.790   0.203   1.321 -1.5660 -0.4340 -0.7987
 7810SOL    HW235064   3.882   0.112   1.243 -1.8645 -0.3716 -0.8782
 7811SOL     OW35065   0.829   1.439  11.884  0.3148  0.0168 -0.1099
 7811SOL    HW135066   0.770   1.433  11.809  0.1486 -1.5820  0.1428
 7811SOL    HW235067   0.901   1.386  11.847  0.7531  0.3898  0.2044
 7812SOL     OW35068   3.799   0.320  15.679  0.1461  0.1545 -0.0570
 7812SOL    HW135069   3.824   0.323  15.587  1.7723  1.4495  0.4401
 7812SOL    HW235070   3.710   0.357  15.676  0.5212  1.1607  0.9937
 7813SOL     OW35071   1.949   3.554  16.685  0.7399  0.4672  0.3242
 7813SOL    HW135072   1.966   3.559  16.779  0.8668  2.2795  0.2005
 7813SOL    HW235073   1.926   3.644  16.663 -2.9098 -0.4795  0.3092
 7814SOL     OW35074   4.709   0.009  12.999  0.3206  0.1089 -0.2381
 7814SOL    HW135075   4.657   4.693  13.058 -0.4570 -1.0529 -1.9852
 7814SOL    HW235076   0.045   4.690  12.972  0.3242  1.1372 -2.4110
 7815SOL     OW35077   3.271   2.713   4.057  0.5919 -0.5768 -0.3029
 7815SOL    HW135078   3.208   2.649   4.025  1.2020 -0.7370 -1.1753
 7815SOL    HW235079   3.345   2.653   4.057 -0.0256 -1.3516 -2.2102
 7816SOL     OW35080   0.067   4.434   1.490 -0.2436  0.0320  0.2263
 7816SOL    HW135081   0.041   4.360   1.435 -0.9824 -0.7286  1.6078
 7816SOL    HW235082   0.132   4.392   1.545 -1.0387  1.6101  2.3550
 7817SOL     OW35083   1.643   2.393   9.926 -0.0828  0.0154  0.3122
 7817SOL    HW135084   1.649   2.383  10.021  0.3698 -0.9140  0.1787
 7817SOL    HW235085   1.716   2.339   9.897 -0.7817 -0.5373 -0.4234
 7818SOL     OW35086   2.667   2.381   2.873 -0.9782  0.2551  0.1430
 7818SOL    HW135087   2.646   2.334   2.953  0.5867 -1.4481 -0.4378
 7818SOL    HW235088   2.651   2.321   2.800  1.7013  1.2825 -1.3124
 7819SOL     OW35089   2.983   4.335   3.534 -0.2392  0.3580 -0.2742
 7819SOL    HW135090   2.889   4.315   3.536  0.0004 -0.6497  1.1210
 7819SOL    HW235091   2.968   4.428   3.550  2.4174  0.4159  1.8028
 7820SOL     OW35092   2.818   2.473   6.194  0.1160  0.1123  0.3309
 7820SOL    HW135093   2.908   2.489   6.166 -0.0722 -0.1557 -0.4310
 7820SOL    HW235094   2.774   2.556   6.176  0.6966 -0.1326 -2.3476
 7821SOL     OW35095   2.066   2.354  11.569  0.2302  0.6196  0.1091
 7821SOL    HW135096   2.155   2.369  11.600  0.8664 -1.8736 -0.5016
 7821SOL    HW235097   2.087   2.295  11.497 -0.4598  1.3965 -0.7161
 7822SOL     OW35098   2.211   3.310   8.084  0.4076 -0.5045  0.3621
 7822SOL    HW135099   2.142   3.376   8.093 -0.9115 -1.8985  0.3948
 7822SOL    HW235100   2.177   3.236   8.035 -0.6953 -0.0346  0.4100
 7823SOL     OW35101   0.450   3.242  12.360 -0.0743 -0.1680  0.1978
 7823SOL    HW135102   0.395   3.168  12.336 -0.9707  0.7115 -0.4925
 7823SOL    HW235103   0.509   3.206  12.427  0.8680  0.6254 -0.2000
 7824SOL     OW35104   3.742   0.769   0.978 -0.0413  0.0167 -0.0955
 7824SOL    HW135105   3.714   0.762   0.887 -0.5339  0.4933  0.0237
 7824SOL    HW235106   3.837   0.774   0.964  0.5749 -1.0923  3.6337
 7825SOL     OW35107   3.888   4.709   9.289  0.0518 -0.5375 -0.1242
 7825SOL    HW135108   3.878   0.007   9.377  1.2653 -0.1999 -0.1195
 7825SOL    HW235109   3.947   4.634   9.297 -0.2588 -0.9398 -1.6371
 7826SOL     OW35110   0.964   3.080  13.241  0.2494 -0.3343  0.9463
 7826SOL    HW135111   0.973   3.053  13.150  1.1769  2.2915  0.2666
 7826SOL    HW235112   0.881   3.129  13.240 -0.6430 -1.8399  1.5624
 7827SOL     OW35113   4.424   4.431   1.924  0.0480 -0.0968  0.4043
 7827SOL    HW135114   4.399   4.409   1.834  0.1799  0.0163  0.3390
 7827SOL    HW235115   4.471   4.350   1.943 -0.3439 -0.1293  1.1880
 7828SOL     OW35116   1.418   0.363   6.270 -0.4275 -0.4667 -0.0289
 7828SOL    HW135117   1.352   0.377   6.337 -1.2587 -0.7798 -0.7824
 7828SOL    HW235118   1.382   0.397   6.188 -1.9713 -1.3588  0.2753
 7829SOL     OW35119   4.522   1.958   1.603 -0.2264  0.2805  0.4928
 7829SOL    HW135120   4.473   2.015   1.663 -0.9009  2.0280 -1.6967
 7829SOL    HW235121   4.444   1.938   1.551  0.3360 -1.9399  0.5221
 7830SOL     OW35122   1.639   2.434   3.425  0.0957 -0.0320 -0.2938
 7830SOL    HW135123   1.702   2.498   3.458 -1.0155  1.5308 -1.1695
 7830SOL    HW235124   1.556   2.475   3.448  0.1074 -0.5280  0.6296
 7831SOL     OW35125   1.109   0.750   8.043 -0.1296 -0.1242  0.4361
 7831SOL    HW135126   1.149   0.837   8.050  0.1125 -0.2724  0.8643
 7831SOL    HW235127   1.169   0.697   7.990  1.6649  0.7165  1.6140
 7832SOL     OW35128   1.940   4.292   1.617  0.4348 -0.3030  0.7751
 7832SOL    HW135129   2.004   4.323   1.682 -0.0572  0.1001  1.0636
 7832SOL    HW235130   1.978   4.318   1.533  0.2097  1.0486  1.0964
 7833SOL     OW35131   3.594   2.068   5.637 -0.1270  0.0025 -0.4233
 7833SOL    HW135132   3.578   1.974   5.625  1.1055 -0.0364 -1.7813
 7833SOL    HW235133   3.572   2.077   5.730  1.8369 -3.3480  0.3826
 7834SOL     OW35134   0.641   2.195   9.648  0.6256  0.1350 -0.2847
 7834SOL    HW135135   0.593   2.273   9.675 -0.4008 -0.6485  0.1434
 7834SOL    HW235136   0.676   2.224   9.564  1.2447 -2.0560 -0.8020
 7835SOL     OW35137   0.013   0.505   5.126  0.4877  0.0228  0.2343
 7835SOL    HW135138   4.684   0.460   5.178 -0.6207  1.1951 -0.1619
 7835SOL    HW235139   0.037   0.440   5.059 -0.4388  0.0952 -0.1691
 7836SOL     OW35140   2.662   1.234  11.686 -0.2015 -0.2930 -0.2873
 7836SOL    HW135141   2.615   1.164  11.641  0.8787 -0.0426 -1.7967
 7836SOL    HW235142   2.739   1.248  11.632  1.9567  1.9162  3.3171
 7837SOL     OW35143   2.987   3.638  14.013 -0.2546  0.8098  0.2555
 7837SOL    HW135144   2.981   3.633  13.918 -2.8597 -1.9959  0.5649
 7837SOL    HW235145   2.926   3.711  14.022  0.3148  1.3777 -0.6013
 7838SOL     OW35146   3.291   4.204  17.072  0.2738 -0.3507 -0.0695
 7838SOL    HW135147   3.302   4.297  17.093 -0.7004 -0.0805 -0.7422
 7838SOL    HW235148   3.355   4.156  17.124  0.6238  2.5393  2.1703
 7839SOL     OW35149   0.989   4.609   4.340 -0.1663  0.6667 -0.3734
 7839SOL    HW135150   1.071   4.640   4.301 -0.0724 -0.5674 -1.1450
 7839SOL    HW235151   0.977   4.685   4.397  1.2669 -0.6289  1.6684
 7840SOL     OW35152   4.350   3.566  11.546  0.1413  0.2043 -0.1499
 7840SOL    HW135153   4.361   3.625  11.620 -4.7183 -0.4794  1.0992
 7840SOL    HW235154   4.398   3.495  11.590  0.8105  1.8122  1.7247
 7841SOL     OW35155   0.323   2.731   5.365 -0.0473  0.0517  0.3828
 7841SOL    HW135156   0.356   2.655   5.318  0.2873 -0.2528  1.1133
 7841SOL    HW235157   0.231   2.733   5.342 -0.2540 -0.8583  1.1457
 7842SOL     OW35158   2.495   1.685   3.214  0.2726 -0.2752  0.5077
 7842SOL    HW135159   2.461   1.695   3.303 -0.6299  1.1366  0.0181
 7842SOL    HW235160   2.583   1.716   3.238  0.6945 -0.7385 -0.4591
 7843SOL     OW35161   1.718   1.045  10.220  0.7496 -0.1284 -0.3080
 7843SOL    HW135162   1.625   1.053  10.198  0.2051 -1.9727  1.2534
 7843SOL    HW235163   1.752   1.067  10.133  1.1308 -1.8754 -0.6059
 7844SOL     OW35164   0.712   0.445   3.625  0.1415  0.2354  0.2019
 7844SOL    HW135165   0.770   0.383   3.668 -0.0479  0.1586  0.3448
 7844SOL    HW235166   0.765   0.523   3.605 -0.7601  0.8596  0.2377
 7845SOL     OW35167   4.213   1.594   5.503 -0.1787 -0.1514  0.1228
 7845SOL    HW135168   4.184   1.677   5.540  1.6056 -0.3418  1.9445
 7845SOL    HW235169   4.295   1.613   5.459 -1.2751  0.7602 -1.5174
 7846SOL     OW35170   3.951   1.176  17.482 -0.5943 -0.3702  0.3035
 7846SOL    HW135171   4.042   1.155  17.459 -0.3111  0.5885  0.5468
 7846SOL    HW235172   3.971   1.232  17.556 -0.8710 -2.0145  1.6246
 7847SOL     OW35173   4.167   3.952   0.659  0.4909 -0.7318  0.0912
 7847SOL    HW135174   4.094   3.920   0.607 -0.6009 -0.6335  1.5764
 7847SOL    HW235175   4.225   3.920   0.590  0.2915  1.7916 -1.2621
 7848SOL     OW35176   4.231   3.326   3.128 -0.3863  0.0370 -0.2912
 7848SOL    HW135177   4.291   3.370   3.189  2.0251 -2.5884 -0.7763
 7848SOL    HW235178   4.151   3.375   3.145 -1.2608 -1.7547  0.7123
 7849SOL     OW35179   4.030   2.659   6.685 -0.1188 -0.6234 -0.0735
 7849SOL    HW135180   4.051   2.566   6.696  0.9398 -0.2322  1.1926
 7849SOL    HW235181   4.090   2.688   6.616  1.1465 -0.6344  1.0338
 7850SOL     OW35182   1.877   0.270   6.416  0.3211 -0.0773 -0.4558
 7850SOL    HW135183   1.876   0.276   6.320  0.1973  0.9477 -0.3947
 7850SOL    HW235184   1.861   0.176   6.411 -0.1076  0.0655 -2.0433
 7851SOL     OW35185   3.141   0.430   2.682 -0.2598  0.9291  0.2329
 7851SOL    HW135186   3.049   0.435   2.708 -0.9338 -2.9183 -1.4708
 7851SOL    HW235187   3.150   0.387   2.597 -0.8512 -0.0603  0.6734
 7852SOL     OW35188   0.449   0.420  16.233 -0.0112  0.3460  0.2906
 7852SOL    HW135189   0.357   0.413  16.260  0.3312 -0.5538  1.2312
 7852SOL    HW235190   0.495   0.408  16.316 -0.8046 -2.2320  0.3451
 7853SOL     OW35191   3.708   2.360   7.946 -0.4823  0.0206 -0.1309
 7853SOL    HW135192   3.775   2.369   8.014  0.0302  0.2305 -0.6664
 7853SOL    HW235193   3.656   2.283   7.970  1.3345 -1.4493 -0.8921
 7854SOL     OW35194   1.613   0.907   6.625  0.1132 -0.0974 -0.1931
 7854SOL    HW135195   1.634   1.001   6.629  1.6357 -0.5153  1.9533
 7854SOL    HW235196   1.686   0.866   6.580  1.1558  1.0595  0.4225
 7855SOL     OW35197   2.480   1.974   6.994 -0.3991 -0.0356 -0.4608
 7855SOL    HW135198   2.477   1.957   6.900  0.9618 -3.2069  0.0548
 7855SOL    HW235199   2.395   1.940   7.023 -1.1333  1.6868 -0.6039
 7856SOL     OW35200   1.781   0.750   8.925 -0.6160 -0.2708  0.4371
 7856SOL    HW135201   1.711   0.727   8.864  1.4037  0.9812 -2.3165
 7856SOL    HW235202   1.862   0.721   8.883 -0.6330  0.5478 -0.1584
 7857SOL     OW35203   4.232   1.630   9.506  0.9823 -0.1593 -0.1727
 7857SOL    HW135204   4.306   1.592   9.554  0.5385 -2.1208 -1.0219
 7857SOL    HW235205   4.284   1.647   9.428 -0.6332 -2.2581 -1.7076
 7858SOL     OW35206   3.026   1.075   2.684 -0.2585 -0.0911 -0.4515
 7858SOL    HW135207   3.083   1.141   2.723 -1.8815  1.4178 -0.6870
 7858SOL    HW235208   3.095   1.014   2.656  0.9121 -0.4411  3.1337
 7859SOL     OW35209   2.187   2.597   8.626 -0.0175 -0.2318  0.0985
 7859SOL    HW135210   2.214   2.674   8.576  1.6303  0.2915  1.7908
 7859SOL    HW235211   2.178   2.648   8.707 -3.1930 -2.8938  1.4175
 7860SOL     OW35212   0.457   2.952  14.763  0.2891  0.2019  0.3412
 7860SOL    HW135213   0.443   3.001  14.844  2.5388  2.1881 -0.4700
 7860SOL    HW235214   0.441   3.024  14.702  1.5917  0.1293 -0.0773
 7861SOL     OW35215   1.643   4.115   2.847 -0.0464 -0.5072 -0.0353
 7861SOL    HW135216   1.622   4.089   2.757 -0.8569 -1.7932  0.5235
 7861SOL    HW235217   1.575   4.075   2.901  1.6998 -1.5698  1.3911
 7862SOL     OW35218   0.895   3.171  16.045 -0.0274  0.2926 -0.3994
 7862SOL    HW135219   0.943   3.092  16.020 -2.0082 -2.2974  4.1108
 7862SOL    HW235220   0.959   3.243  16.041  0.1061  0.1499 -0.8845
 7863SOL     OW35221   4.700   2.766  13.151  0.0625  0.6486 -0.0390
 7863SOL    HW135222   4.693   2.672  13.168 -0.9892  0.8660  0.7672
 7863SOL    HW235223   4.614   2.803  13.172 -0.0787 -1.0310  2.3940
 7864SOL     OW35224   1.110   0.707   2.297  0.0776  0.2213  0.5773
 7864SOL    HW135225   1.063   0.657   2.365  2.5306 -0.4408  1.7691
 7864SOL    HW235226   1.174   0.763   2.341 -0.7819  1.3377  0.4017
 7865SOL     OW35227   0.841   0.579   3.063 -0.2079  0.3061 -0.1998
 7865SOL    HW135228   0.787   0.542   3.133  0.2786 -0.9087 -0.4599
 7865SOL    HW235229   0.928   0.567   3.102  0.4052 -0.2054 -1.7370
 7866SOL     OW35230   1.282   1.424   3.691 -0.2593 -0.8579 -0.0474
 7866SOL    HW135231   1.335   1.348   3.666 -0.7671 -1.2467  0.0624
 7866SOL    HW235232   1.302   1.432   3.784 -0.1588 -0.3551 -0.1107
 7867SOL     OW35233   3.145   1.691   3.891  0.4767  0.0688  0.5977
 7867SOL    HW135234   3.199   1.707   3.814 -0.0564  0.6757  0.3438
 7867SOL    HW235235   3.133   1.596   3.890 -1.0174  0.2886 -1.7385
 7868SOL     OW35236   4.020   3.542  15.242  0.1219 -0.6162  0.5707
 7868SOL    HW135237   3.969   3.500  15.173  2.4855 -0.2982 -1.3926
 7868SOL    HW235238   4.006   3.635  15.225 -2.0330 -0.7241  1.8071
 7869SOL     OW35239   2.136   1.707   7.261 -0.3634 -0.1752  0.8751
 7869SOL    HW135240   2.195   1.658   7.318 -0.5817 -0.5308  0.7963
 7869SOL    HW235241   2.081   1.639   7.223 -3.5789  1.4889  2.4935
 7870SOL     OW35242   4.358   1.384   7.699  0.6420 -0.4367 -0.1184
 7870SOL    HW135243   4.401   1.462   7.734  0.4554 -0.6837  0.6454
 7870SOL    HW235244   4.318   1.348   7.778  2.4041 -1.6974  0.1968
 7871SOL     OW35245   0.425   2.840   9.275 -0.3690 -0.3078 -0.1566
 7871SOL    HW135246   0.481   2.821   9.200 -1.2066  1.3626 -1.1980
 7871SOL    HW235247   0.342   2.799   9.251 -1.6213  2.5452 -0.7364
 7872SOL     OW35248   2.083   3.632  15.655  0.3019 -0.3302  0.2259
 7872SOL    HW135249   2.106   3.576  15.729 -0.5497  0.7485  1.3088
 7872SOL    HW235250   2.000   3.589  15.636 -0.1724  0.5231  0.3916
 7873SOL     OW35251   2.918   2.817   4.998  0.4836 -0.0326 -0.1690
 7873SOL    HW135252   2.991   2.791   4.943  0.3357  0.9242 -0.8122
 7873SOL    HW235253   2.944   2.776   5.081 -1.9216 -1.0510  0.0850
 7874SOL     OW35254   0.776   4.358  17.516  0.2497 -0.2637 -0.0510
 7874SOL    HW135255   0.832   4.412  17.572  0.8180 -1.2196  0.2901
 7874SOL    HW235256   0.695   4.378  17.563 -0.5986  0.6300 -1.8887
 7875SOL     OW35257   2.965   3.990  12.716  0.2159 -0.0657 -0.3369
 7875SOL    HW135258   3.060   3.980  12.719  0.1846 -0.6080 -1.0599
 7875SOL    HW235259   2.931   3.909  12.754  0.2806  1.6316  3.3195
 7876SOL     OW35260   0.229   1.493   7.764 -0.0151  0.1318 -0.3434
 7876SOL    HW135261   0.278   1.438   7.825 -1.8449  0.6082  1.5596
 7876SOL    HW235262   0.288   1.502   7.689 -0.3617  3.3353 -0.2247
 7877SOL     OW35263   3.590   2.925   1.623 -0.1288  0.2960 -0.5175
 7877SOL    HW135264   3.614   2.989   1.555  2.1817 -1.3656 -1.2701
 7877SOL    HW235265   3.645   2.849   1.604  0.5758  0.4001  1.1205
 7878SOL     OW35266   2.352   1.643   8.095  0.6372 -0.3899 -0.5926
 7878SOL    HW135267   2.331   1.585   8.168  0.9408 -0.0682 -0.2453
 7878SOL    HW235268   2.342   1.732   8.128 -0.0553 -0.4814 -0.5535
 7879SOL     OW35269   0.820   4.069   9.243 -0.5752 -0.3458  0.0569
 7879SOL    HW135270   0.862   4.154   9.232 -1.4770  0.1996  0.7743
 7879SOL    HW235271   0.785   4.083   9.331 -1.2260 -2.5431  0.1635
 7880SOL     OW35272   1.683   3.727  11.786  0.7653 -0.0234  0.3840
 7880SOL    HW135273   1.757   3.667  11.787  2.6396  2.3238  0.8245
 7880SOL    HW235274   1.657   3.725  11.878  1.7582  4.3748  0.7209
 7881SOL     OW35275   4.608   1.921  10.351 -0.4061 -0.2315  0.2432
 7881SOL    HW135276   4.560   1.978  10.411  0.8585  1.6583 -0.5638
 7881SOL    HW235277   4.591   1.833  10.385  0.0331  0.2701  1.7646
 7882SOL     OW35278   1.498   3.943   3.676  0.6512 -0.4323 -0.4214
 7882SOL    HW135279   1.556   3.868   3.686  0.2953 -0.4731  1.2844
 7882SOL    HW235280   1.429   3.914   3.616 -0.4252 -1.7729  1.4682
 7883SOL     OW35281   1.095   3.159   5.319  0.2794 -0.2115  0.0510
 7883SOL    HW135282   1.026   3.221   5.295  0.4648  0.2973  0.8032
 7883SOL    HW235283   1.155   3.152   5.245 -0.0359 -0.7574 -0.1522
 7884SOL     OW35284   3.690   0.753   8.120 -0.2250  0.2828 -0.3741
 7884SOL    HW135285   3.741   0.687   8.074  1.9477  3.5891 -2.6610
 7884SOL    HW235286   3.609   0.760   8.069  0.5410 -0.2682 -1.6537
 7885SOL     OW35287   1.741   0.427   1.396 -0.1303  0.0201  0.4221
 7885SOL    HW135288   1.738   0.450   1.303  1.1484  1.0615  0.6204
 7885SOL    HW235289   1.729   0.333   1.400 -3.1052  0.3872 -0.2312
 7886SOL     OW35290   3.639   3.703   7.339  0.0531  0.1112  0.2091
 7886SOL    HW135291   3.713   3.759   7.360 -0.6927  0.8474  0.8058
 7886SOL    HW235292   3.579   3.696   7.413  0.6885 -1.2143  0.6002
 7887SOL     OW35293   3.280   4.420   2.158  0.3341  0.0489  0.0911
 7887SOL    HW135294   3.269   4.514   2.169  0.3743 -0.1708  1.9003
 7887SOL    HW235295   3.375   4.418   2.149  0.3840  1.3190  0.3036
 7888SOL     OW35296   3.865   0.550  11.942 -0.0633 -0.0655 -0.6974
 7888SOL    HW135297   3.847   0.640  11.970 -0.4159 -0.6630  1.0416
 7888SOL    HW235298   3.860   0.550  11.847  0.8586 -2.1351 -0.7472
 7889SOL     OW35299   1.755   4.399   2.596  0.0732 -0.1488 -0.2284
 7889SOL    HW135300   1.763   4.408   2.691 -1.0777  1.5283 -0.2910
 7889SOL    HW235301   1.660   4.400   2.591  0.0599  0.0378  0.0481
 7890SOL     OW35302   3.095   4.693   0.907 -0.4976  0.1503 -0.0474
 7890SOL    HW135303   3.021   4.684   0.967  0.3922 -1.9542  0.7216
 7890SOL    HW235304   3.048   4.714   0.826 -1.6426  2.4291  1.1925
 7891SOL     OW35305   1.720   1.923   8.237  0.2550 -0.0799  0.0130
 7891SOL    HW135306   1.720   1.963   8.324  0.8822  2.6127 -1.1993
 7891SOL    HW235307   1.789   1.862   8.263  0.9779  1.5440  1.9450
 7892SOL     OW35308   2.930   2.132   9.402 -0.4220  0.3745  0.5909
 7892SOL    HW135309   2.908   2.114   9.311  0.6373 -2.1717  0.8325
 7892SOL    HW235310   2.988   2.207   9.391 -1.6054  0.9238 -1.7612
 7893SOL     OW35311   4.662   1.856   8.524 -0.1755 -0.0413  0.1270
 7893SOL    HW135312   0.011   1.831   8.556 -0.4343 -0.1079  0.7612
 7893SOL    HW235313   4.690   1.931   8.471 -0.7099  0.7099  0.9148
 7894SOL     OW35314   4.337   4.596   2.347 -0.2736 -0.1830 -0.3497
 7894SOL    HW135315   4.423   4.556   2.366  0.0603  0.3506 -0.7488
 7894SOL    HW235316   4.343   4.590   2.251  0.1345 -0.4375 -0.3103
 7895SOL     OW35317   0.181   3.428  10.016  1.0991 -0.4179 -0.0647
 7895SOL    HW135318   0.139   3.505  10.055  2.3016  0.9903 -1.5511
 7895SOL    HW235319   0.217   3.392  10.097 -0.9382 -0.8310  0.6461
 7896SOL     OW35320   4.603   3.039   5.074  0.7600  0.4797 -0.0569
 7896SOL    HW135321   4.618   3.069   4.985 -2.1091  0.4982 -0.5311
 7896SOL    HW235322   4.686   3.047   5.121  1.6328 -1.2278 -1.3192
 7897SOL     OW35323   1.290   2.193  11.601  0.5241  0.1365 -0.3384
 7897SOL    HW135324   1.273   2.099  11.612 -1.0378  0.4580 -0.0683
 7897SOL    HW235325   1.235   2.216  11.527  1.4267 -0.3890 -1.1750
 7898SOL     OW35326   4.582   4.158   4.089 -0.0212  0.5058 -0.7411
 7898SOL    HW135327   4.513   4.093   4.072  1.6594 -0.8858 -2.2072
 7898SOL    HW235328   4.541   4.226   4.143 -0.9475 -0.5651 -0.0958
 7899SOL     OW35329   3.833   1.075   8.458  0.0552 -0.1144  0.2410
 7899SOL    HW135330   3.854   1.139   8.525 -0.8144  1.5334 -1.0631
 7899SOL    HW235331   3.739   1.093   8.447  0.6018  1.0430 -2.5454
 7900SOL     OW35332   4.626   0.379   1.263 -0.4185 -0.5136  0.3848
 7900SOL    HW135333   4.548   0.364   1.210 -0.5862 -1.1824  0.8185
 7900SOL    HW235334   4.588   0.402   1.347  1.0924  1.0281  0.6291
 7901SOL     OW35335   3.740   1.870   9.201  0.1879 -0.3705 -0.4123
 7901SOL    HW135336   3.646   1.875   9.185  0.3494 -1.0034 -1.6149
 7901SOL    HW235337   3.776   1.828   9.122  1.9893  0.5039 -0.0515
 7902SOL     OW35338   3.621   4.623  16.049  0.1541 -0.0175  0.4699
 7902SOL    HW135339   3.646   4.713  16.030 -1.8452  0.5969  0.7813
 7902SOL    HW235340   3.528   4.639  16.038  0.0395 -1.1314 -0.2101
 7903SOL     OW35341   4.235   1.070  16.534  0.0357 -0.2477 -0.4073
 7903SOL    HW135342   4.169   1.063  16.603 -0.4953  1.3021 -0.7521
 7903SOL    HW235343   4.181   1.095  16.459 -2.1263  1.5328  1.7666
 7904SOL     OW35344   3.917   1.605   7.140  0.2498  0.0638  0.1262
 7904SOL    HW135345   3.962   1.521   7.146 -1.8348 -1.0150  0.4984
 7904SOL    HW235346   3.828   1.588   7.170  0.4724  0.9249  1.2522
 7905SOL     OW35347   2.789   2.040  12.711  0.0712 -0.1723 -0.1207
 7905SOL    HW135348   2.703   2.067  12.679  0.9248  2.9126  0.1392
 7905SOL    HW235349   2.771   1.997  12.794  2.2103  1.0485  0.9843
 7906SOL     OW35350   3.112   4.220   9.062 -0.4123  0.2608 -0.1592
 7906SOL    HW135351   3.180   4.227   8.995  0.9043  0.2467  1.1908
 7906SOL    HW235352   3.103   4.126   9.082  1.7020  0.0552 -0.1492
 7907SOL     OW35353   3.700   1.338   0.629 -0.6010 -0.3310  0.7756
 7907SOL    HW135354   3.708   1.364   0.537 -0.8801 -2.7307  0.0819
 7907SOL    HW235355   3.636   1.403   0.657 -0.3773 -0.3904  1.4259
 7908SOL     OW35356   0.150   3.606   4.773  0.4452 -0.3659 -0.2128
 7908SOL    HW135357   0.074   3.606   4.832  1.0245 -0.6553  0.5395
 7908SOL    HW235358   0.221   3.634   4.831 -0.2999  0.6422  0.2047
 7909SOL     OW35359   2.488   2.249   7.539 -0.1531  0.1480  0.0007
 7909SOL    HW135360   2.499   2.156   7.520 -0.9987  0.5435 -2.4018
 7909SOL    HW235361   2.497   2.250   7.635  1.6496  3.0289 -0.1833
 7910SOL     OW35362   4.047   4.240   4.583 -0.1158 -0.3152  0.0617
 7910SOL    HW135363   3.978   4.294   4.621 -0.4000 -0.3939 -0.3462
 7910SOL    HW235364   4.119   4.303   4.582  0.7912 -1.3349  1.1112
 7911SOL     OW35365   4.192   3.606   6.059  0.5015 -0.0325  0.9342
 7911SOL    HW135366   4.286   3.618   6.052  0.6786 -0.9543  1.8006
 7911SOL    HW235367   4.152   3.692   6.044  0.9366  0.0258  0.1263
 7912SOL     OW35368   0.829   4.028   3.772  0.6032 -0.2393  0.1882
 7912SOL    HW135369   0.815   4.085   3.696 -0.8087  0.6736  1.1269
 7912SOL    HW235370   0.804   3.943   3.737 -0.0238  0.6866 -1.6367
 7913SOL     OW35371   0.179   4.116   1.814 -0.6571  0.1547 -0.2864
 7913SOL    HW135372   0.219   4.044   1.765 -0.0497  0.0258  0.3944
 7913SOL    HW235373   0.156   4.074   1.897  0.8728 -1.1734 -0.5391
 7914SOL     OW35374   0.022   0.767   7.579 -0.3702  0.1083 -0.1858
 7914SOL    HW135375   4.729   0.845   7.534 -1.9676  0.7060  1.9274
 7914SOL    HW235376   0.093   0.800   7.634  0.2119  0.3894 -1.1141
 7915SOL     OW35377   3.288   1.010   8.566 -0.7385  0.2421 -0.1959
 7915SOL    HW135378   3.273   1.099   8.534  1.6612  0.6953 -0.1022
 7915SOL    HW235379   3.381   1.016   8.590 -0.9684  0.0653  0.7480
 7916SOL     OW35380   3.933   4.593   7.959  0.5768 -0.0343  0.1132
 7916SOL    HW135381   3.936   4.620   7.867 -1.7895  1.3159  0.4424
 7916SOL    HW235382   3.854   4.638   7.989  0.4925 -0.3173  0.3100
 7917SOL     OW35383   3.054   3.427   1.520 -0.1863 -0.8534 -0.4004
 7917SOL    HW135384   3.081   3.446   1.610 -1.8536  1.4559 -0.4033
 7917SOL    HW235385   2.962   3.450   1.522 -0.2286 -1.3659  3.8625
 7918SOL     OW35386   0.805   1.703  11.738  0.0141  0.3655  0.4542
 7918SOL    HW135387   0.809   1.649  11.818 -0.4695 -0.7885 -0.2952
 7918SOL    HW235388   0.754   1.773  11.779  0.9134  0.5959  1.1928
 7919SOL     OW35389   1.666   0.651   2.771 -0.0199  0.0770  0.1502
 7919SOL    HW135390   1.644   0.734   2.813 -1.3259 -0.1339 -0.1088
 7919SOL    HW235391   1.678   0.592   2.846 -1.5302  0.6881  0.8846
 7920SOL     OW35392   3.216   3.485   1.114 -0.0938 -0.1959 -0.6227
 7920SOL    HW135393   3.177   3.464   1.029 -0.5962  0.0005 -0.4373
 7920SOL    HW235394   3.136   3.521   1.151  1.6712  1.2792  1.7900
 7921SOL     OW35395   3.849   1.777   8.964 -0.2063  0.2795  0.1975
 7921SOL    HW135396   3.928   1.831   8.957 -0.2307  0.5168  1.6391
 7921SOL    HW235397   3.885   1.695   8.929 -1.3908 -0.2149  0.1351
 7922SOL     OW35398   4.548   1.114   7.994  0.0652 -0.6849 -0.3321
 7922SOL    HW135399   4.621   1.054   7.979  1.2464  0.3893  1.0480
 7922SOL    HW235400   4.511   1.084   8.078  0.5738  1.0475  0.4986
 7923SOL     OW35401   3.975   0.261   1.656 -0.5045 -0.1395 -0.3012
 7923SOL    HW135402   4.018   0.333   1.610 -0.9359  0.7871  0.7558
 7923SOL    HW235403   3.914   0.306   1.713 -0.0921 -0.2255  0.2104
 7924SOL     OW35404   4.424   3.238   2.239 -0.2606  0.3119  0.5566
 7924SOL    HW135405   4.425   3.217   2.145  1.3194  0.2247  0.5912
 7924SOL    HW235406   4.431   3.153   2.282  1.7837  1.3916  2.3349
 7925SOL     OW35407   1.673   1.262   2.038 -0.1751  0.2334 -0.3337
 7925SOL    HW135408   1.746   1.219   2.082 -1.3072 -0.2701  1.0758
 7925SOL    HW235409   1.602   1.210   2.078  0.7433 -0.2526  0.6722
 7926SOL     OW35410   2.893   1.097   3.508 -0.0823  0.1897  0.0642
 7926SOL    HW135411   2.908   1.010   3.545 -0.2383  0.0990 -0.0835
 7926SOL    HW235412   2.898   1.158   3.582  1.7147 -0.4525  0.4720
 7927SOL     OW35413   4.335   4.033   4.905 -0.2056 -0.0576 -0.4324
 7927SOL    HW135414   4.244   4.012   4.928  0.1383 -0.8454  0.2385
 7927SOL    HW235415   4.352   4.019   4.998 -0.9730  0.7777 -0.1704
 7928SOL     OW35416   0.207   0.328   2.427 -0.2631 -0.3336 -0.1330
 7928SOL    HW135417   0.255   0.380   2.362 -0.9418  1.2745  0.6367
 7928SOL    HW235418   0.275   0.268   2.458  0.0011  0.5326  0.9869
 7929SOL     OW35419   2.877   0.401   2.107  0.0181 -0.0223 -0.0788
 7929SOL    HW135420   2.815   0.462   2.148 -0.3248  0.2100 -0.9611
 7929SOL    HW235421   2.852   0.404   2.015  1.2408  0.7062 -0.3878
 7930SOL     OW35422   4.434   1.512   2.735 -0.7344 -0.2000 -0.1770
 7930SOL    HW135423   4.482   1.554   2.663 -1.4884  0.4247 -0.3064
 7930SOL    HW235424   4.500   1.453   2.772  0.3028  1.6511  0.9148
 7931SOL     OW35425   1.774   0.743  16.163  0.2800  0.1210  0.0566
 7931SOL    HW135426   1.859   0.709  16.132  0.7903 -0.1315  1.7222
 7931SOL    HW235427   1.786   0.837  16.152  0.9460 -0.1017 -1.0608
 7932SOL     OW35428   2.232   0.477  12.783 -0.3813 -0.2129 -0.4425
 7932SOL    HW135429   2.300   0.530  12.743 -0.2553  0.5092  0.7018
 7932SOL    HW235430   2.274   0.403  12.828 -4.7058 -2.5610 -0.2925
 7933SOL     OW35431   1.422   2.439   7.193  0.0842  0.2909  0.2726
 7933SOL    HW135432   1.482   2.374   7.231 -0.7563  0.5237  2.0136
 7933SOL    HW235433   1.418   2.403   7.104 -0.3321  1.1997 -0.0769
 7934SOL     OW35434   2.577   2.621   4.089 -0.6249 -0.5924  0.0437
 7934SOL    HW135435   2.669   2.638   4.070 -1.1179  1.5643 -0.3695
 7934SOL    HW235436   2.533   2.688   4.037  1.1358  1.3398  1.0478
 7935SOL     OW35437   2.344   1.529   5.607 -0.6268 -0.3806  0.1717
 7935SOL    HW135438   2.268   1.472   5.597 -1.7440  1.3271 -1.0361
 7935SOL    HW235439   2.389   1.467   5.663 -0.5812  1.6933  2.4519
 7936SOL     OW35440   1.629   0.440  15.633  0.0368 -0.1751 -0.1000
 7936SOL    HW135441   1.724   0.434  15.648 -0.1321  1.5433  1.6310
 7936SOL    HW235442   1.613   0.351  15.665  0.7874 -0.2351  0.1175
 7937SOL     OW35443   1.172   1.254   9.178 -0.8421 -0.2934 -0.3110
 7937SOL    HW135444   1.158   1.305   9.098  0.2570  1.4427  0.5909
 7937SOL    HW235445   1.238   1.190   9.151 -1.9881 -0.4147 -2.7963
 7938SOL     OW35446   2.286   3.805  10.000  0.2784 -0.0047 -0.0609
 7938SOL    HW135447   2.215   3.869   9.988 -0.9249 -0.4498  4.5396
 7938SOL    HW235448   2.248   3.751  10.070  0.6146 -2.6573 -1.9474
 7939SOL     OW35449   0.111   4.476   8.857  0.0385 -0.1314 -0.0409
 7939SOL    HW135450   0.046   4.424   8.904 -2.0339  0.5607 -2.1072
 7939SOL    HW235451   0.128   4.435   8.772  1.2413 -0.3937  0.3307
 7940SOL     OW35452   1.275   4.621   8.828 -0.0187 -0.3508  0.0885
 7940SOL    HW135453   1.215   4.650   8.897  0.0816  0.6869 -0.2555
 7940SOL    HW235454   1.270   4.526   8.839  3.3000 -0.6774 -1.4159
 7941SOL     OW35455   4.562   3.446   6.217  0.1820 -0.1653  0.1743
 7941SOL    HW135456   4.614   3.524   6.236 -0.9392  0.4336  0.8076
 7941SOL    HW235457   4.602   3.421   6.133 -2.2128  0.5148 -1.1661
 7942SOL     OW35458   4.623   4.061   7.687 -0.6671 -0.3609  0.1000
 7942SOL    HW135459   4.629   4.116   7.610  1.1267 -1.7482 -0.7499
 7942SOL    HW235460   4.612   3.980   7.638 -0.2266 -0.9665  0.9873
 7943SOL     OW35461   2.012   3.968   8.407  0.2819  0.2296  0.2815
 7943SOL    HW135462   1.928   3.924   8.396  0.7299 -0.3538 -0.7625
 7943SOL    HW235463   2.015   3.988   8.501 -1.7599  2.0167 -0.0409
 7944SOL     OW35464   2.910   0.919  15.264  0.2672  0.1433  0.2115
 7944SOL    HW135465   2.833   0.933  15.318 -0.6969 -1.1866 -0.8429
 7944SOL    HW235466   2.972   0.957  15.327  0.4070 -1.2679  0.9195
 7945SOL     OW35467   2.859   2.961   3.521 -0.0541 -0.0560  0.4298
 7945SOL    HW135468   2.944   2.946   3.561  0.2225 -0.6272 -0.3730
 7945SOL    HW235469   2.815   3.029   3.572  1.3639 -0.4716  2.1720
 7946SOL     OW35470   0.788   4.281   3.363  0.0067 -0.1557 -0.7225
 7946SOL    HW135471   0.714   4.224   3.344 -1.1787  0.3641  2.2285
 7946SOL    HW235472   0.756   4.368   3.339 -0.9580 -1.4264 -3.9739
 7947SOL     OW35473   0.948   1.279   2.874  0.3879  0.1408 -0.2703
 7947SOL    HW135474   0.932   1.260   2.782  0.9873 -1.0615 -0.1252
 7947SOL    HW235475   0.893   1.211   2.913  2.4996 -0.7057  1.2532
 7948SOL     OW35476   4.396   0.436   8.558  0.4591  0.0209  0.7519
 7948SOL    HW135477   4.310   0.410   8.523 -1.2061  2.2196  3.2434
 7948SOL    HW235478   4.376   0.503   8.624  2.4403 -0.3896  1.7635
 7949SOL     OW35479   0.387   1.562   0.113 -0.0237  0.1336 -0.5310
 7949SOL    HW135480   0.372   1.544   0.206  1.2757  1.1999 -0.1232
 7949SOL    HW235481   0.347   1.481   0.082  1.8373 -0.1603 -2.1502
 7950SOL     OW35482   2.503   1.986   7.528 -0.0041 -0.0906  0.2551
 7950SOL    HW135483   2.434   1.970   7.592  2.0711  1.2008  2.8698
 7950SOL    HW235484   2.505   1.914   7.465  0.1104 -0.5768  0.8156
 7951SOL     OW35485   3.387   2.590   4.513  0.5318  0.7874 -0.4682
 7951SOL    HW135486   3.462   2.608   4.456  0.3011 -3.1519 -2.0145
 7951SOL    HW235487   3.381   2.666   4.570 -1.7112  0.5545 -0.4033
 7952SOL     OW35488   1.309   3.253   3.879 -0.1863  0.2276  0.4244
 7952SOL    HW135489   1.241   3.309   3.918  0.8483  0.4250  1.9186
 7952SOL    HW235490   1.389   3.282   3.923 -1.3846 -0.7741  3.2833
 7953SOL     OW35491   2.263   3.646  11.713 -0.2139  0.2594  0.9283
 7953SOL    HW135492   2.313   3.704  11.654 -0.6953 -0.7093 -0.4407
 7953SOL    HW235493   2.176   3.684  11.707 -0.1379 -0.0586 -2.5022
 7954SOL     OW35494   3.411   1.308   2.788 -0.0165 -0.0575 -0.0661
 7954SOL    HW135495   3.367   1.262   2.717  1.9862 -1.6767 -0.2329
 7954SOL    HW235496   3.431   1.232   2.842  0.3642 -1.7163 -2.5539
 7955SOL     OW35497   0.848   3.490   8.507  0.2551  0.3557  0.0602
 7955SOL    HW135498   0.937   3.491   8.540  0.0469 -0.2522  0.6522
 7955SOL    HW235499   0.809   3.402   8.514  0.5877  0.1380 -0.8255
 7956SOL     OW35500   3.019   0.093   1.548  0.4706  0.1230  0.2551
 7956SOL    HW135501   3.111   0.120   1.550  0.5789 -0.2280 -0.2129
 7956SOL    HW235502   3.026   0.013   1.600 -1.3799  0.1460  0.5494
 7957SOL     OW35503   0.754   1.654   4.166  0.1670  0.2924  0.7541
 7957SOL    HW135504   0.702   1.721   4.123  1.5326 -0.2420 -1.7352
 7957SOL    HW235505   0.710   1.573   4.140  1.6215 -0.2673  0.0233
 7958SOL     OW35506   2.424   4.707   2.125  0.1516 -0.0553  0.0125
 7958SOL    HW135507   2.339   4.737   2.092 -1.0519 -0.4753  2.7629
 7958SOL    HW235508   2.468   0.054   2.122 -1.5691  0.9399  2.7455
 7959SOL     OW35509   3.283   2.821   7.136 -0.5845  0.2350  0.1733
 7959SOL    HW135510   3.249   2.850   7.052  0.9656 -1.1616 -0.9303
 7959SOL    HW235511   3.377   2.814   7.123 -0.4106 -1.5929  2.3362
 7960SOL     OW35512   2.398   1.863   0.128 -0.2993  0.0192 -0.1802
 7960SOL    HW135513   2.427   1.774   0.110 -2.4641 -0.0498 -3.4064
 7960SOL    HW235514   2.338   1.865   0.053  0.8110  0.1424 -1.0765
 7961SOL     OW35515   4.108   4.568  10.466  0.1650  0.1654  0.1643
 7961SOL    HW135516   4.178   4.622  10.430  2.8345 -0.8938  3.7921
 7961SOL    HW235517   4.041   4.632  10.490  1.1127  1.2730 -0.1689
 7962SOL     OW35518   3.343   4.195   2.543  0.1234  0.4562  0.1298
 7962SOL    HW135519   3.374   4.234   2.462 -2.2553 -1.1798 -1.5742
 7962SOL    HW235520   3.263   4.248   2.552  0.5956  1.0216  1.0738
 7963SOL     OW35521   0.003   2.955   4.496 -1.1810  0.1667  0.0594
 7963SOL    HW135522   4.654   2.994   4.511 -0.4972  1.1181  1.5697
 7963SOL    HW235523   0.024   2.914   4.580 -1.3589 -1.9767 -0.9296
 7964SOL     OW35524   4.510   0.035   6.981  0.1213  0.4634  0.2405
 7964SOL    HW135525   4.524   4.686   6.942 -0.4691  0.4004  0.1640
 7964SOL    HW235526   4.415   0.034   6.995  0.0208  1.5262 -0.4118
 7965SOL     OW35527   2.551   4.127   8.730 -0.4693 -0.4214 -0.2000
 7965SOL    HW135528   2.636   4.172   8.726  0.1641 -1.6772 -0.7687
 7965SOL    HW235529   2.562   4.061   8.798 -0.3943  0.5778  0.7639
 7966SOL     OW35530   1.965   4.417   8.753 -0.4535  0.0039  0.3299
 7966SOL    HW135531   2.011   4.469   8.687  0.7097  0.7117  1.6869
 7966SOL    HW235532   1.877   4.425   8.718 -0.5251  2.1003  0.9982
 7967SOL     OW35533   1.802   1.422   6.797  0.7313 -0.3472 -0.1867
 7967SOL    HW135534   1.766   1.345   6.753  1.3705  0.4316 -2.0833
 7967SOL    HW235535   1.871   1.448   6.736  1.2345 -1.0088  0.0990
 7968SOL     OW35536   0.027   2.579   4.056 -0.0121  0.5510  0.0037
 7968SOL    HW135537   0.102   2.628   4.021 -0.1766  0.7643 -0.0483
 7968SOL    HW235538   4.701   2.646   4.082  0.7092  2.0291 -2.0406
 7969SOL     OW35539   2.620   1.601  16.927 -0.0504 -0.1865 -0.4778
 7969SOL    HW135540   2.564   1.677  16.943 -0.0570 -0.5278  1.1295
 7969SOL    HW235541   2.642   1.576  17.017 -3.0015 -0.3545  0.1919
 7970SOL     OW35542   1.742   0.507   1.099  0.7185 -0.5770  0.3844
 7970SOL    HW135543   1.691   0.570   1.151  1.1535  1.9423 -2.2145
 7970SOL    HW235544   1.801   0.563   1.049 -1.1527  1.4586  0.4489
 7971SOL     OW35545   3.894   1.015  16.275 -0.4344 -0.2188 -0.1664
 7971SOL    HW135546   3.800   1.035  16.280 -0.3202 -0.0204  1.2015
 7971SOL    HW235547   3.899   0.943  16.212 -0.3683 -0.7355  0.4298
 7972SOL     OW35548   0.851   1.726  13.358  0.4072 -0.1646  0.0520
 7972SOL    HW135549   0.873   1.777  13.281 -0.5519 -1.5827 -1.1562
 7972SOL    HW235550   0.832   1.649  13.304  0.7388  0.1560 -0.5186
 7973SOL     OW35551   2.601   0.002   0.551 -0.3942 -0.4056 -0.2300
 7973SOL    HW135552   2.550   4.668   0.588 -2.0165  0.7832 -0.1746
 7973SOL    HW235553   2.647   0.021   0.634 -0.2586 -1.9643  0.0496
 7974SOL     OW35554   3.896   0.685   0.103  0.3957  0.9427  0.3458
 7974SOL    HW135555   3.830   0.638   0.154  0.0106 -0.3028 -1.3295
 7974SOL    HW235556   3.966   0.673   0.168  1.6807  0.3427 -1.1719
 7975SOL     OW35557   0.595   2.463   4.683  0.6316 -0.2530 -0.3348
 7975SOL    HW135558   0.642   2.486   4.603  0.2563  0.1347 -0.4457
 7975SOL    HW235559   0.648   2.516   4.742  2.9482 -1.6890 -1.1237
 7976SOL     OW35560   4.372   3.214   4.724  0.8468  0.6661 -0.0667
 7976SOL    HW135561   4.372   3.187   4.815  0.3522 -0.6026 -0.4417
 7976SOL    HW235562   4.329   3.299   4.733 -1.2287 -0.5108  1.0339
 7977SOL     OW35563   0.708   0.629   7.685 -0.1690  0.3117  0.7483
 7977SOL    HW135564   0.693   0.535   7.678 -1.8683  0.7561 -1.3627
 7977SOL    HW235565   0.792   0.631   7.731  0.7615 -0.5225 -0.9146
 7978SOL     OW35566   0.582   2.401   5.556  0.5267  0.2661  0.1531
 7978SOL    HW135567   0.663   2.358   5.527  0.1132  0.2828 -1.0523
 7978SOL    HW235568   0.598   2.491   5.525  1.9613  0.1840  0.6525
 7979SOL     OW35569   0.713   4.286   4.248 -0.1747  0.4738  0.5440
 7979SOL    HW135570   0.661   4.343   4.191  0.2060  0.2507 -0.0220
 7979SOL    HW235571   0.681   4.197   4.232  0.8791  0.0798  0.6425
 7980SOL     OW35572   2.088   1.840   3.515 -0.2082 -0.3643 -0.3517
 7980SOL    HW135573   2.102   1.929   3.548 -2.4916  0.8009 -2.5459
 7980SOL    HW235574   2.171   1.799   3.538 -1.0291 -0.2451  2.8313
 7981SOL     OW35575   3.546   3.836   0.410 -0.1567 -0.2967  0.2818
 7981SOL    HW135576   3.638   3.814   0.397 -0.3158 -0.9121  0.1697
 7981SOL    HW235577   3.557   3.924   0.445 -0.4624 -1.1085  2.4582
 7982SOL     OW35578   0.166   4.156   2.732  0.3599  0.1575 -0.0965
 7982SOL    HW135579   0.229   4.142   2.662 -0.7890  0.9560 -1.2871
 7982SOL    HW235580   0.097   4.096   2.702  0.0305 -0.7890  2.5232
 7983SOL     OW35581   4.068   2.113   9.037  0.7091  0.2583  0.1777
 7983SOL    HW135582   4.107   2.200   9.030  0.5824  0.6140  3.8852
 7983SOL    HW235583   3.974   2.126   9.023  1.2668  1.1704 -2.6137
 7984SOL     OW35584   4.288   1.521   7.280 -0.1471  0.2661 -0.2620
 7984SOL    HW135585   4.253   1.442   7.322  2.1258 -1.4495 -1.5575
 7984SOL    HW235586   4.375   1.530   7.318 -0.9409  1.7239  1.1946
 7985SOL     OW35587   1.525   4.188   5.527 -0.4710 -0.1675  0.4698
 7985SOL    HW135588   1.579   4.141   5.590 -1.5438  0.9976  2.2749
 7985SOL    HW235589   1.449   4.130   5.522  1.4268 -2.6608  0.5780
 7986SOL     OW35590   0.395   1.256   9.680 -0.1237  0.1452  0.0982
 7986SOL    HW135591   0.336   1.291   9.613  1.5405  0.0816 -1.4073
 7986SOL    HW235592   0.477   1.301   9.659  0.1528  0.4445  1.7946
 7987SOL     OW35593   1.457   3.065   2.928  0.2502  0.6641  0.4860
 7987SOL    HW135594   1.384   3.080   2.988 -1.6595 -0.7167 -1.4709
 7987SOL    HW235595   1.495   2.981   2.955 -1.5676  0.1311  1.3975
 7988SOL     OW35596   3.608   2.648   3.031  0.2547 -0.2980  0.0066
 7988SOL    HW135597   3.649   2.569   2.997 -0.4454 -1.8032  2.6694
 7988SOL    HW235598   3.649   2.653   3.117 -1.5994  0.0028  0.8804
 7989SOL     OW35599   1.029   4.235   4.115  0.0758  0.5582  0.4020
 7989SOL    HW135600   0.949   4.181   4.117 -0.2208  0.9013 -2.1008
 7989SOL    HW235601   1.051   4.223   4.207  0.3275  1.4114  0.4524
 7990SOL     OW35602   3.725   3.496   6.339  0.1651 -0.4440  0.0063
 7990SOL    HW135603   3.681   3.549   6.272 -0.0014  1.1077  1.3297
 7990SOL    HW235604   3.791   3.561   6.364  0.9210 -1.2320  0.0260
 7991SOL     OW35605   0.802   3.778   3.181 -0.5207 -0.5959  0.2078
 7991SOL    HW135606   0.854   3.826   3.246 -2.1801  0.9026  0.4082
 7991SOL    HW235607   0.857   3.702   3.162 -3.6238 -2.3851 -1.5667
 7992SOL     OW35608   1.318   0.808   4.483  0.2008  0.3361 -0.6036
 7992SOL    HW135609   1.291   0.753   4.557 -3.3713  1.3027 -1.2213
 7992SOL    HW235610   1.408   0.827   4.511  1.1119 -2.2566 -1.7090
 7993SOL     OW35611   3.771   3.720  17.233 -0.2317 -0.0592 -0.1431
 7993SOL    HW135612   3.823   3.667  17.294 -1.9852 -2.2793 -0.5796
 7993SOL    HW235613   3.689   3.673  17.243 -0.1450 -0.8342 -2.9447
 7994SOL     OW35614   0.702   0.289   7.079 -0.3067 -0.9731 -0.1378
 7994SOL    HW135615   0.725   0.197   7.067  2.2429 -0.3856  0.3310
 7994SOL    HW235616   0.692   0.319   6.988  0.0382 -0.9221 -0.1575
 7995SOL     OW35617   1.640   0.265   5.866  0.1213 -0.2415 -0.4175
 7995SOL    HW135618   1.619   0.338   5.924  0.1772  0.9676 -1.9079
 7995SOL    HW235619   1.648   0.305   5.779 -2.0230  0.2014 -0.4056
 7996SOL     OW35620   0.654   3.100   6.676 -0.6659  0.7091  0.0918
 7996SOL    HW135621   0.736   3.079   6.631 -0.1496 -2.1202  2.3349
 7996SOL    HW235622   0.649   3.195   6.665  0.3101  0.7156 -0.3386
 7997SOL     OW35623   4.028   0.761   4.563 -0.0611  0.3852 -0.3907
 7997SOL    HW135624   3.961   0.698   4.535  0.0532  0.3584 -0.6095
 7997SOL    HW235625   3.984   0.803   4.636  1.6272  2.4190 -0.5333
 7998SOL     OW35626   2.539   4.235  12.702 -0.5672  0.0426  0.2565
 7998SOL    HW135627   2.615   4.187  12.671 -1.6450 -2.1865  1.0369
 7998SOL    HW235628   2.563   4.327  12.697 -0.1298 -0.0679  0.3408
 7999SOL     OW35629   0.072   2.827   1.569 -0.4205  0.3855 -0.1422
 7999SOL    HW135630   0.139   2.816   1.502 -0.8974 -1.3817 -0.3225
 7999SOL    HW235631   0.020   2.893   1.523 -1.2054 -0.1529 -0.0347
 8000SOL     OW35632   0.662   2.379   6.120  0.4636 -0.0959  0.4120
 8000SOL    HW135633   0.710   2.414   6.195 -0.2431 -0.5794  1.0958
 8000SOL    HW235634   0.582   2.362   6.171 -0.4676  0.3073 -0.9362
 8001SOL     OW35635   3.022   4.493   1.929  0.2730 -0.5939 -0.1677
 8001SOL    HW135636   2.966   4.416   1.944  1.4622 -2.0953 -3.3259
 8001SOL    HW235637   3.006   4.543   2.009 -1.2107 -0.9472 -0.2349
 8002SOL     OW35638   1.982   0.237   1.450 -0.5094 -0.2313 -0.0095
 8002SOL    HW135639   1.985   0.156   1.400 -1.8193 -0.0460 -0.3870
 8002SOL    HW235640   1.941   0.209   1.532  1.5961  0.2649  1.2203
 8003SOL     OW35641   4.652   0.467   7.153  1.0116  0.0491  0.4674
 8003SOL    HW135642   4.714   0.413   7.201  0.0912 -1.0267  0.4403
 8003SOL    HW235643   4.699   0.550   7.166  0.5727 -0.2609  4.1156
 8004SOL     OW35644   2.439   2.021   9.236 -0.0946  0.1802 -0.1640
 8004SOL    HW135645   2.453   1.934   9.198 -4.8069 -0.3986 -0.5565
 8004SOL    HW235646   2.473   2.001   9.323 -0.4286  0.7889  0.1077
 8005SOL     OW35647   3.135   0.835  17.330  0.5947  0.2396  0.1477
 8005SOL    HW135648   3.167   0.921  17.304  1.5232 -0.6910 -1.8551
 8005SOL    HW235649   3.109   0.793  17.248  1.7314 -2.3626  1.1146
 8006SOL     OW35650   0.927   0.924   1.964  0.3795 -0.3299 -0.2433
 8006SOL    HW135651   0.944   0.831   1.974  2.4978  0.0509 -0.2965
 8006SOL    HW235652   1.014   0.964   1.971 -0.7303  1.9713  0.3333
 8007SOL     OW35653   4.364   2.949   3.548  0.2206  0.4564 -0.0908
 8007SOL    HW135654   4.386   3.027   3.600  1.8746 -0.2778  0.3161
 8007SOL    HW235655   4.390   2.980   3.461  0.5363 -1.1406 -0.5578
 8008SOL     OW35656   3.214   2.412   5.551  0.4401 -0.0899 -0.1651
 8008SOL    HW135657   3.204   2.335   5.605 -3.7105  0.3277 -0.2922
 8008SOL    HW235658   3.307   2.422   5.534  0.3326 -0.2586 -0.8720
 8009SOL     OW35659   4.112   0.973   2.023  0.0585 -0.4785  0.1553
 8009SOL    HW135660   4.057   0.956   1.947 -2.1911 -1.1407  1.9269
 8009SOL    HW235661   4.101   0.887   2.065  0.6406 -0.3083  0.6521
 8010SOL     OW35662   2.284   1.330   8.158  0.8302 -0.5336 -0.0581
 8010SOL    HW135663   2.376   1.311   8.174  1.4008  0.6208 -1.8710
 8010SOL    HW235664   2.245   1.245   8.142  0.1070 -0.0992 -0.6225
 8011SOL     OW35665   0.904   4.210   4.962  0.0937  0.0710  0.0388
 8011SOL    HW135666   0.848   4.137   4.935  2.1807 -0.6324 -2.4118
 8011SOL    HW235667   0.892   4.277   4.894  0.5083  1.1586  1.0490
 8012SOL     OW35668   2.286   1.825   4.494  0.4991 -0.1197 -0.2483
 8012SOL    HW135669   2.368   1.779   4.475  0.5123 -0.4730  0.6376
 8012SOL    HW235670   2.329   1.897   4.540 -1.0096  0.0125  0.9583
 8013SOL     OW35671   2.681   1.071   4.989 -0.6174  0.4632 -0.1122
 8013SOL    HW135672   2.590   1.048   4.970 -0.3219  0.8134 -1.9074
 8013SOL    HW235673   2.715   1.100   4.905 -1.3609 -0.9267 -0.8921
 8014SOL     OW35674   4.464   1.051  14.571 -0.3592  0.5417  0.3225
 8014SOL    HW135675   4.516   0.971  14.562  1.2285  1.6212 -0.1190
 8014SOL    HW235676   4.460   1.058  14.666  1.7263 -0.9268  0.4977
 8015SOL     OW35677   3.780   4.598  10.398 -0.0625  0.0648  0.3606
 8015SOL    HW135678   3.690   4.616  10.424  0.5860  2.2603  1.1052
 8015SOL    HW235679   3.832   4.649  10.461  0.1898  1.8171 -1.2683
 8016SOL     OW35680   4.028   3.276   4.349  0.9562 -0.0844 -0.4079
 8016SOL    HW135681   4.095   3.275   4.417  0.7857 -0.1014 -0.2406
 8016SOL    HW235682   3.969   3.207   4.378  0.6271  0.8003  0.9970
 8017SOL     OW35683   1.298   3.535  13.375  0.2195 -0.0697 -0.8120
 8017SOL    HW135684   1.318   3.580  13.293 -1.5847  2.3276  0.0594
 8017SOL    HW235685   1.287   3.605  13.439  1.0101 -0.9505  0.2969
 8018SOL     OW35686   3.702   4.089  12.867 -0.3352 -0.0793  0.0721
 8018SOL    HW135687   3.707   4.178  12.900 -0.2531 -0.1815  0.3393
 8018SOL    HW235688   3.735   4.040  12.942  0.7362  0.7623  0.1456
 8019SOL     OW35689   0.628   3.290  13.503 -0.1428 -0.0359 -0.9288
 8019SOL    HW135690   0.646   3.196  13.504 -0.1496 -0.0205  0.3389
 8019SOL    HW235691   0.717   3.326  13.498  0.6398 -1.6826  1.3644
 8020SOL     OW35692   3.466   1.630   3.875  0.4039 -0.8689 -0.2713
 8020SOL    HW135693   3.499   1.610   3.788 -2.3071  0.0467 -1.5408
 8020SOL    HW235694   3.505   1.716   3.892 -1.1256 -0.7169  2.5687
 8021SOL     OW35695   2.377   3.831  14.574  0.0317  0.3522 -0.5985
 8021SOL    HW135696   2.291   3.870  14.560 -1.1946 -1.2469  2.5804
 8021SOL    HW235697   2.373   3.762  14.640  0.0369 -0.0525 -1.0193
 8022SOL     OW35698   2.886   3.059  12.666  0.1842 -0.4381 -0.3115
 8022SOL    HW135699   2.924   3.096  12.745  1.6354 -1.1569 -0.6734
 8022SOL    HW235700   2.827   2.991  12.699  0.1623 -0.0945  0.3372
 8023SOL     OW35701   0.732   0.062   8.085  0.2916  0.3959 -0.2940
 8023SOL    HW135702   0.773   0.111   8.015  2.2077  1.0960  1.3455
 8023SOL    HW235703   0.763   4.710   8.068 -1.0010 -0.8272  3.8182
 8024SOL     OW35704   2.568   2.878   5.140 -0.2123  0.3940 -0.1483
 8024SOL    HW135705   2.585   2.870   5.046 -2.5597  1.6291 -0.6489
 8024SOL    HW235706   2.492   2.936   5.143 -0.6346 -0.1416 -0.5303
 8025SOL     OW35707   3.716   1.736  16.882  0.4569  0.7560 -0.1691
 8025SOL    HW135708   3.636   1.777  16.914  1.0779  2.1749 -0.4158
 8025SOL    HW235709   3.707   1.644  16.906 -0.6307  0.5367 -1.4065
 8026SOL     OW35710   2.429   2.983   4.442  0.4113  0.3387 -0.1723
 8026SOL    HW135711   2.389   2.954   4.360  3.5428 -0.2473 -1.4984
 8026SOL    HW235712   2.482   2.905   4.456  1.6586  1.6783  2.6092
 8027SOL     OW35713   0.562   4.710   3.253 -0.5118  0.5212  0.1646
 8027SOL    HW135714   0.611   4.683   3.331  0.9559  4.0092  0.4779
 8027SOL    HW235715   0.549   4.628   3.206  0.4735  0.1046  0.6171
 8028SOL     OW35716   0.192   4.104   7.840 -0.5570  0.0266  0.1458
 8028SOL    HW135717   0.157   4.061   7.918 -0.6528  0.0375  0.1085
 8028SOL    HW235718   0.285   4.103   7.864 -0.4359  1.3666 -0.2383
 8029SOL     OW35719   1.797   0.190   6.146 -0.2755  0.4537 -0.1174
 8029SOL    HW135720   1.702   0.183   6.147 -0.4440  2.3854 -1.3160
 8029SOL    HW235721   1.821   0.164   6.057 -0.0279  0.6693 -0.1149
 8030SOL     OW35722   3.527   0.800   5.574  0.5703  0.1127 -0.4061
 8030SOL    HW135723   3.554   0.751   5.652 -0.7005  1.0097  0.5854
 8030SOL    HW235724   3.445   0.754   5.557  0.1433  0.9351 -0.5360
 8031SOL     OW35725   0.342   1.856   3.037 -0.1222  0.1823  0.0093
 8031SOL    HW135726   0.402   1.783   3.055 -2.9597 -1.9678  0.6928
 8031SOL    HW235727   0.263   1.836   3.087 -1.0953  0.8188 -1.2933
 8032SOL     OW35728   0.339   2.551   6.575  0.0210 -0.3247 -0.3985
 8032SOL    HW135729   0.430   2.560   6.548  0.4580  0.1179  1.2696
 8032SOL    HW235730   0.330   2.639   6.611 -1.3158 -0.8052  0.4432
 8033SOL     OW35731   4.003   0.534  14.394 -0.0765 -0.3641 -0.1018
 8033SOL    HW135732   4.029   0.486  14.315 -0.9303 -0.0151 -0.6036
 8033SOL    HW235733   3.915   0.504  14.418 -0.5876  2.3018  1.3965
 8034SOL     OW35734   1.565   1.727   0.090  0.3792 -0.2203  0.4430
 8034SOL    HW135735   1.617   1.769   0.022  2.2655 -2.8640  0.2977
 8034SOL    HW235736   1.471   1.731   0.069  0.7897 -0.1871 -1.3701
 8035SOL     OW35737   4.079   3.433   5.878 -0.1153  0.1143 -0.3813
 8035SOL    HW135738   4.029   3.377   5.938  0.4767 -0.6187 -0.5737
 8035SOL    HW235739   4.121   3.490   5.942  0.4407 -1.4526  0.6435
 8036SOL     OW35740   2.122   0.790  10.399 -0.4204 -0.5828  0.2940
 8036SOL    HW135741   2.035   0.831  10.394  0.2917  1.0013  0.8120
 8036SOL    HW235742   2.147   0.807  10.308  0.8101 -1.6345  0.4409
 8037SOL     OW35743   3.564   0.440   3.394 -0.6985  0.2906  0.1950
 8037SOL    HW135744   3.639   0.475   3.347 -1.2147  1.8415  0.5329
 8037SOL    HW235745   3.506   0.515   3.408  0.5374  1.2192  0.3471
 8038SOL     OW35746   1.890   1.336   2.891  0.2157 -0.0826  0.0858
 8038SOL    HW135747   1.839   1.282   2.830 -0.1570  0.8071 -0.3880
 8038SOL    HW235748   1.815   1.375   2.935  1.6280  0.3035  2.1336
 8039SOL     OW35749   3.751   2.321   4.054  0.2489 -0.0409 -0.0219
 8039SOL    HW135750   3.839   2.335   4.089  0.0562 -0.2782  0.5548
 8039SOL    HW235751   3.772   2.297   3.963 -0.5389  1.0282 -0.4806
 8040SOL     OW35752   3.005   3.894   1.782  0.0110 -0.0397 -0.2270
 8040SOL    HW135753   3.074   3.958   1.764  0.1347 -0.2840 -0.6199
 8040SOL    HW235754   2.984   3.922   1.872  1.6141  0.4052  0.0060
 8041SOL     OW35755   1.999   0.673  16.061 -0.1066  0.2645 -0.3531
 8041SOL    HW135756   2.093   0.664  16.072 -0.0765  0.3321 -0.5594
 8041SOL    HW235757   1.978   0.634  15.977 -1.4783 -0.5389  0.3516
 8042SOL     OW35758   1.318   4.281   1.806 -0.0352  0.0652 -0.5479
 8042SOL    HW135759   1.270   4.300   1.725 -1.0398 -0.4796 -0.0839
 8042SOL    HW235760   1.397   4.247   1.766 -0.2399  0.8266 -1.6070
 8043SOL     OW35761   4.194   0.708   8.502 -0.3273  0.2766  0.1449
 8043SOL    HW135762   4.157   0.787   8.462 -0.4338 -0.1199 -0.5434
 8043SOL    HW235763   4.227   0.735   8.588  1.5556 -1.3103 -0.0552
 8044SOL     OW35764   1.400   2.564   8.193 -0.4968  0.0605  0.2720
 8044SOL    HW135765   1.488   2.561   8.232 -0.5216  0.0092  0.3232
 8044SOL    HW235766   1.395   2.656   8.166 -0.2989  0.1519  0.5491
 8045SOL     OW35767   1.278   2.363   2.315  0.4818 -0.2278 -0.0626
 8045SOL    HW135768   1.339   2.361   2.241  0.4224 -1.1375 -0.0896
 8045SOL    HW235769   1.339   2.385   2.385  0.8761 -0.4464 -0.3319
 8046SOL     OW35770   3.476   1.189   4.065 -0.5612  0.0559 -0.4777
 8046SOL    HW135771   3.482   1.242   3.985  0.7228  1.9971  0.9023
 8046SOL    HW235772   3.391   1.148   4.054 -0.2704 -0.8235  0.5338
 8047SOL     OW35773   3.498   4.142   2.023  0.3624 -0.4355 -0.1062
 8047SOL    HW135774   3.451   4.093   2.091  1.6102  0.0652  1.1106
 8047SOL    HW235775   3.426   4.178   1.972 -0.4312 -0.8861  0.6931
 8048SOL     OW35776   4.503   1.041   8.895  0.4349  0.0715  0.2542
 8048SOL    HW135777   4.410   1.036   8.918  1.2583 -3.4775  2.9658
 8048SOL    HW235778   4.507   1.044   8.800  0.8071 -0.7349  0.2458
 8049SOL     OW35779   1.495   2.550  16.128 -0.0040 -0.1789  0.0224
 8049SOL    HW135780   1.414   2.526  16.171 -0.1208  1.6165  0.8063
 8049SOL    HW235781   1.512   2.627  16.181 -0.8764  2.2341 -3.1666
 8050SOL     OW35782   2.147   1.513   3.482 -0.1414  0.5870  0.3232
 8050SOL    HW135783   2.136   1.418   3.483  1.6953  0.3846  0.8053
 8050SOL    HW235784   2.206   1.541   3.412 -1.8345 -0.9981 -1.6907
 8051SOL     OW35785   0.742   2.996   8.219  0.0540  0.3585  0.4618
 8051SOL    HW135786   0.704   3.081   8.244 -1.2955 -0.4272  1.1017
 8051SOL    HW235787   0.734   3.003   8.124  0.4136 -1.3501  0.3084
 8052SOL     OW35788   1.783   2.385   3.783  0.0118  0.0287 -0.8853
 8052SOL    HW135789   1.797   2.478   3.766 -0.3908  0.2749  0.1043
 8052SOL    HW235790   1.873   2.353   3.779  0.5893  1.4810  0.0428
 8053SOL     OW35791   4.704   0.121   0.255  0.3100  0.0509  0.5221
 8053SOL    HW135792   0.028   0.164   0.195  0.8960 -0.6779  0.5827
 8053SOL    HW235793   4.737   0.163   0.334  1.8231 -0.0502 -0.0493
 8054SOL     OW35794   2.717   3.512   4.862 -0.2291 -0.9466  0.1771
 8054SOL    HW135795   2.725   3.417   4.850  0.8932 -0.6747 -1.2336
 8054SOL    HW235796   2.729   3.541   4.772 -0.9551  0.2891  0.4794
 8055SOL     OW35797   1.191   3.484   5.378  0.6523  0.3291 -0.0765
 8055SOL    HW135798   1.104   3.461   5.344  0.5279 -1.7862  1.6777
 8055SOL    HW235799   1.174   3.576   5.361 -4.0548 -0.9511 -2.4434
 8056SOL     OW35800   2.456   1.146   2.538  0.1045 -0.0395  0.6436
 8056SOL    HW135801   2.443   1.055   2.564 -1.0275 -0.5514 -1.7635
 8056SOL    HW235802   2.401   1.190   2.602 -1.7068  2.0228 -2.3489
 8057SOL     OW35803   0.773   3.396   2.565 -0.1436  0.2331  0.0226
 8057SOL    HW135804   0.724   3.456   2.509 -0.0289  0.0614 -0.2580
 8057SOL    HW235805   0.719   3.383   2.643  1.2200  2.4445  1.3480
 8058SOL     OW35806   3.047   4.712  13.928  0.3123 -0.0652  0.5815
 8058SOL    HW135807   3.016   4.655  13.998  1.6855 -2.3167 -0.6621
 8058SOL    HW235808   3.114   0.036  13.958 -0.0781  0.2724  0.7728
 8059SOL     OW35809   0.500   4.246   2.409  0.1895  0.5387  0.1757
 8059SOL    HW135810   0.479   4.311   2.341 -0.1742  0.0936 -0.1303
 8059SOL    HW235811   0.562   4.187   2.366  2.0378  0.5979  2.7450
 8060SOL     OW35812   3.885   0.997   4.298 -0.3227  0.1956  0.2002
 8060SOL    HW135813   3.834   0.936   4.243 -0.3519  0.0892  0.3454
 8060SOL    HW235814   3.861   1.077   4.251  0.7211  0.2542 -0.2377
 8061SOL     OW35815   0.665   1.505   9.213  0.1609  0.0399 -0.3122
 8061SOL    HW135816   0.651   1.575   9.277  1.3521 -2.7419  3.0230
 8061SOL    HW235817   0.611   1.547   9.146 -0.0177  0.3982  0.0537
 8062SOL     OW35818   4.155   3.406  12.805  0.8249 -0.4739 -0.4896
 8062SOL    HW135819   4.059   3.414  12.804  0.8483 -0.3635 -1.2813
 8062SOL    HW235820   4.169   3.407  12.900 -0.8069 -2.0516 -0.2358
 8063SOL     OW35821   3.755   2.294  11.533  0.1856  0.1866 -0.4530
 8063SOL    HW135822   3.848   2.303  11.554  0.5245  0.3411 -2.0822
 8063SOL    HW235823   3.761   2.284  11.438  0.8159  1.0933 -0.5058
 8064SOL     OW35824   1.580   1.613   7.148 -0.6249 -0.0213 -0.1080
 8064SOL    HW135825   1.653   1.615   7.087  0.2364 -0.7675  0.8809
 8064SOL    HW235826   1.627   1.621   7.232 -2.1881 -3.0348  1.0727
 8065SOL     OW35827   1.584   1.469  11.222  0.8433  0.9586  0.1661
 8065SOL    HW135828   1.662   1.420  11.246 -0.8451 -1.3727  0.8133
 8065SOL    HW235829   1.628   1.547  11.186  1.5784  0.2772 -0.4072
 8066SOL     OW35830   0.831   3.048   1.746 -0.0779  0.3657  0.1737
 8066SOL    HW135831   0.739   3.074   1.757 -0.0118 -0.8111  3.3417
 8066SOL    HW235832   0.854   3.082   1.659  0.0835 -0.3965 -0.0808
 8067SOL     OW35833   2.139   0.684   5.379  0.1316 -0.2623  0.1795
 8067SOL    HW135834   2.066   0.743   5.397  0.4664 -0.0323  0.7807
 8067SOL    HW235835   2.216   0.741   5.385 -0.5685  0.5654  1.0602
 8068SOL     OW35836   3.819   1.538   1.316 -0.1441  0.3161 -0.1017
 8068SOL    HW135837   3.729   1.551   1.345  0.4673  1.8634  1.1081
 8068SOL    HW235838   3.800   1.522   1.224  2.9929 -0.3073 -0.6413
 8069SOL     OW35839   4.095   2.178   3.337 -0.2469  0.1988  0.6326
 8069SOL    HW135840   4.045   2.098   3.351 -1.0141  0.7157  0.7895
 8069SOL    HW235841   4.020   2.237   3.336 -0.4754 -0.0765  1.8439
 8070SOL     OW35842   0.569   0.242   7.593 -0.3296 -0.0476 -0.3797
 8070SOL    HW135843   0.618   0.265   7.514 -0.2009  2.6505  0.4739
 8070SOL    HW235844   0.487   0.214   7.552 -1.5540  0.2582  1.8667
 8071SOL     OW35845   4.478   4.546   4.633 -0.1504  0.2930 -0.6738
 8071SOL    HW135846   4.573   4.536   4.642 -0.6246 -1.4251  2.2314
 8071SOL    HW235847   4.473   4.620   4.693  3.0631  0.7655 -1.0055
 8072SOL     OW35848   2.137   2.697   2.878 -0.4429 -0.6161 -0.1274
 8072SOL    HW135849   2.153   2.747   2.958  0.0331 -0.6761 -0.1885
 8072SOL    HW235850   2.226   2.679   2.849  0.0129  0.4113  0.6367
 8073SOL     OW35851   1.239   2.444   6.637 -0.3824  0.2620  0.1146
 8073SOL    HW135852   1.260   2.518   6.694  0.8727  0.4245 -0.5429
 8073SOL    HW235853   1.195   2.386   6.699  0.8588 -0.0995  0.6687
 8074SOL     OW35854   1.370   1.551   1.897  0.5753  0.1123 -0.2920
 8074SOL    HW135855   1.459   1.526   1.869  0.8711 -0.5321  1.2384
 8074SOL    HW235856   1.387   1.622   1.959  1.1847  0.8901 -1.3590
 8075SOL     OW35857   2.654   3.049  12.267 -0.7166  0.1781 -0.0161
 8075SOL    HW135858   2.708   3.122  12.236  1.4049 -1.1575  0.5153
 8075SOL    HW235859   2.571   3.088  12.293 -0.8845 -1.0317  1.2660
 8076SOL     OW35860   3.266   2.585   3.327 -0.4058 -0.4317  0.2908
 8076SOL    HW135861   3.284   2.626   3.242 -1.2421 -0.3760  0.1385
 8076SOL    HW235862   3.188   2.632   3.357 -0.3643 -0.1191 -0.0862
 8077SOL     OW35863   1.644   2.854  14.399 -0.9591 -0.3596  0.3409
 8077SOL    HW135864   1.684   2.790  14.340 -0.6115  0.5194 -0.3552
 8077SOL    HW235865   1.700   2.840  14.476  0.8149  0.2119 -0.8475
 8078SOL     OW35866   4.510   1.947   3.892 -0.3182  0.6548 -0.3866
 8078SOL    HW135867   4.590   1.895   3.892 -1.3317 -0.9151 -2.7361
 8078SOL    HW235868   4.534   2.038   3.908  3.5200 -0.0508 -2.2279
 8079SOL     OW35869   2.224   4.127  10.730 -0.7577 -0.6394 -0.3172
 8079SOL    HW135870   2.206   4.214  10.764 -1.4344 -0.7288 -0.4470
 8079SOL    HW235871   2.303   4.103  10.778 -1.4064  1.5398  1.7948
 8080SOL     OW35872   0.676   1.443   1.869 -0.6899 -0.4402  0.2634
 8080SOL    HW135873   0.660   1.425   1.961  0.4453 -0.4649  0.4538
 8080SOL    HW235874   0.668   1.538   1.867  2.0036 -0.2000  0.2438
 8081SOL     OW35875   3.017   0.127   1.894 -0.4282 -0.4008  0.4117
 8081SOL    HW135876   2.960   0.053   1.913 -1.8024 -0.4282 -3.7869
 8081SOL    HW235877   2.948   0.193   1.888 -0.4532 -0.4926 -0.3538
 8082SOL     OW35878   1.049   0.526   8.480 -0.0737  0.3707 -0.5013
 8082SOL    HW135879   1.031   0.451   8.536  1.0300  2.1714  2.2981
 8082SOL    HW235880   1.088   0.589   8.541 -2.6867  0.4664  1.0709
 8083SOL     OW35881   3.708   3.600   6.787 -0.2377  0.6735  0.5414
 8083SOL    HW135882   3.690   3.560   6.702 -2.8044  1.3757  0.7561
 8083SOL    HW235883   3.687   3.529   6.848 -0.3754 -1.7656 -2.3812
 8084SOL     OW35884   4.723   3.212  13.106  0.1814  0.0705  0.1010
 8084SOL    HW135885   4.694   3.168  13.186  1.0064 -0.8131 -0.0795
 8084SOL    HW235886   4.643   3.220  13.055  1.1530  1.2449 -1.2211
 8085SOL     OW35887   1.301   1.187  16.002  0.0179  0.5610 -0.1658
 8085SOL    HW135888   1.281   1.184  16.096  1.6608  0.1952  0.1698
 8085SOL    HW235889   1.360   1.263  16.003  0.4981  0.1916 -1.2253
 8086SOL     OW35890   3.501   4.610  10.496  0.5166 -0.0882 -0.3653
 8086SOL    HW135891   3.420   4.587  10.542  0.7831  2.5547  1.4293
 8086SOL    HW235892   3.522   4.693  10.537  2.3353 -1.6280  1.8363
 8087SOL     OW35893   3.912   0.878  11.785 -0.3859 -0.2313  0.3877
 8087SOL    HW135894   3.874   0.795  11.755 -0.5160 -0.2769  0.6769
 8087SOL    HW235895   3.837   0.918  11.830  0.0160  0.1863  0.6834
 8088SOL     OW35896   4.627   4.641   8.860 -0.2280 -0.6416 -0.3880
 8088SOL    HW135897   4.633   4.692   8.941  0.1229  0.8225 -1.3387
 8088SOL    HW235898   4.709   4.592   8.866 -0.6610 -1.0859  2.0630
 8089SOL     OW35899   1.458   0.355   9.953  0.1021  0.4592  0.1469
 8089SOL    HW135900   1.462   0.302  10.033 -1.3650 -0.1741 -0.1995
 8089SOL    HW235901   1.549   0.358   9.923  0.7950 -1.8185  1.9736
 8090SOL     OW35902   4.225   1.312   9.361  0.0316  0.0809 -0.2963
 8090SOL    HW135903   4.130   1.318   9.368 -0.1735 -0.6837 -2.3528
 8090SOL    HW235904   4.236   1.237   9.302 -1.0278 -0.7625  0.5628
 8091SOL     OW35905   3.786   2.412  15.946 -0.1589  0.3041  0.3193
 8091SOL    HW135906   3.719   2.408  15.878  0.7638 -2.9102 -0.3938
 8091SOL    HW235907   3.861   2.359  15.916 -0.4703  0.9761 -1.6638
 8092SOL     OW35908   3.381   2.659   6.683 -0.6965 -0.0094  0.3130
 8092SOL    HW135909   3.381   2.594   6.613  0.4647  1.4333 -1.0154
 8092SOL    HW235910   3.390   2.610   6.765  1.5529 -0.8590 -0.4299
 8093SOL     OW35911   3.706   1.175   9.393  0.8202  0.4198 -0.1407
 8093SOL    HW135912   3.656   1.256   9.380  1.7799  1.0733  0.2378
 8093SOL    HW235913   3.716   1.132   9.308 -0.4304 -0.9501  0.4003
 8094SOL     OW35914   1.372   1.828   8.680 -0.0860 -0.0943  0.1832
 8094SOL    HW135915   1.411   1.888   8.744 -1.5474  0.6640  0.3764
 8094SOL    HW235916   1.436   1.799   8.615  0.2822 -0.4210  0.6946
 8095SOL     OW35917   2.678   0.971   4.097 -0.2801 -0.1705  0.2253
 8095SOL    HW135918   2.717   0.934   4.176 -0.9280  0.1234  0.6820
 8095SOL    HW235919   2.756   1.008   4.055  0.5559 -1.3549  0.7718
 8096SOL     OW35920   0.652   0.736   3.768 -0.4418  0.2780  0.3504
 8096SOL    HW135921   0.590   0.791   3.721  0.7255  0.0590 -1.4327
 8096SOL    HW235922   0.712   0.701   3.702 -0.7414  2.6738 -1.2146
 8097SOL     OW35923   0.306   2.632  13.159  0.8679 -0.5610  0.3014
 8097SOL    HW135924   0.218   2.597  13.173  0.2579  0.7806 -0.2277
 8097SOL    HW235925   0.324   2.691  13.232 -0.3864  0.6449 -0.3624
 8098SOL     OW35926   4.138   0.058   9.533  0.2105  0.7096 -0.0405
 8098SOL    HW135927   4.062   4.737   9.530  0.7487  0.0577 -1.1553
 8098SOL    HW235928   4.201   0.013   9.589 -0.2733 -0.2889 -0.2920
 8099SOL     OW35929   4.563   1.080   2.180  0.2481 -0.2259 -0.7719
 8099SOL    HW135930   4.521   0.994   2.175 -1.5414  0.7027 -1.8428
 8099SOL    HW235931   4.490   1.141   2.170 -1.0015 -1.4177  0.8698
 8100SOL     OW35932   3.222   3.091   3.131  0.0058 -0.1991 -0.1367
 8100SOL    HW135933   3.219   3.178   3.089  3.4687 -0.9796 -2.0571
 8100SOL    HW235934   3.129   3.072   3.117  0.1073  0.7868 -2.2556
 8101SOL     OW35935   2.767   0.224  16.332  0.4430  0.0546 -0.1786
 8101SOL    HW135936   2.706   0.236  16.260 -0.7822  0.3251  0.9100
 8101SOL    HW235937   2.782   0.312  16.364  0.3114  0.2455 -0.6442
 8102SOL     OW35938   3.227   3.060   1.777 -0.8148 -0.2342 -0.4165
 8102SOL    HW135939   3.169   3.033   1.707  0.2677 -0.6278 -1.1558
 8102SOL    HW235940   3.258   3.147   1.751  0.2899 -0.4602  0.1042
 8103SOL     OW35941   2.468   0.013  16.501 -0.2585 -0.5481 -0.1447
 8103SOL    HW135942   2.435   0.060  16.424  1.1242  2.5059  1.1144
 8103SOL    HW235943   2.528   0.082  16.530 -2.4219  1.1583  0.3099
 8104SOL     OW35944   2.745   1.577   1.920 -0.2359 -0.1975  0.5010
 8104SOL    HW135945   2.680   1.603   1.855 -0.0655  0.2624  0.5173
 8104SOL    HW235946   2.737   1.654   1.976 -1.4175  0.0086  0.0598
 8105SOL     OW35947   1.669   0.309   9.453  0.5566 -0.6759 -0.1374
 8105SOL    HW135948   1.577   0.295   9.433 -0.2121  1.3723  2.0590
 8105SOL    HW235949   1.677   0.402   9.432 -2.5622 -0.7969 -1.8090
 8106SOL     OW35950   3.579   2.572   0.538 -0.3505  0.1944 -1.0461
 8106SOL    HW135951   3.602   2.523   0.459 -0.2894 -1.8368  0.2228
 8106SOL    HW235952   3.526   2.511   0.589  3.0759 -0.5405  1.5999
 8107SOL     OW35953   1.125   1.527   5.552 -0.2649 -0.3799  0.3694
 8107SOL    HW135954   1.166   1.450   5.592  1.5187 -0.0452 -0.8018
 8107SOL    HW235955   1.062   1.543   5.622 -0.7860 -0.8894  0.0163
 8108SOL     OW35956   0.890   0.172  16.800 -0.7106 -0.4723 -0.2990
 8108SOL    HW135957   0.925   0.121  16.873  0.2645  1.0888  0.3273
 8108SOL    HW235958   0.973   0.185  16.754 -0.5034 -0.3024  0.1294
 8109SOL     OW35959   1.965   2.912  14.523  0.2917 -0.1463  0.3043
 8109SOL    HW135960   1.884   2.866  14.544 -0.5049  0.8325 -0.6235
 8109SOL    HW235961   1.951   2.960  14.441 -1.5544  1.3758  1.5052
 8110SOL     OW35962   1.377   1.254   5.714 -0.0931  0.0184 -0.7447
 8110SOL    HW135963   1.285   1.252   5.686  0.2752 -0.9482 -1.8458
 8110SOL    HW235964   1.374   1.337   5.762  0.6318 -1.4551  1.8207
 8111SOL     OW35965   2.656   4.587   4.462  0.4311  0.6232  0.2994
 8111SOL    HW135966   2.609   4.541   4.531  0.7031 -0.5570 -0.3084
 8111SOL    HW235967   2.601   4.578   4.384  0.8995 -0.7488  0.1329
 8112SOL     OW35968   3.775   3.859   2.655  0.3402 -0.0033 -0.0907
 8112SOL    HW135969   3.691   3.840   2.612 -0.2183 -1.3450  1.6026
 8112SOL    HW235970   3.755   3.936   2.707 -1.4108  0.8035 -1.9290
 8113SOL     OW35971   2.520   0.821   3.896  0.6545  0.0984  0.4351
 8113SOL    HW135972   2.501   0.896   3.952  0.9554  1.2084 -0.9399
 8113SOL    HW235973   2.585   0.861   3.838 -0.5284  1.0203 -0.2677
 8114SOL     OW35974   1.183   1.750   6.483 -0.2371  0.0605  0.3007
 8114SOL    HW135975   1.209   1.819   6.543  0.5434 -0.4467  0.5433
 8114SOL    HW235976   1.240   1.761   6.407 -1.8835 -1.4120 -1.1810
 8115SOL     OW35977   3.565   2.354  16.096  0.1002 -0.6710  0.3218
 8115SOL    HW135978   3.584   2.295  16.169  2.4186  1.3634  1.3622
 8115SOL    HW235979   3.650   2.383  16.061 -1.0951  1.5466 -0.7326
 8116SOL     OW35980   2.426   0.911   5.092  0.0868  0.1817 -0.1284
 8116SOL    HW135981   2.484   0.837   5.071 -0.9426 -0.7868  0.4200
 8116SOL    HW235982   2.343   0.867   5.070  0.4440  0.6688 -2.4332
 8117SOL     OW35983   4.676   0.414   2.472  0.3761  0.5816  0.8516
 8117SOL    HW135984   0.026   0.376   2.459 -0.1235 -0.2649 -0.1011
 8117SOL    HW235985   4.631   0.360   2.407 -0.7455 -0.7786  2.7508
 8118SOL     OW35986   3.488   1.284   6.342 -0.0664 -0.1322 -0.3850
 8118SOL    HW135987   3.556   1.272   6.277  0.2869 -2.0108  0.3398
 8118SOL    HW235988   3.531   1.291   6.427 -1.9873 -1.5241  0.7063
 8119SOL     OW35989   4.246   0.305   2.593 -0.3307 -0.2824 -0.5230
 8119SOL    HW135990   4.258   0.247   2.518  1.2553  1.0207 -1.2699
 8119SOL    HW235991   4.332   0.346   2.605 -0.5924  0.0089  0.3630
 8120SOL     OW35992   1.478   2.586  10.334 -0.0598  0.7469 -0.1035
 8120SOL    HW135993   1.427   2.616  10.259 -0.6097  0.3484  0.1133
 8120SOL    HW235994   1.531   2.513  10.299 -2.0977  0.5211 -2.7263
 8121SOL     OW35995   0.672   3.328  12.136 -0.5474  0.2344  0.1673
 8121SOL    HW135996   0.678   3.238  12.103  0.7131  0.7694 -1.0625
 8121SOL    HW235997   0.629   3.318  12.221 -2.0614 -0.7027 -0.6994
 8122SOL     OW35998   4.234   1.903   3.681 -0.4319 -0.3617 -0.4283
 8122SOL    HW135999   4.252   1.830   3.740  1.8292 -0.4269 -1.1769
 8122SOL    HW236000   4.206   1.855   3.603 -0.3582  2.2075 -2.0302
 8123SOL     OW36001   4.431   1.117   1.655  0.4198 -0.1830 -0.4834
 8123SOL    HW136002   4.401   1.180   1.721 -0.5910  0.6516 -1.7389
 8123SOL    HW236003   4.490   1.059   1.703  0.6205 -0.7140 -1.3669
 8124SOL     OW36004   3.603   0.796   1.466 -0.2564  0.3151  0.5810
 8124SOL    HW136005   3.616   0.702   1.466  1.9625  0.6236 -1.3385
 8124SOL    HW236006   3.658   0.819   1.391  0.2185 -0.7054  0.6128
 8125SOL     OW36007   1.557   3.150   2.709  0.1142 -0.2633 -0.0292
 8125SOL    HW136008   1.510   3.113   2.784 -0.0251  0.4535  0.2382
 8125SOL    HW236009   1.518   3.238   2.715 -1.7479 -1.0325 -0.7392
 8126SOL     OW36010   3.967   2.570   8.108 -0.6039 -0.7145 -0.0959
 8126SOL    HW136011   4.010   2.488   8.083  1.2846  0.7316 -1.6319
 8126SOL    HW236012   3.955   2.609   8.021  0.8565  1.9768  0.8917
 8127SOL     OW36013   2.089   2.991  12.976 -0.0039 -0.0765  0.0954
 8127SOL    HW136014   2.110   2.900  12.995  0.7402  0.4287  1.7093
 8127SOL    HW236015   2.130   2.993  12.889 -1.2783  0.5643 -0.4874
 8128SOL     OW36016   1.201   4.299   1.553  0.4494 -0.2790  0.3738
 8128SOL    HW136017   1.121   4.345   1.579  0.1773 -0.4976 -0.0855
 8128SOL    HW236018   1.194   4.209   1.584  0.5388 -0.1118  0.8823
 8129SOL     OW36019   2.580   2.409   8.032  0.2588  0.0731 -0.1798
 8129SOL    HW136020   2.605   2.501   8.023  0.8851 -0.2189 -1.5226
 8129SOL    HW236021   2.660   2.364   8.059 -1.0219 -1.6668  0.6559
 8130SOL     OW36022   0.941   4.090  15.511 -0.2151  0.3073 -0.1777
 8130SOL    HW136023   0.898   4.166  15.549 -2.4211 -0.3735 -1.2941
 8130SOL    HW236024   0.923   4.028  15.581  0.6276 -0.0733 -0.2913
 8131SOL     OW36025   3.830   2.300   5.288  0.2302  0.3390  0.0888
 8131SOL    HW136026   3.768   2.364   5.323  0.9734  0.8298  0.5157
 8131SOL    HW236027   3.781   2.251   5.222 -0.0108  1.8955 -0.8879
 8132SOL     OW36028   0.342   0.963   9.197 -0.5213 -0.5803 -0.0153
 8132SOL    HW136029   0.293   1.036   9.235  2.2357  1.9225 -1.2862
 8132SOL    HW236030   0.389   0.936   9.276 -2.3029  0.5110  1.4052
 8133SOL     OW36031   2.543   3.519   5.088 -0.7448  0.0313 -0.1672
 8133SOL    HW136032   2.480   3.450   5.070 -1.3894  0.7232 -0.5559
 8133SOL    HW236033   2.572   3.546   5.001  1.2812 -1.5849  0.0130
 8134SOL     OW36034   2.542   0.858   9.225  0.5476 -0.4148  0.5519
 8134SOL    HW136035   2.620   0.914   9.224  2.7454 -3.4903  0.3510
 8134SOL    HW236036   2.541   0.816   9.311  0.2695 -1.4298  0.0499
 8135SOL     OW36037   1.788   3.869  10.060  0.0080  0.1492  0.3428
 8135SOL    HW136038   1.861   3.812  10.037 -1.0165 -1.0902  0.1869
 8135SOL    HW236039   1.815   3.898  10.147  0.2621  0.5823  0.1186
 8136SOL     OW36040   2.614   1.285   6.020 -0.6327 -0.0089  0.3521
 8136SOL    HW136041   2.656   1.368   6.043  0.3247  0.3006 -2.5039
 8136SOL    HW236042   2.677   1.249   5.957 -0.4691  1.5798 -0.3810
 8137SOL     OW36043   0.592   2.619  15.058 -0.1332 -0.2076  1.0506
 8137SOL    HW136044   0.629   2.706  15.072 -0.1012 -0.2917  1.4795
 8137SOL    HW236045   0.655   2.561  15.101  2.4357  1.3626 -0.5453
 8138SOL     OW36046   3.559   0.559   2.795  0.0228 -0.1199  0.3411
 8138SOL    HW136047   3.636   0.610   2.820 -0.0596 -0.8357  2.0363
 8138SOL    HW236048   3.560   0.489   2.860 -0.8968 -0.5802 -0.1327
 8139SOL     OW36049   4.346   2.741   6.553  0.0718  0.4183  0.0832
 8139SOL    HW136050   4.299   2.825   6.556 -2.5045 -1.1444  2.8210
 8139SOL    HW236051   4.419   2.752   6.491 -0.2002 -1.2905 -0.5329
 8140SOL     OW36052   2.447   1.360   7.210 -0.2015 -0.1792  0.0264
 8140SOL    HW136053   2.382   1.398   7.151  0.0758  0.1644 -0.0602
 8140SOL    HW236054   2.404   1.276   7.226 -0.2420 -0.1838 -0.1063
 8141SOL     OW36055   0.290   3.618   6.895  0.2088  0.1389 -0.1855
 8141SOL    HW136056   0.312   3.626   6.803 -0.3599  2.1528 -0.1409
 8141SOL    HW236057   0.341   3.539   6.916 -0.5793 -0.0232  1.1396
 8142SOL     OW36058   0.106   3.073  11.162  0.6179  0.1519 -0.4544
 8142SOL    HW136059   0.150   3.129  11.226 -0.7338  0.9941 -0.2710
 8142SOL    HW236060   0.175   3.029  11.113 -1.3901 -0.8348 -2.3837
 8143SOL     OW36061   1.151   4.406   2.167 -0.3065  0.8254 -0.3496
 8143SOL    HW136062   1.087   4.433   2.232  0.1272 -0.5043  0.6437
 8143SOL    HW236063   1.093   4.347   2.119 -1.8495  2.5358 -0.5650
 8144SOL     OW36064   1.751   0.513   8.266 -0.2681 -0.1787  0.2386
 8144SOL    HW136065   1.698   0.483   8.340 -0.7384  0.6987  0.2567
 8144SOL    HW236066   1.684   0.565   8.220 -0.6697  2.7322  4.0890
 8145SOL     OW36067   3.999   0.988   1.059  0.0792 -0.1296  0.1341
 8145SOL    HW136068   3.993   0.994   0.964  3.4318  1.7667  0.0162
 8145SOL    HW236069   4.081   0.940   1.064  1.5688  2.6149  2.2515
 8146SOL     OW36070   0.666   3.494   3.703  0.7094 -0.3594 -0.0202
 8146SOL    HW136071   0.678   3.558   3.774  1.7246 -0.3410 -0.2087
 8146SOL    HW236072   0.645   3.419   3.759 -1.6161 -1.9321 -3.0475
 8147SOL     OW36073   1.448   3.086   4.203 -0.3069 -0.3439 -0.2282
 8147SOL    HW136074   1.513   3.073   4.133 -0.4448  0.1342 -0.4474
 8147SOL    HW236075   1.395   3.006   4.205  0.4339 -0.8099  0.9200
 8148SOL     OW36076   4.189   3.792   4.160 -0.3467 -0.2756  0.4730
 8148SOL    HW136077   4.180   3.697   4.154  0.7632 -0.3256 -0.6317
 8148SOL    HW236078   4.152   3.832   4.081  2.3366 -0.4225 -0.8987
 8149SOL     OW36079   0.769   3.381  11.162  0.8577  0.0920  0.2108
 8149SOL    HW136080   0.761   3.475  11.177  1.4325  0.2564 -0.5016
 8149SOL    HW236081   0.741   3.373  11.070 -0.0357  2.1431  0.3226
 8150SOL     OW36082   2.610   1.681   0.044  0.0890  0.2046  0.1695
 8150SOL    HW136083   2.563   1.697  17.709  0.1763  1.8826  0.4440
 8150SOL    HW236084   2.688   1.735   0.028  1.1560 -1.5829 -0.6216
 8151SOL     OW36085   1.403   3.097  12.608 -0.6166  0.4547 -0.3837
 8151SOL    HW136086   1.393   3.099  12.513 -0.2224 -1.9109 -0.4810
 8151SOL    HW236087   1.494   3.070  12.616 -0.7561  0.3319  0.8178
 8152SOL     OW36088   0.712   1.957   6.981  0.5261  0.1455 -0.5425
 8152SOL    HW136089   0.757   1.879   7.012  2.0568  0.9878 -0.6150
 8152SOL    HW236090   0.702   1.950   6.886 -1.9161  1.7643 -0.4172
 8153SOL     OW36091   1.007   0.056   9.412 -0.3430 -0.8703 -0.4462
 8153SOL    HW136092   1.080   0.103   9.451 -1.1025 -0.1909  0.1645
 8153SOL    HW236093   0.979   0.120   9.346  2.1692  0.7539  0.0590
 8154SOL     OW36094   4.119   4.395   3.438 -0.2775  0.0387 -0.0378
 8154SOL    HW136095   4.053   4.394   3.508  0.5878  3.3062  0.8345
 8154SOL    HW236096   4.079   4.347   3.366  1.7197 -0.4827 -0.7661
 8155SOL     OW36097   2.296   3.592   6.332  0.1827  0.2702 -0.0493
 8155SOL    HW136098   2.212   3.635   6.346  1.1720  1.3177  2.8771
 8155SOL    HW236099   2.358   3.646   6.382 -0.3263  0.6665  0.1529
 8156SOL     OW36100   3.700   2.547   9.078  0.1490 -0.2962  0.7423
 8156SOL    HW136101   3.675   2.564   8.987 -0.6811  0.2221  1.0626
 8156SOL    HW236102   3.740   2.628   9.109 -0.4796  0.0367  0.6885
 8157SOL     OW36103   3.004   3.521   3.852 -0.3833 -0.1298  0.6073
 8157SOL    HW136104   3.088   3.480   3.869 -0.7864 -1.8142 -1.4343
 8157SOL    HW236105   3.017   3.538   3.758  1.4183  0.4208  0.9532
 8158SOL     OW36106   3.770   2.478  13.827 -0.2815 -0.0669  0.0034
 8158SOL    HW136107   3.705   2.408  13.824 -0.3639  0.0558 -1.2049
 8158SOL    HW236108   3.714   2.554  13.837 -2.1669 -1.6299  1.1504
 8159SOL     OW36109   1.224   1.046  16.887  0.7101 -0.3007  0.4702
 8159SOL    HW136110   1.183   1.111  16.944  1.5735  1.5322 -1.0040
 8159SOL    HW236111   1.155   1.032  16.822  2.3018  1.2412 -1.5665
 8160SOL     OW36112   4.655   2.315   6.249  0.0592  0.3192  0.0379
 8160SOL    HW136113   4.575   2.266   6.228  0.8182 -0.4143 -1.1885
 8160SOL    HW236114   4.642   2.398   6.203 -0.6376  1.7393  2.8553
 8161SOL     OW36115   2.476   1.679   2.945  0.3177 -0.1793 -0.4664
 8161SOL    HW136116   2.388   1.643   2.942 -0.2944  1.2417  0.2520
 8161SOL    HW236117   2.500   1.678   3.038 -1.7371  1.8380  0.0827
 8162SOL     OW36118   4.356   3.037   3.921  0.1651 -0.0086 -0.2707
 8162SOL    HW136119   4.434   2.982   3.924  0.3424  0.2750  0.2611
 8162SOL    HW236120   4.296   2.990   3.978  0.1395 -0.2530 -0.5000
 8163SOL     OW36121   3.353   0.049   0.990  0.6345  0.5522 -0.1729
 8163SOL    HW136122   3.382   0.057   0.899  0.5174 -1.4891 -0.3915
 8163SOL    HW236123   3.272   4.737   0.980  1.4352 -0.1901 -2.8036
 8164SOL     OW36124   3.592   2.845   4.828  0.4238 -0.5315 -0.1164
 8164SOL    HW136125   3.536   2.872   4.901 -0.2290  1.4804 -1.3663
 8164SOL    HW236126   3.527   2.834   4.758 -0.5531  0.5508  0.6209
 8165SOL     OW36127   0.557   2.650   6.851 -0.0031  0.1870 -0.0427
 8165SOL    HW136128   0.492   2.586   6.823 -0.5955  0.2233  1.2454
 8165SOL    HW236129   0.508   2.698   6.917  0.0251 -0.6152  0.5670
 8166SOL     OW36130   1.441   2.236   4.681 -0.4790 -0.3747  0.4623
 8166SOL    HW136131   1.349   2.242   4.653 -0.1078 -0.4963 -0.7632
 8166SOL    HW236132   1.479   2.199   4.602 -1.8651 -2.6938  0.8771
 8167SOL     OW36133   2.480   2.919   8.063  0.6699  0.1021  0.6704
 8167SOL    HW136134   2.418   2.960   8.124  0.1027 -0.8537  0.7205
 8167SOL    HW236135   2.501   2.993   8.006  0.1403  1.9726  2.8584
 8168SOL     OW36136   2.472   2.329   5.565  0.3395  0.4433 -0.2866
 8168SOL    HW136137   2.451   2.413   5.523  1.1596 -0.5117 -2.5516
 8168SOL    HW236138   2.517   2.360   5.644 -1.4036 -1.1553  1.3293
 8169SOL     OW36139   2.234   0.090   4.704 -0.1487 -0.2562  0.2567
 8169SOL    HW136140   2.176   0.023   4.741 -0.0899 -0.0974  0.6430
 8169SOL    HW236141   2.190   0.113   4.622 -0.2339  1.4502  0.7722
 8170SOL     OW36142   3.757   0.990  17.483  0.1905 -0.4269 -0.3676
 8170SOL    HW136143   3.814   1.058  17.449  1.5295 -0.8923  0.9557
 8170SOL    HW236144   3.801   0.979  17.567 -3.4164  0.6766  1.6836
 8171SOL     OW36145   1.376   4.602  17.222 -0.4401  0.0025  0.0259
 8171SOL    HW136146   1.444   4.571  17.162  1.3856  3.3123  0.3551
 8171SOL    HW236147   1.316   4.528  17.222  0.9237 -1.1066  0.9751
 8172SOL     OW36148   2.565   3.500   8.907  0.3379  0.6824 -0.4748
 8172SOL    HW136149   2.633   3.462   8.963 -1.0292 -1.0578 -0.0295
 8172SOL    HW236150   2.598   3.499   8.817  1.1435 -0.4827 -0.1640
 8173SOL     OW36151   0.039   4.489   3.195  0.1811 -0.0089 -0.3614
 8173SOL    HW136152   4.689   4.487   3.156 -0.5317  0.8806  1.1934
 8173SOL    HW236153   0.081   4.441   3.124  0.8453 -1.6913  1.1904
 8174SOL     OW36154   3.371   2.409   0.980 -0.0596 -0.2512 -0.5270
 8174SOL    HW136155   3.300   2.468   1.006 -0.2372  0.2286 -2.0822
 8174SOL    HW236156   3.392   2.442   0.893  1.5333  1.8028  0.6148
 8175SOL     OW36157   3.983   3.790   7.382  0.6670  0.4618 -0.1559
 8175SOL    HW136158   3.977   3.727   7.454  1.7205 -3.6003 -3.6773
 8175SOL    HW236159   4.046   3.852   7.419 -1.0459  0.9111  2.0578
 8176SOL     OW36160   3.993   3.577   7.586 -0.2718 -0.4911  0.3102
 8176SOL    HW136161   3.947   3.545   7.664 -0.3226 -0.2047  0.3982
 8176SOL    HW236162   3.996   3.499   7.530  0.1147  0.5668 -1.1483
 8177SOL     OW36163   1.870   3.364   7.088 -0.2281 -0.5088 -0.0370
 8177SOL    HW136164   1.958   3.389   7.060 -0.6809 -0.2463 -1.2207
 8177SOL    HW236165   1.871   3.268   7.084  1.4897 -0.6149  2.7023
 8178SOL     OW36166   3.374   0.839  10.798  0.0993 -0.4174 -0.2564
 8178SOL    HW136167   3.355   0.933  10.808 -0.4336 -0.5768  0.2488
 8178SOL    HW236168   3.429   0.840  10.876  0.6765 -0.4736 -0.6632
 8179SOL     OW36169   4.711   2.950   3.627  0.0712 -0.0983 -0.7060
 8179SOL    HW136170   4.661   2.870   3.643 -0.9730  1.0541  1.8276
 8179SOL    HW236171   4.712   2.947   3.532 -3.3384  0.1396 -0.7403
 8180SOL     OW36172   0.730   1.068   4.259 -0.2639 -0.5503 -0.0716
 8180SOL    HW136173   0.773   0.982   4.263 -1.2375 -1.0059  0.5391
 8180SOL    HW236174   0.788   1.126   4.209  0.0989  0.6092  1.6709
 8181SOL     OW36175   1.950   0.366  10.092  0.2993 -0.4208 -0.4976
 8181SOL    HW136176   2.043   0.385  10.100  0.6171 -3.1319  2.3143
 8181SOL    HW236177   1.934   0.416  10.012  0.1567 -0.7299 -0.6648
 8182SOL     OW36178   3.661   4.542  17.264  0.2684  0.4880 -0.5188
 8182SOL    HW136179   3.730   4.595  17.303  0.2214 -0.0723  0.3476
 8182SOL    HW236180   3.686   4.537  17.172 -0.8972  0.2885 -0.8337
 8183SOL     OW36181   3.108   2.064   2.748  0.2740  0.3439 -0.7280
 8183SOL    HW136182   3.022   2.050   2.707  0.0703 -2.1368  0.5531
 8183SOL    HW236183   3.088   2.132   2.812  1.2775  0.6112 -0.7065
 8184SOL     OW36184   3.714   2.155   5.085 -0.1182  0.1640  0.1507
 8184SOL    HW136185   3.693   2.170   4.992 -2.1058 -1.0968  0.4099
 8184SOL    HW236186   3.698   2.063   5.106  0.5106 -0.4456 -2.0358
 8185SOL     OW36187   1.892   1.521   2.497  0.1188 -0.3828  0.1385
 8185SOL    HW136188   1.926   1.469   2.424 -0.2865  1.1259 -1.1336
 8185SOL    HW236189   1.800   1.536   2.474  0.4189  1.0099 -0.1887
 8186SOL     OW36190   1.252   3.697   0.408 -0.5831 -0.0114 -0.2693
 8186SOL    HW136191   1.340   3.667   0.432 -1.0825 -1.2047  0.0842
 8186SOL    HW236192   1.275   3.777   0.360 -1.5413  0.4571  0.0400
 8187SOL     OW36193   2.319   1.132  10.619  0.1603  0.8604 -0.1649
 8187SOL    HW136194   2.292   1.223  10.610 -1.3038  0.1992 -2.3439
 8187SOL    HW236195   2.363   1.113  10.536 -1.6150  0.3945 -0.9878
 8188SOL     OW36196   0.346   1.459   4.949 -0.3560  0.8227  0.0188
 8188SOL    HW136197   0.389   1.389   4.998  0.7129  0.3649 -1.5744
 8188SOL    HW236198   0.332   1.525   5.016 -0.9902 -0.8663  1.5503
 8189SOL     OW36199   4.491   0.849   7.009  0.5845  0.3597 -0.7740
 8189SOL    HW136200   4.585   0.832   7.020  0.2284 -1.1527 -0.0805
 8189SOL    HW236201   4.462   0.810   7.091  1.3455 -0.0931 -0.7180
 8190SOL     OW36202   4.720   3.788   1.590 -0.1564 -0.4242  0.4161
 8190SOL    HW136203   0.051   3.723   1.604 -0.1127 -0.9264 -2.0686
 8190SOL    HW236204   4.692   3.809   1.679 -0.3544  1.8768 -0.1848
 8191SOL     OW36205   4.197   3.184  16.175 -0.1783  0.0471  0.0087
 8191SOL    HW136206   4.213   3.169  16.268  0.9619  3.2490  0.3293
 8191SOL    HW236207   4.283   3.162  16.139  1.0153 -0.4891  3.1396
 8192SOL     OW36208   4.617   2.829   4.806 -0.2843  0.1014 -0.4095
 8192SOL    HW136209   4.708   2.858   4.795  0.4196 -1.2449  1.9949
 8192SOL    HW236210   4.574   2.907   4.770  0.0502  1.0630  1.2463
 8193SOL     OW36211   3.173   3.673   5.274  0.0355 -0.4091  0.0971
 8193SOL    HW136212   3.232   3.712   5.339 -0.0539 -0.4427  0.1989
 8193SOL    HW236213   3.086   3.704   5.300 -0.3229 -0.8565 -0.5940
 8194SOL     OW36214   0.325   4.230   6.650  0.2288  0.3175  0.5608
 8194SOL    HW136215   0.359   4.189   6.730  1.2627 -0.5634 -0.3265
 8194SOL    HW236216   0.301   4.312   6.694 -0.2914  1.2300 -1.4405
 8195SOL     OW36217   0.896   0.204   6.645 -0.5060  0.1609 -0.5730
 8195SOL    HW136218   0.811   0.161   6.639 -0.4035 -0.1116 -0.0279
 8195SOL    HW236219   0.898   0.239   6.734 -2.4522  1.8264 -1.1874
 8196SOL     OW36220   2.590   4.487  12.732  0.2263  0.8383  0.1908
 8196SOL    HW136221   2.669   4.524  12.770  1.0762  1.6738 -2.3655
 8196SOL    HW236222   2.525   4.485  12.802 -0.2600  1.7613 -0.2272
 8197SOL     OW36223   2.361   4.500   6.357  0.0829  0.1073  0.2679
 8197SOL    HW136224   2.271   4.532   6.357 -0.3284 -1.0530 -2.2930
 8197SOL    HW236225   2.412   4.569   6.399  0.8133 -0.8768  1.0083
 8198SOL     OW36226   3.736   1.879   7.532  0.4161 -0.4947 -0.3889
 8198SOL    HW136227   3.715   1.954   7.587 -0.5673  0.2311 -1.7609
 8198SOL    HW236228   3.722   1.808   7.595  0.7684 -0.8642 -0.7277
 8199SOL     OW36229   1.664   4.400   2.137 -0.0972  0.4107  0.1108
 8199SOL    HW136230   1.584   4.405   2.189 -0.8973 -1.3793 -0.9550
 8199SOL    HW236231   1.709   4.473   2.180  0.3568  0.0525  0.2540
 8200SOL     OW36232   0.793   4.554   6.227 -0.3170  0.4139  0.0117
 8200SOL    HW136233   0.700   4.577   6.223 -0.2035  0.2935 -3.3285
 8200SOL    HW236234   0.824   4.542   6.138  0.9909  1.9751  0.2515
 8201SOL     OW36235   2.062   4.543  13.067 -0.6078  0.1148  0.3664
 8201SOL    HW136236   2.028   4.464  13.108 -1.2930  0.8337  1.1988
 8201SOL    HW236237   1.987   4.583  13.023  0.0153 -1.3313 -1.9846
 8202SOL     OW36238   0.099   3.625   8.936 -0.3117  0.0620 -0.1566
 8202SOL    HW136239   0.083   3.548   8.882 -0.3984  0.1491 -0.2553
 8202SOL    HW236240   0.134   3.587   9.017 -0.9081  1.1417  0.6195
 8203SOL     OW36241   1.352   4.309   5.002  0.1875 -0.3942 -0.3552
 8203SOL    HW136242   1.403   4.236   5.035  1.2290  0.4748 -0.0155
 8203SOL    HW236243   1.399   4.334   4.922  0.0954  0.0088 -0.2861
 8204SOL     OW36244   3.042   2.867   0.849 -0.3492  0.2857 -0.2380
 8204SOL    HW136245   3.036   2.921   0.928  0.3692 -1.1021  0.7534
 8204SOL    HW236246   3.020   2.935   0.785  0.2262 -0.7104 -1.5013
 8205SOL     OW36247   1.273   3.568   9.853 -0.3678 -0.4081  0.3746
 8205SOL    HW136248   1.215   3.494   9.837 -0.8482  0.3762 -1.4146
 8205SOL    HW236249   1.334   3.574   9.780 -0.0758  0.9102  0.7342
 8206SOL     OW36250   3.063   2.279   5.033  0.2997 -0.3401 -0.1376
 8206SOL    HW136251   3.006   2.356   5.033  1.6969  0.6965  1.4029
 8206SOL    HW236252   3.091   2.278   5.124  0.9187  0.5750 -0.3226
 8207SOL     OW36253   1.280   2.835   8.504 -0.1324  0.4733 -0.0887
 8207SOL    HW136254   1.247   2.772   8.568 -0.8968  3.0236  2.0427
 8207SOL    HW236255   1.355   2.872   8.551  0.7086  1.0807 -1.9013
 8208SOL     OW36256   0.400   2.425   2.826  0.9461 -0.5134  0.0213
 8208SOL    HW136257   0.383   2.514   2.797 -1.8826 -1.0559  0.0949
 8208SOL    HW236258   0.397   2.373   2.746  0.9821 -0.5678  0.0550
 8209SOL     OW36259   3.854   4.470   2.318  0.5594 -0.0839 -0.2885
 8209SOL    HW136260   3.938   4.490   2.360 -0.2645 -1.2139  1.8842
 8209SOL    HW236261   3.798   4.542   2.348 -0.7170 -0.8902 -0.7255
 8210SOL     OW36262   0.473   3.839   3.128  0.1230 -0.6146  0.2488
 8210SOL    HW136263   0.530   3.811   3.057 -1.5683  0.9957 -1.7371
 8210SOL    HW236264   0.517   3.921   3.148 -0.2989 -0.6964  1.5109
 8211SOL     OW36265   1.065   2.580   0.049 -0.4757 -0.9416 -0.3723
 8211SOL    HW136266   0.996   2.645   0.036 -0.1311 -0.8060 -1.4974
 8211SOL    HW236267   1.132   2.595  17.730 -1.1346 -0.4959 -0.9448
 8212SOL     OW36268   0.610   0.000   9.790 -0.3750  0.2211 -0.1327
 8212SOL    HW136269   0.602   0.095   9.783  0.3485  0.0419 -3.4735
 8212SOL    HW236270   0.627   0.003   9.884 -1.7586  0.1229  0.1158
 8213SOL     OW36271   3.943   0.137   0.972  0.2095 -0.8301 -0.7593
 8213SOL    HW136272   3.891   0.115   1.049 -0.0477  0.4277 -0.5722
 8213SOL    HW236273   3.877   0.185   0.922  0.0796 -0.6265 -0.3918
 8214SOL     OW36274   2.503   2.533   4.366  0.6697 -0.1230  0.4403
 8214SOL    HW136275   2.413   2.504   4.377  0.2916 -0.7657 -4.2389
 8214SOL    HW236276   2.513   2.559   4.274  2.8006 -3.5064 -0.2635
 8215SOL     OW36277   3.489   4.152   8.211 -0.1214  0.0700 -0.0704
 8215SOL    HW136278   3.520   4.204   8.286 -0.1421  0.9110 -0.6489
 8215SOL    HW236279   3.564   4.095   8.195 -0.7887 -0.2292 -2.0913
 8216SOL     OW36280   4.649   2.271   3.089  0.1653  0.0405 -0.2375
 8216SOL    HW136281   4.701   2.319   3.024  0.1802 -0.3742 -0.5327
 8216SOL    HW236282   4.562   2.284   3.052  0.0161 -2.1509 -0.6667
 8217SOL     OW36283   3.481   0.592   4.843 -0.1828 -0.3044  0.1063
 8217SOL    HW136284   3.490   0.608   4.937  0.9768 -2.0456  0.2833
 8217SOL    HW236285   3.389   0.565   4.836 -0.0606  0.0715 -2.9066
 8218SOL     OW36286   2.985   4.342   4.100  0.0100  0.1409 -0.2757
 8218SOL    HW136287   3.067   4.309   4.136 -0.4795 -0.2417  0.4858
 8218SOL    HW236288   2.945   4.376   4.179  3.5388  1.0556  1.0959
 8219SOL     OW36289   1.939   0.505  14.600  0.0386 -0.3979 -0.6349
 8219SOL    HW136290   1.970   0.578  14.547  0.3577  1.4335  2.0653
 8219SOL    HW236291   2.018   0.478  14.645  1.5036 -1.0590 -3.5983
 8220SOL     OW36292   4.681   4.061  15.495 -0.3512  0.5348  0.3820
 8220SOL    HW136293   4.603   4.012  15.521  1.0719 -1.8896  0.1064
 8220SOL    HW236294   0.010   3.996  15.519  0.9269  1.3180 -1.0506
 8221SOL     OW36295   1.889   0.863   2.893 -0.1959 -0.3835  0.1854
 8221SOL    HW136296   1.796   0.866   2.868  0.2327 -0.2023 -1.3822
 8221SOL    HW236297   1.882   0.898   2.982  0.1833 -0.6605  0.3221
 8222SOL     OW36298   3.949   1.996   8.608 -0.5081 -0.0901  0.1303
 8222SOL    HW136299   3.860   2.019   8.635 -0.0128  0.3313  1.4085
 8222SOL    HW236300   3.995   2.079   8.626 -1.2377 -0.3044  3.0682
 8223SOL     OW36301   1.644   4.602  10.037 -0.4703  0.3919 -0.5398
 8223SOL    HW136302   1.551   4.593  10.053 -0.0818 -1.2826  0.6951
 8223SOL    HW236303   1.638   4.639   9.948  0.9022 -1.3110 -1.3464
 8224SOL     OW36304   3.478   4.643   6.266 -0.2863 -0.2712  0.0780
 8224SOL    HW136305   3.443   4.721   6.310  1.2142  0.0109  0.7555
 8224SOL    HW236306   3.521   4.683   6.190 -0.0591  1.3933  1.0976
 8225SOL     OW36307   3.929   1.241   6.267  0.3535  0.2973 -0.1348
 8225SOL    HW136308   3.851   1.296   6.262 -0.9016 -1.6166 -2.0077
 8225SOL    HW236309   3.939   1.207   6.178  1.0278  0.9619 -0.3058
 8226SOL     OW36310   1.707   3.687   7.963 -0.2853  0.8787 -0.0039
 8226SOL    HW136311   1.788   3.639   7.947  0.2373  1.9666 -0.6062
 8226SOL    HW236312   1.658   3.610   7.934  2.1317  0.2068 -2.2985
 8227SOL     OW36313   2.605   3.661  13.490 -0.2431 -0.2119 -1.0901
 8227SOL    HW136314   2.648   3.709  13.418 -1.5946  0.8770 -1.1737
 8227SOL    HW236315   2.512   3.667  13.469 -0.9596 -2.3247  1.5178
 8228SOL     OW36316   1.114   4.565  15.118  0.0787  0.1594 -0.0094
 8228SOL    HW136317   1.053   4.526  15.055  0.9237 -3.1403  1.2316
 8228SOL    HW236318   1.077   4.546  15.204 -2.9113  0.9722 -1.1044
 8229SOL     OW36319   0.160   0.614   6.696 -0.5043  0.0191 -0.7875
 8229SOL    HW136320   0.186   0.522   6.706 -0.7662  0.0563  0.2201
 8229SOL    HW236321   0.242   0.660   6.709 -1.0146  1.1195 -1.4952
 8230SOL     OW36322   4.475   3.534  16.701  0.0179 -0.3576  0.1698
 8230SOL    HW136323   4.528   3.577  16.768 -1.9078 -1.1084  2.1386
 8230SOL    HW236324   4.384   3.538  16.730 -0.2332 -0.2028 -0.6318
 8231SOL     OW36325   1.099   2.310   3.527 -0.7683 -0.0326 -0.4223
 8231SOL    HW136326   1.007   2.293   3.510 -0.6143 -0.0744 -1.1784
 8231SOL    HW236327   1.108   2.397   3.488 -1.9278  0.2120 -0.1409
 8232SOL     OW36328   2.148   0.781   7.977  0.1239 -0.0696 -0.0311
 8232SOL    HW136329   2.214   0.842   7.943 -1.4907  2.3710  1.2540
 8232SOL    HW236330   2.122   0.740   7.894  1.3284 -2.2872  0.6860
 8233SOL     OW36331   3.687   2.304   2.494 -0.5100  0.7371  0.1033
 8233SOL    HW136332   3.708   2.242   2.424 -2.3993 -0.9950  1.0458
 8233SOL    HW236333   3.688   2.247   2.571 -2.8093  3.0073  1.8261
 8234SOL     OW36334   2.523   3.718   7.276  0.1440 -0.2693  0.1161
 8234SOL    HW136335   2.477   3.710   7.192  0.7776 -1.0347 -0.1542
 8234SOL    HW236336   2.495   3.636   7.315 -0.3178  0.1622  0.7032
 8235SOL     OW36337   3.464   2.926   7.629 -0.7715  0.1660 -0.1975
 8235SOL    HW136338   3.453   2.886   7.543 -0.8250 -0.4193  0.0832
 8235SOL    HW236339   3.394   2.991   7.619 -0.0566  0.4811 -3.1148
 8236SOL     OW36340   4.566   3.878   3.363  0.1894 -0.4322  0.2666
 8236SOL    HW136341   4.634   3.812   3.350  1.1225  0.1847  2.0079
 8236SOL    HW236342   4.516   3.876   3.282 -0.7425 -1.8688  0.8688
 8237SOL     OW36343   1.891   2.395   2.873  0.4064 -0.2694  0.1610
 8237SOL    HW136344   1.926   2.314   2.837  0.5817 -1.3885  2.9201
 8237SOL    HW236345   1.809   2.399   2.823  1.2298 -0.0036 -1.1908
 8238SOL     OW36346   0.441   1.646   5.452 -0.0225 -0.1080 -0.0433
 8238SOL    HW136347   0.521   1.661   5.503  0.5894  0.9978 -1.3301
 8238SOL    HW236348   0.473   1.596   5.377 -2.1626 -0.3939 -0.7593
 8239SOL     OW36349   1.617   0.384   7.277  0.3829  0.4358  0.0415
 8239SOL    HW136350   1.711   0.383   7.295  0.1578  0.4293  1.2305
 8239SOL    HW236351   1.606   0.374   7.182 -2.8345  2.4593  0.2039
 8240SOL     OW36352   4.363   0.392   1.147  0.3501 -0.3763  0.0529
 8240SOL    HW136353   4.302   0.332   1.190 -1.6087  2.9541  1.9733
 8240SOL    HW236354   4.329   0.474   1.185  1.9736 -0.7232  2.2669
 8241SOL     OW36355   2.948   2.620   7.188  0.2160 -0.3140  0.2011
 8241SOL    HW136356   3.027   2.574   7.161  0.8484  1.2856 -0.6625
 8241SOL    HW236357   2.961   2.627   7.283 -0.5924  1.6715  0.1580
 8242SOL     OW36358   0.659   1.764   5.629 -0.1488  0.3226  0.4096
 8242SOL    HW136359   0.621   1.694   5.682  1.0227 -1.1650 -0.7059
 8242SOL    HW236360   0.709   1.811   5.696  1.2246 -1.0084  0.3069
 8243SOL     OW36361   0.020   2.328   7.674  0.3977  0.1500 -0.5360
 8243SOL    HW136362   0.101   2.371   7.704  0.3656 -0.4879  0.4807
 8243SOL    HW236363   0.004   2.264   7.743 -0.8495  0.1940 -0.7958
 8244SOL     OW36364   1.807   3.880   9.397 -0.0572  0.1635  0.3346
 8244SOL    HW136365   1.783   3.914   9.484 -0.1178  1.8718 -0.3376
 8244SOL    HW236366   1.902   3.873   9.409 -0.2065  2.0310  2.6953
 8245SOL     OW36367   3.317   3.983   2.947  0.1609 -0.0967 -0.0609
 8245SOL    HW136368   3.359   3.898   2.939  1.5057  0.5858 -0.3719
 8245SOL    HW236369   3.382   4.036   2.900  2.3520 -1.8301  1.0324
 8246SOL     OW36370   2.562   2.370  10.394 -0.1693  0.2653 -0.1794
 8246SOL    HW136371   2.611   2.288  10.401 -0.5903  0.0395  0.1083
 8246SOL    HW236372   2.565   2.395  10.301  0.7442  0.7261 -0.0237
 8247SOL     OW36373   1.961   2.162  16.428  0.0808 -0.1405  0.1896
 8247SOL    HW136374   2.000   2.142  16.343 -1.6106  1.9353 -1.0647
 8247SOL    HW236375   1.969   2.257  16.420  0.5025 -0.2330 -0.4610
 8248SOL     OW36376   2.900   2.898   2.651  0.0533 -0.0248  0.3136
 8248SOL    HW136377   2.888   2.979   2.600  1.6975 -0.1833 -0.3057
 8248SOL    HW236378   2.888   2.832   2.583  0.1935  0.9940 -0.7051
 8249SOL     OW36379   3.300   4.507   4.142  0.1206  0.1529 -0.0856
 8249SOL    HW136380   3.215   4.540   4.171  0.0876  0.6024 -0.6902
 8249SOL    HW236381   3.359   4.532   4.213  0.8778 -0.0914 -0.6208
 8250SOL     OW36382   4.682   1.693  12.200 -0.1064  0.0803 -0.0153
 8250SOL    HW136383   0.015   1.715  12.260  0.3266  2.0541 -1.2197
 8250SOL    HW236384   4.615   1.671  12.265 -0.1432  0.6553  0.1450
 8251SOL     OW36385   0.929   3.302   6.666 -0.0569  0.0726  0.0539
 8251SOL    HW136386   0.994   3.372   6.673 -1.6755  1.6937 -0.8771
 8251SOL    HW236387   0.883   3.297   6.750 -0.2473 -0.2823 -0.0711
 8252SOL     OW36388   0.831   1.724   7.063  0.2962 -0.3655  0.0813
 8252SOL    HW136389   0.912   1.677   7.080  0.1757 -0.3012  0.8247
 8252SOL    HW236390   0.794   1.676   6.990  1.6579  1.6399 -1.9323
 8253SOL     OW36391   0.114   1.767   3.139 -0.2079 -0.0581 -0.1410
 8253SOL    HW136392   0.141   1.675   3.140 -1.9861 -0.5781  0.3105
 8253SOL    HW236393   0.040   1.755   3.198 -0.1715 -0.6420 -0.2146
 8254SOL     OW36394   0.561   2.771  10.581 -0.0844 -0.1937  0.3199
 8254SOL    HW136395   0.604   2.827  10.516 -0.3392 -1.5818 -1.0447
 8254SOL    HW236396   0.597   2.800  10.665  2.7784 -0.4413 -0.8441
 8255SOL     OW36397   3.366   4.100   6.108  0.2859  0.5722  0.6901
 8255SOL    HW136398   3.280   4.142   6.106  0.6679  1.3535  0.7590
 8255SOL    HW236399   3.416   4.176   6.078  1.0151 -0.1600  0.0530
 8256SOL     OW36400   3.535   3.684   1.455 -0.4355 -0.3683  0.9182
 8256SOL    HW136401   3.623   3.702   1.423 -1.6649  2.0483 -1.0294
 8256SOL    HW236402   3.473   3.716   1.390 -0.2623 -1.3620  0.2645
 8257SOL     OW36403   1.048   2.981   5.835 -0.3235 -0.1608  0.6722
 8257SOL    HW136404   0.983   2.914   5.815 -0.1195 -0.4646  1.0303
 8257SOL    HW236405   1.111   2.978   5.762 -0.2302  0.5617  0.7220
 8258SOL     OW36406   2.580   2.108   7.215 -0.1661 -0.4718  0.2521
 8258SOL    HW136407   2.563   2.067   7.131 -1.8911 -0.9266  0.8229
 8258SOL    HW236408   2.516   2.179   7.217  0.3186  0.0138 -1.1843
 8259SOL     OW36409   1.318   1.283   8.917 -0.4129 -0.0680 -0.1956
 8259SOL    HW136410   1.315   1.203   8.970  0.4156 -0.2430 -0.4166
 8259SOL    HW236411   1.405   1.276   8.877 -0.4572 -0.6592 -0.1819
 8260SOL     OW36412   1.937   4.447   9.038  0.7505  0.1812 -0.0696
 8260SOL    HW136413   1.958   4.406   8.954  0.7217  1.3906 -0.6715
 8260SOL    HW236414   1.958   4.539   9.025  3.3718 -0.2408  1.0473
 8261SOL     OW36415   0.183   2.448  13.747  0.0578  0.0298 -0.5434
 8261SOL    HW136416   0.213   2.464  13.836 -1.2173 -1.2579  0.1167
 8261SOL    HW236417   0.242   2.378  13.718 -1.8378 -1.7324 -0.1925
 8262SOL     OW36418   3.288   1.176   2.538 -0.1032  0.0671 -0.2071
 8262SOL    HW136419   3.221   1.216   2.483 -0.5509  0.5187  0.6731
 8262SOL    HW236420   3.349   1.159   2.466  0.5913  1.7723 -0.0213
 8263SOL     OW36421   4.647   1.021   8.663  0.2942 -0.5563  0.6409
 8263SOL    HW136422   4.625   0.938   8.621  2.4866  1.1010 -3.7136
 8263SOL    HW236423   4.645   1.089   8.596 -0.1286 -0.2391  0.9728
 8264SOL     OW36424   3.753   0.054   7.894 -0.6588 -0.2223  0.3267
 8264SOL    HW136425   3.716   0.046   7.807  0.6732 -1.4721 -0.1269
 8264SOL    HW236426   3.817   0.125   7.885 -3.5454  2.4135  0.8906
 8265SOL     OW36427   0.844   2.119  17.577  0.1854 -0.3874 -0.2353
 8265SOL    HW136428   0.841   2.064  17.655  0.6049  2.4632  1.7885
 8265SOL    HW236429   0.825   2.196  17.630 -0.4767 -0.3527 -0.5207
 8266SOL     OW36430   2.619   4.684   7.393  0.3468 -0.4712  0.5205
 8266SOL    HW136431   2.631   4.672   7.299 -1.5273 -2.6232  0.5421
 8266SOL    HW236432   2.535   4.730   7.396  0.1474 -0.8264  0.3133
 8267SOL     OW36433   4.502   2.592  10.159 -1.0232 -0.3250 -0.0284
 8267SOL    HW136434   4.455   2.660  10.207  0.5880  0.4044  0.5302
 8267SOL    HW236435   4.535   2.539  10.232  2.5012  0.4571 -1.0499
 8268SOL     OW36436   0.684   1.601  16.110  0.1966  0.3062  0.1280
 8268SOL    HW136437   0.742   1.524  16.111  0.6449  0.6520  1.0149
 8268SOL    HW236438   0.744   1.675  16.120 -0.5413  1.0205 -0.7430
 8269SOL     OW36439   2.893   0.809   5.509  0.0539 -0.4547  0.0462
 8269SOL    HW136440   2.955   0.749   5.550  0.8554  0.1608 -0.2739
 8269SOL    HW236441   2.823   0.820   5.574  0.8569 -0.5656  0.9250
 8270SOL     OW36442   3.247   4.430   7.742 -0.2313  0.1851  0.2774
 8270SOL    HW136443   3.188   4.359   7.769 -0.3946  0.8852  1.7992
 8270SOL    HW236444   3.211   4.498   7.800  3.3404  2.3901 -0.1170
 8271SOL     OW36445   3.452   4.675  14.533 -0.5588 -0.0311  0.8623
 8271SOL    HW136446   3.494   0.001  14.475 -0.0082 -1.4239 -0.2474
 8271SOL    HW236447   3.530   4.628  14.565 -0.7128 -0.8564  0.0221
 8272SOL     OW36448   3.913   0.631   9.290 -0.4637 -0.2121  0.1524
 8272SOL    HW136449   4.007   0.626   9.279 -0.5669 -1.9304  0.1557
 8272SOL    HW236450   3.880   0.542   9.286 -4.2233  1.2310 -1.7442
 8273SOL     OW36451   3.522   2.227   3.760  0.1129 -0.2787  0.1199
 8273SOL    HW136452   3.615   2.249   3.770  0.2937 -1.5425  1.1252
 8273SOL    HW236453   3.516   2.134   3.741  4.1513 -0.7974  1.3743
 8274SOL     OW36454   1.004   3.609   8.742  0.2225  0.0559 -0.0136
 8274SOL    HW136455   1.051   3.666   8.801  0.5238 -1.3021  1.0618
 8274SOL    HW236456   0.921   3.600   8.789 -0.0218 -0.5791 -0.5495
 8275SOL     OW36457   2.861   0.599   5.302 -1.0493 -0.0745 -0.4939
 8275SOL    HW136458   2.927   0.541   5.338 -1.3476  0.6636  1.2088
 8275SOL    HW236459   2.840   0.659   5.374  0.4910  0.6677 -0.6764
 8276SOL     OW36460   4.220   1.713   3.506  0.0636 -0.4340  0.1080
 8276SOL    HW136461   4.308   1.681   3.526 -0.2343 -2.0184 -1.0918
 8276SOL    HW236462   4.181   1.647   3.449  0.4049 -1.0787  0.6230
 8277SOL     OW36463   0.393   3.750   9.324 -0.9232 -0.7030  0.0940
 8277SOL    HW136464   0.331   3.716   9.389  0.5030 -2.0696  0.7151
 8277SOL    HW236465   0.382   3.682   9.258  0.2443  0.7067 -1.5547
 8278SOL     OW36466   1.324   2.126  14.588 -0.6279  0.5729  0.3348
 8278SOL    HW136467   1.241   2.079  14.578  1.1841 -2.8230  1.0724
 8278SOL    HW236468   1.321   2.125  14.684  0.6958  0.6070  0.3845
 8279SOL     OW36469   3.158   1.847   9.726  0.5026  0.0661 -0.1208
 8279SOL    HW136470   3.068   1.867   9.701  0.4485  0.4259  0.3490
 8279SOL    HW236471   3.178   1.940   9.740 -0.9219  0.1326  1.4121
 8280SOL     OW36472   4.553   3.270   1.959 -0.1014  0.3826  0.1445
 8280SOL    HW136473   4.544   3.357   1.920  0.2078 -0.3920 -1.6481
 8280SOL    HW236474   4.515   3.214   1.891  0.9158  1.0913 -1.0175
 8281SOL     OW36475   0.238   4.454  10.952 -0.4611 -0.0042  0.4620
 8281SOL    HW136476   0.318   4.480  10.908 -0.2251  0.5056  1.1848
 8281SOL    HW236477   0.219   4.362  10.933  2.4425 -0.7915  1.3867
 8282SOL     OW36478   2.899   4.504   1.212  0.3101 -0.2536 -0.1505
 8282SOL    HW136479   2.872   4.422   1.254  2.6190 -0.1506  1.5830
 8282SOL    HW236480   2.858   4.568   1.271 -1.4857 -0.5915 -1.0331
 8283SOL     OW36481   2.183   3.840  15.524  0.4649  0.4100 -0.0902
 8283SOL    HW136482   2.126   3.819  15.450  0.9264 -0.2917 -0.2498
 8283SOL    HW236483   2.157   3.769  15.583  1.0773  0.1344 -0.1468
 8284SOL     OW36484   3.855   1.607  17.337  0.4126 -0.2499  0.6559
 8284SOL    HW136485   3.939   1.564  17.324  0.1910 -0.1147 -1.2694
 8284SOL    HW236486   3.809   1.540  17.387  1.2151  0.2798  2.0953
 8285SOL     OW36487   0.558   0.138   8.276  0.2050  0.2341  0.2232
 8285SOL    HW136488   0.491   0.080   8.240  2.1321 -0.7774 -1.7377
 8285SOL    HW236489   0.630   0.116   8.217 -0.6945  0.0729 -0.8069
 8286SOL     OW36490   0.839   4.244  14.830 -0.0752  0.2085 -0.0292
 8286SOL    HW136491   0.743   4.246  14.828 -0.1257 -1.0904  0.9851
 8286SOL    HW236492   0.850   4.171  14.892  0.0701  0.0456 -0.2481
 8287SOL     OW36493   2.715   0.552   8.982 -0.5315  0.3128 -0.0022
 8287SOL    HW136494   2.712   0.581   8.890  2.1485  1.0720  0.1426
 8287SOL    HW236495   2.802   0.581   9.010  0.6754 -1.9701 -1.3961
 8288SOL     OW36496   2.261   0.934  16.013 -0.3455 -0.7302  0.6815
 8288SOL    HW136497   2.169   0.957  16.024  0.0035  0.5414  0.8512
 8288SOL    HW236498   2.299   0.974  16.092 -0.5708  1.5859 -0.4002
 8289SOL     OW36499   1.547   0.945   4.554  0.0312  0.0424  0.2539
 8289SOL    HW136500   1.602   1.000   4.498  3.2918 -2.8514  0.6491
 8289SOL    HW236501   1.582   0.977   4.637 -0.2349 -1.0936  0.8013
 8290SOL     OW36502   0.602   0.089   6.027  0.0733  0.7216  0.7619
 8290SOL    HW136503   0.654   0.026   5.976 -1.9680 -1.0418  0.8625
 8290SOL    HW236504   0.513   0.076   5.995 -0.3494 -0.6362  2.5418
 8291SOL     OW36505   3.566   0.281   2.469  0.1111  0.1974 -0.1855
 8291SOL    HW136506   3.603   0.232   2.543 -0.6436 -0.7408 -0.4185
 8291SOL    HW236507   3.619   0.237   2.403  1.4805  0.6944  0.5857
 8292SOL     OW36508   3.132   4.080   6.391 -0.6026 -0.1134 -0.2247
 8292SOL    HW136509   3.140   4.142   6.464  0.8572 -1.3782  0.6775
 8292SOL    HW236510   3.149   3.999   6.437 -0.6812  1.0146  1.7960
 8293SOL     OW36511   0.831   2.951   1.997  0.0241  0.4031  0.0012
 8293SOL    HW136512   0.851   2.996   1.915  0.1606 -0.8807 -0.6673
 8293SOL    HW236513   0.762   2.900   1.954  0.7583 -0.5512 -0.0390
 8294SOL     OW36514   3.098   2.925   3.639  0.4070  0.3058  0.7216
 8294SOL    HW136515   3.162   2.955   3.575 -1.3078 -2.1785 -2.2044
 8294SOL    HW236516   3.162   2.889   3.700 -0.6924  1.8535  2.7713
 8295SOL     OW36517   3.844   3.587  13.077 -0.2002 -0.3380 -0.7033
 8295SOL    HW136518   3.843   3.513  13.018  2.3135 -1.9597  1.2875
 8295SOL    HW236519   3.820   3.660  13.020  0.8932 -0.4575 -1.3104
 8296SOL     OW36520   2.548   0.154   2.658  0.0084  0.1787 -0.7052
 8296SOL    HW136521   2.603   0.154   2.737  0.3054  1.1096 -0.9042
 8296SOL    HW236522   2.567   0.063   2.634 -0.4781 -0.1788  0.2929
 8297SOL     OW36523   2.882   3.580   8.347  0.3694 -0.2037 -0.2978
 8297SOL    HW136524   2.930   3.573   8.430 -0.4068  0.0665  0.1680
 8297SOL    HW236525   2.800   3.624   8.365  1.1384  0.7823  0.7931
 8298SOL     OW36526   4.694   4.117   6.545  0.0493  0.3896  0.1642
 8298SOL    HW136527   4.675   4.092   6.455  0.4821  1.2351 -0.1644
 8298SOL    HW236528   0.031   4.061   6.568  0.3706  0.4845 -0.6568
 8299SOL     OW36529   1.411   0.167  17.702 -0.0726 -0.2427  0.2897
 8299SOL    HW136530   1.332   0.197  17.657  1.4152 -0.0548 -2.2235
 8299SOL    HW236531   1.483   0.208  17.653 -0.6424  0.3472 -0.0522
 8300SOL     OW36532   3.233   1.009  10.266 -0.1020  0.2163  0.5624
 8300SOL    HW136533   3.157   1.056  10.232 -0.3016 -0.0468  0.6525
 8300SOL    HW236534   3.190   0.931  10.301 -0.3777 -0.5691 -1.5563
 8301SOL     OW36535   0.960   1.851  15.066  0.4623 -0.2290 -0.2683
 8301SOL    HW136536   1.006   1.931  15.040 -2.4850  1.1958 -1.0092
 8301SOL    HW236537   0.890   1.852  15.001  0.5581 -4.1039 -0.3980
 8302SOL     OW36538   2.625   1.189  16.148 -0.5059  1.1496 -0.1428
 8302SOL    HW136539   2.613   1.240  16.228 -1.7826 -0.3861  0.6357
 8302SOL    HW236540   2.549   1.225  16.102 -1.7273  0.3889  1.3130
 8303SOL     OW36541   3.167   2.964   6.927  0.1890 -0.4414 -0.1573
 8303SOL    HW136542   3.158   3.055   6.954  2.2553 -0.2268 -0.2112
 8303SOL    HW236543   3.208   2.976   6.842  0.2756 -0.1936 -0.0774
 8304SOL     OW36544   0.057   1.441   8.133 -0.4486  0.3616 -0.0331
 8304SOL    HW136545   0.069   1.514   8.194 -2.9999  0.3589  0.4950
 8304SOL    HW236546   0.136   1.388   8.133 -0.5013  0.2764  2.6352
 8305SOL     OW36547   4.082   1.731   0.463  0.1913 -0.3992  0.1158
 8305SOL    HW136548   4.030   1.719   0.543  0.0859  1.2910  0.2824
 8305SOL    HW236549   4.167   1.750   0.503  1.9258 -1.6604 -2.9965
 8306SOL     OW36550   2.275   2.239  17.657 -0.0726  0.1197 -0.3879
 8306SOL    HW136551   2.350   2.181  17.640 -2.1470 -3.2233  1.8346
 8306SOL    HW236552   2.285   2.297  17.581  2.2012  1.5780  1.0037
 8307SOL     OW36553   0.940   2.766   3.910  0.1965  0.0619  0.0245
 8307SOL    HW136554   1.002   2.708   3.953  0.3510 -0.2197 -0.5758
 8307SOL    HW236555   0.951   2.841   3.969  1.8453  0.2361 -0.5269
 8308SOL     OW36556   1.129   2.232   2.843  0.3592 -0.1623  0.1794
 8308SOL    HW136557   1.157   2.271   2.760 -2.3303  0.6049 -0.4041
 8308SOL    HW236558   1.212   2.202   2.878 -0.6691  0.0510  2.8333
 8309SOL     OW36559   0.237   3.494   3.295  0.2271 -0.4744 -0.0600
 8309SOL    HW136560   0.187   3.480   3.214 -1.4615 -0.6061  1.0108
 8309SOL    HW236561   0.309   3.434   3.272  2.0933  1.4779  0.7191
 8310SOL     OW36562   3.767   1.878   3.186 -0.0979 -0.4681  0.1486
 8310SOL    HW136563   3.782   1.798   3.235  1.6728  0.3877  1.0097
 8310SOL    HW236564   3.707   1.919   3.248 -0.6175 -1.6585  0.4151
 8311SOL     OW36565   1.354   3.321   7.360  0.3369  0.9032 -0.1252
 8311SOL    HW136566   1.285   3.352   7.301  1.2745  0.8371 -1.2569
 8311SOL    HW236567   1.300   3.271   7.422  1.8361 -0.0165  0.4472
 8312SOL     OW36568   2.629   1.356  10.593 -0.4638  0.2859 -0.0650
 8312SOL    HW136569   2.635   1.326  10.683  2.8726  0.9233 -0.0650
 8312SOL    HW236570   2.535   1.367  10.581 -0.2473  1.9547 -0.2952
 8313SOL     OW36571   2.905   2.109  17.745  0.5475  0.5383 -0.0543
 8313SOL    HW136572   2.959   2.134  17.670 -0.5784  1.6565 -0.4966
 8313SOL    HW236573   2.828   2.160  17.720  1.5320  1.4596 -1.2083
 8314SOL     OW36574   0.261   2.348   8.788  0.3382  0.5457  0.3499
 8314SOL    HW136575   0.253   2.329   8.881 -0.4820 -0.8153  0.0055
 8314SOL    HW236576   0.232   2.263   8.754  2.5441 -0.3410  0.7015
 8315SOL     OW36577   1.890   0.728  11.084 -0.1968 -0.0407  0.4120
 8315SOL    HW136578   1.941   0.803  11.053 -3.0630  0.8514 -2.1350
 8315SOL    HW236579   1.921   0.654  11.031 -0.3173 -0.5674  1.0895
 8316SOL     OW36580   0.092   3.147   9.708 -0.0523  0.3808 -0.8496
 8316SOL    HW136581   0.060   3.181   9.625 -0.7297  1.8856  0.0335
 8316SOL    HW236582   0.169   3.201   9.722  0.1877 -0.7468  2.1493
 8317SOL     OW36583   1.165   4.170   4.336  0.2105 -0.2405 -0.0737
 8317SOL    HW136584   1.219   4.095   4.310 -0.5409 -1.3418  1.5181
 8317SOL    HW236585   1.180   4.153   4.429 -1.9384 -2.1338 -0.0446
 8318SOL     OW36586   0.359   1.330  16.680  0.6520  0.4939  0.1994
 8318SOL    HW136587   0.381   1.366  16.594 -1.2673 -1.2219 -1.0018
 8318SOL    HW236588   0.436   1.360  16.730  0.5427  1.2883 -0.1137
 8319SOL     OW36589   3.136   3.221   9.170  0.7347 -0.0383 -0.4165
 8319SOL    HW136590   3.150   3.144   9.225  0.6055  0.8457  0.8371
 8319SOL    HW236591   3.207   3.218   9.105  1.8617 -0.3568  0.8320
 8320SOL     OW36592   3.912   3.023   4.032 -0.1432  0.0005  0.2147
 8320SOL    HW136593   3.873   3.110   4.039 -0.8179 -0.3744  1.2017
 8320SOL    HW236594   3.829   2.979   4.013  0.1145 -1.1829  1.7674
 8321SOL     OW36595   4.730   0.116   6.373  0.1559  0.2737 -0.0498
 8321SOL    HW136596   0.011   0.150   6.461 -0.6130 -0.5387  0.4280
 8321SOL    HW236597   0.076   0.077   6.347 -0.6058 -0.3175 -1.6118
 8322SOL     OW36598   4.647   2.822  16.280 -0.2170 -0.1043 -0.6061
 8322SOL    HW136599   4.646   2.918  16.281 -0.3614 -0.1203  0.8947
 8322SOL    HW236600   4.644   2.805  16.186  2.7520 -0.2253 -0.6735
 8323SOL     OW36601   3.906   3.489   3.682  0.6106 -0.2576  0.0293
 8323SOL    HW136602   3.920   3.440   3.601  1.0942 -0.0999  0.0158
 8323SOL    HW236603   3.841   3.431   3.721 -0.3875  0.3493 -0.7359
 8324SOL     OW36604   4.612   0.429  15.172  0.4631  0.1889  0.3596
 8324SOL    HW136605   4.681   0.362  15.173  0.0655 -0.2363 -1.5592
 8324SOL    HW236606   4.574   0.411  15.258 -2.6240  0.2930 -1.0227
 8325SOL     OW36607   1.584   4.153   3.793  1.2373  0.0960  0.2314
 8325SOL    HW136608   1.553   4.067   3.764  2.0867 -0.1434  0.0416
 8325SOL    HW236609   1.665   4.132   3.839  1.1636  1.2687  0.8989
 8326SOL     OW36610   2.973   2.537   5.469 -0.2067 -0.2490 -0.2162
 8326SOL    HW136611   3.063   2.502   5.469 -0.0382  0.1845  1.0212
 8326SOL    HW236612   2.955   2.560   5.560 -0.4934 -0.0810 -0.3161
 8327SOL     OW36613   1.999   0.248  12.989 -0.4417  0.0633 -0.1679
 8327SOL    HW136614   2.038   0.171  12.949 -0.3117 -0.3120  0.6805
 8327SOL    HW236615   2.079   0.283  13.028 -1.2286 -2.5104  3.7598
 8328SOL     OW36616   2.472   1.373   9.547  0.3224 -0.1344 -0.2308
 8328SOL    HW136617   2.551   1.392   9.598 -0.4204  0.1315  0.8286
 8328SOL    HW236618   2.438   1.295   9.591  0.0194  0.0700 -0.1076
 8329SOL     OW36619   0.386   4.396  13.752 -0.1317 -0.2860 -0.0021
 8329SOL    HW136620   0.418   4.414  13.840 -2.5068  1.7313  0.4446
 8329SOL    HW236621   0.450   4.333  13.719 -1.1712 -0.0906 -2.4115
 8330SOL     OW36622   1.533   3.997   2.619 -0.0365  0.1019 -0.5217
 8330SOL    HW136623   1.448   3.953   2.618 -0.5581  1.0999 -0.2295
 8330SOL    HW236624   1.522   4.052   2.542  0.2445 -0.1002 -0.7070
 8331SOL     OW36625   4.266   3.544   6.749  0.3584  0.5532  0.2553
 8331SOL    HW136626   4.231   3.587   6.828 -1.9909 -0.0060 -0.4781
 8331SOL    HW236627   4.360   3.562   6.748  0.6090 -0.7620  0.5577
 8332SOL     OW36628   4.716   3.591   4.270  0.0646 -0.4519 -0.2770
 8332SOL    HW136629   0.070   3.592   4.299  0.0603 -1.1503 -0.2323
 8332SOL    HW236630   4.716   3.673   4.221  0.1327  0.6121  1.5153
 8333SOL     OW36631   2.699   2.078   6.776  0.1087  1.0417  0.2859
 8333SOL    HW136632   2.761   2.034   6.834  0.5229  1.1460 -0.0790
 8333SOL    HW236633   2.654   2.134   6.840  1.6745  1.6592  0.8553
 8334SOL     OW36634   2.567   4.531   3.970 -0.8621  0.0420 -0.4927
 8334SOL    HW136635   2.641   4.475   3.947 -1.6988 -0.8318 -1.0421
 8334SOL    HW236636   2.530   4.565   3.888 -0.3459 -1.5108 -1.3489
 8335SOL     OW36637   3.814   2.104   0.063 -0.0802  0.1544 -0.1395
 8335SOL    HW136638   3.902   2.083   0.092  0.8655  1.6562 -1.9615
 8335SOL    HW236639   3.791   2.035   0.000 -0.7959  0.8074 -0.6020
 8336SOL     OW36640   4.189   1.632   4.923  0.4495 -0.1627  0.3368
 8336SOL    HW136641   4.121   1.566   4.937  0.6568 -0.7025 -1.2297
 8336SOL    HW236642   4.264   1.596   4.970  1.6281  1.0403 -0.6210
 8337SOL     OW36643   2.316   1.245  10.888 -0.0358 -1.1721 -0.3034
 8337SOL    HW136644   2.350   1.173  10.835  2.4737 -0.2963  0.1286
 8337SOL    HW236645   2.383   1.311  10.874 -1.9920  0.4495 -1.8506
 8338SOL     OW36646   1.875   0.374   2.802 -0.0088 -0.2792  0.2942
 8338SOL    HW136647   1.906   0.465   2.807 -0.9479  0.0908 -0.5733
 8338SOL    HW236648   1.806   0.387   2.867  0.5919 -0.5757  0.9865
 8339SOL     OW36649   4.158   0.155   0.785 -0.0763  0.2343 -0.2368
 8339SOL    HW136650   4.190   0.065   0.787  1.5253  0.8135  0.3795
 8339SOL    HW236651   4.088   0.136   0.847  1.3381 -1.1403  0.9360
 8340SOL     OW36652   3.169   2.574   0.756  0.2118  0.0786  0.4587
 8340SOL    HW136653   3.135   2.637   0.819  1.1222  0.2653  0.7672
 8340SOL    HW236654   3.156   2.621   0.674 -1.4147 -2.1548 -0.5854
 8341SOL     OW36655   2.281   4.100   3.384 -0.0270 -0.6405 -0.5510
 8341SOL    HW136656   2.338   4.029   3.354  1.6057  0.8949 -1.1024
 8341SOL    HW236657   2.227   4.092   3.305 -1.9273  1.2950  0.5517
 8342SOL     OW36658   3.372   0.860   6.796  0.2455 -0.0322 -0.2299
 8342SOL    HW136659   3.327   0.911   6.864  0.3402 -0.0128 -0.1826
 8342SOL    HW236660   3.302   0.812   6.752 -1.8964  0.5248  2.5323
 8343SOL     OW36661   3.818   2.646   4.949  0.2943  0.3516 -0.1912
 8343SOL    HW136662   3.794   2.570   4.895 -0.9748  0.0253  0.8511
 8343SOL    HW236663   3.737   2.697   4.949  0.5086  0.6849  0.3688
 8344SOL     OW36664   3.122   4.176   8.251 -0.0075 -0.1731 -0.0060
 8344SOL    HW136665   3.177   4.102   8.278  0.2094  0.6463  1.7838
 8344SOL    HW236666   3.055   4.136   8.195  0.2951 -0.3042 -0.2800
 8345SOL     OW36667   0.891   2.004   5.511 -0.1409  0.3282  0.6319
 8345SOL    HW136668   0.866   1.925   5.461  1.8916 -0.3488  0.6791
 8345SOL    HW236669   0.968   2.043   5.470 -0.1889  0.4617  0.6710
 8346SOL     OW36670   1.304   2.879  17.283 -0.2023  0.0269  0.1956
 8346SOL    HW136671   1.274   2.959  17.327 -0.9233 -0.6374  0.9287
 8346SOL    HW236672   1.335   2.912  17.198  0.4021  0.2282  0.4961
 8347SOL     OW36673   1.244   2.775   4.305  0.6418  0.0596 -0.0833
 8347SOL    HW136674   1.307   2.703   4.294  1.7486  0.9461  0.5697
 8347SOL    HW236675   1.263   2.797   4.396  1.7703 -2.1862  0.2237
 8348SOL     OW36676   0.342   3.759   4.939  0.0038  0.0842  0.0213
 8348SOL    HW136677   0.404   3.709   4.993  0.0209  0.4814  0.3664
 8348SOL    HW236678   0.337   3.844   4.982  1.9801 -0.0243  0.4919
 8349SOL     OW36679   0.579   0.588   9.250 -0.6269 -0.4092  0.2487
 8349SOL    HW136680   0.562   0.682   9.240  0.0818 -0.5965 -2.7723
 8349SOL    HW236681   0.531   0.544   9.180 -2.4212 -1.2736  2.0285
 8350SOL     OW36682   2.113   0.911   4.466 -0.2873  0.9394 -0.5622
 8350SOL    HW136683   2.193   0.871   4.500 -2.3902 -2.9011 -0.1225
 8350SOL    HW236684   2.098   0.972   4.538 -1.5733  0.5017 -0.4545
 8351SOL     OW36685   3.594   3.764   3.669  0.0340 -0.2962 -0.5593
 8351SOL    HW136686   3.498   3.757   3.671  0.2833 -3.3083  1.0355
 8351SOL    HW236687   3.606   3.693   3.733 -1.3790  1.9279  2.1922
 8352SOL     OW36688   3.846   3.764   3.792 -0.1554 -0.3647  0.2347
 8352SOL    HW136689   3.774   3.767   3.728  0.0684  0.3703  0.0155
 8352SOL    HW236690   3.866   3.671   3.790 -1.2893 -0.6209  0.7555
 8353SOL     OW36691   2.358   2.164   5.194  0.0479 -0.1392 -0.5376
 8353SOL    HW136692   2.310   2.245   5.212  0.0539 -0.2875  0.1801
 8353SOL    HW236693   2.330   2.104   5.263 -1.1196  1.5495  0.4651
 8354SOL     OW36694   4.634   3.629   5.658  0.0019  0.2504 -0.1434
 8354SOL    HW136695   4.669   3.540   5.667 -2.2506 -0.5618  0.6727
 8354SOL    HW236696   4.619   3.647   5.751 -0.5845 -1.3393  0.0769
 8355SOL     OW36697   2.176   2.462   9.021  0.1934  0.3364  0.6859
 8355SOL    HW136698   2.136   2.376   9.035 -0.3995  0.7595  1.5949
 8355SOL    HW236699   2.197   2.485   9.111  4.0997 -0.0687 -0.1180
 8356SOL     OW36700   3.214   1.408   4.021 -0.0339  0.0392 -0.0758
 8356SOL    HW136701   3.186   1.318   4.005 -1.2475  0.1492  1.4333
 8356SOL    HW236702   3.209   1.425   4.115  1.9032 -1.1919  0.2291
 8357SOL     OW36703   2.098   1.684   5.941  0.1237  0.4161  0.1324
 8357SOL    HW136704   2.066   1.729   5.863 -1.9812 -0.6322  0.3959
 8357SOL    HW236705   2.153   1.755   5.973  2.1162 -0.8236 -0.5439
 8358SOL     OW36706   3.833   1.764  16.586 -0.0841 -0.2196  0.3811
 8358SOL    HW136707   3.873   1.689  16.542 -0.8142  0.4548 -1.4338
 8358SOL    HW236708   3.839   1.722  16.672 -0.4950 -1.3006 -0.1158
 8359SOL     OW36709   3.509   1.896   4.835 -0.3831  0.7733 -0.2058
 8359SOL    HW136710   3.423   1.906   4.794 -1.0444 -3.2226  0.2252
 8359SOL    HW236711   3.486   1.842   4.910 -0.8928 -1.3699 -1.9139
 8360SOL     OW36712   3.890   1.303  11.173 -0.3188  0.0761  0.7783
 8360SOL    HW136713   3.976   1.312  11.214 -0.5962 -1.3187  1.6576
 8360SOL    HW236714   3.877   1.208  11.174 -1.2732  0.2175  1.5356
 8361SOL     OW36715   0.456   3.918   5.608  0.0052  0.2097 -0.7887
 8361SOL    HW136716   0.401   3.961   5.673  1.1137 -0.7290  0.7605
 8361SOL    HW236717   0.542   3.925   5.650 -0.7661  2.6804  0.3520
 8362SOL     OW36718   4.545   1.585   4.076 -0.5037 -0.0599 -0.2031
 8362SOL    HW136719   4.616   1.635   4.034  0.4391 -2.0453 -0.9731
 8362SOL    HW236720   4.602   1.537   4.136  0.5362 -0.8980 -1.8488
 8363SOL     OW36721   4.231   4.730   7.065  0.0149  0.8817  0.0017
 8363SOL    HW136722   4.191   0.068   7.021  0.1546  1.6091  1.1377
 8363SOL    HW236723   4.174   4.658   7.035  1.6213 -0.4531  0.1925
 8364SOL     OW36724   4.305   2.736   3.690 -0.1732 -0.0800  0.1051
 8364SOL    HW136725   4.314   2.823   3.651  1.9641 -0.5210 -0.4013
 8364SOL    HW236726   4.284   2.680   3.616 -1.7446  0.4022  0.1876
 8365SOL     OW36727   2.671   3.382   5.917  0.0280  0.4642  0.1885
 8365SOL    HW136728   2.651   3.458   5.971  0.1536 -0.0607  0.9871
 8365SOL    HW236729   2.631   3.326   5.984  0.0207 -1.3271 -1.3154
 8366SOL     OW36730   3.747   1.445   4.674  0.0167  0.2367  0.0288
 8366SOL    HW136731   3.687   1.383   4.634 -0.1860 -0.8004  1.9799
 8366SOL    HW236732   3.827   1.436   4.621  0.6938 -0.0960  1.1036
 8367SOL     OW36733   3.736   3.234   4.962 -0.1352  0.2878 -0.1440
 8367SOL    HW136734   3.738   3.167   4.895 -1.2002  1.9119 -1.7977
 8367SOL    HW236735   3.830   3.250   4.971 -0.0418  0.3654 -1.2827
 8368SOL     OW36736   3.287   1.919  14.794 -0.3540  0.3934  0.0258
 8368SOL    HW136737   3.306   1.858  14.865 -1.2216 -2.4192 -2.1352
 8368SOL    HW236738   3.304   2.006  14.829 -0.5454  0.4112  0.0739
 8369SOL     OW36739   3.518   4.525   6.899 -0.5584  0.0944 -0.3004
 8369SOL    HW136740   3.485   4.471   6.827 -1.0198 -0.9471  0.6869
 8369SOL    HW236741   3.437   4.540   6.949 -0.8593  1.0567 -1.0871
 8370SOL     OW36742   0.242   2.904   9.533 -0.5520  0.0431  1.0227
 8370SOL    HW136743   0.182   2.906   9.458  0.0496  0.2856  0.5534
 8370SOL    HW236744   0.205   2.832   9.585 -1.9992  0.2062  0.2132
 8371SOL     OW36745   3.846   2.963  11.458  0.4478 -0.4219 -0.4660
 8371SOL    HW136746   3.858   2.924  11.545 -0.1857 -3.3450 -1.7066
 8371SOL    HW236747   3.827   2.878  11.419 -1.2792  0.1151 -0.7954
 8372SOL     OW36748   0.152   3.694  13.109  0.0234 -0.1172 -0.0680
 8372SOL    HW136749   0.185   3.780  13.136  0.5333  0.1841 -1.6971
 8372SOL    HW236750   0.069   3.687  13.156 -0.1180 -0.3938 -0.3624
 8373SOL     OW36751   2.454   4.737   5.496 -0.0125 -0.1348  0.1137
 8373SOL    HW136752   2.390   4.737   5.426  1.4121  0.0654 -1.1815
 8373SOL    HW236753   2.469   4.643   5.511  0.6154 -0.1418 -0.5715
 8374SOL     OW36754   4.208   0.657   5.836 -0.5525  0.4615  0.2165
 8374SOL    HW136755   4.171   0.739   5.804 -0.9624  0.1945  0.0044
 8374SOL    HW236756   4.283   0.694   5.883 -2.3060  3.6044  0.5258
 8375SOL     OW36757   4.380   2.682  12.348  0.2393 -0.1687  0.3191
 8375SOL    HW136758   4.471   2.680  12.377  0.3740  1.5157  0.0109
 8375SOL    HW236759   4.383   2.649  12.258 -3.3259 -1.6826  0.7477
 8376SOL     OW36760   1.624   4.342   9.543  0.2621 -0.6037 -0.0870
 8376SOL    HW136761   1.701   4.359   9.489 -0.8723  1.6736 -0.9939
 8376SOL    HW236762   1.656   4.362   9.630 -0.8077 -1.6397  0.5546
 8377SOL     OW36763   0.995   3.852  12.578 -0.2227 -0.0112 -0.1055
 8377SOL    HW136764   0.919   3.799  12.597  1.5892 -2.1126  1.2216
 8377SOL    HW236765   1.055   3.788  12.539  0.8290  0.5020  0.6662
 8378SOL     OW36766   1.124   0.544   3.808 -0.8454 -0.4639  0.1167
 8378SOL    HW136767   1.199   0.529   3.865  1.3488  1.7709 -2.1495
 8378SOL    HW236768   1.155   0.513   3.722 -0.4774  1.8021 -0.5735
 8379SOL     OW36769   4.366   4.390   1.663  0.0965 -0.0405  0.5321
 8379SOL    HW136770   4.430   4.390   1.592 -0.9170  2.5139 -0.3839
 8379SOL    HW236771   4.313   4.466   1.637  1.2610  0.5561 -0.0868
 8380SOL     OW36772   1.966   1.827   3.967 -0.0814  0.5580  0.1489
 8380SOL    HW136773   2.040   1.888   3.967 -0.2485  0.7749 -1.1538
 8380SOL    HW236774   1.933   1.839   3.878 -1.2447  0.6916  0.6039
 8381SOL     OW36775   2.847   4.723  11.329  0.5489 -0.5810  0.0692
 8381SOL    HW136776   2.852   0.010  11.237 -0.2429 -3.2312 -0.6670
 8381SOL    HW236777   2.845   4.630  11.310 -0.2142 -0.8646  1.5056
 8382SOL     OW36778   2.896   2.481   2.511  0.2489 -0.0546  0.6591
 8382SOL    HW136779   2.801   2.488   2.507  0.3381 -0.9396 -2.4182
 8382SOL    HW236780   2.903   2.408   2.573  1.2789 -0.0637  0.5297
 8383SOL     OW36781   2.540   2.118   5.444 -0.0117 -0.4161 -0.0530
 8383SOL    HW136782   2.568   2.079   5.527 -0.1996 -1.1954 -0.3491
 8383SOL    HW236783   2.511   2.204   5.472 -2.2833 -0.9212 -0.8459
 8384SOL     OW36784   3.006   1.634   8.805  0.4796  0.2830  0.6543
 8384SOL    HW136785   3.054   1.551   8.804  1.3385  0.7451  3.1529
 8384SOL    HW236786   2.999   1.652   8.712  1.1193 -2.4702  0.0690
 8385SOL     OW36787   3.353   1.523   4.720  0.2377  0.1879  0.2063
 8385SOL    HW136788   3.369   1.583   4.646  0.8339  1.1082  1.0808
 8385SOL    HW236789   3.356   1.434   4.686  0.5020  0.6035 -0.8696
 8386SOL     OW36790   1.262   4.130   9.609  0.2257 -0.0638  0.5674
 8386SOL    HW136791   1.315   4.084   9.543  2.2606  2.5253  0.3814
 8386SOL    HW236792   1.278   4.223   9.594 -2.0981  0.2198 -0.0768
 8387SOL     OW36793   4.296   2.458  11.830 -0.3825  0.2104 -0.2714
 8387SOL    HW136794   4.354   2.485  11.901 -1.2964  1.5551 -0.0215
 8387SOL    HW236795   4.284   2.543  11.788 -0.2939  0.0241 -0.6756
 8388SOL     OW36796   3.434   2.128   3.046  0.3299 -0.2690 -0.0332
 8388SOL    HW136797   3.399   2.177   3.121  1.0470 -0.3952  0.3921
 8388SOL    HW236798   3.399   2.179   2.973 -0.3159  0.3644  0.7167
 8389SOL     OW36799   1.168   2.177   5.510  0.0673  0.1530  0.2268
 8389SOL    HW136800   1.254   2.177   5.551  1.2818  0.6095 -2.3233
 8389SOL    HW236801   1.111   2.198   5.584  1.0181 -0.3786  1.1174
 8390SOL     OW36802   0.039   3.663   3.372  0.7127 -0.0626 -0.2001
 8390SOL    HW136803   0.107   3.602   3.342 -1.2564 -0.4354 -3.8894
 8390SOL    HW236804   4.717   3.602   3.415  1.4896 -0.1745  0.7271
 8391SOL     OW36805   3.838   1.403   8.335 -0.4278  0.5012  0.3657
 8391SOL    HW136806   3.845   1.377   8.243 -0.7005  1.4249  0.0797
 8391SOL    HW236807   3.746   1.428   8.330 -0.4566 -0.5399 -4.1276
 8392SOL     OW36808   3.623   0.790  11.163  0.5832 -0.1451  0.1713
 8392SOL    HW136809   3.602   0.701  11.134  0.0582  0.2806 -0.7420
 8392SOL    HW236810   3.644   0.770  11.254 -0.8321 -3.2155 -0.1840
 8393SOL     OW36811   2.950   2.334   8.081 -0.1488 -0.1318  0.0744
 8393SOL    HW136812   3.023   2.272   8.084  0.4126  0.6039  1.3006
 8393SOL    HW236813   2.984   2.405   8.135 -0.9417  1.5243 -1.5664
 8394SOL     OW36814   3.299   3.422   5.249  0.0654  0.2158 -0.4673
 8394SOL    HW136815   3.245   3.485   5.297 -0.5253 -2.1469  1.9573
 8394SOL    HW236816   3.236   3.354   5.223 -0.1928  0.1051  0.4679
 8395SOL     OW36817   0.830   0.873   9.585  0.1322  0.1379 -0.7779
 8395SOL    HW136818   0.750   0.925   9.594 -2.1409 -3.3218 -0.8810
 8395SOL    HW236819   0.791   0.786   9.573  1.0729 -0.7937  2.9028
 8396SOL     OW36820   4.217   0.306   0.570 -0.4512 -0.1079 -0.4186
 8396SOL    HW136821   4.275   0.243   0.525 -0.7655 -0.4504 -0.3428
 8396SOL    HW236822   4.194   0.262   0.651 -0.1111 -1.6507 -1.1472
 8397SOL     OW36823   4.284   3.950  13.720  0.2486 -0.2791 -0.3441
 8397SOL    HW136824   4.319   3.870  13.759  0.2228  0.0479  0.3429
 8397SOL    HW236825   4.233   3.919  13.645  0.4935  0.4504 -0.8186
 8398SOL     OW36826   2.942   3.139   7.534 -0.0170 -0.2822  0.4393
 8398SOL    HW136827   2.885   3.077   7.489 -0.7071 -0.1561  1.1308
 8398SOL    HW236828   2.876   3.186   7.585 -0.8732 -1.7823  0.7287
 8399SOL     OW36829   0.179   2.145   8.616  0.3484  0.0870 -0.0625
 8399SOL    HW136830   0.163   2.129   8.523 -0.0059  1.2095 -0.1908
 8399SOL    HW236831   0.225   2.062   8.634  1.8157  0.5583 -1.6642
 8400SOL     OW36832   2.952   2.106   3.861  0.3624 -0.4524  1.0173
 8400SOL    HW136833   2.974   2.027   3.811  1.3818 -0.2526  1.1439
 8400SOL    HW236834   2.982   2.085   3.949  0.6474 -0.1020  1.0042
 8401SOL     OW36835   3.615   4.054   3.558 -0.9670 -0.7952 -0.3207
 8401SOL    HW136836   3.566   3.994   3.502 -2.1562 -0.3552  0.2637
 8401SOL    HW236837   3.623   4.007   3.641  2.1058  0.3316  0.0218
 8402SOL     OW36838   0.791   3.198  14.148 -0.0823  0.5143 -0.4680
 8402SOL    HW136839   0.878   3.221  14.115  1.1575  0.4961  2.7890
 8402SOL    HW236840   0.807   3.188  14.242  0.4681 -1.3752 -0.7484
 8403SOL     OW36841   1.780   3.687   9.142  0.4090 -0.6572 -0.0913
 8403SOL    HW136842   1.869   3.721   9.132  0.1232 -0.1258 -0.8283
 8403SOL    HW236843   1.801   3.594   9.142 -0.7226 -0.9155 -0.7428
 8404SOL     OW36844   0.273   0.081   2.999  0.8472  0.1182 -0.0002
 8404SOL    HW136845   0.350   0.138   3.005  1.4390 -0.6286 -0.4069
 8404SOL    HW236846   0.260   0.060   3.091 -0.1924  1.2752  0.1128
 8405SOL     OW36847   0.998   1.052  10.333  0.2080 -0.2364 -0.1151
 8405SOL    HW136848   0.987   0.967  10.375  0.1461 -1.7493 -3.2844
 8405SOL    HW236849   0.946   1.108  10.392 -0.8277  0.0138 -1.2645
 8406SOL     OW36850   0.145   0.168   1.640  0.3569  0.3448 -0.1555
 8406SOL    HW136851   0.153   0.112   1.563 -2.0579 -2.3849  1.5219
 8406SOL    HW236852   0.227   0.212   1.622  0.8034 -1.6244 -2.8963
 8407SOL     OW36853   1.663   2.561   1.735 -0.1805 -0.7557  0.6500
 8407SOL    HW136854   1.702   2.646   1.754  1.1997 -0.8910 -1.5744
 8407SOL    HW236855   1.735   2.509   1.698  0.3325  1.8108 -1.9058
 8408SOL     OW36856   2.403   4.269   3.837 -0.1002  0.3914  0.3938
 8408SOL    HW136857   2.402   4.264   3.742  1.5549  1.3440  0.3261
 8408SOL    HW236858   2.386   4.361   3.858  0.3012  0.4664  0.3974
 8409SOL     OW36859   2.835   0.497   2.508 -0.0424 -0.1893 -0.8947
 8409SOL    HW136860   2.845   0.483   2.602 -0.6527 -0.9572 -0.9440
 8409SOL    HW236861   2.881   0.580   2.497 -0.2942 -0.0802 -1.1200
 8410SOL     OW36862   1.487   1.956   4.869 -0.4142 -0.6132 -0.4710
 8410SOL    HW136863   1.520   2.045   4.877  0.0552 -0.6526 -1.9364
 8410SOL    HW236864   1.553   1.914   4.923 -2.8743 -2.5012  1.0808
 8411SOL     OW36865   3.629   2.696   4.392 -0.2839  0.2851 -0.3433
 8411SOL    HW136866   3.663   2.659   4.473 -4.4323 -2.7321  0.0240
 8411SOL    HW236867   3.712   2.721   4.351  0.6311 -0.8404  0.8370
 8412SOL     OW36868   1.654   1.919  12.353  0.1813  0.1087 -0.0946
 8412SOL    HW136869   1.567   1.899  12.318 -0.1285  2.0678 -0.4622
 8412SOL    HW236870   1.669   1.848  12.415 -1.8838 -1.4438 -1.3463
 8413SOL     OW36871   1.166   0.076  14.714 -0.3849 -0.3431  0.3150
 8413SOL    HW136872   1.122   0.035  14.639 -2.4976  1.2998  0.6276
 8413SOL    HW236873   1.256   0.083  14.682  0.0231  3.1552  2.2368
 8414SOL     OW36874   2.543   4.327   2.586  0.1160  0.4863 -0.2060
 8414SOL    HW136875   2.450   4.333   2.565  0.2410 -0.0708 -0.9299
 8414SOL    HW236876   2.540   4.245   2.634  1.1291  1.6090  1.7700
 8415SOL     OW36877   2.813   2.801   4.260  0.5777 -0.1277 -0.9764
 8415SOL    HW136878   2.888   2.860   4.254  1.2207 -0.5824  2.6278
 8415SOL    HW236879   2.829   2.733   4.194  1.6136  1.5160 -2.4363
 8416SOL     OW36880   0.113   2.173   2.486 -0.4241 -0.4307 -0.1191
 8416SOL    HW136881   0.130   2.091   2.532  4.1912 -0.1978 -1.3942
 8416SOL    HW236882   0.059   2.141   2.414 -0.8811 -0.4723  0.2501
 8417SOL     OW36883   1.518   1.166   5.935 -0.2330  0.2626  0.6264
 8417SOL    HW136884   1.481   1.183   5.849  1.2949 -1.4263 -0.3785
 8417SOL    HW236885   1.463   1.225   5.986  1.1940  0.9178  1.4144
 8418SOL     OW36886   2.085   4.153  12.191  0.0730  0.7650 -0.5271
 8418SOL    HW136887   2.174   4.160  12.227 -0.7641  1.3340  1.4000
 8418SOL    HW236888   2.028   4.145  12.267  2.8980 -3.1884  1.1702
 8419SOL     OW36889   2.752   0.710   7.713 -0.4309 -0.4521  0.0025
 8419SOL    HW136890   2.682   0.725   7.777 -0.4990  4.0391 -1.1067
 8419SOL    HW236891   2.722   0.646   7.648 -0.5220  2.5964 -2.9230
 8420SOL     OW36892   1.370   2.616   3.748 -0.0886 -0.1108  0.2974
 8420SOL    HW136893   1.389   2.690   3.805  0.9177  1.4902 -2.1819
 8420SOL    HW236894   1.448   2.563   3.764  0.2030  0.4705  0.7771
 8421SOL     OW36895   1.588   1.341   9.379 -0.0453  0.3811 -0.1030
 8421SOL    HW136896   1.668   1.316   9.425 -2.5524 -0.8977  3.4953
 8421SOL    HW236897   1.579   1.272   9.313  2.4497  1.2361 -1.3438
 8422SOL     OW36898   2.271   3.132   3.325 -0.0329  0.3386  0.0317
 8422SOL    HW136899   2.204   3.190   3.290 -0.0306  0.8036  0.7839
 8422SOL    HW236900   2.305   3.088   3.248  0.1003 -0.1015  0.3389
 8423SOL     OW36901   0.948   4.376   4.475  0.4004 -0.1328 -0.0131
 8423SOL    HW136902   1.015   4.343   4.415 -0.0128  0.2557 -0.6904
 8423SOL    HW236903   0.945   4.461   4.431 -0.7126  0.2808  0.8522
 8424SOL     OW36904   1.862   1.963   2.628  0.0475 -1.1391 -0.1818
 8424SOL    HW136905   1.804   2.016   2.683  0.3105 -0.1827 -0.8182
 8424SOL    HW236906   1.828   1.877   2.651 -0.0273 -1.5017 -1.6046
 8425SOL     OW36907   3.566   1.513   2.569 -0.0002  0.0530  0.2488
 8425SOL    HW136908   3.623   1.467   2.507 -1.5785 -0.8311 -0.5341
 8425SOL    HW236909   3.608   1.490   2.652  0.2487  0.0246  0.1139
 8426SOL     OW36910   3.817   3.827   9.227  0.3004  0.4628 -0.6814
 8426SOL    HW136911   3.838   3.733   9.226  0.6398  0.5436 -1.1640
 8426SOL    HW236912   3.851   3.842   9.315 -0.8560  1.3049 -0.3913
 8427SOL     OW36913   4.441   4.632   8.093  0.4405  0.2425 -0.1952
 8427SOL    HW136914   4.370   4.569   8.097  1.5577 -0.9326  1.0290
 8427SOL    HW236915   4.426   4.686   8.171 -2.2021  3.1265 -2.6532
 8428SOL     OW36916   4.714   0.687  12.990 -0.8426  0.1633  0.6537
 8428SOL    HW136917   4.703   0.752  13.059 -0.7301 -0.3151  1.1216
 8428SOL    HW236918   4.716   0.602  13.035 -1.2844  0.5805  1.4622
 8429SOL     OW36919   0.855   3.823   0.025 -0.2313 -0.3470 -0.5688
 8429SOL    HW136920   0.768   3.784   0.025 -1.2631  1.9164 -3.6072
 8429SOL    HW236921   0.903   3.741   0.035  0.5474  0.0598 -0.8878
 8430SOL     OW36922   2.466   3.492   3.838  0.0309  0.3095  0.1225
 8430SOL    HW136923   2.397   3.555   3.820 -0.3611 -0.5030 -1.1903
 8430SOL    HW236924   2.473   3.512   3.931  0.1334 -2.7381  0.7538
 8431SOL     OW36925   2.187   3.713  14.010 -0.0730  0.1884 -0.0212
 8431SOL    HW136926   2.175   3.803  14.042  0.6117  0.2241  0.1215
 8431SOL    HW236927   2.213   3.667  14.090  1.2517  1.8776  0.5053
 8432SOL     OW36928   2.454   0.790   2.293 -0.4262  0.2988  0.3107
 8432SOL    HW136929   2.496   0.843   2.361  3.1739 -2.1332 -0.0150
 8432SOL    HW236930   2.466   0.704   2.332 -0.9088 -0.5459 -1.3849
 8433SOL     OW36931   3.961   1.860  14.751  0.0051 -0.0662 -0.4660
 8433SOL    HW136932   3.986   1.949  14.775  1.0735 -0.3537 -0.5094
 8433SOL    HW236933   3.966   1.813  14.834  4.5972  0.3398 -0.5537
 8434SOL     OW36934   2.425   2.721  17.683  0.0221 -0.2451 -0.2098
 8434SOL    HW136935   2.478   2.752   0.009 -2.9752  0.4133  1.6919
 8434SOL    HW236936   2.407   2.809  17.649 -2.2567 -0.2411  1.0037
 8435SOL     OW36937   0.993   4.213  17.438 -0.1886  0.2574  0.1872
 8435SOL    HW136938   0.906   4.253  17.445  0.0337  1.3783 -2.9175
 8435SOL    HW236939   0.995   4.171  17.523 -0.2756 -1.2123 -0.5437
 8436SOL     OW36940   3.740   3.522   1.560  0.1326  0.3044 -0.0660
 8436SOL    HW136941   3.670   3.587   1.561  0.1642  0.3706 -3.6220
 8436SOL    HW236942   3.819   3.575   1.569  0.0632  0.5098 -0.6642
 8437SOL     OW36943   2.546   3.794   7.675  0.2490  0.4091 -0.1248
 8437SOL    HW136944   2.575   3.827   7.760  1.6910  0.2136 -0.5429
 8437SOL    HW236945   2.479   3.855   7.645 -0.9415 -1.1654 -0.6509
 8438SOL     OW36946   1.404   0.381   6.698  0.1607  0.1670  0.3010
 8438SOL    HW136947   1.495   0.367   6.725  0.3190 -1.4395 -1.0332
 8438SOL    HW236948   1.358   0.337   6.770  2.3524 -0.8102  1.1165
 8439SOL     OW36949   4.447   2.193   2.663 -0.3081  0.1722 -0.1983
 8439SOL    HW136950   4.542   2.190   2.675 -0.4611 -0.6282  0.8819
 8439SOL    HW236951   4.425   2.242   2.742 -2.0819  0.1576 -0.6778
 8440SOL     OW36952   1.770   4.586   2.360 -0.0761 -0.0528 -0.2174
 8440SOL    HW136953   1.767   4.530   2.438  0.3081  2.4876  1.6344
 8440SOL    HW236954   1.681   4.621   2.364  0.0331  0.1621  0.3873
 8441SOL     OW36955   1.201   0.929   4.849  0.3873 -0.0547 -0.2407
 8441SOL    HW136956   1.212   0.988   4.774  1.0642 -1.5517 -1.3269
 8441SOL    HW236957   1.214   0.845   4.804  2.0855 -0.5350  1.1591
 8442SOL     OW36958   0.412   4.352  15.333  0.6449 -0.6086  0.3091
 8442SOL    HW136959   0.455   4.310  15.259  2.5052  1.0846  0.4317
 8442SOL    HW236960   0.344   4.406  15.291  0.7348 -0.7754 -0.0504
 8443SOL     OW36961   0.902   0.748   8.995 -0.1290 -0.0878 -1.0479
 8443SOL    HW136962   0.818   0.772   9.035  1.4223  0.9958  1.5607
 8443SOL    HW236963   0.964   0.769   9.065 -1.0961  0.3917 -0.3243
 8444SOL     OW36964   4.491   1.576   7.854 -0.0001 -0.1371 -0.1588
 8444SOL    HW136965   4.501   1.537   7.941 -1.0674 -1.1522 -0.4880
 8444SOL    HW236966   4.583   1.594   7.834 -0.4948  0.7580 -1.6540
 8445SOL     OW36967   2.083   4.713   8.045 -0.7250  0.7344 -0.4804
 8445SOL    HW136968   2.167   0.000   8.007 -0.2900  0.9562  0.6141
 8445SOL    HW236969   2.088   4.617   8.046  1.6701  0.8807  1.4202
 8446SOL     OW36970   4.576   4.412  16.129 -0.3057 -0.0702 -0.3205
 8446SOL    HW136971   4.625   4.468  16.068 -0.3556  0.5991  0.2641
 8446SOL    HW236972   4.613   4.444  16.211 -3.8190 -0.3402  1.3604
 8447SOL     OW36973   0.331   1.428   0.620  0.1906  0.0898 -0.1349
 8447SOL    HW136974   0.255   1.373   0.603  0.3889 -0.1657 -0.1877
 8447SOL    HW236975   0.392   1.364   0.655  1.2675  1.2540  0.1148
 8448SOL     OW36976   3.493   1.923   3.618 -0.1593 -0.2944  0.2036
 8448SOL    HW136977   3.405   1.886   3.623  0.5436 -1.8722  1.1632
 8448SOL    HW236978   3.492   1.974   3.538  1.1134 -1.2709 -0.4505
 8449SOL     OW36979   0.116   2.764   9.744  0.8477  0.3908 -0.3948
 8449SOL    HW136980   0.084   2.701   9.808  2.7835  0.1399  0.3442
 8449SOL    HW236981   0.056   2.837   9.759  2.7050  1.9551 -0.5689
 8450SOL     OW36982   4.177   4.248   5.945  0.4778  0.0288  0.7853
 8450SOL    HW136983   4.148   4.304   6.017  1.5192  0.2887  1.0048
 8450SOL    HW236984   4.215   4.308   5.880 -1.2821 -0.5814 -0.8128
 8451SOL     OW36985   2.157   2.250   2.306  0.5491  0.5648 -0.8840
 8451SOL    HW136986   2.114   2.178   2.352  2.7809 -1.2587 -1.6714
 8451SOL    HW236987   2.173   2.212   2.219 -2.7479  0.8366 -1.6025
 8452SOL     OW36988   4.456   4.370  12.428 -0.3109  0.3819 -0.1968
 8452SOL    HW136989   4.487   4.360  12.518  0.2295 -0.2180 -0.4417
 8452SOL    HW236990   4.434   4.283  12.393 -0.6645  0.9447 -1.3805
 8453SOL     OW36991   2.804   2.252   1.965  0.4506 -0.1348  0.5466
 8453SOL    HW136992   2.853   2.199   2.026 -1.7309 -0.5327  1.9551
 8453SOL    HW236993   2.802   2.332   2.019 -0.0509  0.1363  0.1281
 8454SOL     OW36994   2.149   3.501   7.234  0.2921 -0.4693  0.5817
 8454SOL    HW136995   2.132   3.449   7.156 -0.8724  1.5766 -0.5314
 8454SOL    HW236996   2.136   3.434   7.301 -1.8182 -0.1665  0.4741
 8455SOL     OW36997   4.408   3.674  15.713  0.2783 -0.8848  0.2377
 8455SOL    HW136998   4.350   3.629  15.775  1.6764  0.4130  2.4504
 8455SOL    HW236999   4.479   3.610  15.717 -0.4382 -1.6935  0.0627
 8456SOL     OW37000   2.638   0.429   5.244  0.2772 -0.3681 -0.2410
 8456SOL    HW137001   2.714   0.484   5.268  0.6210 -1.2331  0.6431
 8456SOL    HW237002   2.575   0.496   5.218  2.3162  2.0072  0.8792
 8457SOL     OW37003   2.134   4.110   4.787 -0.0287 -0.8734  0.1516
 8457SOL    HW137004   2.063   4.128   4.849 -0.1987 -1.6070  0.1809
 8457SOL    HW237005   2.209   4.155   4.825 -1.5948  2.1382 -0.3649
 8458SOL     OW37006   1.231   3.041  17.725  0.7489  0.1795  0.6861
 8458SOL    HW137007   1.153   3.003   0.016 -1.5168  0.6473 -3.4068
 8458SOL    HW237008   1.300   3.012   0.037  1.0750  1.2561  0.8231
 8459SOL     OW37009   0.162   0.436   0.546 -0.2747  0.1726  0.0899
 8459SOL    HW137010   0.223   0.460   0.615 -0.6773 -1.0826  0.8959
 8459SOL    HW237011   0.218   0.372   0.502 -0.0756 -1.0579  2.1289
 8460SOL     OW37012   0.934   3.032   6.941  0.4296 -0.4167  0.3992
 8460SOL    HW137013   1.027   3.029   6.962  0.3825  0.7012  0.7730
 8460SOL    HW237014   0.910   2.946   6.908  0.7413  0.8096 -3.0045
 8461SOL     OW37015   1.278   2.671  17.630 -0.4220  0.0545 -0.2630
 8461SOL    HW137016   1.263   2.764  17.614 -3.4650 -0.4638 -0.5828
 8461SOL    HW237017   1.353   2.648  17.576  0.8249 -0.2356  1.5971
 8462SOL     OW37018   2.456   3.260   7.096 -0.9121  0.7157 -0.0018
 8462SOL    HW137019   2.545   3.246   7.128 -1.1211 -0.4247  0.0919
 8462SOL    HW237020   2.464   3.348   7.059  0.4307  0.1491 -1.0357
 8463SOL     OW37021   2.500   2.597   6.732  0.1756  0.7597 -0.1747
 8463SOL    HW137022   2.531   2.592   6.642  1.9719 -0.6667  0.5173
 8463SOL    HW237023   2.577   2.580   6.786 -0.1710  0.1192  0.1243
 8464SOL     OW37024   1.911   2.606  11.132  0.3153  0.0072 -0.0527
 8464SOL    HW137025   1.868   2.669  11.189 -1.6228 -1.0029 -0.4104
 8464SOL    HW237026   1.991   2.590  11.183  0.2655 -1.2133 -0.3621
 8465SOL     OW37027   2.548   2.123   1.886 -0.7368  0.0060 -0.8780
 8465SOL    HW137028   2.619   2.153   1.943 -1.6435 -0.1514  0.3012
 8465SOL    HW237029   2.540   2.031   1.910  1.1407 -0.5060 -2.1362
 8466SOL     OW37030   3.894   4.239   7.425  0.4136 -0.1407  0.2844
 8466SOL    HW137031   3.866   4.219   7.515  0.5293  0.5413  0.4725
 8466SOL    HW237032   3.985   4.213   7.437  0.9418  0.3115 -2.9585
 8467SOL     OW37033   3.780   2.367   8.449 -0.1261  0.5525  0.2355
 8467SOL    HW137034   3.698   2.415   8.459 -0.6281 -0.6689  1.9335
 8467SOL    HW237035   3.755   2.285   8.490 -0.9962  0.7248  0.0572
 8468SOL     OW37036   4.065   1.382  11.718  0.6752  0.0280 -0.1533
 8468SOL    HW137037   4.102   1.322  11.654 -1.5365 -0.8139 -0.6369
 8468SOL    HW237038   4.020   1.316  11.772  0.5055  0.1641 -0.1311
 8469SOL     OW37039   2.640   2.170   2.425 -0.1879 -0.0231  0.1718
 8469SOL    HW137040   2.732   2.144   2.433 -0.6265 -1.1889  1.4798
 8469SOL    HW237041   2.636   2.238   2.358  1.2231 -2.2881 -2.2562
 8470SOL     OW37042   3.288   2.240   8.677  0.2847  0.1969 -0.2198
 8470SOL    HW137043   3.223   2.175   8.648 -0.2799  1.2541 -1.3116
 8470SOL    HW237044   3.361   2.182   8.700 -2.3333 -1.3227  4.3287
 8471SOL     OW37045   3.669   2.934  16.952  0.1709  0.2600 -0.6018
 8471SOL    HW137046   3.598   2.895  16.902 -0.2150 -2.4045  2.0527
 8471SOL    HW237047   3.699   3.016  16.913  0.0198 -0.1225 -1.5292
 8472SOL     OW37048   0.629   2.313   0.395 -0.3140 -0.3643  0.0484
 8472SOL    HW137049   0.594   2.343   0.478  0.4220 -3.4986  1.4832
 8472SOL    HW237050   0.590   2.226   0.385 -0.6131 -0.5366  2.7227
 8473SOL     OW37051   0.525   3.903   7.537  0.8635 -0.2139 -0.3035
 8473SOL    HW137052   0.620   3.914   7.529  0.5352  2.7484 -0.0709
 8473SOL    HW237053   0.510   3.894   7.631 -0.2509  1.2265 -0.3624
 8474SOL     OW37054   1.028   1.784   6.728  0.0880 -0.2071 -0.1296
 8474SOL    HW137055   1.012   1.839   6.805 -1.9733 -0.3489 -0.4528
 8474SOL    HW237056   1.022   1.853   6.663  2.1691  0.3781  0.3144
 8475SOL     OW37057   0.393   4.697   8.156 -0.2500 -0.2615  0.2333
 8475SOL    HW137058   0.397   4.695   8.060  0.0655  0.1404  0.2376
 8475SOL    HW237059   0.308   4.656   8.173 -1.8526  2.3902 -1.3498
 8476SOL     OW37060   3.635   3.477   7.188 -0.5678  0.2289 -0.0320
 8476SOL    HW137061   3.613   3.561   7.227 -0.9553 -0.1287  0.5300
 8476SOL    HW237062   3.730   3.475   7.189 -0.6300 -1.8652  3.1366
 8477SOL     OW37063   1.881   3.327  14.224  0.6584 -0.0277 -0.3755
 8477SOL    HW137064   1.789   3.353  14.230  1.1604  1.9330 -1.1767
 8477SOL    HW237065   1.905   3.360  14.311  1.6405 -0.0448 -0.6426
 8478SOL     OW37066   3.887   3.574   8.066  0.3675  0.4424  0.3195
 8478SOL    HW137067   3.915   3.546   8.153 -0.1790 -1.4784 -0.1373
 8478SOL    HW237068   3.910   3.667   8.059 -1.8402  0.9269 -0.7062
 8479SOL     OW37069   2.206   1.902   2.847 -0.1949 -0.0653 -0.1482
 8479SOL    HW137070   2.297   1.899   2.877 -0.1912 -1.0142 -0.2536
 8479SOL    HW237071   2.211   1.951   2.765  2.5612 -2.6067 -1.5051
 8480SOL     OW37072   2.947   1.277  15.376 -0.1718 -0.6083  0.1680
 8480SOL    HW137073   2.882   1.224  15.330  1.6564 -1.2244 -1.7456
 8480SOL    HW237074   2.957   1.240  15.463 -0.7867 -0.1379  0.4391
 8481SOL     OW37075   0.860   2.800   5.782 -0.5096  0.0873  0.4395
 8481SOL    HW137076   0.874   2.734   5.714 -1.7455 -1.6193  1.8077
 8481SOL    HW237077   0.773   2.837   5.766  0.0554  1.1462 -0.1494
 8482SOL     OW37078   1.624   1.651   4.101 -0.3838 -0.2001 -0.3729
 8482SOL    HW137079   1.534   1.619   4.112 -0.8436  0.1437 -3.2263
 8482SOL    HW237080   1.653   1.613   4.018  2.6279 -0.3567  0.7462
 8483SOL     OW37081   1.527   3.423   0.258  0.7095 -0.5358  0.7488
 8483SOL    HW137082   1.576   3.487   0.208 -1.0918 -1.4589 -2.2224
 8483SOL    HW237083   1.599   3.361   0.272  1.4041  0.9318  3.4809
 8484SOL     OW37084   3.458   2.809   7.379 -1.4647  0.3826 -0.0208
 8484SOL    HW137085   3.493   2.825   7.291  0.8533  1.2195  1.0483
 8484SOL    HW237086   3.415   2.727   7.357  0.0233  0.8186 -4.5691
 8485SOL     OW37087   4.043   1.388   2.992 -0.9785  0.0810  0.5385
 8485SOL    HW137088   4.010   1.385   3.081  0.1673 -4.0882  0.8149
 8485SOL    HW237089   4.013   1.476   2.970  1.3662 -0.3058 -4.2684
 8486SOL     OW37090   3.575   4.451   4.856  0.1431 -0.1905  0.1897
 8486SOL    HW137091   3.530   4.428   4.774 -0.6666  1.7026  0.1126
 8486SOL    HW237092   3.577   4.547   4.854  1.2176 -0.1881  1.3256
 8487SOL     OW37093   2.443   3.012  10.823 -0.3576 -0.5614 -0.4292
 8487SOL    HW137094   2.405   2.968  10.747  0.0722 -2.6491  0.5757
 8487SOL    HW237095   2.401   3.095  10.799 -0.8348 -0.1866  1.6700
 8488SOL     OW37096   3.963   4.405   3.694  0.9395 -0.4609  0.2888
 8488SOL    HW137097   3.887   4.349   3.680  0.8686 -0.5677  1.0581
 8488SOL    HW237098   4.010   4.360   3.765  0.1576 -3.2017 -0.9313
 8489SOL     OW37099   2.060   3.297   5.084 -0.3990 -0.6735 -0.4279
 8489SOL    HW137100   1.999   3.283   5.011  0.9305  1.7166 -1.9980
 8489SOL    HW237101   2.011   3.258   5.157 -0.3795  2.9690  1.5350
 8490SOL     OW37102   3.722   1.206   2.766 -0.1385  0.5588  0.4184
 8490SOL    HW137103   3.681   1.129   2.727  3.1467 -0.1172 -1.7309
 8490SOL    HW237104   3.794   1.221   2.705  0.1023  0.3081  0.6422
 8491SOL     OW37105   3.786   0.541   3.618 -0.2791  0.2766  0.3121
 8491SOL    HW137106   3.705   0.521   3.572  0.6339  0.0052 -1.1737
 8491SOL    HW237107   3.838   0.461   3.610 -1.2319 -0.0871 -1.9900
 8492SOL     OW37108   2.828   4.577  12.895 -0.2314 -0.6617 -0.2620
 8492SOL    HW137109   2.755   4.612  12.946 -0.6347 -1.0356 -0.5849
 8492SOL    HW237110   2.905   4.633  12.905  0.7594 -2.5753  3.0866
 8493SOL     OW37111   0.935   2.459   8.732  0.5534  0.2096 -0.2650
 8493SOL    HW137112   0.966   2.455   8.641 -2.2605  0.4621 -1.2177
 8493SOL    HW237113   0.842   2.445   8.715  0.4353  1.2188 -0.4127
 8494SOL     OW37114   1.512   4.226   5.901  0.3299  0.4882 -0.8839
 8494SOL    HW137115   1.557   4.309   5.918  1.8072 -0.7179  1.1104
 8494SOL    HW237116   1.558   4.161   5.955 -1.0420 -0.1198 -0.4489
 8495SOL     OW37117   4.359   2.541   3.934  0.5529 -0.2884 -0.2488
 8495SOL    HW137118   4.368   2.487   4.013  0.1266  0.4512  0.2980
 8495SOL    HW237119   4.327   2.476   3.872 -0.1517  2.1513 -2.4097
 8496SOL     OW37120   0.475   1.990   6.081  0.7895  0.0562 -0.5098
 8496SOL    HW137121   0.463   2.037   6.163  2.1486  1.2556 -0.9989
 8496SOL    HW237122   0.411   1.919   6.080  0.2307  0.5611 -0.0226
 8497SOL     OW37123   0.117   2.435   2.958 -0.1262  0.0998 -0.3397
 8497SOL    HW137124   0.130   2.518   2.911 -2.2609  0.8442  0.3661
 8497SOL    HW237125   0.127   2.373   2.886  2.9912  0.2217 -0.0293
 8498SOL     OW37126   2.934   1.325   2.024  0.4696  0.0515  0.6133
 8498SOL    HW137127   2.888   1.362   2.099  0.1159 -0.8703  0.8402
 8498SOL    HW237128   3.022   1.360   2.038  0.5330 -0.8072  2.3007
 8499SOL     OW37129   0.293   1.437   8.536 -0.1589 -0.0012  0.1708
 8499SOL    HW137130   0.316   1.357   8.490 -3.1563 -1.2474  0.8561
 8499SOL    HW237131   0.340   1.506   8.488  0.3277 -0.4499  0.0073
 8500SOL     OW37132   1.505   1.896   6.472 -0.5052  0.1271 -0.5372
 8500SOL    HW137133   1.537   1.821   6.523  1.2250  0.0281 -1.7890
 8500SOL    HW237134   1.427   1.918   6.523  0.2949  0.4561  0.5388
 8501SOL     OW37135   2.225   4.298  13.779  0.3239 -0.2155 -0.0424
 8501SOL    HW137136   2.236   4.379  13.731  0.2513 -0.9554 -1.3001
 8501SOL    HW237137   2.185   4.242  13.712  0.2358 -0.3652  0.1319
 8502SOL     OW37138   1.249   0.444  11.766 -0.0985 -0.5367  0.1394
 8502SOL    HW137139   1.234   0.521  11.821 -0.3363 -0.7221  0.3323
 8502SOL    HW237140   1.316   0.397  11.814 -0.0434 -2.0607 -1.4416
 8503SOL     OW37141   0.112   3.614  13.709 -0.0372  0.1797 -0.7576
 8503SOL    HW137142   0.133   3.523  13.691  0.1253  0.2115 -0.7285
 8503SOL    HW237143   0.119   3.646  13.619 -1.8549  0.6300 -0.7416
 8504SOL     OW37144   2.312   1.059   2.249  1.0520 -0.4716  0.0660
 8504SOL    HW137145   2.286   1.108   2.328  0.6837  0.7634 -0.8131
 8504SOL    HW237146   2.332   0.977   2.294  1.3114 -0.3861  0.1096
 8505SOL     OW37147   0.978   2.433   0.265 -0.0669 -0.9604  0.0247
 8505SOL    HW137148   1.025   2.477   0.194  2.0028 -0.7233  1.5487
 8505SOL    HW237149   1.034   2.448   0.341  1.8223  2.3548 -2.0431
 8506SOL     OW37150   1.434   4.450   1.483 -0.3293  0.2822  0.4777
 8506SOL    HW137151   1.448   4.382   1.548 -0.1562  1.3904  1.6088
 8506SOL    HW237152   1.363   4.404   1.438  0.2052 -1.8587  1.8378
 8507SOL     OW37153   2.387   3.191   0.047  0.1980  0.3442 -0.2102
 8507SOL    HW137154   2.351   3.252  17.731 -3.7824  1.5353  3.1947
 8507SOL    HW237155   2.439   3.236   0.114 -3.4882  2.8077  0.9615
 8508SOL     OW37156   0.411   4.153  13.152  0.7169  0.5560 -0.1101
 8508SOL    HW137157   0.335   4.183  13.103  0.4414 -1.2076 -0.7704
 8508SOL    HW237158   0.385   4.193  13.235  2.9909  4.5111 -1.3058
 8509SOL     OW37159   0.058   2.459  16.290  0.1569 -0.0410  0.4400
 8509SOL    HW137160   4.718   2.434  16.239 -1.6343  2.2895  1.9800
 8509SOL    HW237161   0.105   2.523  16.236 -0.6741  0.8419  0.7417
 8510SOL     OW37162   0.244   2.951   1.797  0.6865 -0.1318  0.0020
 8510SOL    HW137163   0.200   3.035   1.810 -0.9052 -0.8969 -0.3939
 8510SOL    HW237164   0.182   2.904   1.742  0.5998  0.5046 -0.4377
 8511SOL     OW37165   4.007   3.390   6.935 -0.0700 -0.6420  0.3591
 8511SOL    HW137166   3.929   3.358   6.891 -0.2207  1.7508 -1.1436
 8511SOL    HW237167   4.021   3.480   6.906  0.4339 -0.9736 -0.4161
 8512SOL     OW37168   4.296   1.719  12.564 -0.1177 -0.1670 -0.2555
 8512SOL    HW137169   4.206   1.701  12.535 -0.4228  0.8187  0.0688
 8512SOL    HW237170   4.329   1.630  12.576 -1.2863 -0.4816  0.6200
 8513SOL     OW37171   3.807   4.674   3.227  0.2520  0.3699 -0.2690
 8513SOL    HW137172   3.864   0.006   3.192  0.5185 -1.3905 -3.3064
 8513SOL    HW237173   3.852   4.658   3.310  1.4446  1.4223 -0.6958
 8514SOL     OW37174   0.757   0.566   6.737  0.3450  0.3578  0.2380
 8514SOL    HW137175   0.714   0.549   6.821  0.8192 -1.0745  0.1919
 8514SOL    HW237176   0.832   0.613   6.774  0.6865  0.7927 -1.0205
 8515SOL     OW37177   0.032   0.115   7.069 -0.3724 -0.8347 -0.3222
 8515SOL    HW137178   0.061   0.024   7.075  1.1720 -0.2838  0.5904
 8515SOL    HW237179   4.680   0.092   7.044 -0.7676  0.4927 -0.1117
 8516SOL     OW37180   0.688   0.076   6.798 -0.3225  0.2736  0.7393
 8516SOL    HW137181   0.736   4.733   6.819  0.7184  0.7066  0.0068
 8516SOL    HW237182   0.610   0.047   6.751 -0.6710  1.1396  0.7808
 8517SOL     OW37183   4.088   3.761   3.628  0.2006 -0.0925  0.4522
 8517SOL    HW137184   4.012   3.778   3.684 -1.4816  0.0289 -1.8805
 8517SOL    HW237185   4.127   3.687   3.674 -1.0254 -1.0911 -0.1108
 8518SOL     OW37186   0.833   2.794   3.036 -0.3530 -0.2843 -0.8073
 8518SOL    HW137187   0.917   2.811   2.994 -1.1519  0.8198 -1.9818
 8518SOL    HW237188   0.827   2.703   3.066 -2.0590 -0.2584 -1.0890
 8519SOL     OW37189   2.751   1.664   3.147 -0.1661  0.4441  0.2867
 8519SOL    HW137190   2.805   1.735   3.182 -0.3798 -0.7523  3.0793
 8519SOL    HW237191   2.761   1.666   3.052  1.3774  0.3253  0.4370
 8520SOL     OW37192   0.711   0.803   4.582 -0.4757 -0.3803  0.0188
 8520SOL    HW137193   0.689   0.719   4.543  2.2478 -1.0665 -0.0132
 8520SOL    HW237194   0.753   0.845   4.507 -2.2721 -0.0217 -0.7973
 8521SOL     OW37195   0.591   4.246   3.899 -0.3462  0.0328 -0.3230
 8521SOL    HW137196   0.660   4.270   3.837  0.6253 -0.2142  0.6458
 8521SOL    HW237197   0.592   4.327   3.949 -0.0733 -1.3197  1.8691
 8522SOL     OW37198   1.405   1.249   4.486 -0.2324  0.3716  0.1684
 8522SOL    HW137199   1.388   1.341   4.505 -1.6242  0.2420 -0.4815
 8522SOL    HW237200   1.420   1.245   4.392  0.2389 -3.1622  0.4119
 8523SOL     OW37201   0.262   1.640   0.765 -0.4876 -0.3362  0.4567
 8523SOL    HW137202   0.346   1.636   0.811  0.2566  1.4447 -0.7298
 8523SOL    HW237203   0.276   1.561   0.713 -0.6179  0.3805 -0.6740
 8524SOL     OW37204   1.214   2.185   8.695  0.3815  0.1056  0.0153
 8524SOL    HW137205   1.305   2.197   8.670  1.0492  0.2320  2.4459
 8524SOL    HW237206   1.219   2.172   8.790  2.2233  2.0165  0.1651
 8525SOL     OW37207   1.496   4.000  17.033 -0.4890  0.1751 -0.0799
 8525SOL    HW137208   1.505   3.982  17.127  0.9411  2.6305  0.2390
 8525SOL    HW237209   1.585   4.005  16.998 -0.4150 -0.6228 -0.0210
 8526SOL     OW37210   2.237   3.830   1.483 -0.0047  0.8663  0.4340
 8526SOL    HW137211   2.247   3.763   1.416 -1.3484 -0.2189  1.3105
 8526SOL    HW237212   2.246   3.775   1.561  0.2357  0.9999  0.5034
 8527SOL     OW37213   1.893   1.114   2.155  0.4545 -0.3133 -0.3386
 8527SOL    HW137214   1.947   1.141   2.230  0.7965 -0.6560 -0.4612
 8527SOL    HW237215   1.960   1.126   2.088 -0.2398  0.7657 -0.8459
 8528SOL     OW37216   0.910   2.034   8.229 -0.5509 -0.7172 -0.6462
 8528SOL    HW137217   0.960   2.082   8.295 -3.0499  1.2604 -0.1543
 8528SOL    HW237218   0.957   2.061   8.150  1.3643 -0.4525  0.5877
 8529SOL     OW37219   4.174   2.970  11.845 -0.0173 -0.2881 -0.0767
 8529SOL    HW137220   4.134   2.978  11.932 -1.0500 -1.2748 -0.4624
 8529SOL    HW237221   4.240   3.040  11.845  0.3712 -0.6653  2.3679
 8530SOL     OW37222   2.874   4.665   7.830 -0.3117 -0.2356 -0.4687
 8530SOL    HW137223   2.792   4.672   7.781  0.1734  0.0480 -1.2345
 8530SOL    HW237224   2.839   4.609   7.900  2.7154 -0.6362  0.7225
 8531SOL     OW37225   3.486   3.943   4.565 -0.2697 -0.1530  0.4093
 8531SOL    HW137226   3.462   3.868   4.619  1.6875 -0.4894  0.8165
 8531SOL    HW237227   3.479   4.009   4.634 -1.2137  0.0711  0.1010
 8532SOL     OW37228   2.342   1.494  17.395 -0.0221 -0.0502  0.4162
 8532SOL    HW137229   2.339   1.483  17.299  1.9342 -1.9795  0.5655
 8532SOL    HW237230   2.273   1.437  17.427 -0.0345 -0.0760  0.3443
 8533SOL     OW37231   1.188   2.089  13.465  0.4743 -0.4432  0.1441
 8533SOL    HW137232   1.265   2.047  13.428 -1.2548  0.1844 -4.2281
 8533SOL    HW237233   1.185   2.045  13.550 -1.7001  1.9368  1.2837
 8534SOL     OW37234   1.214   3.092  17.436 -0.1861 -0.3340  0.2556
 8534SOL    HW137235   1.223   3.109  17.530  0.9238  0.2098  0.0536
 8534SOL    HW237236   1.119   3.081  17.430 -0.1430  0.3851 -1.7926
 8535SOL     OW37237   2.130   3.247  16.234 -0.3142 -0.1650  0.2718
 8535SOL    HW137238   2.148   3.336  16.206  0.0116 -0.5602 -0.7671
 8535SOL    HW237239   2.063   3.250  16.302  0.6491 -2.1967  1.2991
 8536SOL     OW37240   3.612   1.912   8.871 -0.1386 -0.6139  0.6337
 8536SOL    HW137241   3.681   1.849   8.890  0.0730 -0.6635 -0.2925
 8536SOL    HW237242   3.557   1.904   8.949  0.4932 -0.3673  1.1004
 8537SOL     OW37243   0.692   1.407   8.497  0.5584  0.0504  0.0277
 8537SOL    HW137244   0.657   1.407   8.408  0.1700  0.5636  0.1831
 8537SOL    HW237245   0.787   1.411   8.482  0.1465  1.7443 -2.1199
 8538SOL     OW37246   0.962   3.534   7.538 -0.4209 -0.0888  0.0125
 8538SOL    HW137247   0.951   3.439   7.546 -0.3027 -0.2502 -1.6683
 8538SOL    HW237248   1.047   3.552   7.497 -0.0350 -0.0783  0.8160
 8539SOL     OW37249   2.936   2.286  14.919  0.0654 -0.5891  0.5344
 8539SOL    HW137250   2.998   2.315  14.986  1.2287 -1.0384 -0.3352
 8539SOL    HW237251   2.914   2.367  14.873  2.9369  0.2556  0.6551
 8540SOL     OW37252   0.407   0.115   1.068 -0.0605 -0.2921 -0.2826
 8540SOL    HW137253   0.486   0.142   1.022 -0.2837  0.0636 -0.4568
 8540SOL    HW237254   0.449   0.031   1.084  0.1745  0.0222  0.8074
 8541SOL     OW37255   0.846   1.749   1.679  0.1793  0.5432  0.3617
 8541SOL    HW137256   0.804   1.691   1.742 -1.3116 -0.1597 -1.2841
 8541SOL    HW237257   0.928   1.704   1.659 -0.0564  0.4467 -0.3663
 8542SOL     OW37258   2.586   4.656   8.053 -0.1418  0.5967 -0.2137
 8542SOL    HW137259   2.618   0.009   8.046  0.8866  0.2317 -0.2181
 8542SOL    HW237260   2.659   4.610   8.094 -0.7402 -0.3451 -0.2152
 8543SOL     OW37261   3.285   0.467  14.436 -0.1880  0.0134 -0.0843
 8543SOL    HW137262   3.315   0.391  14.485 -0.6816 -1.8837 -2.7461
 8543SOL    HW237263   3.363   0.521  14.424  1.1668 -2.2123 -1.2043
 8544SOL     OW37264   2.446   0.003  14.947  0.5421  0.2145 -0.1255
 8544SOL    HW137265   2.365   0.051  14.967  0.0358 -0.0350 -1.6119
 8544SOL    HW237266   2.513   0.072  14.949  2.8104 -1.9862 -0.1394
 8545SOL     OW37267   1.135   4.075   5.035 -1.0364  0.4909  0.1281
 8545SOL    HW137268   1.059   4.100   4.982 -1.8069  3.0786  2.4959
 8545SOL    HW237269   1.107   3.992   5.072 -0.8693  1.1487  1.7178
 8546SOL     OW37270   0.437   0.392   7.845  0.0460  0.4733 -0.2271
 8546SOL    HW137271   0.430   0.398   7.749 -0.0759 -0.3622 -0.2767
 8546SOL    HW237272   0.415   0.299   7.842  1.3219  0.1431  0.7725
 8547SOL     OW37273   2.594   3.669   3.048 -0.2171 -0.1912  0.5661
 8547SOL    HW137274   2.590   3.655   2.954  4.2990  1.2941  0.1501
 8547SOL    HW237275   2.663   3.735   3.050  2.3845 -2.8983  1.2680
 8548SOL     OW37276   3.923   1.398   9.056 -0.1695  0.0578  0.2942
 8548SOL    HW137277   3.938   1.383   8.962  0.5188 -0.6380  0.5161
 8548SOL    HW237278   3.833   1.429   9.047 -0.7365 -1.7242 -0.2528
 8549SOL     OW37279   4.339   0.468  16.255 -0.2384 -0.5614  0.0689
 8549SOL    HW137280   4.278   0.493  16.325  0.1110 -1.9679  0.8719
 8549SOL    HW237281   4.419   0.510  16.286 -0.0321  1.0004 -2.5299
 8550SOL     OW37282   2.876   4.511   9.379  0.0567  0.0347  0.0556
 8550SOL    HW137283   2.882   4.561   9.460 -0.2037 -0.4679  0.3842
 8550SOL    HW237284   2.850   4.584   9.322 -0.7106  2.0967  3.0953
 8551SOL     OW37285   4.395   3.576   7.426 -0.3022 -0.0046  0.1007
 8551SOL    HW137286   4.367   3.655   7.380  1.1260  0.6153  0.3069
 8551SOL    HW237287   4.385   3.512   7.356 -0.1784  1.9397 -1.6874
 8552SOL     OW37288   3.075   1.463   5.200 -0.1680 -0.1703 -0.3670
 8552SOL    HW137289   3.003   1.491   5.143  1.2245  2.1616 -1.0155
 8552SOL    HW237290   3.084   1.529   5.269  0.5389 -0.1948 -0.4374
 8553SOL     OW37291   1.910   3.791   6.671  0.4267  1.0569  0.1131
 8553SOL    HW137292   1.883   3.869   6.719 -0.8525  0.6427  0.0521
 8553SOL    HW237293   1.828   3.777   6.625 -0.9760 -0.2863  3.0643
 8554SOL     OW37294   1.338   2.153   5.725  0.4872  0.3880  0.1032
 8554SOL    HW137295   1.398   2.144   5.799  2.5114 -1.4911 -1.7659
 8554SOL    HW237296   1.262   2.188   5.772  1.5229  1.3457  1.0642
 8555SOL     OW37297   0.099   3.727   2.693  0.5312  0.4706 -0.4657
 8555SOL    HW137298   0.014   3.771   2.688 -0.4981 -1.3972  0.8621
 8555SOL    HW237299   0.140   3.789   2.753  1.5503 -0.2517 -0.4219
 8556SOL     OW37300   0.851   2.769   1.746  0.3043  0.2793 -0.4556
 8556SOL    HW137301   0.859   2.721   1.663 -1.4917 -0.3324 -0.2762
 8556SOL    HW237302   0.854   2.856   1.707 -0.9582  0.7290  0.4874
 8557SOL     OW37303   1.793   0.720  11.501 -0.5415  0.1233  0.5816
 8557SOL    HW137304   1.823   0.638  11.462 -1.6988  0.3875 -0.8543
 8557SOL    HW237305   1.725   0.685  11.560  0.5463 -4.5408 -0.9341
 8558SOL     OW37306   4.514   2.306   4.659 -0.0472  0.3961 -0.3719
 8558SOL    HW137307   4.534   2.241   4.592 -0.7927 -0.9836  0.7623
 8558SOL    HW237308   4.434   2.276   4.702 -0.9530  0.1570 -2.2053
 8559SOL     OW37309   2.281   0.019   5.837 -0.0962  0.2956  0.1176
 8559SOL    HW137310   2.305   4.679   5.887 -1.2335  0.5804  1.1041
 8559SOL    HW237311   2.365   0.064   5.834 -0.3895  0.9600  1.8689
 8560SOL     OW37312   0.299   1.537  16.253 -0.1578  0.8035  0.0095
 8560SOL    HW137313   0.209   1.529  16.221 -0.6701  1.1845  1.3738
 8560SOL    HW237314   0.350   1.589  16.191  1.0750 -0.5114 -0.0586
 8561SOL     OW37315   3.750   0.687   1.762  0.3579  0.1247 -0.1694
 8561SOL    HW137316   3.695   0.623   1.808 -1.0743  0.7471 -1.0060
 8561SOL    HW237317   3.696   0.765   1.750  0.3871  0.2763  0.7353
 8562SOL     OW37318   1.236   3.506   4.139 -0.0724  0.3706 -0.0817
 8562SOL    HW137319   1.145   3.534   4.132 -0.2265 -0.2609 -0.5731
 8562SOL    HW237320   1.223   3.427   4.191  1.9974 -0.6921 -1.1778
 8563SOL     OW37321   0.557   3.458   9.674  0.1199 -0.0571  0.1340
 8563SOL    HW137322   0.479   3.413   9.705 -1.4445  1.8355 -1.0355
 8563SOL    HW237323   0.514   3.523   9.619  2.2221  2.6879  1.7081
 8564SOL     OW37324   1.096   3.352  13.140 -0.0065  0.5822  0.0446
 8564SOL    HW137325   1.117   3.353  13.233  0.6339  1.5717 -0.1070
 8564SOL    HW237326   1.143   3.282  13.094  1.5368  0.3618  1.9796
 8565SOL     OW37327   4.512   4.267   4.556 -0.0666  0.5897  0.4249
 8565SOL    HW137328   4.505   4.313   4.640  0.2481  1.5034 -0.0474
 8565SOL    HW237329   4.449   4.198   4.576  0.2111 -0.1714 -1.3902
 8566SOL     OW37330   3.008   0.849  14.373  0.0953 -0.0091 -0.2188
 8566SOL    HW137331   3.077   0.819  14.431 -2.1023  2.2516  3.5533
 8566SOL    HW237332   2.929   0.815  14.416  0.5863 -0.4178  0.3507
 8567SOL     OW37333   1.853   1.027   9.747  0.5461  0.2195 -0.1161
 8567SOL    HW137334   1.882   0.943   9.713  1.9243  0.9867 -0.8232
 8567SOL    HW237335   1.818   1.013   9.836  3.1068 -1.9629  0.5466
 8568SOL     OW37336   1.927   1.721   2.201 -0.1100 -0.1086  0.3686
 8568SOL    HW137337   1.972   1.708   2.118 -1.0443 -3.0025  0.2937
 8568SOL    HW237338   1.934   1.816   2.192  2.9651 -0.2898  0.8787
 8569SOL     OW37339   3.980   1.969  16.477  0.4248  0.0573 -0.7246
 8569SOL    HW137340   3.915   2.038  16.460 -0.5808 -0.4865  0.9704
 8569SOL    HW237341   3.924   1.898  16.508  2.7221 -1.3806  0.0781
 8570SOL     OW37342   4.722   1.059   6.417 -0.2034  0.1799  0.7022
 8570SOL    HW137343   4.734   1.019   6.330 -0.3942 -2.7709  2.0415
 8570SOL    HW237344   0.058   1.119   6.430 -0.0405 -0.0229  0.7146
 8571SOL     OW37345   1.357   0.228  11.187 -0.0397 -0.0724  0.2291
 8571SOL    HW137346   1.416   0.262  11.254  1.8324 -0.1728 -1.3768
 8571SOL    HW237347   1.429   0.183  11.143 -0.0732 -1.9562  2.1132
 8572SOL     OW37348   1.131   2.397  13.801  0.0698  0.6005  0.6237
 8572SOL    HW137349   1.164   2.435  13.882  1.3069  0.9648 -0.0650
 8572SOL    HW237350   1.140   2.470  13.740 -1.5743 -0.0463 -0.4177
 8573SOL     OW37351   0.057   1.530   4.946 -0.1161  0.3051 -0.8921
 8573SOL    HW137352   0.093   1.566   5.027 -2.8668  1.1602 -0.0416
 8573SOL    HW237353   0.089   1.598   4.887  4.4688 -1.2325 -0.1821
 8574SOL     OW37354   0.007   0.293   4.195 -0.6115 -0.3554 -0.8123
 8574SOL    HW137355   4.688   0.234   4.145 -2.0817  0.3671 -0.0159
 8574SOL    HW237356   0.082   0.282   4.137  0.5149  1.8088  0.2156
 8575SOL     OW37357   2.069   2.702   2.467 -0.3115  0.0986  0.1612
 8575SOL    HW137358   2.055   2.652   2.547 -3.6376  0.3693 -0.2602
 8575SOL    HW237359   2.065   2.631   2.403 -0.1878 -0.0634  0.3322
 8576SOL     OW37360   1.181   2.303   5.089 -0.5349 -0.4264 -0.2947
 8576SOL    HW137361   1.158   2.237   5.023  0.9218  1.3597 -2.6196
 8576SOL    HW237362   1.181   2.377   5.028  1.5458 -0.9512 -0.9305
 8577SOL     OW37363   1.543   1.578   7.907  0.1997 -0.2827  0.5692
 8577SOL    HW137364   1.522   1.501   7.854  0.2407 -1.6342  2.5241
 8577SOL    HW237365   1.629   1.548   7.938 -0.2857 -1.1183  1.0892
 8578SOL     OW37366   0.199   0.853  14.547  0.2490  0.3394 -0.1124
 8578SOL    HW137367   0.273   0.802  14.513  0.7357  0.7491  0.3407
 8578SOL    HW237368   0.119   0.819  14.506 -0.7973  1.1899  1.2472
 8579SOL     OW37369   1.890   4.332   0.687 -0.2398 -0.3450  0.0318
 8579SOL    HW137370   1.899   4.377   0.770  1.4209 -3.5316  1.5947
 8579SOL    HW237371   1.949   4.258   0.704 -0.6984 -1.0084 -1.2642
 8580SOL     OW37372   3.574   0.511   8.579  0.1853  0.3978  0.5627
 8580SOL    HW137373   3.548   0.419   8.567 -0.6435  0.5686  1.1143
 8580SOL    HW237374   3.660   0.492   8.617 -0.7798 -1.8275  1.6375
 8581SOL     OW37375   0.641   3.598   6.449  0.0989 -0.2070  0.4522
 8581SOL    HW137376   0.716   3.652   6.427  0.8611 -2.1664 -1.8153
 8581SOL    HW237377   0.575   3.610   6.381  1.3149 -0.8829 -0.8574
 8582SOL     OW37378   1.525   4.041  17.509  0.2743 -0.2703  0.4322
 8582SOL    HW137379   1.440   3.998  17.509  0.1032  0.0864 -1.6543
 8582SOL    HW237380   1.508   4.095  17.432  2.9066 -0.3889 -0.2346
 8583SOL     OW37381   3.247   3.667   2.519  0.5621 -0.7593 -0.5142
 8583SOL    HW137382   3.162   3.674   2.475 -0.2631 -2.0423  0.8658
 8583SOL    HW237383   3.255   3.757   2.551 -0.8414 -1.0828  0.7170
 8584SOL     OW37384   4.146   4.578   8.372  0.2020 -0.2370 -0.3667
 8584SOL    HW137385   4.158   4.535   8.288  0.4998 -0.9204  0.0268
 8584SOL    HW237386   4.206   4.652   8.379  0.5834 -0.6575  0.8596
 8585SOL     OW37387   4.596   1.200  15.483 -0.5056 -0.0682  0.2296
 8585SOL    HW137388   4.558   1.121  15.522 -0.8113  0.1927  0.4529
 8585SOL    HW237389   4.689   1.177  15.480 -0.5558 -0.5066  1.8388
 8586SOL     OW37390   0.390   1.823  14.845  0.7640 -0.1710  0.2069
 8586SOL    HW137391   0.320   1.843  14.908  1.3129  0.5691  0.5794
 8586SOL    HW237392   0.396   1.729  14.864 -2.3881 -0.2828  0.7213
 8587SOL     OW37393   4.257   4.401   5.137  0.2020 -0.4024  0.0171
 8587SOL    HW137394   4.217   4.409   5.050 -0.7164  1.6995  0.6402
 8587SOL    HW237395   4.332   4.459   5.121 -0.6844  0.1721 -2.0493
 8588SOL     OW37396   2.638   4.232   6.014  0.0023  0.5106  0.0064
 8588SOL    HW137397   2.557   4.191   6.044  0.7956 -0.3521  0.9540
 8588SOL    HW237398   2.633   4.306   6.075  1.5351  1.9794 -1.6308
 8589SOL     OW37399   3.852   4.410   8.525  0.6840 -0.0914  0.1451
 8589SOL    HW137400   3.929   4.377   8.479  0.2147 -0.6237 -0.2616
 8589SOL    HW237401   3.878   4.502   8.533  0.8452 -0.1624  0.4485
 8590SOL     OW37402   3.802   0.278  14.131 -0.1021 -0.3373  0.0987
 8590SOL    HW137403   3.825   0.366  14.101 -1.7536  0.3634  0.8751
 8590SOL    HW237404   3.719   0.302  14.173  0.6432 -0.3466  1.5667
 8591SOL     OW37405   1.340   0.968   6.985  0.2464 -0.4144  0.6199
 8591SOL    HW137406   1.347   0.956   7.079  2.2514 -1.8477  0.2798
 8591SOL    HW237407   1.314   1.061   6.988 -1.1967 -0.7455 -1.1391
 8592SOL     OW37408   3.500   4.644   4.452  0.2995 -0.1281  0.0030
 8592SOL    HW137409   3.573   4.582   4.452 -0.6666 -1.2634  1.2698
 8592SOL    HW237410   3.439   4.613   4.519  0.2522  0.7560  0.3706
 8593SOL     OW37411   2.307   2.086   2.120  0.1185 -0.4385 -0.0477
 8593SOL    HW137412   2.385   2.055   2.073 -0.8702 -1.2012 -1.1994
 8593SOL    HW237413   2.322   2.031   2.197  2.3766  2.3841  1.4999
 8594SOL     OW37414   1.967   2.749  12.216  0.1235 -0.0785  0.0990
 8594SOL    HW137415   1.888   2.764  12.163  0.5117  0.1579 -0.4165
 8594SOL    HW237416   1.968   2.653  12.208  0.8803 -0.0885  0.3844
 8595SOL     OW37417   0.315   4.736   3.658 -0.5609  0.6595  0.6398
 8595SOL    HW137418   0.397   0.047   3.658  0.2490 -0.7389 -0.4873
 8595SOL    HW237419   0.257   0.071   3.633  1.5311  0.7581 -3.8485
 8596SOL     OW37420   0.705   2.382   5.261 -0.1461  0.0509 -0.0842
 8596SOL    HW137421   0.768   2.398   5.190 -0.2408 -0.3589 -0.2584
 8596SOL    HW237422   0.773   2.363   5.325  0.3308  0.2147 -0.5401
 8597SOL     OW37423   3.549   0.375   5.725  0.0080 -0.0087 -0.1156
 8597SOL    HW137424   3.483   0.434   5.761 -0.8540 -1.1664  0.1939
 8597SOL    HW237425   3.625   0.422   5.761  0.7900 -0.6098 -0.9809
 8598SOL     OW37426   2.192   3.347   2.400  0.1062  0.3735 -0.3225
 8598SOL    HW137427   2.106   3.312   2.421  0.2681  3.0181  4.7893
 8598SOL    HW237428   2.199   3.301   2.316  1.2663 -0.1284  0.0579
 8599SOL     OW37429   3.909   0.179   9.081 -0.8850 -0.6024  0.4760
 8599SOL    HW137430   3.926   0.111   9.146 -1.7430 -0.2482  1.0654
 8599SOL    HW237431   3.986   0.236   9.085 -1.4199  0.1894 -0.5375
 8600SOL     OW37432   2.453   1.629   9.469  0.1752 -0.0035 -0.2250
 8600SOL    HW137433   2.432   1.541   9.501 -0.0458  0.2807  0.4033
 8600SOL    HW237434   2.365   1.632   9.431  0.4348 -2.8032 -1.0574
 8601SOL     OW37435   1.426   2.658   3.489  0.3732 -0.3538 -0.1550
 8601SOL    HW137436   1.375   2.638   3.568  1.6760  1.1505  1.0496
 8601SOL    HW237437   1.499   2.698   3.535 -0.2469  3.6729 -2.6907
 8602SOL     OW37438   2.450   0.172   4.886 -0.1346 -0.0080  0.0007
 8602SOL    HW137439   2.386   0.138   4.823  1.7733  1.6228 -2.8557
 8602SOL    HW237440   2.428   0.128   4.968 -1.7215  3.1378  1.2432
 8603SOL     OW37441   0.449   1.767   4.665  0.9452 -0.1140 -0.0240
 8603SOL    HW137442   0.463   1.678   4.698  2.2331 -0.1609 -0.7208
 8603SOL    HW237443   0.467   1.810   4.749 -1.4456  0.8368  0.0196
 8604SOL     OW37444   1.947   4.263   4.948 -0.4074 -0.3203 -0.3715
 8604SOL    HW137445   1.977   4.313   5.023  1.6128 -1.1550 -0.6307
 8604SOL    HW237446   1.950   4.320   4.871  0.4363 -0.8256 -0.7170
 8605SOL     OW37447   0.253   3.492  13.284 -0.1017 -0.3641  0.4541
 8605SOL    HW137448   0.322   3.425  13.283 -0.2740 -0.5577  2.2353
 8605SOL    HW237449   0.250   3.526  13.194  2.0747 -2.4253 -0.4055
 8606SOL     OW37450   0.116   1.653   8.333  0.9599 -0.2260 -0.0898
 8606SOL    HW137451   0.172   1.681   8.406 -0.1237  0.2770  0.5543
 8606SOL    HW237452   0.107   1.734   8.283 -1.7347 -0.9942 -0.7974
 8607SOL     OW37453   2.671   1.018   7.517 -0.3279 -0.5101  0.7453
 8607SOL    HW137454   2.618   0.950   7.476  1.4195 -1.1020 -0.5209
 8607SOL    HW237455   2.698   1.073   7.444 -0.6329 -0.7036  0.4903
 8608SOL     OW37456   3.427   0.191   7.195  0.0779  0.6823  0.0591
 8608SOL    HW137457   3.502   0.238   7.232 -1.4423  1.7060  1.8302
 8608SOL    HW237458   3.431   0.234   7.110  4.0771 -0.2662 -0.2325
 8609SOL     OW37459   1.890   0.059   7.020  0.2537  0.2896  0.0209
 8609SOL    HW137460   1.955   4.727   7.005  1.0555  0.9041  0.6152
 8609SOL    HW237461   1.813   0.002   7.012  1.9472 -1.9388 -0.5548
 8610SOL     OW37462   3.449   1.569   6.082  0.0983 -0.1788  0.7100
 8610SOL    HW137463   3.376   1.525   6.126  0.1726 -0.9115  0.1039
 8610SOL    HW237464   3.488   1.626   6.148  0.7642  1.6359 -1.2683
 8611SOL     OW37465   0.113   0.729   2.971 -0.0486  0.2729  0.2192
 8611SOL    HW137466   0.112   0.701   2.879  2.5511  0.9341 -0.0166
 8611SOL    HW237467   0.046   0.797   2.964 -0.2336  0.2393  1.7947
 8612SOL     OW37468   3.159   1.315   3.319  0.3178 -0.0195 -0.5452
 8612SOL    HW137469   3.103   1.381   3.278 -0.9030  1.3319  3.2394
 8612SOL    HW237470   3.106   1.284   3.393  0.1384  2.8802  0.5347
 8613SOL     OW37471   2.711   1.105   5.560 -0.5418 -0.2971  0.8287
 8613SOL    HW137472   2.805   1.120   5.571 -0.1007 -1.4842 -1.2963
 8613SOL    HW237473   2.710   1.075   5.469  1.2960 -0.8620  0.9843
 8614SOL     OW37474   0.818   4.556   6.708  0.1607 -0.0517 -0.2127
 8614SOL    HW137475   0.886   4.501   6.746 -1.3737 -1.5763  0.3214
 8614SOL    HW237476   0.860   4.589   6.628  0.8355 -1.4128 -0.4204
 8615SOL     OW37477   4.062   0.425   5.881  0.2986  0.3578  0.1866
 8615SOL    HW137478   4.099   0.512   5.867 -0.2025  1.0553  3.2389
 8615SOL    HW237479   4.091   0.395   5.968  0.6007  0.8421  0.2516
 8616SOL     OW37480   1.362   4.145   8.506  0.0916 -0.7644  0.4135
 8616SOL    HW137481   1.386   4.129   8.597  0.3280 -0.4712  0.4004
 8616SOL    HW237482   1.405   4.227   8.484  0.4474 -0.2945  2.9352
 8617SOL     OW37483   2.933   3.369   0.484  0.1333 -0.1011 -0.3504
 8617SOL    HW137484   3.014   3.382   0.435 -0.4373 -1.6827 -1.7316
 8617SOL    HW237485   2.949   3.277   0.506 -0.2840  0.4042  2.0787
 8618SOL     OW37486   2.616   2.487  11.931 -0.1415  0.6972  0.1605
 8618SOL    HW137487   2.711   2.494  11.920  0.4172 -1.4863  3.6294
 8618SOL    HW237488   2.581   2.575  11.915 -0.1100  0.6139 -0.3630
 8619SOL     OW37489   1.538   1.202  11.103  0.1568 -0.1194  0.8271
 8619SOL    HW137490   1.446   1.217  11.082  0.3571  0.2222  0.2105
 8619SOL    HW237491   1.562   1.287  11.141  0.2368  0.9514 -1.6418
 8620SOL     OW37492   2.052   3.776   9.121 -0.3074 -0.3588  0.7110
 8620SOL    HW137493   2.085   3.730   9.199  0.9169 -0.2537  0.2488
 8620SOL    HW237494   2.122   3.758   9.058 -1.0041  0.8057 -0.3806
 8621SOL     OW37495   1.494   3.153  10.386  0.0607 -0.4613  0.2147
 8621SOL    HW137496   1.452   3.106  10.457 -0.3142 -1.2171 -0.5111
 8621SOL    HW237497   1.484   3.087  10.318  0.4909  0.2286 -0.5328
 8622SOL     OW37498   0.118   4.387   9.290  0.3333  0.6279  0.0641
 8622SOL    HW137499   0.129   4.384   9.385  1.2154  1.9186  0.0046
 8622SOL    HW237500   0.187   4.328   9.260 -0.1197  0.2400 -0.2214
 8623SOL     OW37501   2.885   2.816   7.018 -0.2279  0.2900  0.0869
 8623SOL    HW137502   2.927   2.752   7.075 -0.4595  0.9702  1.0231
 8623SOL    HW237503   2.958   2.858   6.972 -0.7157  1.8867  0.7808
 8624SOL     OW37504   4.629   2.215   9.927  0.1585 -0.5371 -0.0200
 8624SOL    HW137505   4.546   2.172   9.947 -0.4332  1.3213  1.5023
 8624SOL    HW237506   4.658   2.200  10.017 -2.0484  0.3220  0.8273
 8625SOL     OW37507   1.910   0.134   3.317 -0.7673  0.2842  0.6625
 8625SOL    HW137508   1.968   0.106   3.246 -0.1220  0.6640  1.0493
 8625SOL    HW237509   1.962   0.207   3.350 -0.7174 -0.0085  1.2255
 8626SOL     OW37510   3.655   1.911   2.362 -0.1946  0.1752  0.4270
 8626SOL    HW137511   3.574   1.904   2.412  0.0396  2.1782  1.0599
 8626SOL    HW237512   3.616   1.914   2.275  1.5901  0.2415 -0.3783
 8627SOL     OW37513   4.473   2.011   9.997  0.2320  0.0633  0.4016
 8627SOL    HW137514   4.534   1.941  10.019  1.5594  1.5073  1.3449
 8627SOL    HW237515   4.392   1.961  10.003 -0.7230  1.9762  3.8709
 8628SOL     OW37516   2.813   0.978  13.495 -0.4833  0.4076 -0.0722
 8628SOL    HW137517   2.869   1.048  13.529 -1.6369  1.4317 -0.2733
 8628SOL    HW237518   2.764   0.956  13.574  0.2864  0.3623  0.3977
 8629SOL     OW37519   3.374   3.390   2.834  0.0647 -0.6232  1.0076
 8629SOL    HW137520   3.364   3.473   2.788  0.5295  0.2265  2.4271
 8629SOL    HW237521   3.393   3.330   2.762  0.6641  1.3998 -0.4868
 8630SOL     OW37522   3.532   2.162  12.452 -0.8693  0.1350 -0.2357
 8630SOL    HW137523   3.500   2.073  12.437 -1.0179 -0.0301  1.1036
 8630SOL    HW237524   3.604   2.148  12.513 -1.6799  1.5149  1.0021
 8631SOL     OW37525   3.576   0.790   4.650 -0.2918  0.7453 -0.4381
 8631SOL    HW137526   3.490   0.790   4.693  0.4978  1.4838  1.1502
 8631SOL    HW237527   3.616   0.715   4.694 -2.5185 -1.5901 -2.4223
 8632SOL     OW37528   2.484   2.937   7.666  0.3841 -0.3264  0.5730
 8632SOL    HW137529   2.525   2.853   7.689  0.8613 -0.2084  0.1415
 8632SOL    HW237530   2.412   2.909   7.610  0.0556  0.1912  0.7387
 8633SOL     OW37531   1.993   1.683  13.120 -0.3188 -0.1907  0.2370
 8633SOL    HW137532   2.077   1.645  13.148  0.0087  0.2984 -0.0783
 8633SOL    HW237533   1.961   1.624  13.051 -1.6802 -0.0690  0.7812
 8634SOL     OW37534   2.471   4.610  11.303 -0.1051 -0.4715 -0.2434
 8634SOL    HW137535   2.519   4.648  11.376 -1.4096  1.2589 -0.2934
 8634SOL    HW237536   2.545   4.583  11.249 -2.0036 -1.2499 -2.4972
 8635SOL     OW37537   1.017   0.697   5.479 -0.2428  0.4402  0.0232
 8635SOL    HW137538   1.006   0.605   5.453 -1.3869 -0.1811  2.6362
 8635SOL    HW237539   1.008   0.727   5.389 -1.4900 -0.3461 -0.1203
 8636SOL     OW37540   0.646   4.071   7.037 -0.1562 -0.3602 -0.4394
 8636SOL    HW137541   0.688   3.993   7.000  0.8329  0.6846 -1.5060
 8636SOL    HW237542   0.660   4.083   7.131  0.2306 -0.5096 -0.4796
 8637SOL     OW37543   2.422   0.342   5.484 -0.2731 -0.3655 -0.3120
 8637SOL    HW137544   2.454   0.329   5.395 -2.8082  1.3591 -1.4806
 8637SOL    HW237545   2.329   0.323   5.469 -0.6348  1.0958  0.1289
 8638SOL     OW37546   0.645   1.011   2.769  0.2661  0.3285  0.7440
 8638SOL    HW137547   0.652   1.056   2.854  1.4301 -0.5305  1.0984
 8638SOL    HW237548   0.592   1.081   2.731 -0.7348 -0.7194  0.2111
 8639SOL     OW37549   2.433   1.941   8.170  0.6654 -0.9997 -0.5308
 8639SOL    HW137550   2.459   2.003   8.238 -0.6580 -0.7789 -0.2155
 8639SOL    HW237551   2.341   1.964   8.153  1.2448  2.4180  0.9739
 8640SOL     OW37552   1.174   3.055   7.739  0.3710 -0.7287 -0.5761
 8640SOL    HW137553   1.180   2.960   7.749  2.3769 -0.1328  3.7206
 8640SOL    HW237554   1.097   3.062   7.795  1.1082  1.1538  0.1776
 8641SOL     OW37555   3.675   2.844   5.742  0.0938 -0.6709 -0.1410
 8641SOL    HW137556   3.655   2.816   5.653  0.2898  1.9323 -0.9885
 8641SOL    HW237557   3.702   2.934   5.725  1.7211 -1.1498 -0.1116
 8642SOL     OW37558   3.816   3.218   9.252 -0.0683  0.6003  0.1673
 8642SOL    HW137559   3.878   3.268   9.305  0.5027 -0.9942  0.9986
 8642SOL    HW237560   3.883   3.154   9.229  0.3386  0.7683  0.8450
 8643SOL     OW37561   1.525   1.411   4.871 -0.0090 -0.4155 -0.7971
 8643SOL    HW137562   1.569   1.399   4.787 -0.1008  0.5717 -0.9774
 8643SOL    HW237563   1.447   1.462   4.848 -2.3710 -1.9773  3.5552
 8644SOL     OW37564   4.467   0.173   2.903 -0.3068  0.7391  0.2683
 8644SOL    HW137565   4.439   0.141   2.989 -0.5383  0.0180 -0.0770
 8644SOL    HW237566   4.485   0.267   2.913  1.2588  0.4478  0.3108
 8645SOL     OW37567   2.117   1.562  10.046 -0.2523 -0.6497  0.2117
 8645SOL    HW137568   2.126   1.517   9.962 -0.8807 -0.1100 -0.1453
 8645SOL    HW237569   2.167   1.501  10.100 -2.5021 -2.1459  0.6192
 8646SOL     OW37570   3.360   4.721   3.297 -0.0852 -0.2124  0.0592
 8646SOL    HW137571   3.388   4.629   3.300 -2.0174 -0.8351 -0.8143
 8646SOL    HW237572   3.443   0.029   3.281 -0.5078  0.8129  0.8014
 8647SOL     OW37573   3.805   2.683   7.027 -0.0192 -0.7303 -0.3534
 8647SOL    HW137574   3.866   2.615   7.055 -1.0379 -0.4974  2.4380
 8647SOL    HW237575   3.811   2.665   6.933 -2.5686  1.1153 -0.8781
 8648SOL     OW37576   4.501   1.166  12.342 -0.0957  0.1568  0.0157
 8648SOL    HW137577   4.577   1.109  12.345  1.0748  1.5591 -2.5017
 8648SOL    HW237578   4.537   1.255  12.347 -2.0911  1.0341 -0.7092
 8649SOL     OW37579   0.076   2.781   5.687  0.5006  0.1784 -0.6724
 8649SOL    HW137580   0.101   2.758   5.777 -2.9745 -2.2195 -0.3127
 8649SOL    HW237581   0.081   2.700   5.636 -0.4153 -0.5041  0.3282
 8650SOL     OW37582   2.571   2.055   0.153 -0.0974 -0.0396  0.2164
 8650SOL    HW137583   2.511   1.981   0.150  0.4275 -0.4773  0.7360
 8650SOL    HW237584   2.623   2.042   0.232 -0.5304 -0.4558  0.4374
 8651SOL     OW37585   0.479   1.468  16.473  0.3895 -0.3296  0.3736
 8651SOL    HW137586   0.430   1.478  16.391 -0.8300 -1.2990  0.9750
 8651SOL    HW237587   0.484   1.559  16.503 -0.2722  0.1748 -1.0624
 8652SOL     OW37588   2.807   4.345   7.676 -0.2840 -0.2680 -0.2304
 8652SOL    HW137589   2.717   4.370   7.700  0.1280 -0.5569  1.5996
 8652SOL    HW237590   2.780   4.301   7.595 -0.5292 -2.7104  1.1913
 8653SOL     OW37591   2.719   1.658   4.278  0.6078 -0.0987 -0.6311
 8653SOL    HW137592   2.663   1.680   4.352  0.5557  1.4607 -1.1342
 8653SOL    HW237593   2.727   1.563   4.289 -0.9211 -0.1227  0.1834
 8654SOL     OW37594   4.727   3.436  16.694  0.2563 -0.9165 -0.0438
 8654SOL    HW137595   4.635   3.463  16.698 -0.1417 -2.2390 -0.3416
 8654SOL    HW237596   0.030   3.501  16.635 -0.6007 -1.9226 -1.7246
 8655SOL     OW37597   3.716   0.994   3.185  0.2658 -0.2195  0.4158
 8655SOL    HW137598   3.805   1.017   3.210  0.0505  0.5555  0.4705
 8655SOL    HW237599   3.723   0.909   3.141  1.0815 -0.1489  0.4102
 8656SOL     OW37600   4.276   0.793   6.324  0.6797 -0.6942 -0.3498
 8656SOL    HW137601   4.369   0.812   6.338  0.4604  1.6049 -2.0108
 8656SOL    HW237602   4.257   0.708   6.364  0.4568 -0.6413 -0.3438
 8657SOL     OW37603   2.874   2.707  13.079 -0.1398 -0.4236 -0.3049
 8657SOL    HW137604   2.965   2.683  13.099 -0.3696 -0.4371  0.7340
 8657SOL    HW237605   2.884   2.783  13.021  1.5100 -0.2001  0.2583
 8658SOL     OW37606   3.281   0.787  15.440  0.1658  0.3314  0.4109
 8658SOL    HW137607   3.292   0.814  15.531 -0.2677  0.0275  0.5518
 8658SOL    HW237608   3.252   0.870  15.401  1.5437  0.0547 -1.2234
 8659SOL     OW37609   2.971   1.187   7.531 -0.1787  0.2670 -0.2467
 8659SOL    HW137610   3.046   1.244   7.522 -1.0541  1.4719  0.0855
 8659SOL    HW237611   2.910   1.258   7.548 -0.8935 -0.8488  1.8799
 8660SOL     OW37612   4.333   1.096   9.200 -0.1990 -0.1846 -0.4352
 8660SOL    HW137613   4.405   1.123   9.143 -0.3849 -0.5359 -0.8410
 8660SOL    HW237614   4.376   1.095   9.285  0.3072  0.1934 -0.6885
 8661SOL     OW37615   3.755   3.920   0.676 -0.0872 -0.0139  0.0616
 8661SOL    HW137616   3.822   3.910   0.609 -0.4939  1.8936 -0.6215
 8661SOL    HW237617   3.690   3.963   0.621  0.3831 -0.9712 -1.2267
 8662SOL     OW37618   0.752   0.362  16.676  0.3497 -1.1535 -0.7506
 8662SOL    HW137619   0.835   0.393  16.639  0.0135 -1.4035 -1.7121
 8662SOL    HW237620   0.780   0.272  16.696  1.1111 -0.8645 -0.4827
 8663SOL     OW37621   2.439   1.079   9.957  0.2465  0.0257  0.0886
 8663SOL    HW137622   2.483   1.102  10.039  0.1910  1.4070 -0.2721
 8663SOL    HW237623   2.350   1.112   9.968 -0.6585 -2.5001  0.3490
 8664SOL     OW37624   0.405   0.590   6.941  0.2503 -0.3130 -0.3073
 8664SOL    HW137625   0.406   0.686   6.932 -0.3648 -0.4013 -1.3036
 8664SOL    HW237626   0.497   0.573   6.963 -0.5097 -0.0199  3.0354
 8665SOL     OW37627   4.575   3.827  13.707  0.4743  0.3649 -0.6940
 8665SOL    HW137628   4.647   3.888  13.718  1.7183 -0.9651 -1.5657
 8665SOL    HW237629   4.602   3.760  13.644 -0.3483  0.1813 -0.8525
 8666SOL     OW37630   2.755   3.089  11.060 -0.5214 -0.4891  0.2030
 8666SOL    HW137631   2.712   3.012  11.022 -0.6509  0.4489 -1.5802
 8666SOL    HW237632   2.691   3.157  11.041  1.7834  1.0562 -2.0791
 8667SOL     OW37633   1.852   0.492   7.470 -0.1632 -0.3272  0.1293
 8667SOL    HW137634   1.929   0.450   7.509  0.7547 -0.0689 -1.4125
 8667SOL    HW237635   1.808   0.526   7.548 -2.5250 -2.1477 -0.3899
 8668SOL     OW37636   1.225   1.430  12.992  0.3589  0.8421 -0.6478
 8668SOL    HW137637   1.309   1.436  13.038  0.5479  0.1700 -0.9056
 8668SOL    HW237638   1.212   1.335  12.985  3.1500  0.4850 -0.9160
 8669SOL     OW37639   3.266   2.665   1.034  0.7218 -0.9227 -0.0563
 8669SOL    HW137640   3.217   2.687   1.113 -0.1976 -3.0033 -0.0644
 8669SOL    HW237641   3.284   2.751   0.996 -1.2817 -1.1761 -1.6020
 8670SOL     OW37642   1.906   4.233   6.223 -0.0925 -0.8497 -0.2435
 8670SOL    HW137643   1.841   4.284   6.271  0.8034  0.4456 -0.4156
 8670SOL    HW237644   1.976   4.224   6.287  1.3309  1.6099 -1.4511
 8671SOL     OW37645   0.788   2.265   2.644  0.7594 -0.0585 -0.0730
 8671SOL    HW137646   0.764   2.204   2.574  1.0432 -0.0094 -0.2158
 8671SOL    HW237647   0.845   2.330   2.601 -1.6045  2.7522  1.0341
 8672SOL     OW37648   0.020   1.057   5.143  0.8088  0.5867  0.8353
 8672SOL    HW137649   0.000   0.976   5.191 -1.9523  1.4972  1.2355
 8672SOL    HW237650   4.680   1.108   5.165  0.7214  1.3247 -1.1806
 8673SOL     OW37651   1.639   2.912   7.886 -0.1854  0.1599  0.2554
 8673SOL    HW137652   1.652   2.876   7.798  0.9549  1.0961  0.0478
 8673SOL    HW237653   1.569   2.974   7.865  0.0800  1.2866  2.7309
 8674SOL     OW37654   0.016   1.580  14.981 -0.0948 -0.1817 -0.3119
 8674SOL    HW137655   4.683   1.519  14.961 -0.9011  0.0775  1.6852
 8674SOL    HW237656   0.092   1.525  14.999  1.8386  2.5214 -0.0756
 8675SOL     OW37657   0.866   2.625   2.219  0.0994 -0.1320 -0.1119
 8675SOL    HW137658   0.923   2.632   2.143 -0.9195 -0.9985 -0.9559
 8675SOL    HW237659   0.832   2.538   2.196  1.0448 -0.8331  1.1485
 8676SOL     OW37660   1.925   1.972  15.603 -0.5992 -0.4372 -0.0988
 8676SOL    HW137661   1.992   1.950  15.539  0.2377 -0.7302  0.8888
 8676SOL    HW237662   1.860   1.908  15.574 -0.2081 -0.8485 -0.0605
 8677SOL     OW37663   4.707   1.755   1.744  0.5072  0.1684  0.2173
 8677SOL    HW137664   4.613   1.771   1.756  0.5363 -0.3014  1.1229
 8677SOL    HW237665   4.708   1.662   1.722 -0.9534  0.0517  0.6051
 8678SOL     OW37666   1.353   1.050   2.596  0.4468  0.4436  0.0568
 8678SOL    HW137667   1.342   1.132   2.547 -0.4630 -0.2601 -0.9092
 8678SOL    HW237668   1.386   1.083   2.680  1.0240 -1.1059  0.4279
 8679SOL     OW37669   2.842   0.536   8.086  0.1659 -0.3938 -0.3891
 8679SOL    HW137670   2.855   0.522   7.992 -0.3905 -0.7501 -0.4083
 8679SOL    HW237671   2.903   0.604   8.116 -0.3715  0.3026 -0.8586
 8680SOL     OW37672   1.094   3.826   8.569  0.7101 -0.2958  0.3582
 8680SOL    HW137673   1.016   3.880   8.563  2.1576  1.5265 -1.8032
 8680SOL    HW237674   1.094   3.788   8.657 -0.5877  1.8248  1.2621
 8681SOL     OW37675   4.135   2.719   3.895  0.1008 -0.1548  0.4870
 8681SOL    HW137676   4.179   2.648   3.943  1.1975 -0.0040 -0.3150
 8681SOL    HW237677   4.211   2.738   3.840 -0.2068  3.2520  1.2755
 8682SOL     OW37678   0.201   3.016   8.553 -0.1946 -0.2494 -0.1111
 8682SOL    HW137679   0.176   3.037   8.643 -1.9521  0.8972 -0.8600
 8682SOL    HW237680   0.205   2.921   8.547  1.9223 -0.3383  2.9104
 8683SOL     OW37681   1.162   1.654   7.431 -0.2187 -0.6694 -0.5174
 8683SOL    HW137682   1.185   1.683   7.519 -0.5493  0.8781 -0.9506
 8683SOL    HW237683   1.114   1.731   7.403 -1.3992 -0.2599  2.6869
 8684SOL     OW37684   4.258   3.819   8.078  0.3027 -0.5402 -0.2258
 8684SOL    HW137685   4.275   3.741   8.130  0.0383 -2.1065 -2.4840
 8684SOL    HW237686   4.322   3.817   8.006  0.0397 -2.0457 -0.4187
 8685SOL     OW37687   4.070   4.372   7.712 -0.0154 -0.2848 -0.7953
 8685SOL    HW137688   4.139   4.380   7.777  0.2877 -2.2753 -0.8722
 8685SOL    HW237689   4.116   4.323   7.643  1.0424 -1.3088  0.6444
 8686SOL     OW37690   2.211   2.097   7.299  0.2528 -0.3360 -0.1195
 8686SOL    HW137691   2.223   2.178   7.349 -1.0617  1.6315 -2.9732
 8686SOL    HW237692   2.187   2.036   7.368  0.7634 -0.2530  0.1310
 8687SOL     OW37693   4.353   1.957   2.143  0.4267 -0.0611  0.8084
 8687SOL    HW137694   4.274   1.911   2.171 -1.3910  2.1123 -0.7212
 8687SOL    HW237695   4.323   2.048   2.141 -0.9624 -0.5254  0.2580
 8688SOL     OW37696   3.100   3.883   3.505 -0.3007  0.5708 -0.2730
 8688SOL    HW137697   3.136   3.821   3.442 -2.1813 -0.0238 -0.7856
 8688SOL    HW237698   3.163   3.954   3.512  2.0140 -1.5300  0.2719
 8689SOL     OW37699   1.329   2.011  17.257 -0.2172  0.3198  0.0559
 8689SOL    HW137700   1.400   1.949  17.272 -0.8319 -0.8782 -2.0204
 8689SOL    HW237701   1.278   1.990  17.335 -0.8222  1.6974  0.0318
 8690SOL     OW37702   0.249   1.518   9.992 -0.1586  0.4128 -0.3084
 8690SOL    HW137703   0.267   1.601   9.949 -1.8098  0.3598 -1.0824
 8690SOL    HW237704   0.328   1.464   9.981 -2.5339 -2.4763 -3.1316
 8691SOL     OW37705   1.758   1.405   5.530  0.1060 -0.4876  0.7039
 8691SOL    HW137706   1.705   1.483   5.544  0.2072 -0.3459  0.2961
 8691SOL    HW237707   1.682   1.347   5.529 -0.3975  0.1884  0.3988
 8692SOL     OW37708   4.407   3.635  12.589  0.0089  0.6618 -0.2886
 8692SOL    HW137709   4.340   3.623  12.522 -0.5182 -0.3451  0.4269
 8692SOL    HW237710   4.410   3.548  12.630 -0.6624  0.4803 -0.6312
 8693SOL     OW37711   1.324   1.654   7.112  1.1220  0.1276 -0.3762
 8693SOL    HW137712   1.418   1.643   7.129  1.3948  0.9552 -1.3592
 8693SOL    HW237713   1.332   1.735   7.062 -1.7022 -0.0359 -1.0476
 8694SOL     OW37714   1.248   0.126   0.178 -0.1602 -0.6997 -0.3124
 8694SOL    HW137715   1.297   0.167   0.106  1.6974 -1.8196  0.3215
 8694SOL    HW237716   1.162   0.153   0.146 -0.7079 -1.1029  0.8518
 8695SOL     OW37717   2.767   1.658   7.658  0.0094  0.2785 -0.1926
 8695SOL    HW137718   2.700   1.681   7.723  0.4142 -0.0923  0.3636
 8695SOL    HW237719   2.810   1.738   7.628  2.1649  0.1025  2.4676
 8696SOL     OW37720   2.688   2.906  15.802  0.5150 -0.4426 -0.6073
 8696SOL    HW137721   2.693   2.845  15.729 -0.2410 -0.6656 -0.4757
 8696SOL    HW237722   2.723   2.985  15.762  0.9711 -0.8002 -0.9060
 8697SOL     OW37723   0.878   1.932   2.721  0.2432  0.1721  0.0482
 8697SOL    HW137724   0.880   1.967   2.811 -1.9374  2.8217 -0.9497
 8697SOL    HW237725   0.947   1.980   2.676 -0.0358 -0.3869 -0.9623
 8698SOL     OW37726   1.660   0.617   9.624  0.6969 -0.7354  0.3955
 8698SOL    HW137727   1.580   0.564   9.617  0.0039  0.4276 -0.3853
 8698SOL    HW237728   1.694   0.617   9.535  2.9653 -0.6395  1.2654
 8699SOL     OW37729   3.681   3.729   1.790  0.1418 -0.4677 -0.2617
 8699SOL    HW137730   3.704   3.763   1.703 -0.0173  3.4564  1.2235
 8699SOL    HW237731   3.591   3.761   1.799 -0.1498 -2.3284  3.1559
 8700SOL     OW37732   2.884   0.411   5.663  0.1321  0.1953 -0.4999
 8700SOL    HW137733   2.816   0.456   5.614 -0.4220  0.5501  0.5830
 8700SOL    HW237734   2.851   0.321   5.662 -3.0485  1.3579 -0.1686
 8701SOL     OW37735   2.207   3.334   3.008 -0.5716 -0.0984  0.0485
 8701SOL    HW137736   2.187   3.346   2.915 -1.5160 -2.2544 -0.0221
 8701SOL    HW237737   2.302   3.323   3.019 -0.1316  2.0631 -1.5040
 8702SOL     OW37738   3.984   1.489   0.303  0.3646  0.3420 -0.0654
 8702SOL    HW137739   4.014   1.557   0.363 -0.3600 -0.0253  0.7034
 8702SOL    HW237740   4.058   1.472   0.246  0.3765  2.2142 -0.6322
 8703SOL     OW37741   3.245   1.952   5.886  0.1276 -0.7262  0.8591
 8703SOL    HW137742   3.187   1.882   5.917 -0.9614 -1.1585 -2.1834
 8703SOL    HW237743   3.333   1.918   5.900 -0.1162 -2.0994 -0.9525
 8704SOL     OW37744   0.258   0.223   1.268  0.6060  0.6858 -0.4288
 8704SOL    HW137745   0.173   0.184   1.249  2.1063 -2.9805  0.6052
 8704SOL    HW237746   0.312   0.196   1.194 -1.6948 -1.0324 -1.4846
 8705SOL     OW37747   2.595   2.809  17.221  0.7856  0.3741 -0.4260
 8705SOL    HW137748   2.612   2.871  17.292 -0.1788 -2.5021  2.3541
 8705SOL    HW237749   2.667   2.811  17.158  1.1712 -0.0654 -0.0041
 8706SOL     OW37750   3.950   1.685   0.713 -0.2360 -0.4472  0.1531
 8706SOL    HW137751   3.888   1.663   0.782 -1.0193 -1.9666 -1.0609
 8706SOL    HW237752   4.035   1.691   0.757  0.3506  1.6942 -1.2386
 8707SOL     OW37753   1.369   0.967   5.096 -0.7181  0.2575 -0.4587
 8707SOL    HW137754   1.449   0.918   5.077 -0.0523  0.4218  1.9343
 8707SOL    HW237755   1.310   0.928   5.031 -1.3594 -0.9415  0.8472
 8708SOL     OW37756   0.492   4.433   2.671 -0.3912  1.0897  0.5107
 8708SOL    HW137757   0.438   4.441   2.592 -0.0575  1.5610  0.3334
 8708SOL    HW237758   0.482   4.338   2.683  0.9566  0.5491 -2.6405
 8709SOL     OW37759   4.143   1.568   2.009 -0.2634 -0.3078 -0.6298
 8709SOL    HW137760   4.170   1.585   1.919  0.0183  2.6861  0.0209
 8709SOL    HW237761   4.228   1.540   2.043 -0.6119  0.0559  0.5591
 8710SOL     OW37762   4.421   3.265   4.138  0.1101  0.4740 -0.3472
 8710SOL    HW137763   4.501   3.317   4.132  0.6690 -0.6992 -2.8099
 8710SOL    HW237764   4.441   3.194   4.077  0.9076 -2.3506  3.1474
 8711SOL     OW37765   3.060   1.188  12.023  0.2182 -0.0550  0.4008
 8711SOL    HW137766   2.996   1.117  12.027 -1.3934  1.4852  1.9359
 8711SOL    HW237767   3.010   1.258  11.980 -0.1285 -1.1800 -1.0138
 8712SOL     OW37768   0.402   1.795   3.714 -0.0043  0.2992 -0.0602
 8712SOL    HW137769   0.328   1.827   3.662  0.4022  0.2691 -0.6534
 8712SOL    HW237770   0.434   1.884   3.729  0.7785  0.4534 -2.7082
 8713SOL     OW37771   3.400   0.174  10.095 -0.1568 -0.4714  0.3351
 8713SOL    HW137772   3.406   0.147  10.004 -0.5931 -0.4938  0.3122
 8713SOL    HW237773   3.412   0.090  10.141  0.0378  0.3487  1.7881
 8714SOL     OW37774   3.895   4.565  10.806  0.2387  0.0396 -0.0775
 8714SOL    HW137775   3.880   4.625  10.879  0.8416  1.1896 -0.8920
 8714SOL    HW237776   3.970   4.515  10.839 -1.8033 -0.7947  3.3713
 8715SOL     OW37777   2.004   3.081   0.209 -0.3608  0.1925  0.1569
 8715SOL    HW137778   1.985   2.990   0.233 -2.2208  0.6592  0.4469
 8715SOL    HW237779   2.097   3.065   0.195 -0.8237  0.5737 -3.2611
 8716SOL     OW37780   0.660   4.167  13.030 -0.4835 -0.6903  0.0129
 8716SOL    HW137781   0.568   4.160  13.055  0.2730  0.6536  3.2156
 8716SOL    HW237782   0.697   4.237  13.084 -0.3582  0.2372 -1.3014
 8717SOL     OW37783   1.854   1.352   3.771 -0.3914  0.3098 -0.1775
 8717SOL    HW137784   1.859   1.283   3.836  0.0321  0.3628 -0.1532
 8717SOL    HW237785   1.797   1.309   3.707  0.7190  0.1983 -1.0852
 8718SOL     OW37786   4.195   2.264  10.300  0.2994  0.6811  0.5213
 8718SOL    HW137787   4.186   2.313  10.218  1.1434 -1.2469 -0.7450
 8718SOL    HW237788   4.112   2.287  10.340  1.2727 -0.1955  3.0613
 8719SOL     OW37789   2.205   3.376  12.362  0.1099  0.2311 -0.2069
 8719SOL    HW137790   2.296   3.403  12.350  0.2970 -0.4741 -0.3579
 8719SOL    HW237791   2.196   3.299  12.417  0.9973  0.8100  0.7508
 8720SOL     OW37792   4.505   1.892  12.571  0.3119  0.0058  0.6387
 8720SOL    HW137793   4.493   1.935  12.655  3.0467 -2.2970  2.1946
 8720SOL    HW237794   4.427   1.836  12.573  0.9738 -0.9678 -0.7965
 8721SOL     OW37795   1.394   3.673  12.130  0.3148  0.5402 -0.2473
 8721SOL    HW137796   1.303   3.665  12.160  0.9528  0.2837  1.6201
 8721SOL    HW237797   1.413   3.581  12.108 -0.4057  0.1747  0.6545
 8722SOL     OW37798   3.052   1.095   1.975  0.0077 -0.3610 -0.4125
 8722SOL    HW137799   3.015   1.182   1.988  2.7291  0.9692 -1.4000
 8722SOL    HW237800   3.076   1.101   1.882  1.8303 -2.2645 -0.0946
 8723SOL     OW37801   4.299   0.259   5.830 -0.0031  0.3194  0.1726
 8723SOL    HW137802   4.345   0.260   5.914  1.5225 -1.7767 -0.6136
 8723SOL    HW237803   4.227   0.197   5.847 -0.5854  0.8122 -0.5200
 8724SOL     OW37804   4.534   2.048   7.647 -0.3383  0.1639  0.0995
 8724SOL    HW137805   4.561   1.958   7.627 -0.1135  0.4299 -0.7789
 8724SOL    HW237806   4.576   2.096   7.576  0.4285  0.3873  0.6961
 8725SOL     OW37807   2.209   0.963   3.773  0.0063  0.6412 -0.5560
 8725SOL    HW137808   2.150   0.945   3.847 -0.4142 -1.1664 -1.3516
 8725SOL    HW237809   2.149   1.014   3.718  1.4029  0.2801 -2.3960
 8726SOL     OW37810   0.883   1.612  15.335 -0.0421 -0.1017  0.0822
 8726SOL    HW137811   0.932   1.668  15.275 -0.2995 -1.0797 -1.0331
 8726SOL    HW237812   0.909   1.521  15.317 -3.4867 -0.7350 -1.6622
 8727SOL     OW37813   0.060   2.067   8.381 -0.1091  0.5000 -0.7323
 8727SOL    HW137814   0.074   1.999   8.314  0.0637  1.8667 -2.0982
 8727SOL    HW237815   0.002   2.130   8.338 -1.1887  0.5300  0.7835
 8728SOL     OW37816   0.675   3.133   9.008 -0.6339 -0.1889  0.0424
 8728SOL    HW137817   0.763   3.116   9.042 -1.1637  2.4351  2.7515
 8728SOL    HW237818   0.644   3.051   8.969 -1.3217 -0.3638  0.9510
 8729SOL     OW37819   3.112   4.606   6.281  0.5284  0.2873  0.6278
 8729SOL    HW137820   3.134   4.698   6.298 -1.1406  0.4276  2.0387
 8729SOL    HW237821   3.020   4.597   6.305 -0.0070 -0.1392 -1.5581
 8730SOL     OW37822   0.233   3.984   4.741  0.3275  0.2134 -0.1591
 8730SOL    HW137823   0.256   4.038   4.816  0.4968 -1.2157  0.7978
 8730SOL    HW237824   0.261   3.897   4.767  0.1936 -0.2667 -1.5962
 8731SOL     OW37825   1.072   2.503   2.915  0.4111  0.2724  0.9078
 8731SOL    HW137826   1.068   2.579   2.856 -0.2115  0.2424  0.9219
 8731SOL    HW237827   1.053   2.431   2.856  1.1610 -0.2093  1.2537
 8732SOL     OW37828   2.066   1.180   5.189 -0.2074  0.0118 -0.5698
 8732SOL    HW137829   2.077   1.161   5.282 -1.1069  1.2043 -0.2182
 8732SOL    HW237830   1.972   1.161   5.187 -0.1540 -0.2700 -0.4933
 8733SOL     OW37831   3.626   1.213   3.035 -0.8432  0.1649  0.3630
 8733SOL    HW137832   3.651   1.197   2.944  0.2826 -0.6626  0.8215
 8733SOL    HW237833   3.642   1.128   3.074  1.0052  0.8582  1.1085
 8734SOL     OW37834   3.496   1.293   4.321  0.0393 -0.0057  0.0378
 8734SOL    HW137835   3.490   1.388   4.310 -2.8514 -0.5493 -2.9651
 8734SOL    HW237836   3.487   1.272   4.228 -0.0237  2.5228 -0.5362
 8735SOL     OW37837   1.444   4.529  16.088 -0.1047  0.1775 -0.2000
 8735SOL    HW137838   1.486   4.453  16.047 -2.4267 -1.2230 -0.0228
 8735SOL    HW237839   1.439   4.500  16.179  0.4382  0.0428 -0.2151
 8736SOL     OW37840   4.176   3.925   8.418  0.1191  0.0355  0.1941
 8736SOL    HW137841   4.168   3.867   8.494  0.8815  0.3879  0.5428
 8736SOL    HW237842   4.148   3.871   8.345 -1.2091 -0.8213  1.3267
 8737SOL     OW37843   0.418   4.222   9.195 -0.4706 -0.3310  0.7634
 8737SOL    HW137844   0.382   4.284   9.130  1.1273 -1.6377 -1.3831
 8737SOL    HW237845   0.434   4.279   9.270 -0.0062  0.9790 -0.3189
 8738SOL     OW37846   1.303   2.953   5.963 -0.3606 -0.0274 -0.8458
 8738SOL    HW137847   1.211   2.966   5.941 -0.2862 -1.7787 -2.1715
 8738SOL    HW237848   1.324   3.047   5.962  0.0554 -0.0903  1.6476
 8739SOL     OW37849   1.031   3.039   4.872 -0.4238  0.2753  0.0956
 8739SOL    HW137850   1.098   3.105   4.892  1.3062 -1.4697  0.0417
 8739SOL    HW237851   1.034   3.019   4.779  1.5613  1.3778 -0.0865
 8740SOL     OW37852   4.280   2.406  11.441 -0.2572  0.5302  0.4092
 8740SOL    HW137853   4.285   2.489  11.487 -1.0370  1.8184 -1.8508
 8740SOL    HW237854   4.364   2.401  11.394 -1.3484 -0.4986 -1.4608
 8741SOL     OW37855   0.753   4.203   2.026 -0.0271 -0.1819 -0.3536
 8741SOL    HW137856   0.691   4.160   1.966 -2.0078  2.5208 -0.2595
 8741SOL    HW237857   0.816   4.237   1.963  0.7047  1.5104  1.2871
 8742SOL     OW37858   4.491   0.272   6.384 -0.0419 -0.4048 -0.5292
 8742SOL    HW137859   4.549   0.346   6.403 -0.5729 -0.2251  0.3567
 8742SOL    HW237860   4.565   0.214   6.366  1.7010  1.5821  0.2722
 8743SOL     OW37861   3.377   1.777   6.935  0.0109 -0.2828 -0.0350
 8743SOL    HW137862   3.412   1.840   6.998  1.0132  0.9204 -1.7972
 8743SOL    HW237863   3.399   1.696   6.983  0.9268 -1.0200 -1.6743
 8744SOL     OW37864   4.280   4.617   2.091  0.3576  0.1723 -0.6074
 8744SOL    HW137865   4.314   4.548   2.033 -0.8558  0.4541 -1.6534
 8744SOL    HW237866   4.323   4.696   2.058 -0.2547  1.3411  1.3787
 8745SOL     OW37867   0.581   0.713   7.225 -0.1791 -0.3910 -0.5201
 8745SOL    HW137868   0.596   0.755   7.310  1.0513 -1.0962 -0.4040
 8745SOL    HW237869   0.512   0.655   7.256  1.2273 -1.7494  0.0177
 8746SOL     OW37870   2.252   2.629   7.138 -0.0505 -0.2376 -0.2648
 8746SOL    HW137871   2.284   2.550   7.093 -0.4649 -0.9228  0.6420
 8746SOL    HW237872   2.157   2.629   7.127 -0.0834 -0.5299  0.0318
 8747SOL     OW37873   3.032   0.058   8.820 -0.2466  0.3548  0.1488
 8747SOL    HW137874   3.073   0.005   8.889  0.2222  0.1674 -0.2706
 8747SOL    HW237875   3.013   0.141   8.864 -1.1820  0.3935 -0.3522
 8748SOL     OW37876   4.370   1.117   4.401 -0.2355  0.4025 -0.1113
 8748SOL    HW137877   4.309   1.044   4.397  2.0054 -1.6358  2.5386
 8748SOL    HW237878   4.449   1.070   4.371  1.8106  3.6680  0.1455
 8749SOL     OW37879   0.631   4.575  10.303 -0.1732  0.1297  0.2951
 8749SOL    HW137880   0.683   4.608  10.376  0.3976  2.0242 -0.9744
 8749SOL    HW237881   0.702   4.555  10.242  0.4811  1.1735  0.7207
 8750SOL     OW37882   3.860   0.549   8.598  0.3078  0.6848 -0.4446
 8750SOL    HW137883   3.877   0.606   8.673 -0.7567  1.0220 -0.4600
 8750SOL    HW237884   3.792   0.594   8.548 -3.0455 -1.0734  2.5418
 8751SOL     OW37885   4.532   3.571   2.461 -0.2713 -0.7813  0.7228
 8751SOL    HW137886   4.505   3.492   2.415  0.7071 -0.2488 -0.7352
 8751SOL    HW237887   4.472   3.574   2.536 -0.5712  2.2239  0.3685
 8752SOL     OW37888   2.863   1.432   4.015 -0.4911  0.5845 -0.4041
 8752SOL    HW137889   2.818   1.406   4.096  1.3680 -1.0679  0.1004
 8752SOL    HW237890   2.896   1.350   3.977  0.1018 -0.1130  1.6224
 8753SOL     OW37891   2.172   1.279  14.090 -0.1978  0.0693 -0.2336
 8753SOL    HW137892   2.254   1.248  14.051 -0.9030 -3.3900  1.1189
 8753SOL    HW237893   2.178   1.375  14.085  0.5265 -0.0147 -1.0240
 8754SOL     OW37894   1.780   0.887   9.172  0.1455 -0.1108 -1.1641
 8754SOL    HW137895   1.835   0.860   9.098  0.8442 -0.0280 -0.6787
 8754SOL    HW237896   1.710   0.822   9.167  1.3943 -1.6564  1.6241
 8755SOL     OW37897   1.887   0.330   5.516  0.5430 -0.1607 -0.5233
 8755SOL    HW137898   1.941   0.282   5.579 -1.0562 -1.8762 -0.4272
 8755SOL    HW237899   1.801   0.340   5.559  0.1852 -2.7709 -0.5957
 8756SOL     OW37900   3.878   0.605   6.110 -0.2136 -0.0541 -0.3305
 8756SOL    HW137901   3.917   0.668   6.050  0.3816  1.2216  1.4036
 8756SOL    HW237902   3.827   0.656   6.173 -1.2320 -1.3534 -0.0781
 8757SOL     OW37903   4.674   3.325   5.989 -0.1319  0.5386  0.1482
 8757SOL    HW137904   4.661   3.240   6.031  0.7851  1.2961  1.9403
 8757SOL    HW237905   0.031   3.317   5.971 -0.1858  1.0126 -0.3288
 8758SOL     OW37906   4.403   1.548   9.295 -0.3138  0.4096  0.3569
 8758SOL    HW137907   4.321   1.537   9.247  0.4183 -0.0530 -0.8036
 8758SOL    HW237908   4.406   1.457   9.325  1.4427  0.4755  0.3910
 8759SOL     OW37909   3.984   0.444   9.841  0.5522 -0.2974 -0.6059
 8759SOL    HW137910   3.953   0.372   9.896  0.0255 -2.0166 -3.1244
 8759SOL    HW237911   4.017   0.505   9.907 -1.2548 -1.8984  1.7569
 8760SOL     OW37912   0.835   0.293   2.541  0.6056 -0.4850 -0.2090
 8760SOL    HW137913   0.770   0.357   2.509  1.9231  2.4249  2.9514
 8760SOL    HW237914   0.807   0.268   2.629  1.5039 -0.7952 -0.0105
 8761SOL     OW37915   0.335   1.131   8.210  0.0811  0.0224  0.2786
 8761SOL    HW137916   0.352   1.142   8.304 -0.1474  2.1936  0.0681
 8761SOL    HW237917   0.336   1.221   8.176  0.5272  0.0319  0.3199
 8762SOL     OW37918   1.398   1.175  15.108  0.7134 -0.0882 -1.0304
 8762SOL    HW137919   1.313   1.204  15.074  0.9685  0.9128 -0.7931
 8762SOL    HW237920   1.368   1.131  15.187 -2.0400 -0.2893 -2.1763
 8763SOL     OW37921   2.631   2.064  15.977  0.0186  0.0182 -0.8708
 8763SOL    HW137922   2.599   2.143  15.934 -2.5403  1.1395  3.1109
 8763SOL    HW237923   2.557   2.010  15.947  0.9921 -2.1660  0.5885
 8764SOL     OW37924   0.960   1.852   7.595  0.0012 -0.5311  1.0378
 8764SOL    HW137925   0.892   1.893   7.542  0.9234  0.7771  0.8733
 8764SOL    HW237926   0.906   1.779   7.625 -1.6879 -0.9024 -2.8957
 8765SOL     OW37927   0.147   3.396   3.050  0.2039  0.0518  0.4083
 8765SOL    HW137928   0.107   3.316   3.083  0.0048 -0.6006 -1.4167
 8765SOL    HW237929   0.199   3.372   2.973 -0.9314  0.3980 -0.4720
 8766SOL     OW37930   2.153   1.349   5.574 -0.3099  0.2684  0.3021
 8766SOL    HW137931   2.112   1.276   5.620  2.0994 -0.8549  0.6452
 8766SOL    HW237932   2.221   1.300   5.527 -1.4848 -0.7423 -0.3586
 8767SOL     OW37933   0.675   1.189  12.712 -0.1545 -0.3345 -0.6459
 8767SOL    HW137934   0.650   1.279  12.693  0.9817  0.5754  2.0328
 8767SOL    HW237935   0.751   1.217  12.764 -0.0296  1.4328 -1.7783
 8768SOL     OW37936   0.499   4.648  13.514 -0.8476  0.8362  0.6476
 8768SOL    HW137937   0.466   4.704  13.585 -2.2496  1.5771 -0.6066
 8768SOL    HW237938   0.412   4.638  13.477 -0.3535  0.2371 -0.3557
 8769SOL     OW37939   4.230   1.377  17.553  0.2605  0.5838  0.6686
 8769SOL    HW137940   4.313   1.425  17.549 -0.1752  1.2598 -0.3998
 8769SOL    HW237941   4.176   1.407  17.480 -0.8767  0.6491  1.5371
 8770SOL     OW37942   1.114   1.928   4.645 -0.1781  0.1680 -0.0006
 8770SOL    HW137943   1.192   1.891   4.687 -1.4327 -2.1401  0.2594
 8770SOL    HW237944   1.105   1.873   4.567  0.6788 -1.5857  1.1387
 8771SOL     OW37945   0.386   1.181   8.476  0.4113  0.5780 -0.3985
 8771SOL    HW137946   0.454   1.123   8.509 -1.0147 -1.5839 -1.2667
 8771SOL    HW237947   0.310   1.154   8.527  2.3283 -1.8476  1.1742
 8772SOL     OW37948   0.485   0.736   6.585 -0.5531 -0.0638 -0.2614
 8772SOL    HW137949   0.558   0.783   6.543  1.5279 -0.9633  2.3188
 8772SOL    HW237950   0.418   0.750   6.519 -0.4142 -0.4281 -0.4763
 8773SOL     OW37951   0.339   3.313  11.932  0.0084  0.3667 -0.1322
 8773SOL    HW137952   0.345   3.234  11.986 -1.6730 -0.0411 -0.5427
 8773SOL    HW237953   0.426   3.291  11.901  0.7743  2.2976  0.6714
 8774SOL     OW37954   1.513   1.127   8.400 -0.4066 -0.5592 -0.2151
 8774SOL    HW137955   1.500   1.125   8.495 -0.0274 -0.1114 -0.1517
 8774SOL    HW237956   1.466   1.207   8.378 -1.8286 -1.3066  0.1155
 8775SOL     OW37957   0.426   0.638  11.526 -0.4802 -0.3454  0.1809
 8775SOL    HW137958   0.428   0.730  11.552 -2.3130  0.4452 -2.5120
 8775SOL    HW237959   0.490   0.599  11.585 -0.1992  0.9378  0.7288
 8776SOL     OW37960   0.184   3.525  15.007 -0.0869 -0.0679 -0.1948
 8776SOL    HW137961   0.254   3.459  15.008  1.0106  1.0299 -2.4025
 8776SOL    HW237962   0.222   3.588  15.068 -1.7348 -1.7561  2.5487
 8777SOL     OW37963   4.666   2.600   6.513 -0.1098 -0.1787 -0.2459
 8777SOL    HW137964   4.687   2.682   6.558  0.5582 -0.8842  0.7179
 8777SOL    HW237965   4.698   2.630   6.428 -1.0036  0.1274 -0.4787
 8778SOL     OW37966   2.459   4.551  14.715  0.1867 -0.4358  0.5064
 8778SOL    HW137967   2.517   4.478  14.733 -0.4983 -1.4883 -1.4934
 8778SOL    HW237968   2.490   4.615  14.779 -0.1933 -0.9534  1.2140
 8779SOL     OW37969   4.354   1.720   3.927  0.5710 -0.4220 -0.2474
 8779SOL    HW137970   4.415   1.683   3.991 -0.0142  0.9840  1.1138
 8779SOL    HW237971   4.401   1.801   3.908 -3.3886  1.6377 -1.2458
 8780SOL     OW37972   2.513   1.889   6.710 -0.5426 -0.0038 -0.3133
 8780SOL    HW137973   2.552   1.836   6.641  0.3786  0.6917 -0.3278
 8780SOL    HW237974   2.583   1.952   6.728 -0.0558 -0.3684 -0.9309
 8781SOL     OW37975   0.109   1.001   6.844  0.3058  0.2422  0.3564
 8781SOL    HW137976   0.139   1.092   6.842 -1.0096  0.7107  1.2820
 8781SOL    HW237977   0.023   1.011   6.802  0.5942  1.5258  0.0742
 8782SOL     OW37978   2.188   1.180  10.021 -0.6239  0.4476  0.1376
 8782SOL    HW137979   2.163   1.143   9.936 -0.6594 -0.1529  0.4083
 8782SOL    HW237980   2.097   1.203  10.040 -1.4646  0.4621 -3.8179
 8783SOL     OW37981   2.709   0.341   7.225 -0.7388 -0.2843  0.0271
 8783SOL    HW137982   2.783   0.285   7.200  0.1660 -0.5909  3.4183
 8783SOL    HW237983   2.660   0.357   7.145 -2.4616 -0.5667  1.0242
 8784SOL     OW37984   1.637   4.651   5.034  0.2040  0.6112  0.1841
 8784SOL    HW137985   1.657   0.007   5.025  1.0584  0.5992  1.9732
 8784SOL    HW237986   1.594   4.633   4.950  2.8705 -1.3081 -0.7508
 8785SOL     OW37987   1.181   0.438   2.617 -0.2459  0.5114  0.3744
 8785SOL    HW137988   1.268   0.455   2.580 -0.9453 -2.0584 -2.5050
 8785SOL    HW237989   1.126   0.477   2.549 -1.0082 -0.3600  0.4852
 8786SOL     OW37990   2.412   1.747  16.982  0.6204  0.4488 -0.2388
 8786SOL    HW137991   2.323   1.761  16.951  0.1365  2.0799  1.9099
 8786SOL    HW237992   2.417   1.809  17.055 -0.0663 -0.3099  0.4563
 8787SOL     OW37993   1.766   1.183   2.729  0.7799 -0.6938 -0.0068
 8787SOL    HW137994   1.785   1.114   2.666 -0.5658 -1.1041  0.0234
 8787SOL    HW237995   1.696   1.232   2.685  1.3094  1.2443  1.3289
 8788SOL     OW37996   0.198   1.583   7.422  0.0929  0.0220  0.0690
 8788SOL    HW137997   0.245   1.555   7.344  1.6181 -1.7019  1.5760
 8788SOL    HW237998   0.279   1.604   7.468 -0.9644 -2.0308  2.8897
 8789SOL     OW37999   0.406   3.949   2.205 -0.6088 -0.1330  0.5504
 8789SOL    HW138000   0.446   4.031   2.177 -0.0582 -0.5853  0.0121
 8789SOL    HW238001   0.370   3.906   2.128 -2.4010  0.5677  0.9937
 8790SOL     OW38002   2.900   3.372   8.170  0.2558 -0.6083 -0.5901
 8790SOL    HW138003   2.903   3.416   8.255 -3.0259  0.0584 -0.8379
 8790SOL    HW238004   2.957   3.422   8.112  0.0765 -1.6918 -1.7183
 8791SOL     OW38005   2.618   3.193   8.694 -0.1921 -0.1114  0.3716
 8791SOL    HW138006   2.653   3.225   8.777  0.3265  1.2833 -0.3921
 8791SOL    HW238007   2.612   3.100   8.715 -2.0283  0.2541  1.3665
 8792SOL     OW38008   2.207   0.691   0.050 -0.5450 -0.1960  0.2793
 8792SOL    HW138009   2.278   0.747   0.018 -0.8554  0.1814  0.2402
 8792SOL    HW238010   2.143   0.690  17.727 -1.8231 -0.5374  1.4509
 8793SOL     OW38011   2.014   3.264  13.991 -0.3081 -0.0633  0.4581
 8793SOL    HW138012   1.972   3.285  14.074  0.1368 -0.3837  0.7615
 8793SOL    HW238013   2.039   3.350  13.956  1.1342 -0.0825  1.4853
 8794SOL     OW38014   4.531   2.232   3.849  1.1772  0.4610 -0.2559
 8794SOL    HW138015   4.547   2.223   3.943 -0.9076  1.7651  0.2374
 8794SOL    HW238016   4.564   2.320   3.833  2.9485 -0.0939  0.4288
 8795SOL     OW38017   1.809   3.586   6.854 -0.5741  0.1714 -0.5086
 8795SOL    HW138018   1.856   3.651   6.801  0.1156 -0.1789 -0.3344
 8795SOL    HW238019   1.814   3.618   6.943 -1.2389 -0.0995 -0.3753
 8796SOL     OW38020   1.988   2.283   1.885 -0.2346  0.0610 -0.1066
 8796SOL    HW138021   2.003   2.377   1.874 -1.0797  0.4005  1.6183
 8796SOL    HW238022   1.896   2.281   1.912 -0.3452 -1.3222 -0.5935
 8797SOL     OW38023   1.573   2.137   1.420 -0.4369  0.0961 -0.1860
 8797SOL    HW138024   1.648   2.085   1.392 -0.4058  0.3715 -0.6088
 8797SOL    HW238025   1.522   2.072   1.469  1.5920 -1.1228  0.3197
 8798SOL     OW38026   2.257   1.666  17.741 -0.1937 -0.0534  0.3071
 8798SOL    HW138027   2.185   1.623   0.039  1.7572 -1.8164  1.7619
 8798SOL    HW238028   2.241   1.638  17.651  0.1220 -0.0291  0.2423
 8799SOL     OW38029   0.522   1.039   8.914 -0.4820 -0.3193  0.0415
 8799SOL    HW138030   0.542   1.132   8.910 -2.0405 -0.0427 -1.3911
 8799SOL    HW238031   0.430   1.041   8.943 -0.4806 -0.4547  0.0563
 8800SOL     OW38032   2.377   4.142   8.351  0.1873  0.3366  0.2718
 8800SOL    HW138033   2.315   4.138   8.279 -0.1198  0.5438  0.5247
 8800SOL    HW238034   2.457   4.175   8.309  0.3419  0.3800  0.6003
 8801SOL     OW38035   0.238   1.979   6.231  0.2236  0.4335 -0.2680
 8801SOL    HW138036   0.153   1.954   6.194  0.0783 -1.5866  1.4214
 8801SOL    HW238037   0.221   2.064   6.271 -1.7001 -1.1367  2.2778
 8802SOL     OW38038   1.159   4.125  12.404 -0.2184 -0.4657 -0.0537
 8802SOL    HW138039   1.093   4.166  12.460 -0.2333  1.1992 -1.3037
 8802SOL    HW238040   1.215   4.203  12.402 -2.4226  1.0989 -1.4147
 8803SOL     OW38041   2.762   3.169  14.430  0.2034  0.4280  0.5030
 8803SOL    HW138042   2.701   3.214  14.372  0.3609 -1.1952 -0.9192
 8803SOL    HW238043   2.816   3.124  14.365  0.0374  0.5501  0.2801
 8804SOL     OW38044   0.861   2.338   5.468  0.0173 -0.4681 -0.1114
 8804SOL    HW138045   0.912   2.288   5.405 -0.4516 -0.4950 -0.4711
 8804SOL    HW238046   0.910   2.315   5.547  0.6089  0.2690 -0.2654
 8805SOL     OW38047   2.026   0.910   7.525  0.2660  0.1515 -0.0720
 8805SOL    HW138048   2.107   0.948   7.490  0.8460 -0.9192  0.1105
 8805SOL    HW238049   1.965   0.891   7.454  0.1741  0.5570 -0.1033
 8806SOL     OW38050   4.450   2.602   7.818  0.0004 -0.0882  0.2899
 8806SOL    HW138051   4.490   2.516   7.829  1.7955  0.9329  1.7781
 8806SOL    HW238052   4.424   2.588   7.727  0.9105 -0.5005  0.0967
 8807SOL     OW38053   0.220   0.734   5.249  0.2971 -0.1892 -0.3081
 8807SOL    HW138054   0.143   0.753   5.194  1.7750 -0.5560 -2.5272
 8807SOL    HW238055   0.289   0.760   5.188  0.2684 -0.5418 -0.4957
 8808SOL     OW38056   1.141   4.197   6.926 -0.1061  0.2127  0.1663
 8808SOL    HW138057   1.204   4.218   6.857 -0.5158 -0.6213 -0.4566
 8808SOL    HW238058   1.143   4.102   6.926 -0.4940  0.2061  0.3163
 8809SOL     OW38059   2.513   4.054   7.178  0.1866  0.7297  0.0904
 8809SOL    HW138060   2.441   4.024   7.123  1.3793 -0.1955 -0.9673
 8809SOL    HW238061   2.462   4.076   7.255  0.1304  0.7557  0.0459
 8810SOL     OW38062   2.156   2.324   6.239 -0.0558 -0.9964  0.3470
 8810SOL    HW138063   2.242   2.283   6.243  1.0215  1.3790  1.4842
 8810SOL    HW238064   2.110   2.282   6.312  0.5556 -2.3908 -0.0801
 8811SOL     OW38065   3.733   1.859   3.720 -0.2322 -0.2165  0.5089
 8811SOL    HW138066   3.657   1.897   3.675  0.2009  0.0503  0.0018
 8811SOL    HW238067   3.700   1.869   3.810 -1.1870 -0.2752  0.1701
 8812SOL     OW38068   0.479   0.442   2.940  0.2048  0.0778  0.1639
 8812SOL    HW138069   0.387   0.450   2.966  0.0586 -2.1379  0.2867
 8812SOL    HW238070   0.505   0.534   2.931 -2.8465  0.8067 -1.4098
 8813SOL     OW38071   2.199   2.489   5.698 -0.0117 -0.6502  0.0980
 8813SOL    HW138072   2.150   2.527   5.625  0.2533  0.4502  0.4961
 8813SOL    HW238073   2.280   2.463   5.655 -0.6406  1.0686 -2.1424
 8814SOL     OW38074   2.943   4.394   2.344 -0.3474  0.5623  0.3002
 8814SOL    HW138075   2.944   4.416   2.251 -0.5772 -0.8057 -0.0372
 8814SOL    HW238076   2.861   4.345   2.341  0.6011 -1.0861  1.2909
 8815SOL     OW38077   4.307   3.485   2.009 -0.9038  0.1846  0.6419
 8815SOL    HW138078   4.262   3.449   2.085 -1.4983 -0.8718 -0.2168
 8815SOL    HW238079   4.260   3.444   1.936  2.2888  0.3175 -1.5060
 8816SOL     OW38080   2.675   4.137   7.995  0.3567 -0.2207 -0.1015
 8816SOL    HW138081   2.598   4.174   7.953  0.5207  1.1507  0.8063
 8816SOL    HW238082   2.642   4.047   7.990 -0.3678 -0.0309  1.5640
 8817SOL     OW38083   2.721   1.914  12.949 -0.3674  0.7274  0.0734
 8817SOL    HW138084   2.809   1.925  12.985  0.3049 -1.4078 -0.8712
 8817SOL    HW238085   2.682   1.984  13.000 -2.5037 -0.3404 -0.1057
 8818SOL     OW38086   0.982   3.610   6.018  0.4424  0.0801  0.0656
 8818SOL    HW138087   0.924   3.542   5.984  2.3940 -2.4927  1.8410
 8818SOL    HW238088   1.043   3.624   5.946  0.6378  2.9292  0.7960
 8819SOL     OW38089   2.840   3.594   9.586  0.3312  0.2964 -0.2436
 8819SOL    HW138090   2.921   3.562   9.546  0.9681  1.9126 -0.2315
 8819SOL    HW238091   2.775   3.579   9.517  0.1092  0.4370 -0.0643
 8820SOL     OW38092   3.833   2.833   2.785  0.1099 -0.0411 -0.2732
 8820SOL    HW138093   3.738   2.830   2.800 -0.0291  1.4659 -0.8127
 8820SOL    HW238094   3.824   2.803   2.695 -2.1969 -0.7886  0.1921
 8821SOL     OW38095   3.565   2.850   7.126 -0.0675 -0.0325  0.3320
 8821SOL    HW138096   3.554   2.840   7.032  0.2980  0.5336  0.2312
 8821SOL    HW238097   3.654   2.816   7.129  0.1800  0.6518  0.8334
 8822SOL     OW38098   1.513   2.875   6.131  0.0693 -0.1818 -0.4292
 8822SOL    HW138099   1.464   2.811   6.183  4.0726 -1.9342  1.2207
 8822SOL    HW238100   1.438   2.911   6.084  1.1107  2.4034 -0.0777
 8823SOL     OW38101   2.109   0.614   3.160 -0.5851  0.2534  0.5119
 8823SOL    HW138102   2.058   0.582   3.086  1.7040 -0.0948 -0.9102
 8823SOL    HW238103   2.093   0.708   3.160  0.4883  0.4374  0.9225
 8824SOL     OW38104   1.194   3.110   7.450  0.1287  0.4557  0.3965
 8824SOL    HW138105   1.115   3.111   7.396  0.1654 -2.9603  0.2573
 8824SOL    HW238106   1.166   3.073   7.534 -0.5136  3.7508  1.6211
 8825SOL     OW38107   3.007   2.037   4.115  0.3927  0.0328 -0.0687
 8825SOL    HW138108   2.944   1.966   4.126 -0.8876  1.1803  0.0578
 8825SOL    HW238109   3.083   2.006   4.162 -0.9405 -2.3919  0.4638
 8826SOL     OW38110   2.934   3.520   5.054  0.6706  0.5566 -0.3578
 8826SOL    HW138111   2.984   3.598   5.028  2.8404  1.1764  5.6083
 8826SOL    HW238112   2.864   3.512   4.989  1.0064  0.0334 -0.6502
 8827SOL     OW38113   2.903   0.866   7.167 -0.2492 -0.1840 -0.4826
 8827SOL    HW138114   2.842   0.817   7.223 -2.0248  1.8312 -0.6369
 8827SOL    HW238115   2.973   0.880   7.231  1.8508 -0.1237 -2.7916
 8828SOL     OW38116   1.284   0.952   1.371  0.3022 -0.4920  0.7079
 8828SOL    HW138117   1.299   0.961   1.277 -0.6153 -1.0951  0.4989
 8828SOL    HW238118   1.219   0.882   1.358  0.4367 -0.5027  0.1283
 8829SOL     OW38119   2.676   4.027  12.374  0.1481  0.5642  0.3471
 8829SOL    HW138120   2.681   4.069  12.289 -0.0142 -1.1714 -0.5264
 8829SOL    HW238121   2.657   3.937  12.345 -0.8589  1.1943 -0.9387
 8830SOL     OW38122   3.380   3.370   1.375 -0.4181 -0.0880  0.1665
 8830SOL    HW138123   3.320   3.420   1.320  0.9573  1.1817 -0.1738
 8830SOL    HW238124   3.395   3.423   1.453 -0.3030  0.9243 -0.5527
 8831SOL     OW38125   2.741   0.508   6.885 -0.2843  0.1982 -0.1879
 8831SOL    HW138126   2.666   0.563   6.862 -0.8309 -0.6574 -0.4096
 8831SOL    HW238127   2.696   0.432   6.920  0.1646  1.3277  2.8961
 8832SOL     OW38128   0.496   4.502   3.084  0.1505 -0.7713 -0.0844
 8832SOL    HW138129   0.577   4.485   3.036  0.5369 -2.6357  1.2435
 8832SOL    HW238130   0.447   4.530   3.007 -0.9272 -0.9202  0.5523
 8833SOL     OW38131   1.109   1.645   3.228  0.7348 -0.0123  0.2550
 8833SOL    HW138132   1.033   1.648   3.285 -0.0180 -2.5496 -0.6430
 8833SOL    HW238133   1.164   1.718   3.257 -0.0468  0.7960 -0.3070
 8834SOL     OW38134   4.602   1.200   8.453  0.1043  0.1006  0.5093
 8834SOL    HW138135   4.521   1.251   8.451  1.3104  1.9181 -2.6482
 8834SOL    HW238136   4.667   1.266   8.430 -0.8036  0.0432 -2.2902
 8835SOL     OW38137   3.702   4.018   9.090 -0.6472 -0.8373  0.8557
 8835SOL    HW138138   3.727   3.948   9.150  0.3482 -1.3489 -0.1547
 8835SOL    HW238139   3.611   4.043   9.110 -0.9409 -1.7489  0.6381
 8836SOL     OW38140   2.595   2.472   0.662 -0.0779 -0.0387  0.9966
 8836SOL    HW138141   2.619   2.379   0.667 -0.0230 -0.0389  0.7505
 8836SOL    HW238142   2.569   2.499   0.750  0.1074  0.5510  0.8690
 8837SOL     OW38143   0.370   2.802   5.632 -0.0099  0.2281 -0.1090
 8837SOL    HW138144   0.294   2.827   5.683 -0.6006 -1.2768 -0.2579
 8837SOL    HW238145   0.343   2.755   5.553  2.1643 -0.6283 -0.3440
 8838SOL     OW38146   3.524   3.330   4.268  0.5046  0.0521 -0.1235
 8838SOL    HW138147   3.473   3.268   4.217 -0.3917  0.1808  0.6254
 8838SOL    HW238148   3.462   3.402   4.274 -2.4540 -2.5089 -0.2930
 8839SOL     OW38149   1.509   3.650   9.184  0.0818 -0.1683  0.5033
 8839SOL    HW138150   1.603   3.671   9.184 -0.0285  0.3405 -1.1921
 8839SOL    HW238151   1.470   3.698   9.110 -0.1845 -1.0755  0.0619
 8840SOL     OW38152   2.459   3.526  14.452  0.4288  0.2366 -0.2169
 8840SOL    HW138153   2.474   3.473  14.531 -1.0648 -0.1527 -0.1989
 8840SOL    HW238154   2.486   3.614  14.478 -0.3313  0.3108  0.3247
 8841SOL     OW38155   3.592   2.766  12.394  1.1260 -0.0835 -0.0742
 8841SOL    HW138156   3.501   2.763  12.367  1.1169 -0.7766  0.0372
 8841SOL    HW238157   3.642   2.746  12.315 -0.9947 -1.3093 -1.1026
 8842SOL     OW38158   0.064   2.732   2.164  0.4486  0.0966  0.2410
 8842SOL    HW138159   0.149   2.726   2.121  0.1160 -0.2566 -0.3681
 8842SOL    HW238160   0.074   2.821   2.198  0.0217 -0.3965  1.6367
 8843SOL     OW38161   0.413   2.889  12.875 -0.1607 -0.0142 -0.0500
 8843SOL    HW138162   0.349   2.883  12.946 -0.1538  0.2850 -0.0167
 8843SOL    HW238163   0.372   2.960  12.825 -1.5008 -1.4802 -1.0371
 8844SOL     OW38164   2.091   3.445   6.108  0.4571 -0.0435 -0.3166
 8844SOL    HW138165   2.182   3.430   6.085 -0.1960  0.7965 -3.4273
 8844SOL    HW238166   2.096   3.505   6.182 -0.3857 -0.2773 -0.0652
 8845SOL     OW38167   2.892   4.435   4.662 -0.5949  0.1168  0.1734
 8845SOL    HW138168   2.837   4.493   4.715  0.7429 -0.3330  2.0385
 8845SOL    HW238169   2.866   4.351   4.700  0.3419  0.4191  1.4775
 8846SOL     OW38170   1.862   1.774   1.644 -0.0093  0.2417  0.1094
 8846SOL    HW138171   1.768   1.761   1.631  0.0673  0.2239 -0.4113
 8846SOL    HW238172   1.872   1.695   1.698  0.2179  0.4183  0.3292
 8847SOL     OW38173   3.659   0.653  13.292  0.1595  0.2371 -0.1438
 8847SOL    HW138174   3.649   0.712  13.367 -1.8123 -0.7064  0.3514
 8847SOL    HW238175   3.638   0.569  13.333  0.3903  0.0647 -0.3776
 8848SOL     OW38176   3.868   0.356   2.988  0.1434 -0.2150 -0.3049
 8848SOL    HW138177   3.779   0.379   3.014  0.1534 -1.5037  0.8213
 8848SOL    HW238178   3.921   0.406   3.050 -0.1950 -1.0849  0.6806
 8849SOL     OW38179   2.039   3.730   5.290 -0.5329  0.1892 -0.5846
 8849SOL    HW138180   2.105   3.760   5.352  1.2278 -0.3473 -2.1908
 8849SOL    HW238181   2.099   3.714   5.217 -1.2103 -0.2581 -1.0460
 8850SOL     OW38182   0.036   0.165  11.191 -0.1105 -0.2905  0.3267
 8850SOL    HW138183   0.111   0.147  11.134 -2.0206  1.0404 -2.5919
 8850SOL    HW238184   0.068   0.150  11.280  4.4757  0.1464 -1.2128
 8851SOL     OW38185   2.092   3.133  17.384 -0.2929  0.5026  0.2488
 8851SOL    HW138186   2.131   3.056  17.343 -0.2547  0.0154  1.2113
 8851SOL    HW238187   2.158   3.195  17.353 -0.2771  0.2183 -0.2877
 8852SOL     OW38188   0.723   3.669  10.641 -0.5627 -0.4865 -0.1451
 8852SOL    HW138189   0.725   3.713  10.726 -0.5084  0.7487 -0.7710
 8852SOL    HW238190   0.744   3.744  10.585 -0.9217 -0.6945 -0.5561
 8853SOL     OW38191   4.426   3.820   2.874  0.0528  0.9422 -0.1073
 8853SOL    HW138192   4.490   3.816   2.804  1.3974 -0.7898  1.2197
 8853SOL    HW238193   4.355   3.874   2.839 -2.3287 -1.5296  0.7946
 8854SOL     OW38194   4.064   1.742   8.139 -0.3821  0.7625  0.3527
 8854SOL    HW138195   4.048   1.817   8.082 -0.5947  0.0216 -0.5739
 8854SOL    HW238196   4.048   1.778   8.226  1.2621 -0.6250  1.2322
 8855SOL     OW38197   1.710   2.529   5.053 -0.2070 -0.3004 -0.0335
 8855SOL    HW138198   1.769   2.597   5.084 -1.1092  1.6637 -2.6463
 8855SOL    HW238199   1.769   2.465   5.011 -0.5771 -0.4790 -0.2798
 8856SOL     OW38200   3.221   3.873   4.860  0.5636  0.1111 -0.5771
 8856SOL    HW138201   3.276   3.948   4.880  1.0666 -0.9609  2.0388
 8856SOL    HW238202   3.255   3.818   4.930 -1.9821 -0.4004  0.2593
 8857SOL     OW38203   0.142   4.610   1.147  0.5032  0.1730  0.5984
 8857SOL    HW138204   0.114   4.692   1.106 -0.2731 -1.4085 -1.9905
 8857SOL    HW238205   0.070   4.553   1.121  2.3276 -2.1475  0.5841
 8858SOL     OW38206   0.243   3.672   8.718 -0.7634 -0.2476 -0.5195
 8858SOL    HW138207   0.180   3.659   8.789 -0.5181 -3.4089 -0.8868
 8858SOL    HW238208   0.316   3.615   8.744 -0.2753  0.6567  0.0870
 8859SOL     OW38209   4.506   0.568   1.767 -0.0889  0.4466 -0.1853
 8859SOL    HW138210   4.555   0.635   1.720  2.3362 -1.2091 -0.0101
 8859SOL    HW238211   4.565   0.492   1.770 -0.8185 -0.1351 -0.5192
 8860SOL     OW38212   3.880   0.599   6.525 -0.2734  0.0992 -0.2721
 8860SOL    HW138213   3.897   0.618   6.618 -1.7965 -1.4824  0.3358
 8860SOL    HW238214   3.792   0.632   6.511  0.6966  2.6823 -0.3091
 8861SOL     OW38215   0.260   1.017   0.485  0.7937 -0.1071 -0.0184
 8861SOL    HW138216   0.169   1.003   0.511  1.2941  1.2728  2.4989
 8861SOL    HW238217   0.293   0.927   0.484 -1.7642 -1.0218 -0.7927
 8862SOL     OW38218   0.957   0.550   2.453  0.2704  0.3392  0.1248
 8862SOL    HW138219   0.931   0.458   2.444 -2.1254  1.2729 -2.4701
 8862SOL    HW238220   0.885   0.584   2.400  0.3166 -0.3351 -0.3808
 8863SOL     OW38221   4.047   3.809   8.838  0.2577 -0.1803  0.1240
 8863SOL    HW138222   4.089   3.886   8.878  0.1213  1.3550 -2.7125
 8863SOL    HW238223   4.066   3.747   8.908 -1.4735 -0.2836  0.5080
 8864SOL     OW38224   1.222   4.057  16.996  0.3253  0.2249  0.0063
 8864SOL    HW138225   1.202   4.078  17.087 -0.2267  0.3239 -0.1417
 8864SOL    HW238226   1.302   4.005  17.010  1.1534  1.9301  1.4809
 8865SOL     OW38227   1.434   3.431   4.469  0.3567  0.3841  0.2148
 8865SOL    HW138228   1.502   3.364   4.474 -0.9228 -0.8690  0.5305
 8865SOL    HW238229   1.376   3.369   4.426  0.7615 -1.0914  1.8088
 8866SOL     OW38230   3.171   4.063   1.094 -0.0821 -0.9376  0.2614
 8866SOL    HW138231   3.092   4.103   1.057  0.4311 -0.2246 -0.0605
 8866SOL    HW238232   3.175   4.104   1.181 -0.7336  3.6203 -1.8487
 8867SOL     OW38233   2.251   1.604   4.820  0.4337 -0.5012  0.0490
 8867SOL    HW138234   2.225   1.598   4.729  1.4015 -0.5638 -0.2306
 8867SOL    HW238235   2.189   1.665   4.860  0.6026  0.1336 -0.6515
 8868SOL     OW38236   0.996   2.162  13.838  0.3595 -0.0583 -0.0669
 8868SOL    HW138237   1.033   2.250  13.837 -1.9336  0.9003 -2.9859
 8868SOL    HW238238   1.046   2.124  13.766  2.2267 -0.6023  1.5406
 8869SOL     OW38239   1.031   3.773   2.717  0.3109 -0.0478  0.4615
 8869SOL    HW138240   1.098   3.779   2.784  1.2311  1.7971 -0.6215
 8869SOL    HW238241   0.968   3.832   2.759  0.4082 -1.5791  2.7248
 8870SOL     OW38242   3.299   1.569   0.895 -0.2310 -0.7278 -0.2711
 8870SOL    HW138243   3.300   1.636   0.964  0.6191  2.4682 -3.4097
 8870SOL    HW238244   3.218   1.580   0.846 -1.7883  0.8887  2.6868
 8871SOL     OW38245   2.297   0.943   7.828  0.0945  0.2771  0.3600
 8871SOL    HW138246   2.210   0.981   7.835  0.0607  0.2476  0.1061
 8871SOL    HW238247   2.295   0.946   7.732 -1.1065 -0.0594  0.3666
 8872SOL     OW38248   3.987   4.434   4.263  0.0409  0.3600  0.1808
 8872SOL    HW138249   4.066   4.391   4.298 -1.4145 -0.2280  2.7662
 8872SOL    HW238250   3.931   4.436   4.341 -2.3055 -2.5575 -1.4242
 8873SOL     OW38251   4.611   3.306   7.724  0.3007 -0.1374  0.4481
 8873SOL    HW138252   4.650   3.228   7.685  1.3827  1.4582 -1.6372
 8873SOL    HW238253   4.624   3.382   7.668  0.1061 -0.5858 -0.2055
 8874SOL     OW38254   3.188   0.045   2.719  0.7104 -0.5302  0.3412
 8874SOL    HW138255   3.240   0.111   2.672  0.4259 -0.4770  0.0993
 8874SOL    HW238256   3.264   0.001   2.757 -0.9434 -3.2472  0.4928
 8875SOL     OW38257   1.761   4.253   6.510 -0.0363  0.3140 -0.3181
 8875SOL    HW138258   1.693   4.307   6.551 -0.8657 -0.2182 -1.0021
 8875SOL    HW238259   1.835   4.313   6.516 -1.1378  1.6479  0.1623
 8876SOL     OW38260   4.486   1.695   2.529 -0.2361 -0.4174 -0.3763
 8876SOL    HW138261   4.579   1.703   2.548  0.1042 -1.2537 -1.7306
 8876SOL    HW238262   4.474   1.699   2.435 -0.3704  1.7428 -0.2731
 8877SOL     OW38263   3.994   1.635   6.561  0.1513  0.1999 -0.6171
 8877SOL    HW138264   3.987   1.576   6.635  0.3426  2.0443  0.8840
 8877SOL    HW238265   4.049   1.587   6.499 -0.5652 -0.1744 -0.9534
 8878SOL     OW38266   2.132   0.260   6.089  0.0252  0.4027  0.4852
 8878SOL    HW138267   2.083   0.343   6.089 -0.0438  0.3577 -0.3065
 8878SOL    HW238268   2.188   0.264   6.012 -0.0338  1.9632  0.5257
 8879SOL     OW38269   0.961   1.859  13.106 -0.2515 -0.3439  1.1162
 8879SOL    HW138270   0.972   1.937  13.161 -2.6007  0.8866 -0.1489
 8879SOL    HW238271   1.043   1.872  13.060  0.1148  3.4504  2.8472
 8880SOL     OW38272   3.317   2.178   2.402 -0.6409  0.2507  0.6228
 8880SOL    HW138273   3.347   2.243   2.339 -0.4081 -0.4601 -0.0016
 8880SOL    HW238274   3.318   2.234   2.479 -0.7953  0.4275  0.4954
 8881SOL     OW38275   2.355   4.553  15.110 -0.0852  0.0977  0.1232
 8881SOL    HW138276   2.372   4.615  15.039 -3.2332  0.6553 -0.1382
 8881SOL    HW238277   2.332   4.470  15.069 -2.5882 -0.1486  2.0306
 8882SOL     OW38278   3.162   0.038   3.511 -0.0183  0.6276 -0.3637
 8882SOL    HW138279   3.219   0.010   3.582 -0.7185  1.2592  0.4401
 8882SOL    HW238280   3.229   0.030   3.442  0.8533 -0.5027  0.6241
 8883SOL     OW38281   0.652   0.840   3.243  0.2919 -0.3420  0.0264
 8883SOL    HW138282   0.707   0.785   3.299 -1.8982 -1.5312  0.9720
 8883SOL    HW238283   0.700   0.822   3.162  1.2053  0.9444  0.2705
 8884SOL     OW38284   0.201   1.937   3.604 -0.3595 -0.2142 -0.1236
 8884SOL    HW138285   0.123   1.991   3.594 -0.3020 -0.2566 -0.7691
 8884SOL    HW238286   0.248   1.973   3.529  1.2622 -0.1629  0.9130
 8885SOL     OW38287   0.661   3.854   5.056 -0.1721  0.3097  0.1828
 8885SOL    HW138288   0.613   3.780   5.094  0.9751 -1.9944 -2.8594
 8885SOL    HW238289   0.614   3.929   5.093  0.2519  0.3764  0.5729
 8886SOL     OW38290   2.845   2.589  12.198  0.2411 -0.0727  0.7020
 8886SOL    HW138291   2.809   2.519  12.252  0.3813 -0.8094 -0.1608
 8886SOL    HW238292   2.771   2.601  12.139  0.5115  0.4467  0.4649
 8887SOL     OW38293   1.330   0.742   3.018  0.3602  0.5391 -0.3545
 8887SOL    HW138294   1.296   0.809   2.959 -1.4871 -1.4052 -1.5154
 8887SOL    HW238295   1.282   0.660   3.005  0.9152  0.0694  0.5917
 8888SOL     OW38296   1.495   4.227   8.758 -0.4455 -0.2166  0.4207
 8888SOL    HW138297   1.444   4.285   8.816 -0.0675  0.5831 -0.0455
 8888SOL    HW238298   1.567   4.287   8.740 -0.2595 -0.1033  1.5422
 8889SOL     OW38299   1.870   3.310   7.625 -0.4538  0.2383 -0.0060
 8889SOL    HW138300   1.799   3.246   7.623  0.4097 -0.7312  0.5172
 8889SOL    HW238301   1.878   3.316   7.529 -4.4176  0.6977 -0.3124
 8890SOL     OW38302   3.767   2.180   7.438 -0.0317  0.5156 -0.0854
 8890SOL    HW138303   3.825   2.135   7.376 -1.5675 -0.8014 -0.5558
 8890SOL    HW238304   3.762   2.131   7.520 -2.9491 -1.4519 -1.4379
 8891SOL     OW38305   4.608   1.996   3.290 -0.2359 -0.6331  0.5956
 8891SOL    HW138306   4.541   2.061   3.313 -1.4754 -1.9119  0.5414
 8891SOL    HW238307   4.557   1.963   3.216  1.6014  3.7135 -2.6128
 8892SOL     OW38308   2.785   2.974   2.928 -0.4470  0.3320 -0.3823
 8892SOL    HW138309   2.834   3.002   2.851  1.9176  1.8024  1.6880
 8892SOL    HW238310   2.779   3.062   2.965  0.8856 -0.2855  1.3125
 8893SOL     OW38311   1.921   0.828   9.985  0.1081 -0.6006  0.0127
 8893SOL    HW138312   1.838   0.866  10.014  0.3725 -2.0257  2.6585
 8893SOL    HW238313   1.898   0.776   9.908 -1.1734 -0.1843  0.1076
 8894SOL     OW38314   3.759   1.020  11.113  0.5015  0.3866 -0.1845
 8894SOL    HW138315   3.717   0.943  11.150  2.4281  0.1360  1.4989
 8894SOL    HW238316   3.682   1.075  11.101  0.5679  1.2463  3.4162
 8895SOL     OW38317   2.462   0.588   2.936  0.3865  0.2930 -0.4876
 8895SOL    HW138318   2.491   0.530   2.865 -0.4063 -1.0173  0.2498
 8895SOL    HW238319   2.523   0.660   2.924 -0.0320  0.4022 -1.9073
 8896SOL     OW38320   4.207   0.018   6.219 -0.4618 -0.3603  0.2925
 8896SOL    HW138321   4.199   0.083   6.289 -0.0368 -0.1408  0.1370
 8896SOL    HW238322   4.271   4.693   6.254  0.7667  0.7701  0.0706
 8897SOL     OW38323   2.298   4.204  12.342 -0.0742  0.2206  0.5876
 8897SOL    HW138324   2.315   4.157  12.424 -0.5148 -0.5649  0.2303
 8897SOL    HW238325   2.328   4.294  12.355 -0.4686  0.3039  0.9369
 8898SOL     OW38326   0.918   3.083  13.778  0.1549  0.4255 -0.4889
 8898SOL    HW138327   0.897   3.148  13.711  0.3265  0.9936  0.0066
 8898SOL    HW238328   0.999   3.126  13.808 -0.7768  1.8754 -0.0386
 8899SOL     OW38329   4.178   3.522   4.515  0.1089  0.1310  0.8893
 8899SOL    HW138330   4.241   3.574   4.466 -0.8272  0.5523  0.1481
 8899SOL    HW238331   4.227   3.481   4.587 -0.8765 -1.9610  0.3771
 8900SOL     OW38332   3.812   2.410   6.190 -0.1340  0.4902 -0.0025
 8900SOL    HW138333   3.876   2.406   6.119 -0.4543 -0.2212 -0.2454
 8900SOL    HW238334   3.829   2.494   6.232  1.9087  0.7967 -1.4406
 8901SOL     OW38335   3.680   2.127   4.816  0.2153  0.0092 -0.7200
 8901SOL    HW138336   3.739   2.077   4.759  0.5901 -1.5969  1.0493
 8901SOL    HW238337   3.617   2.056   4.832  2.1702 -1.4058  0.8487
 8902SOL     OW38338   2.677   4.525   5.318  0.1546  0.0938  0.1561
 8902SOL    HW138339   2.658   4.529   5.411  0.7101 -1.0007  0.3122
 8902SOL    HW238340   2.706   4.433   5.319  0.8647  0.3244  0.7680
 8903SOL     OW38341   4.524   3.078   3.368  0.4027  0.1891 -0.3855
 8903SOL    HW138342   4.513   3.151   3.307  1.5334 -0.0333 -0.8447
 8903SOL    HW238343   4.583   3.023   3.317  0.4770 -1.0025  0.9777
 8904SOL     OW38344   2.366   3.902   6.812 -0.4222  0.6312  0.2684
 8904SOL    HW138345   2.461   3.904   6.826 -0.8287 -0.3815  3.1743
 8904SOL    HW238346   2.360   3.904   6.717 -1.5921 -1.7965  0.2873
 8905SOL     OW38347   3.842   0.920   3.769 -0.4825  0.4326 -0.1219
 8905SOL    HW138348   3.806   0.990   3.823  0.8390  1.6170 -0.7688
 8905SOL    HW238349   3.908   0.885   3.829 -2.5995 -0.2576  1.8186
 8906SOL     OW38350   2.558   0.278   7.446  0.2359 -0.3968 -0.1617
 8906SOL    HW138351   2.602   0.297   7.363  0.9755  1.4913  0.6627
 8906SOL    HW238352   2.495   0.210   7.422 -1.1205  1.3870 -1.6650
 8907SOL     OW38353   1.567   1.148   2.264  0.1199  0.0105  0.2625
 8907SOL    HW138354   1.581   1.227   2.316  1.6505 -0.3732  0.4240
 8907SOL    HW238355   1.477   1.156   2.232  0.1010 -0.6147  0.1538
 8908SOL     OW38356   3.277   0.206   7.616  0.2488  0.4603 -1.0110
 8908SOL    HW138357   3.357   0.169   7.578  0.3113 -1.5257  1.0390
 8908SOL    HW238358   3.212   0.159   7.563 -2.1486 -0.0487  2.3957
 8909SOL     OW38359   4.170   0.923   7.343 -0.2018 -0.1396 -0.5009
 8909SOL    HW138360   4.214   0.941   7.427  0.9732  2.2350 -1.6282
 8909SOL    HW238361   4.205   0.994   7.289  0.7091  2.1600  3.1016
 8910SOL     OW38362   3.763   0.470   1.107 -0.0258  0.2765 -0.3423
 8910SOL    HW138363   3.836   0.531   1.115 -0.9677  1.6090 -1.8341
 8910SOL    HW238364   3.789   0.386   1.146 -0.2556  1.6611  2.7975
 8911SOL     OW38365   2.414   2.603  11.108 -1.2525  0.6445  0.8472
 8911SOL    HW138366   2.354   2.565  11.044  0.8114 -1.4698  0.1807
 8911SOL    HW238367   2.433   2.521  11.153  1.0740  0.5750 -0.2430
 8912SOL     OW38368   2.475   3.264   3.693  0.5774 -0.7329  0.0211
 8912SOL    HW138369   2.474   3.314   3.775 -1.8531 -2.1434  0.8716
 8912SOL    HW238370   2.447   3.331   3.631 -0.4892  0.5218  1.8715
 8913SOL     OW38371   1.065   0.669  12.471  0.3688 -0.1403  0.1524
 8913SOL    HW138372   1.046   0.758  12.500  1.5227 -0.2354  1.1847
 8913SOL    HW238373   1.160   0.675  12.463  0.4593 -1.7692  0.0273
 8914SOL     OW38374   1.628   0.746   8.687 -0.4197  0.1256  0.3646
 8914SOL    HW138375   1.567   0.819   8.696 -3.9779 -2.8256  0.2942
 8914SOL    HW238376   1.697   0.793   8.641  0.6280 -1.7248  0.0531
 8915SOL     OW38377   3.330   4.736   3.753  0.0878 -0.3617 -0.6748
 8915SOL    HW138378   3.327   0.068   3.819  1.8287 -0.0924 -0.8756
 8915SOL    HW238379   3.424   4.717   3.755 -0.0036 -0.5307  2.2805
 8916SOL     OW38380   1.972   1.496   5.387  0.4170 -0.3780 -0.2037
 8916SOL    HW138381   2.045   1.458   5.435  1.1676 -2.2312 -2.8272
 8916SOL    HW238382   1.899   1.454   5.433 -1.4191  1.9211 -1.0066
 8917SOL     OW38383   3.912   1.658  15.919  0.5566  0.7283  0.1769
 8917SOL    HW138384   3.971   1.616  15.856  0.5853  1.3102 -0.1916
 8917SOL    HW238385   3.961   1.739  15.929  1.2474  0.3866 -0.4132
 8918SOL     OW38386   0.837   2.593   4.768  0.1759 -0.1763  0.1279
 8918SOL    HW138387   0.916   2.640   4.796 -1.1121  1.8347  0.3663
 8918SOL    HW238388   0.840   2.603   4.673  1.8680 -0.9199  0.1093
 8919SOL     OW38389   0.001   2.597   4.636 -0.1396  0.4878  0.1155
 8919SOL    HW138390   4.708   2.660   4.702  1.4624  1.1671  0.1958
 8919SOL    HW238391   4.730   2.514   4.684  0.1306  0.1055 -0.4986
 8920SOL     OW38392   0.051   0.314   9.780 -0.0665 -0.0829 -0.2207
 8920SOL    HW138393   0.103   0.341   9.704  1.9736 -1.1554  0.8195
 8920SOL    HW238394   0.120   0.310   9.845  1.0934  0.1330 -1.4387
 8921SOL     OW38395   3.060   2.516   2.213  0.3159  0.2133  0.1087
 8921SOL    HW138396   3.033   2.483   2.299  1.7249  0.3687  0.6004
 8921SOL    HW238397   3.126   2.580   2.238 -0.0089  1.0373 -1.1418
 8922SOL     OW38398   0.481   2.526   5.258 -0.8758 -0.0789 -0.4381
 8922SOL    HW138399   0.417   2.476   5.207 -1.1480 -1.1070  0.9068
 8922SOL    HW238400   0.559   2.472   5.270 -1.2440 -0.2871  1.0721
 8923SOL     OW38401   2.565   3.465   6.972  0.0604 -0.3349 -0.1207
 8923SOL    HW138402   2.510   3.520   6.917 -0.2941 -0.2864  0.2736
 8923SOL    HW238403   2.636   3.524   6.998  0.8824 -1.8057  0.9958
 8924SOL     OW38404   4.060   1.509  10.918  0.0237  0.2479 -0.6653
 8924SOL    HW138405   4.121   1.549  10.855  0.8769 -1.0937 -0.6825
 8924SOL    HW238406   4.011   1.586  10.947  0.4967  0.3442 -0.1176
 8925SOL     OW38407   1.473   3.287   3.585 -0.3383 -0.3317  0.1339
 8925SOL    HW138408   1.426   3.323   3.660 -1.4309 -0.4276 -0.5020
 8925SOL    HW238409   1.420   3.327   3.516  0.3889  1.5352  0.6591
 8926SOL     OW38410   4.166   1.522   3.861 -0.0918  0.5540 -0.3250
 8926SOL    HW138411   4.202   1.611   3.861  0.7540  0.2075 -0.1900
 8926SOL    HW238412   4.216   1.490   3.936 -1.2785  0.6626  0.5159
 8927SOL     OW38413   2.230   3.135   3.721 -0.7226  0.6602 -0.2474
 8927SOL    HW138414   2.316   3.178   3.719 -0.7101  0.6251 -0.4460
 8927SOL    HW238415   2.179   3.198   3.669  1.1814  1.7033 -0.8460
 8928SOL     OW38416   1.494   2.226   4.942 -0.2429  0.3117 -0.2148
 8928SOL    HW138417   1.484   2.242   4.848 -0.9037  0.3686 -0.1392
 8928SOL    HW238418   1.410   2.262   4.973 -1.1092 -0.3227 -1.8269
 8929SOL     OW38419   2.471   2.100   8.785  0.4675  0.2025 -0.1116
 8929SOL    HW138420   2.482   2.005   8.794 -1.6452  0.0774  0.9869
 8929SOL    HW238421   2.396   2.123   8.839  0.7055  0.1260  0.2535
 8930SOL     OW38422   4.586   1.652   3.210 -0.0570 -0.1345  0.7618
 8930SOL    HW138423   4.621   1.564   3.225  1.5089  0.0929 -1.5626
 8930SOL    HW238424   4.491   1.642   3.205 -0.0732  0.8136 -0.6980
 8931SOL     OW38425   3.304   2.725  12.371  0.1222 -0.6097  0.2545
 8931SOL    HW138426   3.278   2.812  12.399 -0.0164 -1.4050  2.5691
 8931SOL    HW238427   3.258   2.714  12.287  0.6656 -0.7533 -0.0284
 8932SOL     OW38428   0.202   2.367   9.298  0.1093 -0.0288 -0.1597
 8932SOL    HW138429   0.222   2.344   9.389 -1.6154  1.9994  0.7160
 8932SOL    HW238430   0.192   2.461   9.306  1.2819 -0.1078  2.2764
 8933SOL     OW38431   2.136   3.644  12.395  0.3784 -0.2905 -0.3497
 8933SOL    HW138432   2.139   3.549  12.383  1.2936  0.0393 -2.6813
 8933SOL    HW238433   2.129   3.660  12.490  0.5419 -3.0822  0.1280
 8934SOL     OW38434   0.826   0.903   7.268  0.1865  0.0342 -0.1362
 8934SOL    HW138435   0.834   0.993   7.299  0.6389 -0.1210  0.2031
 8934SOL    HW238436   0.751   0.868   7.317  1.0841 -0.4744  0.8552
 8935SOL     OW38437   2.010   3.269   4.007 -0.1265 -0.4272 -0.4015
 8935SOL    HW138438   2.041   3.359   4.015  0.9756 -0.9390  0.9954
 8935SOL    HW238439   1.947   3.276   3.935  0.7524  2.7091 -0.8615
 8936SOL     OW38440   0.677   0.010  10.058  0.3666  0.6028  0.0741
 8936SOL    HW138441   0.737   0.059  10.115  0.4622  1.5699 -0.8593
 8936SOL    HW238442   0.712   4.659  10.063 -1.9983 -0.3071  0.5425
 8937SOL     OW38443   1.958   1.785   1.212 -0.1586  0.1863  0.1499
 8937SOL    HW138444   2.024   1.723   1.183  0.2991  0.8790 -0.2793
 8937SOL    HW238445   1.964   1.841   1.135 -1.2918 -1.3995 -1.0934
 8938SOL     OW38446   0.611   0.997   8.533  0.2743  0.1490  0.2620
 8938SOL    HW138447   0.628   0.950   8.451  3.1638 -1.8078  1.9574
 8938SOL    HW238448   0.605   0.923   8.593  0.5828  0.2660  0.4418
 8939SOL     OW38449   1.736   1.041   8.920  0.4275  0.3288 -0.0533
 8939SOL    HW138450   1.759   0.958   8.878  0.0331 -0.6860  1.7676
 8939SOL    HW238451   1.750   1.026   9.013 -1.4509  3.1619  0.7018
 8940SOL     OW38452   1.978   2.960   5.607 -0.5635 -0.0093 -0.4213
 8940SOL    HW138453   2.058   2.972   5.659 -0.2119  1.0589 -1.2357
 8940SOL    HW238454   1.984   2.870   5.575  2.0247 -0.9549  2.7670
 8941SOL     OW38455   3.644   2.078   7.692  0.0831  0.4987 -0.2107
 8941SOL    HW138456   3.629   2.025   7.770  0.3939  0.1444 -0.3896
 8941SOL    HW238457   3.587   2.155   7.700 -1.9240 -1.0342 -0.0107
 8942SOL     OW38458   1.054   2.398  13.341 -0.2507 -0.2079  0.1347
 8942SOL    HW138459   0.965   2.377  13.370 -1.1880 -0.8260 -3.2538
 8942SOL    HW238460   1.111   2.353  13.403  0.9568  2.2005  0.7987
 8943SOL     OW38461   2.684   1.048   3.080  0.1244  0.0037  0.0193
 8943SOL    HW138462   2.741   1.039   3.156 -0.5186  1.0016  0.6176
 8943SOL    HW238463   2.744   1.096   3.022  0.4932  1.7874  1.8659
 8944SOL     OW38464   0.847   2.755   0.025 -0.2564 -0.0575 -0.2631
 8944SOL    HW138465   0.763   2.742   0.069 -1.0203 -0.1257 -1.7295
 8944SOL    HW238466   0.814   2.754  17.683  0.4394 -0.8735 -0.5143
 8945SOL     OW38467   1.052   0.675   5.206  0.4439  0.1075  0.6499
 8945SOL    HW138468   1.012   0.711   5.127 -0.4301 -2.8794 -0.2525
 8945SOL    HW238469   1.147   0.684   5.196  0.6811 -1.4943  1.4580
 8946SOL     OW38470   2.792   2.803  11.446 -0.6699  0.0063  0.1641
 8946SOL    HW138471   2.835   2.727  11.486  0.4068  1.5826  2.0144
 8946SOL    HW238472   2.712   2.758  11.418 -0.4506 -0.8229  0.8622
 8947SOL     OW38473   4.486   2.307  12.362  0.4103 -0.5185 -0.9748
 8947SOL    HW138474   4.461   2.215  12.358  1.6935 -1.0891  3.6255
 8947SOL    HW238475   4.446   2.331  12.446 -0.5642  0.7835 -1.7950
 8948SOL     OW38476   4.354   0.424   7.707 -0.3136  0.4884 -0.1436
 8948SOL    HW138477   4.288   0.388   7.767  1.2375 -3.2540 -0.7287
 8948SOL    HW238478   4.397   0.344   7.675 -0.5313  0.3925 -0.1976
 8949SOL     OW38479   3.527   4.512   3.309  0.1715  0.2771 -0.1556
 8949SOL    HW138480   3.586   4.519   3.384  0.1348 -1.6880  0.0424
 8949SOL    HW238481   3.479   4.434   3.337  0.1429  1.1726  2.2675
 8950SOL     OW38482   3.191   0.472   3.279 -0.3260  0.3088  0.2519
 8950SOL    HW138483   3.176   0.514   3.363 -0.2101  0.9317 -0.0339
 8950SOL    HW238484   3.237   0.543   3.234 -0.1621 -0.0906 -0.2190
 8951SOL     OW38485   4.511   0.984   0.674 -0.4926  0.0118  0.2530
 8951SOL    HW138486   4.500   0.935   0.593  1.2404 -0.4869  0.3163
 8951SOL    HW238487   4.453   1.059   0.660  0.5835  0.4962 -1.5190
 8952SOL     OW38488   1.110   1.449  15.990  0.2291 -0.0575 -0.1380
 8952SOL    HW138489   1.174   1.384  15.961 -0.7243 -1.2196  0.3527
 8952SOL    HW238490   1.115   1.507  15.914  2.7094 -1.5559 -1.1365
 8953SOL     OW38491   2.704   0.621   3.564  0.2826  0.2217  0.3077
 8953SOL    HW138492   2.629   0.565   3.583 -0.7716  1.6345  0.3158
 8953SOL    HW238493   2.764   0.557   3.527  1.2118  1.0427  0.4030
 8954SOL     OW38494   2.485   4.382  10.679  0.1993 -0.3685  0.3621
 8954SOL    HW138495   2.503   4.288  10.682  0.4695 -0.3708 -1.6360
 8954SOL    HW238496   2.431   4.391  10.758 -0.2555  1.8128 -0.1929
 8955SOL     OW38497   2.095   3.731   9.768  0.1152 -0.0463  0.4717
 8955SOL    HW138498   2.012   3.703   9.807 -1.5399 -0.3040 -3.1994
 8955SOL    HW238499   2.142   3.649   9.783 -0.3685 -0.0756  1.8246
 8956SOL     OW38500   0.011   2.805  10.943 -0.2626 -0.2797 -0.1043
 8956SOL    HW138501   4.730   2.750  11.020 -0.3141 -0.5184 -0.2864
 8956SOL    HW238502   0.105   2.819  10.957  0.1594 -1.4505 -1.7658
 8957SOL     OW38503   1.142   1.414  13.931 -0.2069 -0.2514  0.0703
 8957SOL    HW138504   1.136   1.418  13.836  0.7905  0.9016  0.0603
 8957SOL    HW238505   1.148   1.321  13.955 -2.2334  0.0792  1.8449
 8958SOL     OW38506   1.260   3.217   9.875  0.4202  0.7879  0.3441
 8958SOL    HW138507   1.193   3.268   9.829  0.6046  0.4405 -0.3062
 8958SOL    HW238508   1.272   3.153   9.804  1.0873  0.5164  0.7054
 8959SOL     OW38509   1.351   2.755   2.786  0.1778  0.1185  0.0030
 8959SOL    HW138510   1.300   2.832   2.761  2.0943  1.4928  0.2986
 8959SOL    HW238511   1.423   2.806   2.823  0.5780 -0.2072 -0.3324
 8960SOL     OW38512   1.765   2.966   7.363 -0.0573 -0.1876 -0.1306
 8960SOL    HW138513   1.675   2.998   7.353  0.2080  0.9292  1.0808
 8960SOL    HW238514   1.765   2.872   7.345 -2.3427  0.1221 -1.7174
 8961SOL     OW38515   0.231   3.351   9.451 -0.7120  0.3750 -0.0058
 8961SOL    HW138516   0.285   3.277   9.481 -0.9873 -0.3029 -1.1651
 8961SOL    HW238517   0.143   3.314   9.454 -0.9489  1.1476  2.4815
 8962SOL     OW38518   3.830   3.838   3.380 -0.0210 -0.5563 -0.1183
 8962SOL    HW138519   3.738   3.861   3.387  0.6866  2.2403  0.1251
 8962SOL    HW238520   3.830   3.747   3.410  1.3510 -0.7715 -0.7433
 8963SOL     OW38521   0.438   4.186   0.645 -0.1878  0.3200  0.3601
 8963SOL    HW138522   0.347   4.174   0.618  0.3886 -4.1103  0.3566
 8963SOL    HW238523   0.456   4.249   0.575  0.6926 -0.8451 -0.4709
 8964SOL     OW38524   3.011   1.136  10.172 -0.0435 -0.2798 -0.6418
 8964SOL    HW138525   2.915   1.133  10.166  0.0476 -3.4304 -0.4698
 8964SOL    HW238526   3.014   1.231  10.174 -1.0222 -0.2353 -1.0533
 8965SOL     OW38527   2.743   1.699   5.384 -1.0643 -0.4369  0.0364
 8965SOL    HW138528   2.705   1.707   5.297  1.2726  2.5405 -0.7177
 8965SOL    HW238529   2.783   1.786   5.395 -0.8597 -0.3787 -1.1685
 8966SOL     OW38530   1.763   4.367   3.370 -0.1662 -0.0501 -0.0065
 8966SOL    HW138531   1.719   4.450   3.387 -0.6237 -0.9302  3.0840
 8966SOL    HW238532   1.721   4.306   3.431  1.2099 -0.4161  0.5949
 8967SOL     OW38533   1.957   1.281  11.363 -0.2595  0.0691  0.0670
 8967SOL    HW138534   1.884   1.294  11.424 -1.2676 -2.7493 -0.5448
 8967SOL    HW238535   1.919   1.303  11.278 -0.4647  0.3916  0.2429
 8968SOL     OW38536   2.864   3.261   2.272  0.2243  0.5307 -0.0483
 8968SOL    HW138537   2.915   3.249   2.192 -2.6379 -1.4503 -1.5667
 8968SOL    HW238538   2.907   3.342   2.302  0.5090  0.0360  0.8635
 8969SOL     OW38539   0.636   2.450   3.899  0.2756 -0.2362  0.1448
 8969SOL    HW138540   0.637   2.531   3.848 -0.9352  1.2580  2.4778
 8969SOL    HW238541   0.593   2.390   3.838 -1.1538  0.3814  0.5494
 8970SOL     OW38542   2.614   3.852   7.976  0.1186 -0.2433  0.8459
 8970SOL    HW138543   2.524   3.836   8.005 -1.3168  5.2036 -0.6175
 8970SOL    HW238544   2.637   3.761   7.955  0.5548  0.2086 -0.6190
 8971SOL     OW38545   2.078   2.018   3.208 -0.1464 -0.6259  0.0319
 8971SOL    HW138546   2.134   2.080   3.161  2.8566 -1.1058  2.9577
 8971SOL    HW238547   2.025   2.075   3.264 -2.5442 -1.8212 -1.0303
 8972SOL     OW38548   1.396   1.104   0.883 -0.6785 -0.9236 -0.2232
 8972SOL    HW138549   1.454   1.154   0.940  0.1186 -1.5107 -0.5176
 8972SOL    HW238550   1.448   1.033   0.844 -0.6147 -0.5960 -0.7286
 8973SOL     OW38551   0.938   2.841  14.356 -0.3650  0.3211 -0.4333
 8973SOL    HW138552   0.862   2.888  14.321 -0.4623  0.9361  0.6213
 8973SOL    HW238553   0.986   2.830  14.274  0.8952 -0.0631  0.3528
 8974SOL     OW38554   0.119   3.992   8.293 -0.4385 -0.2910  0.2489
 8974SOL    HW138555   0.144   3.918   8.238  0.5144 -0.5837  1.0905
 8974SOL    HW238556   0.160   4.064   8.244  1.7984 -3.2650 -2.2676
 8975SOL     OW38557   4.482   0.733   8.116  0.2407 -0.0700 -0.1738
 8975SOL    HW138558   4.451   0.809   8.164  2.0001 -0.0982  0.9834
 8975SOL    HW238559   4.546   0.697   8.177 -1.6860 -1.8645  0.7972
 8976SOL     OW38560   3.018   4.699   8.194  0.1750 -0.7412  0.2258
 8976SOL    HW138561   2.994   0.051   8.220  1.1602 -1.1983  2.7001
 8976SOL    HW238562   2.984   4.646   8.266 -0.5934 -1.2143 -0.4798
 8977SOL     OW38563   1.323   2.004   2.581 -0.1429  0.4389  0.3571
 8977SOL    HW138564   1.353   1.956   2.504  0.7727  1.7558 -0.1167
 8977SOL    HW238565   1.382   2.079   2.583  0.4392 -0.0634  2.2505
 8978SOL     OW38566   2.819   3.104   7.871 -0.0605  0.4707 -0.2231
 8978SOL    HW138567   2.911   3.091   7.848 -0.6025 -3.0699 -0.3715
 8978SOL    HW238568   2.797   3.154   7.792 -0.5066 -1.0863 -1.0733
 8979SOL     OW38569   0.542   3.050  12.557  0.5360  0.4639 -0.1569
 8979SOL    HW138570   0.621   3.055  12.611  0.6984 -0.6551 -0.2808
 8979SOL    HW238571   0.576   2.995  12.487  3.3146  2.3720 -0.3122
 8980SOL     OW38572   0.644   2.601  12.275 -0.1157 -0.3538  0.1336
 8980SOL    HW138573   0.562   2.552  12.261  0.8810 -1.5525 -1.5543
 8980SOL    HW238574   0.694   2.524  12.302 -0.2677  0.5509  2.9499
 8981SOL     OW38575   3.320   3.222   1.085  0.1108 -0.1985  0.0830
 8981SOL    HW138576   3.261   3.297   1.085  1.6955  1.0419  0.2111
 8981SOL    HW238577   3.398   3.276   1.072 -1.2531  1.6637 -0.3389
 8982SOL     OW38578   2.724   3.326   9.043  0.5217  0.5189 -0.5019
 8982SOL    HW138579   2.705   3.233   9.032 -1.5439  0.6473  1.8199
 8982SOL    HW238580   2.717   3.333   9.138  0.3115 -1.6047 -0.3710
 8983SOL     OW38581   3.695   2.154   8.632 -0.0131 -0.1326  0.0520
 8983SOL    HW138582   3.655   2.207   8.702  1.6289  0.8543  0.2331
 8983SOL    HW238583   3.619   2.105   8.600 -1.9674  0.9397  3.0931
 8984SOL     OW38584   0.608   4.608   2.209 -0.3571  0.4706 -0.4734
 8984SOL    HW138585   0.543   4.542   2.234 -0.9855  1.0689 -0.5203
 8984SOL    HW238586   0.637   4.578   2.123 -2.7676  0.3137 -1.2138
 8985SOL     OW38587   2.788   0.739   6.216  0.0412 -0.7601 -0.6299
 8985SOL    HW138588   2.732   0.803   6.258  0.4542 -0.0350 -1.1906
 8985SOL    HW238589   2.812   0.689   6.294 -0.9189  1.6284  1.1825
 8986SOL     OW38590   3.306   3.360   7.625 -0.5566  0.0363  0.0958
 8986SOL    HW138591   3.329   3.334   7.714  3.4597 -1.5099 -1.3587
 8986SOL    HW238592   3.214   3.376   7.645  0.0336  0.3436  2.5412
 8987SOL     OW38593   4.017   0.242  16.364 -0.1774 -0.1322 -0.7594
 8987SOL    HW138594   4.036   0.282  16.279 -0.5992 -2.3483 -1.8825
 8987SOL    HW238595   3.955   0.171  16.348 -0.8731  0.4262 -0.5460
 8988SOL     OW38596   2.246   4.001   7.958 -0.2365  0.2745 -0.0306
 8988SOL    HW138597   2.239   3.968   8.048  2.3805  0.3364  0.1993
 8988SOL    HW238598   2.165   4.050   7.945 -0.6369 -0.2107  0.5962
 8989SOL     OW38599   0.712   3.595   3.429  0.9203  0.0491  0.3757
 8989SOL    HW138600   0.622   3.622   3.409  1.5302  1.2040 -0.7703
 8989SOL    HW238601   0.698   3.544   3.509  3.1744  0.3281  0.9520
 8990SOL     OW38602   3.183   2.960   5.983  0.0581 -0.3762  0.1721
 8990SOL    HW138603   3.214   2.973   5.894  0.6396 -1.2667  0.2446
 8990SOL    HW238604   3.094   2.988   5.965 -0.6597 -2.0079  1.1769
 8991SOL     OW38605   4.698   0.188   0.545  0.2239  0.2736 -0.1625
 8991SOL    HW138606   4.707   0.103   0.589 -1.8357  0.4157  0.5589
 8991SOL    HW238607   4.728   0.243   0.618  0.4388 -0.4923  0.3358
 8992SOL     OW38608   0.445   3.995   8.211 -0.0192 -0.5698  0.4321
 8992SOL    HW138609   0.512   4.032   8.269 -0.0147 -0.5656  0.4242
 8992SOL    HW238610   0.439   3.911   8.256 -0.9282  0.2611  1.8732
 8993SOL     OW38611   1.021   2.249   2.330 -0.3309  0.3321  0.1146
 8993SOL    HW138612   1.047   2.172   2.381 -0.6850 -0.8587 -1.5383
 8993SOL    HW238613   1.100   2.302   2.342 -1.2301  1.8440 -0.5845
 8994SOL     OW38614   1.311   0.198   2.333  0.7940  0.3370 -0.7559
 8994SOL    HW138615   1.327   0.109   2.364  0.2789  0.9005  1.1198
 8994SOL    HW238616   1.217   0.207   2.349  0.9041  1.9888 -1.0457
 8995SOL     OW38617   2.936   0.804   3.361  0.0968  0.4478 -0.0961
 8995SOL    HW138618   2.852   0.824   3.402 -1.1004 -0.4501 -2.1277
 8995SOL    HW238619   2.906   0.755   3.285  2.7262 -1.3108  0.0138
 8996SOL     OW38620   3.352   4.571   4.700 -0.3699  0.3149 -0.1992
 8996SOL    HW138621   3.317   4.649   4.743  1.2467  0.3745  0.9835
 8996SOL    HW238622   3.289   4.508   4.736  0.2205 -0.8500 -1.1854
 8997SOL     OW38623   3.366   1.161   3.397  0.3930  0.0202 -0.9204
 8997SOL    HW138624   3.342   1.086   3.344  1.5945  1.0861 -2.9763
 8997SOL    HW238625   3.299   1.222   3.368  2.1220  1.1584 -2.5070
 8998SOL     OW38626   4.203   3.542  16.784  0.5047 -0.7462 -0.7457
 8998SOL    HW138627   4.152   3.622  16.794 -0.0160 -1.2752  0.9216
 8998SOL    HW238628   4.166   3.483  16.850 -0.6420  0.9226  0.1030
 8999SOL     OW38629   2.976   4.028   1.493 -0.1028  0.2360 -0.0696
 8999SOL    HW138630   2.885   4.055   1.486 -0.0331  0.6559  0.6487
 8999SOL    HW238631   2.989   4.016   1.587  1.4344 -0.4666 -0.3715
 9000SOL     OW38632   4.696   2.551   1.267 -0.4303 -0.3736 -0.5175
 9000SOL    HW138633   0.045   2.571   1.232 -1.0700  1.1359 -1.2287
 9000SOL    HW238634   4.697   2.455   1.261  0.4078 -0.3141 -1.3770
 9001SOL     OW38635   2.931   4.036   5.467  0.0425  0.0804  0.0136
 9001SOL    HW138636   2.943   4.117   5.417  2.4684 -0.4232 -0.2033
 9001SOL    HW238637   3.005   4.041   5.526 -0.3921 -0.4825  0.6125
 9002SOL     OW38638   0.299   1.141   4.128 -0.0037  0.3283  0.0574
 9002SOL    HW138639   0.237   1.067   4.127 -1.3319  1.4564 -1.1761
 9002SOL    HW238640   0.315   1.155   4.221  0.6739  2.0898 -0.3226
 9003SOL     OW38641   3.605   1.634   0.178  0.2229 -0.0873  0.3150
 9003SOL    HW138642   3.513   1.648   0.155  0.9437 -0.5719 -2.8207
 9003SOL    HW238643   3.601   1.660   0.270 -0.8639 -1.3565  0.6297
 9004SOL     OW38644   4.735   1.017   7.298  0.4968  0.2306  0.1476
 9004SOL    HW138645   0.010   0.958   7.223 -1.0167 -0.9481  0.8227
 9004SOL    HW238646   0.075   0.993   7.350  0.5703  0.2004  0.0252
 9005SOL     OW38647   4.167   0.108   4.759  0.2342  0.2433  0.2725
 9005SOL    HW138648   4.121   0.187   4.786 -0.8869  0.3337 -1.9505
 9005SOL    HW238649   4.196   0.133   4.672  0.7149  0.5001  0.5057
 9006SOL     OW38650   0.307   4.556   7.169  0.3173 -0.6704 -0.4874
 9006SOL    HW138651   0.213   4.570   7.180  0.8110  0.9332  1.6157
 9006SOL    HW238652   0.313   4.474   7.119  2.0763 -0.1034 -1.1733
 9007SOL     OW38653   4.437   2.194   7.156  0.3654 -0.1176  0.1976
 9007SOL    HW138654   4.416   2.115   7.205  2.0143 -0.3360  0.5257
 9007SOL    HW238655   4.496   2.159   7.089 -1.6697 -2.1573 -0.5436
 9008SOL     OW38656   1.718   2.956  16.651 -0.3115 -0.5125  0.0565
 9008SOL    HW138657   1.681   2.868  16.643  1.1460 -1.1304  0.2938
 9008SOL    HW238658   1.640   3.003  16.682  1.9523  1.8608  2.1847
 9009SOL     OW38659   4.492   3.613   3.792 -0.3011  0.3557  0.4415
 9009SOL    HW138660   4.564   3.668   3.760 -2.8868  1.7963 -2.8787
 9009SOL    HW238661   4.518   3.600   3.883 -2.5125 -0.4724  0.9504
 9010SOL     OW38662   2.973   1.773   3.495  0.3177  0.4268  0.1333
 9010SOL    HW138663   2.962   1.678   3.490  2.6518 -0.0868  4.5919
 9010SOL    HW238664   3.007   1.792   3.408 -0.0653 -0.4391 -0.1983
 9011SOL     OW38665   3.201   3.944  13.029  0.6058  0.1451 -0.1738
 9011SOL    HW138666   3.255   4.000  12.973 -0.7154  1.2624 -0.3258
 9011SOL    HW238667   3.231   3.954  13.119 -1.1235 -0.7253  0.5089
 9012SOL     OW38668   2.527   0.799   2.030  0.5119 -0.4484  0.0756
 9012SOL    HW138669   2.612   0.835   2.055  1.5771 -2.1474 -1.1155
 9012SOL    HW238670   2.485   0.781   2.114  0.1908  1.5973  0.3551
 9013SOL     OW38671   0.223   0.215   0.737 -0.0738 -0.2908 -0.0226
 9013SOL    HW138672   0.285   0.277   0.775  1.0635 -2.3512  1.5039
 9013SOL    HW238673   0.143   0.246   0.780  1.8159  1.9781  1.8116
 9014SOL     OW38674   0.103   0.234   3.917  0.7844  0.0081  0.2600
 9014SOL    HW138675   0.047   0.261   3.845  0.3882 -1.1252  0.1346
 9014SOL    HW238676   0.186   0.273   3.891 -0.4278  2.3468 -0.1005
 9015SOL     OW38677   3.478   0.891   9.644  0.2642 -0.2454  0.2366
 9015SOL    HW138678   3.419   0.888   9.720 -0.1944  0.2631 -0.1009
 9015SOL    HW238679   3.560   0.867   9.688 -0.0798 -2.3726 -0.2816
 9016SOL     OW38680   1.375   4.322   3.069 -0.3490 -0.2933  0.5617
 9016SOL    HW138681   1.302   4.338   3.128  0.1698 -0.8050  1.3417
 9016SOL    HW238682   1.445   4.312   3.133 -0.1870  4.0832  1.0335
 9017SOL     OW38683   4.571   0.824   1.999 -0.3192  0.4749 -0.7027
 9017SOL    HW138684   4.518   0.808   2.077 -0.2655 -0.5890 -0.8814
 9017SOL    HW238685   4.660   0.823   2.036  0.1854  0.6892 -1.9146
 9018SOL     OW38686   0.519   3.812   5.996 -0.2874 -0.3689  0.8218
 9018SOL    HW138687   0.552   3.752   5.928 -1.3165  0.9852 -0.8731
 9018SOL    HW238688   0.602   3.835   6.037  0.5722 -0.0808 -1.0439
 9019SOL     OW38689   4.396   0.479  13.267 -0.1266 -0.4194 -0.2055
 9019SOL    HW138690   4.401   0.478  13.362  0.4039  1.4374 -0.2113
 9019SOL    HW238691   4.303   0.460  13.260 -0.3518  0.9959 -1.0435
 9020SOL     OW38692   1.547   2.262  12.389 -0.5274 -0.5669  0.4164
 9020SOL    HW138693   1.561   2.350  12.353 -0.6179  0.7016  3.5277
 9020SOL    HW238694   1.568   2.278  12.481  0.0999 -2.1816  0.5389
 9021SOL     OW38695   3.867   1.140   4.554  0.2336  0.3716  0.3695
 9021SOL    HW138696   3.911   1.082   4.492 -1.8138  0.1057 -0.8408
 9021SOL    HW238697   3.935   1.197   4.589  0.8982 -1.2768  1.7708
 9022SOL     OW38698   2.408   2.916   2.656 -0.3958  0.3258 -0.1400
 9022SOL    HW138699   2.459   2.994   2.636  0.5786 -0.2494  0.1265
 9022SOL    HW238700   2.482   2.856   2.646  0.2861  0.9523  1.2118
 9023SOL     OW38701   1.718   4.183   2.000  0.1169 -0.5308 -0.1562
 9023SOL    HW138702   1.699   4.266   2.043 -0.3070 -2.2747  2.9802
 9023SOL    HW238703   1.763   4.134   2.068 -0.3212  0.5661  0.9243
 9024SOL     OW38704   2.929   4.081   6.043  0.3792  0.5740  0.3212
 9024SOL    HW138705   2.856   4.135   6.012  0.2864  0.8676  1.0595
 9024SOL    HW238706   2.984   4.074   5.965  1.3361 -0.9669  1.1474
 9025SOL     OW38707   0.591   0.357  16.452  0.2223  0.4094 -0.4927
 9025SOL    HW138708   0.650   0.301  16.400 -1.2346  0.9366 -2.6892
 9025SOL    HW238709   0.637   0.369  16.536  0.5376 -0.1835 -0.5762
 9026SOL     OW38710   3.527   0.363  12.431 -0.0087  0.0107  0.1202
 9026SOL    HW138711   3.592   0.311  12.477  0.9121  2.0920  1.1816
 9026SOL    HW238712   3.584   0.416  12.375 -1.3706  1.0273 -0.3142
 9027SOL     OW38713   3.087   0.219   4.099 -0.0047 -0.2543  0.5500
 9027SOL    HW138714   2.995   0.191   4.101 -0.4140  1.0055 -0.0909
 9027SOL    HW238715   3.109   0.171   4.178  2.4880  1.4380  0.8949
 9028SOL     OW38716   4.510   4.712   5.330  0.3071 -0.1466  0.4444
 9028SOL    HW138717   4.574   4.704   5.260 -0.0706 -2.4007  0.3601
 9028SOL    HW238718   4.432   4.732   5.278  2.4358  0.8729 -2.3726
 9029SOL     OW38719   4.400   1.483  16.965  0.1931  0.5761  0.2857
 9029SOL    HW138720   4.374   1.409  16.910 -0.0160  0.1416  0.9660
 9029SOL    HW238721   4.489   1.452  16.983  0.2061  0.4566  0.0136
 9030SOL     OW38722   1.868   2.436   1.605  0.5483  0.3433  0.5249
 9030SOL    HW138723   1.947   2.484   1.579  0.8727 -0.0368  0.7973
 9030SOL    HW238724   1.891   2.343   1.612  0.7618  0.4741  1.4883
 9031SOL     OW38725   2.488   4.403   3.011  0.0354  0.0702  0.2902
 9031SOL    HW138726   2.452   4.467   2.950 -0.0891  1.2233  1.5740
 9031SOL    HW238727   2.406   4.360   3.035 -0.1175  1.6052  2.5366
 9032SOL     OW38728   2.296   4.129   9.659 -0.0931 -0.0291  0.4593
 9032SOL    HW138729   2.345   4.133   9.741  3.0476  2.6471 -1.5492
 9032SOL    HW238730   2.239   4.204   9.677 -1.4085 -1.4193  2.1092
 9033SOL     OW38731   2.561   1.119   5.261 -0.0377  0.2719 -0.2699
 9033SOL    HW138732   2.557   1.055   5.190 -1.1556 -0.3894  0.3801
 9033SOL    HW238733   2.654   1.106   5.280  0.2001  0.0305 -1.5820
 9034SOL     OW38734   0.129   2.369   6.552 -0.4350 -0.6155 -0.1278
 9034SOL    HW138735   0.043   2.408   6.570 -0.2713 -0.1979 -0.2444
 9034SOL    HW238736   0.182   2.448   6.568 -0.6703 -0.3096 -0.8411
 9035SOL     OW38737   1.414   1.180   3.605  0.4145  0.0772 -0.4208
 9035SOL    HW138738   1.377   1.092   3.598  1.6774 -0.4784  0.0034
 9035SOL    HW238739   1.397   1.208   3.515 -1.0438 -0.0056 -0.1816
 9036SOL     OW38740   4.679   2.563   7.494 -0.4959  0.0221 -0.1079
 9036SOL    HW138741   4.667   2.524   7.407 -1.1603 -1.9721  0.8750
 9036SOL    HW238742   4.704   2.491   7.551 -0.3604  1.7510  2.0031
 9037SOL     OW38743   4.030   4.315   3.197  0.2860 -1.0173 -0.3270
 9037SOL    HW138744   3.975   4.237   3.201  0.5899 -1.2497 -0.6556
 9037SOL    HW238745   4.112   4.268   3.213 -0.6537 -2.0465  1.4493
 9038SOL     OW38746   0.008   0.626   4.244 -0.0523  0.3250  0.0898
 9038SOL    HW138747   4.677   0.654   4.183 -2.1994 -0.9011  1.9567
 9038SOL    HW238748   0.035   0.542   4.206  2.0448  0.0893  2.1058
 9039SOL     OW38749   3.880   3.875   9.490 -0.1921 -0.2469 -0.2536
 9039SOL    HW138750   3.975   3.872   9.495 -0.0693  2.5451 -1.1723
 9039SOL    HW238751   3.858   3.967   9.475 -0.9141 -0.0948  1.8257
 9040SOL     OW38752   2.272   2.099   4.575 -0.7225  0.5318  0.3123
 9040SOL    HW138753   2.222   2.168   4.532  0.2628 -1.0090 -3.2802
 9040SOL    HW238754   2.353   2.119   4.527  0.8512 -0.7059  2.4357
 9041SOL     OW38755   4.209   3.236   7.050 -0.1242  0.2213  0.7547
 9041SOL    HW138756   4.175   3.274   6.969  1.5459  0.2934  0.0946
 9041SOL    HW238757   4.129   3.190   7.076 -0.6287 -0.3045 -1.7269
 9042SOL     OW38758   2.533   0.253  14.932 -0.5101 -0.0882 -0.4785
 9042SOL    HW138759   2.550   0.309  14.857 -0.4298 -0.4823 -0.7522
 9042SOL    HW238760   2.519   0.316  15.003  0.6914  0.7141 -0.9685
 9043SOL     OW38761   2.371   2.313   3.700 -0.8443  0.1064  0.5573
 9043SOL    HW138762   2.453   2.337   3.743 -0.3047  0.2068 -0.5333
 9043SOL    HW238763   2.381   2.368   3.622  0.6717  2.5073  2.4269
 9044SOL     OW38764   1.950   3.251   9.278 -0.2770  0.0691  0.1173
 9044SOL    HW138765   2.035   3.250   9.233 -0.2972  0.0758  0.0787
 9044SOL    HW238766   1.909   3.312   9.217  0.8804  1.0640  0.3295
 9045SOL     OW38767   2.586   1.262   6.966 -0.1378  0.2172 -0.4486
 9045SOL    HW138768   2.581   1.316   6.888 -0.4518  0.6827 -0.1074
 9045SOL    HW238769   2.559   1.326   7.032 -0.0879 -0.1523 -0.0699
 9046SOL     OW38770   0.403   4.524   4.798 -0.0229  0.4887 -0.4158
 9046SOL    HW138771   0.395   4.529   4.894  0.3158 -0.6051 -0.3260
 9046SOL    HW238772   0.421   4.432   4.778  0.7056  0.4085  0.6340
 9047SOL     OW38773   0.113   2.094   3.186 -0.3393  0.4834  0.7661
 9047SOL    HW138774   0.034   2.142   3.160 -0.2388  0.3283  0.1574
 9047SOL    HW238775   0.110   2.014   3.132  2.7493  1.6940 -1.1959
 9048SOL     OW38776   0.752   1.068  12.485 -0.4020  0.4094 -1.0608
 9048SOL    HW138777   0.665   1.035  12.463 -1.9212  1.7836  2.9193
 9048SOL    HW238778   0.724   1.114  12.564 -2.4216  0.4132 -1.7833
 9049SOL     OW38779   0.891   3.197   1.505  0.1197  0.0232 -0.2437
 9049SOL    HW138780   0.930   3.159   1.427  1.4256  0.0668  0.3990
 9049SOL    HW238781   0.943   3.272   1.536  1.0786 -0.9284  0.4208
 9050SOL     OW38782   0.894   1.849  13.604  0.5163 -0.0510 -0.2085
 9050SOL    HW138783   0.833   1.923  13.606  1.3160  0.7050 -3.1121
 9050SOL    HW238784   0.893   1.803  13.520  0.9754 -0.0045 -0.2393
 9051SOL     OW38785   2.248   0.654   6.849 -0.4875 -0.1164 -0.2259
 9051SOL    HW138786   2.206   0.706   6.781 -1.7457  0.0949  0.7077
 9051SOL    HW238787   2.178   0.603   6.891  0.2672 -2.2590 -1.6242
 9052SOL     OW38788   3.590   0.863   8.604  0.0642  0.3286 -0.1681
 9052SOL    HW138789   3.513   0.808   8.613  0.7537 -0.9121 -1.8100
 9052SOL    HW238790   3.598   0.837   8.512 -0.0570 -0.0755 -0.0641
 9053SOL     OW38791   0.735   4.658  15.865  0.0260  0.3748  0.3545
 9053SOL    HW138792   0.807   4.705  15.825  0.6345 -2.7826 -2.2003
 9053SOL    HW238793   0.664   4.721  15.851  1.0037  0.8687 -2.3600
 9054SOL     OW38794   4.600   1.734   9.508  0.0075 -0.0782 -0.1998
 9054SOL    HW138795   4.603   1.753   9.414  0.5629  0.2253 -0.1178
 9054SOL    HW238796   4.596   1.639   9.503  2.8537 -0.1579 -0.7540
 9055SOL     OW38797   4.012   2.695   8.832  0.1642 -0.0971 -0.1238
 9055SOL    HW138798   3.927   2.682   8.789  0.4045 -2.7566  0.1711
 9055SOL    HW238799   4.022   2.603   8.858  0.4308 -0.2888 -0.9017
 9056SOL     OW38800   2.260   2.818   8.452  0.0282 -0.0855 -0.4253
 9056SOL    HW138801   2.340   2.774   8.424 -0.2301  1.1837 -3.2293
 9056SOL    HW238802   2.255   2.891   8.390  0.7871  1.1921  1.0296
 9057SOL     OW38803   4.356   0.441  13.974  0.1660  0.4623 -0.5088
 9057SOL    HW138804   4.269   0.402  13.982  1.1695 -1.9183 -1.3125
 9057SOL    HW238805   4.393   0.365  13.929 -2.8192  0.7199 -3.4142
 9058SOL     OW38806   0.968   0.467  10.592 -0.1599  0.6325 -0.3769
 9058SOL    HW138807   1.060   0.485  10.613  0.5598 -0.4634 -2.6444
 9058SOL    HW238808   0.925   0.527  10.653  0.2945 -0.8996  1.4731
 9059SOL     OW38809   1.663   0.103   7.757  0.6247  0.0410  0.2602
 9059SOL    HW138810   1.653   0.163   7.831  0.1888  0.4933 -0.1697
 9059SOL    HW238811   1.754   0.118   7.732  1.6904 -0.4901  3.8003
 9060SOL     OW38812   3.092   0.089   6.887 -0.1911 -0.0990 -0.1309
 9060SOL    HW138813   3.167   0.129   6.844  0.5852 -2.3596 -0.8748
 9060SOL    HW238814   3.057   0.027   6.822  0.3056 -0.1496 -0.3491
 9061SOL     OW38815   3.386   4.256   4.411  0.0830 -0.7134 -0.0893
 9061SOL    HW138816   3.416   4.215   4.492 -0.1401 -0.0890  0.3100
 9061SOL    HW238817   3.466   4.284   4.367 -0.2725  3.1617  1.6776
 9062SOL     OW38818   0.659   0.236   4.946  0.3465 -0.1075  0.3256
 9062SOL    HW138819   0.570   0.244   4.912  0.2848 -2.0322  0.0729
 9062SOL    HW238820   0.669   0.142   4.961  0.0533 -0.5467 -2.1758
 9063SOL     OW38821   0.004   1.849  17.125 -0.1767  0.7114 -0.3111
 9063SOL    HW138822   0.010   1.793  17.047 -0.3424  2.0427 -1.2760
 9063SOL    HW238823   4.658   1.894  17.116 -0.8790 -0.3278  1.0678
 9064SOL     OW38824   1.813   3.032  13.408  0.1515 -0.0204 -0.4782
 9064SOL    HW138825   1.836   3.096  13.342 -2.8844  0.5385 -1.0134
 9064SOL    HW238826   1.774   3.091  13.473  0.8815 -1.5951  1.4026
 9065SOL     OW38827   2.041   2.035   6.875  0.0664 -0.1487  0.2344
 9065SOL    HW138828   2.067   1.965   6.816 -1.2068 -1.0800  0.7739
 9065SOL    HW238829   2.048   1.990   6.960 -1.4001 -2.6548 -0.9911
 9066SOL     OW38830   1.866   1.779  17.221  0.0222  0.2874  0.0131
 9066SOL    HW138831   1.842   1.868  17.247  0.0980 -0.0855  1.3433
 9066SOL    HW238832   1.784   1.753  17.179 -0.3529 -2.0577  2.2277
 9067SOL     OW38833   0.715   3.236   7.341 -0.4953  0.1050  0.8057
 9067SOL    HW138834   0.660   3.199   7.409 -0.3291 -0.3021  0.7162
 9067SOL    HW238835   0.736   3.161   7.285 -1.0582  2.7572 -2.9937
 9068SOL     OW38836   2.205   1.261   6.336  0.1219  0.1979  0.7954
 9068SOL    HW138837   2.137   1.273   6.270 -0.8278  2.8550  2.2655
 9068SOL    HW238838   2.285   1.232   6.292 -1.2713 -1.2395 -0.7958
 9069SOL     OW38839   0.473   0.535   3.468 -0.1339 -0.1536 -0.4495
 9069SOL    HW138840   0.546   0.486   3.506  0.5433  2.1896  1.2293
 9069SOL    HW238841   0.482   0.619   3.512 -0.8631 -0.6987  0.7434
 9070SOL     OW38842   3.728   0.624   5.284  0.5360  0.0499 -0.0810
 9070SOL    HW138843   3.750   0.657   5.371 -1.8908 -1.4267  1.0898
 9070SOL    HW238844   3.810   0.600   5.241  2.1818  2.2550  1.7906
 9071SOL     OW38845   3.357   2.554   6.170 -0.0886  0.0064 -0.0097
 9071SOL    HW138846   3.328   2.496   6.241  2.1118 -2.2237 -0.9131
 9071SOL    HW238847   3.309   2.634   6.188 -0.3850 -0.3169  0.6500
 9072SOL     OW38848   2.780   4.640   1.452  0.0662 -0.3366  0.4630
 9072SOL    HW138849   2.723   4.710   1.484 -1.6043 -0.6369 -1.8662
 9072SOL    HW238850   2.864   4.678   1.477 -0.6801  0.8897  1.0931
 9073SOL     OW38851   4.433   0.972  16.321  0.2303 -0.0958  0.0322
 9073SOL    HW138852   4.473   1.059  16.324  2.3096 -1.0346  0.0504
 9073SOL    HW238853   4.346   1.004  16.299  0.3997  2.4942  3.0364
 9074SOL     OW38854   1.214   4.290   2.551 -0.4159  0.1130 -0.0654
 9074SOL    HW138855   1.241   4.250   2.634 -0.4015  0.9945  0.3640
 9074SOL    HW238856   1.229   4.218   2.490  1.0301  0.9912 -0.7539
 9075SOL     OW38857   4.161   1.270  17.131 -0.5517  0.1641 -0.1884
 9075SOL    HW138858   4.241   1.286  17.181 -0.2664 -0.6988 -0.3669
 9075SOL    HW238859   4.199   1.255  17.044 -0.2355 -1.7453  0.2652
 9076SOL     OW38860   4.257   3.152   6.354  0.3517 -0.1154 -0.0749
 9076SOL    HW138861   4.221   3.230   6.311 -2.0897 -0.8079  0.7078
 9076SOL    HW238862   4.340   3.197   6.366  0.0628 -0.3102  2.7281
 9077SOL     OW38863   4.334   2.474  13.055 -0.3081  0.7621 -0.6956
 9077SOL    HW138864   4.290   2.486  12.970  0.4390  2.3581 -0.8543
 9077SOL    HW238865   4.280   2.523  13.118 -0.5794  0.4105 -0.6525
 9078SOL     OW38866   3.519   2.145  11.551 -0.3394  0.0149 -0.2525
 9078SOL    HW138867   3.507   2.223  11.606 -1.0008  0.7266 -1.4056
 9078SOL    HW238868   3.613   2.160  11.542 -0.2987 -0.5851 -0.8443
 9079SOL     OW38869   0.255   3.267  13.037 -0.0561  0.3331 -0.3850
 9079SOL    HW138870   0.260   3.358  13.007 -1.7491  0.5268 -0.1282
 9079SOL    HW238871   0.161   3.250  13.044  0.1295  0.9266  3.8161
 9080SOL     OW38872   3.295   2.157   6.596 -0.6066  0.5600  0.0126
 9080SOL    HW138873   3.260   2.123   6.513  0.3819 -0.2490 -0.0778
 9080SOL    HW238874   3.370   2.100   6.609  0.8229  2.1844 -1.0271
 9081SOL     OW38875   0.921   2.885   4.458 -0.1096  0.3532 -0.5168
 9081SOL    HW138876   0.855   2.883   4.388  0.6727 -1.1783 -1.2275
 9081SOL    HW238877   0.960   2.798   4.449  0.5769  0.4176  1.9128
 9082SOL     OW38878   2.683   1.988   1.483  0.2247  0.7174  0.3121
 9082SOL    HW138879   2.753   1.935   1.444  0.1968 -0.3523  1.7051
 9082SOL    HW238880   2.728   2.073   1.486  0.0662  0.8747 -1.7106
 9083SOL     OW38881   0.931   3.389   8.009 -0.2098  0.3063  0.1430
 9083SOL    HW138882   0.947   3.351   8.095  1.9093  0.2901 -0.2498
 9083SOL    HW238883   1.015   3.416   7.970 -0.4740 -0.7526 -1.1678
 9084SOL     OW38884   2.628   0.204  16.623  0.4705 -0.2775 -0.0233
 9084SOL    HW138885   2.601   0.232  16.711  2.9193  0.6949  0.4316
 9084SOL    HW238886   2.716   0.242  16.621  0.2024  0.1893 -3.1125
 9085SOL     OW38887   0.236   1.684  17.445  0.0974  0.2392  0.4657
 9085SOL    HW138888   0.250   1.616  17.379  1.5346  1.3483 -0.3625
 9085SOL    HW238889   0.266   1.768  17.413 -1.4883  0.2636 -0.9865
 9086SOL     OW38890   1.245   0.258   2.825 -0.1206 -0.3147 -0.0248
 9086SOL    HW138891   1.217   0.335   2.775 -0.4197 -0.0188  0.5961
 9086SOL    HW238892   1.305   0.209   2.769 -0.3894 -0.6691 -0.0028
 9087SOL     OW38893   0.599   2.796   7.379  0.2967 -0.0839  0.2400
 9087SOL    HW138894   0.581   2.704   7.359  0.3853 -0.0865  0.1704
 9087SOL    HW238895   0.508   2.823   7.388  0.1588 -0.0389 -1.3826
 9088SOL     OW38896   0.725   3.043  13.016 -0.0708 -0.1599  0.3041
 9088SOL    HW138897   0.789   3.110  13.039  1.4858 -1.5197 -0.0324
 9088SOL    HW238898   0.649   3.097  12.995  0.9002  0.4168 -1.7461
 9089SOL     OW38899   4.224   4.502   4.585  0.0059 -0.2811 -0.6094
 9089SOL    HW138900   4.202   4.577   4.528  1.5831  1.6619  1.3745
 9089SOL    HW238901   4.317   4.518   4.596 -0.7253  0.9570  3.4921
 9090SOL     OW38902   2.822   2.813   8.667 -0.2827  0.8512 -0.3004
 9090SOL    HW138903   2.748   2.799   8.725  1.1389 -2.7491  0.6552
 9090SOL    HW238904   2.826   2.908   8.680 -0.0904  0.9962 -1.3860
 9091SOL     OW38905   0.887   3.082   0.392 -0.0068  0.2723 -0.3068
 9091SOL    HW138906   0.875   3.171   0.424 -1.1412 -1.3063  3.7155
 9091SOL    HW238907   0.932   3.093   0.308 -0.6782  2.3956 -0.3876
 9092SOL     OW38908   4.260   1.833   6.805 -0.3013 -0.3870 -0.1886
 9092SOL    HW138909   4.257   1.927   6.822 -1.4660 -0.1680 -1.5897
 9092SOL    HW238910   4.174   1.793   6.809 -1.1590  1.4410 -0.5129
 9093SOL     OW38911   0.757   4.401  13.180 -0.0208  0.4261  0.3856
 9093SOL    HW138912   0.723   4.404  13.269 -1.7599  0.0170 -0.2759
 9093SOL    HW238913   0.818   4.474  13.191 -0.6480  1.0200 -0.0732
 9094SOL     OW38914   0.517   1.290   6.334  0.0722  0.2939 -0.1673
 9094SOL    HW138915   0.484   1.369   6.378  0.7699  0.5591 -0.1257
 9094SOL    HW238916   0.581   1.262   6.399  0.2149  3.2061  0.9697
 9095SOL     OW38917   3.627   3.028   2.089 -0.1791  0.8122  0.3978
 9095SOL    HW138918   3.558   3.016   2.024  0.3918 -2.0541  0.3152
 9095SOL    HW238919   3.625   2.944   2.136  2.9790  0.7661  0.4789
 9096SOL     OW38920   1.964   0.133  15.947  0.0292  1.0269  0.3285
 9096SOL    HW138921   1.975   0.183  15.867  0.6893  1.3226  0.6023
 9096SOL    HW238922   2.043   0.159  15.994  1.1931 -0.6723 -0.7123
 9097SOL     OW38923   0.662   0.966   7.738  0.4648  0.0675 -0.1296
 9097SOL    HW138924   0.745   1.009   7.719  1.4025 -0.0568  3.6749
 9097SOL    HW238925   0.687   0.888   7.787 -0.7870 -1.4883 -1.9620
 9098SOL     OW38926   1.696   3.695   3.125 -0.1735 -0.0508 -0.2473
 9098SOL    HW138927   1.705   3.670   3.033 -1.7322  2.1657 -1.0048
 9098SOL    HW238928   1.784   3.694   3.161  0.3504  3.8616 -1.3755
 9099SOL     OW38929   0.671   0.819   0.442 -0.0331  0.2072 -0.0595
 9099SOL    HW138930   0.579   0.800   0.455  0.2455 -1.6489 -0.7394
 9099SOL    HW238931   0.670   0.811   0.346  1.2099 -3.0215  0.1674
 9100SOL     OW38932   4.154   3.448   7.248  0.4116  0.2046  0.4130
 9100SOL    HW138933   4.181   3.373   7.195 -1.2823  0.0675 -0.2433
 9100SOL    HW238934   4.217   3.514   7.218  0.2327  0.3206  0.2904
 9101SOL     OW38935   1.388   0.545   0.615 -0.2400 -0.3827  0.1651
 9101SOL    HW138936   1.424   0.534   0.527  0.0105 -1.1730  0.3715
 9101SOL    HW238937   1.335   0.467   0.628  0.5820 -0.8473  0.7783
 9102SOL     OW38938   2.445   3.329   2.885  1.0082  0.3880 -0.3769
 9102SOL    HW138939   2.412   3.324   2.795 -2.1699 -0.6579  0.8402
 9102SOL    HW238940   2.519   3.268   2.890  1.4281  0.8037 -1.6732
 9103SOL     OW38941   4.107   0.721   7.936  0.3469 -0.2438  0.2762
 9103SOL    HW138942   4.168   0.659   7.974  0.9306 -0.3583 -0.8316
 9103SOL    HW238943   4.046   0.711   8.009 -0.3514 -2.7782 -0.6518
 9104SOL     OW38944   2.431   3.168   9.301 -0.1834 -0.2945 -0.0049
 9104SOL    HW138945   2.434   3.158   9.205 -0.4510  0.2921 -0.0745
 9104SOL    HW238946   2.519   3.195   9.325 -0.5133  1.4699 -0.7190
 9105SOL     OW38947   3.041   0.307   5.901 -0.2165  0.2256 -0.1661
 9105SOL    HW138948   2.985   0.370   5.857  0.4415  1.6601  1.0564
 9105SOL    HW238949   3.050   0.349   5.986 -0.5613  1.9577 -0.9895
 9106SOL     OW38950   1.248   4.133   9.138  0.0022 -0.0779  0.7211
 9106SOL    HW138951   1.243   4.204   9.202  1.1626 -0.1375  0.8820
 9106SOL    HW238952   1.246   4.050   9.185  2.2258 -0.4095  0.2493
 9107SOL     OW38953   2.282   0.830  10.625 -0.1129  0.2399 -0.2839
 9107SOL    HW138954   2.237   0.853  10.544 -0.3542  1.9277  0.3384
 9107SOL    HW238955   2.355   0.891  10.636  1.4384 -1.7354  0.6262
 9108SOL     OW38956   0.172   4.715   1.432 -0.2008 -0.0721 -0.2173
 9108SOL    HW138957   0.111   4.727   1.359 -0.9340  0.5904  0.5085
 9108SOL    HW238958   0.159   4.622   1.451  0.4132 -0.1013  0.0515
 9109SOL     OW38959   1.460   1.883  14.526 -0.4611  0.0927 -0.5757
 9109SOL    HW138960   1.505   1.862  14.444  1.7273  1.9956  0.1616
 9109SOL    HW238961   1.445   1.977  14.510  0.5473  0.0716 -1.6542
 9110SOL     OW38962   2.913   0.966   9.884 -0.0578 -0.4953  0.4062
 9110SOL    HW138963   2.915   0.946   9.977  2.7356  0.1488  0.5123
 9110SOL    HW238964   2.854   1.040   9.870 -1.1436 -1.3547  0.4102
 9111SOL     OW38965   1.854   1.384  14.163 -0.3110  0.3439  0.5001
 9111SOL    HW138966   1.765   1.406  14.189 -0.1579  1.3020  0.1965
 9111SOL    HW238967   1.901   1.369  14.245 -0.0789  0.1903  0.3395
 9112SOL     OW38968   4.289   1.534   1.355 -0.1308 -0.1354  0.1703
 9112SOL    HW138969   4.370   1.530   1.406 -0.3155 -0.3595  0.4503
 9112SOL    HW238970   4.239   1.456   1.379 -3.4936  1.4566 -1.6478
 9113SOL     OW38971   4.498   0.205  13.066 -0.0916 -0.4508 -0.2695
 9113SOL    HW138972   4.480   0.297  13.049 -1.6772 -0.4013  1.6411
 9113SOL    HW238973   4.542   0.177  12.986  2.1873  1.3066  0.3682
 9114SOL     OW38974   3.554   2.488  12.532 -0.0846  0.0488  0.3003
 9114SOL    HW138975   3.634   2.477  12.481  0.1602 -2.3803  1.1603
 9114SOL    HW238976   3.551   2.575  12.572  0.1160  0.9422 -1.6735
 9115SOL     OW38977   3.678   0.857  12.202  0.1216  0.0153 -0.8955
 9115SOL    HW138978   3.600   0.909  12.223 -0.3524 -3.1101  5.2107
 9115SOL    HW238979   3.732   0.913  12.147  0.1179 -0.7215 -1.6365
 9116SOL     OW38980   4.239   3.090   0.530  0.1042 -0.5086  0.2537
 9116SOL    HW138981   4.312   3.136   0.489 -0.3998  1.0714  1.1372
 9116SOL    HW238982   4.232   3.011   0.477  0.6530 -1.5335  1.7025
 9117SOL     OW38983   3.583   0.724   8.369 -0.7568 -0.1008 -0.3931
 9117SOL    HW138984   3.583   0.635   8.405  0.0986  0.2700  0.5288
 9117SOL    HW238985   3.633   0.720   8.287  0.8461  1.4077  0.5126
 9118SOL     OW38986   1.952   2.182  16.077 -0.4683  0.0243  0.3072
 9118SOL    HW138987   2.024   2.186  16.139 -2.0066  2.3410  1.9543
 9118SOL    HW238988   1.976   2.103  16.029  0.0590  1.1103 -1.2283
 9119SOL     OW38989   4.454   2.138  10.424 -0.0440 -0.9009 -0.1300
 9119SOL    HW138990   4.429   2.165  10.512 -0.1637 -0.3436 -0.3373
 9119SOL    HW238991   4.383   2.172  10.370  0.7232  0.0131 -0.5650
 9120SOL     OW38992   1.734   2.896  14.811 -0.6984  0.2364  0.3780
 9120SOL    HW138993   1.728   2.823  14.748 -0.2227  0.0510  0.5507
 9120SOL    HW238994   1.737   2.855  14.897 -0.5916 -0.5735  0.0002
 9121SOL     OW38995   0.955   4.470  10.400 -0.1159  0.8382 -0.3018
 9121SOL    HW138996   1.047   4.485  10.421 -0.1784  0.3111  0.3174
 9121SOL    HW238997   0.916   4.554  10.424  0.2206  1.4451 -1.8436
 9122SOL     OW38998   1.490   4.335   0.663 -0.3097  0.4909 -0.0864
 9122SOL    HW138999   1.518   4.256   0.708  0.1540 -1.0545 -3.0651
 9122SOL    HW239000   1.507   4.409   0.722  1.6892  0.4299 -0.6008
 9123SOL     OW39001   4.601   0.632   5.499 -0.3107  0.0958  0.5325
 9123SOL    HW139002   4.572   0.614   5.409  2.0588  1.5795 -0.5159
 9123SOL    HW239003   4.572   0.552   5.544  1.3220 -0.3112  0.8536
 9124SOL     OW39004   3.610   1.722   1.445 -0.0663 -0.2564  0.0846
 9124SOL    HW139005   3.626   1.817   1.445 -1.5899  0.0087  0.5202
 9124SOL    HW239006   3.538   1.711   1.382  0.4627 -0.5027 -0.4707
 9125SOL     OW39007   0.438   0.963   1.008 -0.1338  0.8166  0.1488
 9125SOL    HW139008   0.464   1.053   1.030 -0.5943  0.6646  1.3356
 9125SOL    HW239009   0.421   0.924   1.094  3.1302 -2.7503 -0.8242
 9126SOL     OW39010   3.086   2.805   9.023 -0.7264  0.3688  0.1073
 9126SOL    HW139011   3.121   2.838   8.941  0.2965 -3.2393 -0.8848
 9126SOL    HW239012   3.167   2.796   9.073  0.4101 -0.1631 -1.8417
 9127SOL     OW39013   0.362   0.621   1.416  0.4809 -0.3055  0.5108
 9127SOL    HW139014   0.451   0.637   1.446 -0.5409  1.5110  2.5690
 9127SOL    HW239015   0.393   0.594   1.329  0.9433  5.5835 -1.1880
 9128SOL     OW39016   2.221   3.049   1.746  0.4086  0.0130  0.3817
 9128SOL    HW139017   2.278   3.112   1.702 -0.9962  1.4075  0.5573
 9128SOL    HW239018   2.283   3.006   1.805  0.2693 -1.1743 -0.3344
 9129SOL     OW39019   3.754   2.645   8.752  0.3524 -0.0641 -0.1513
 9129SOL    HW139020   3.754   2.724   8.697 -0.9063 -1.2949 -1.8937
 9129SOL    HW239021   3.665   2.651   8.787  0.1559 -2.0043 -0.3402
 9130SOL     OW39022   1.323   4.345   8.079 -0.0510 -0.7804 -0.1791
 9130SOL    HW139023   1.362   4.276   8.024  0.0124 -1.2118  0.4151
 9130SOL    HW239024   1.289   4.295   8.153 -1.1639  0.8426  0.3863
 9131SOL     OW39025   3.393   0.506  17.360 -0.6284  0.4537 -0.1523
 9131SOL    HW139026   3.347   0.516  17.276 -1.2011  0.1301  0.1238
 9131SOL    HW239027   3.353   0.422  17.383 -0.1163  0.6781  1.5203
 9132SOL     OW39028   3.312   1.445   6.764 -0.2899  0.2863  0.2171
 9132SOL    HW139029   3.346   1.356   6.764 -0.9856  0.0180  0.5412
 9132SOL    HW239030   3.259   1.437   6.684 -0.0079  2.8059 -0.2046
 9133SOL     OW39031   0.935   0.157  15.430  0.0768 -0.1303 -0.1430
 9133SOL    HW139032   1.020   0.129  15.464  1.4303  1.3620 -2.3287
 9133SOL    HW239033   0.956   0.222  15.364 -1.8178 -0.6282 -1.2421
 9134SOL     OW39034   0.304   4.078   2.512  0.0532  0.0211  0.5110
 9134SOL    HW139035   0.301   4.009   2.445  3.1343  0.5097 -0.0976
 9134SOL    HW239036   0.358   4.141   2.464 -3.0355  2.9656  0.9071
 9135SOL     OW39037   2.939   2.267  14.137 -0.0043  0.3030  0.1299
 9135SOL    HW139038   3.029   2.264  14.104  0.0198 -0.3624  0.2625
 9135SOL    HW239039   2.953   2.261  14.231 -1.1727 -1.1232  0.2095
 9136SOL     OW39040   0.514   4.619  14.481  0.1874  0.0587  0.1446
 9136SOL    HW139041   0.558   4.561  14.419  1.6034 -1.0621  2.1989
 9136SOL    HW239042   0.533   4.566  14.558  1.6887 -0.1358 -0.3626
 9137SOL     OW39043   3.838   2.714  12.556  0.5288 -0.1238  0.7520
 9137SOL    HW139044   3.758   2.717  12.503  1.2885 -2.1086 -0.5292
 9137SOL    HW239045   3.864   2.622  12.546 -1.0129 -0.5655  0.8248
 9138SOL     OW39046   0.921   0.727   1.523 -0.2070 -0.0273  0.0290
 9138SOL    HW139047   1.004   0.765   1.495 -0.5700  1.9168  1.5659
 9138SOL    HW239048   0.922   0.655   1.461  0.4205 -0.8181  0.9613
 9139SOL     OW39049   1.169   4.360   7.806 -0.4646  0.5538  0.5814
 9139SOL    HW139050   1.200   4.449   7.792 -1.4987  0.6225 -1.2857
 9139SOL    HW239051   1.235   4.331   7.868 -0.2454  0.6583  0.3951
 9140SOL     OW39052   4.032   0.815  12.150 -0.8543  0.0455 -0.7217
 9140SOL    HW139053   4.126   0.815  12.170 -0.9390  1.1412 -0.3262
 9140SOL    HW239054   3.980   0.795  12.227 -0.5582 -1.5176 -0.9283
 9141SOL     OW39055   4.700   3.353   5.685 -0.4298  0.1376 -0.3109
 9141SOL    HW139056   4.733   3.320   5.768  0.3863 -0.6948 -0.9738
 9141SOL    HW239057   4.715   3.275   5.632 -1.9705 -2.3657  2.9518
 9142SOL     OW39058   3.911   3.382  13.904 -0.5077  0.3669 -0.2644
 9142SOL    HW139059   3.854   3.409  13.976 -1.0481 -2.6212  0.4518
 9142SOL    HW239060   3.904   3.466  13.859 -4.6392  0.1443 -0.0627
 9143SOL     OW39061   4.267   2.824  16.421 -0.4118  0.1581  0.2083
 9143SOL    HW139062   4.195   2.819  16.358  0.0637  0.4654 -0.3623
 9143SOL    HW239063   4.275   2.918  16.440  1.0119  0.0730  0.0629
 9144SOL     OW39064   3.945   0.795   0.503 -0.4140 -0.2173  0.0782
 9144SOL    HW139065   3.910   0.787   0.414 -3.2599  0.2768  1.1619
 9144SOL    HW239066   3.964   0.703   0.518  3.2192  0.4550 -0.4313
 9145SOL     OW39067   3.339   2.688  11.771  0.0496  0.0376 -0.2011
 9145SOL    HW139068   3.311   2.776  11.797  0.4051  0.8771 -2.5880
 9145SOL    HW239069   3.326   2.708  11.678  2.5969  1.3571 -0.2950
 9146SOL     OW39070   1.277   2.815   5.699 -0.0737 -0.0170  0.4742
 9146SOL    HW139071   1.277   2.889   5.638  1.3660 -0.3606  0.0503
 9146SOL    HW239072   1.372   2.803   5.700 -0.1953 -0.9159  0.8876
 9147SOL     OW39073   4.392   4.063  17.308  0.4560  0.1770 -0.3181
 9147SOL    HW139074   4.454   4.135  17.324  0.9567 -0.8555  2.4856
 9147SOL    HW239075   4.453   4.021  17.247  1.2643 -1.2226  1.4563
 9148SOL     OW39076   3.114   3.802  14.155  0.2949 -0.2443  0.5794
 9148SOL    HW139077   3.070   3.736  14.102  0.6793  0.9500 -1.2206
 9148SOL    HW239078   3.161   3.744  14.216  1.2079  2.6045  2.5990
 9149SOL     OW39079   3.004   4.490  11.175  0.0796  0.2142  0.5815
 9149SOL    HW139080   3.012   4.415  11.116  1.2405 -0.1320  1.1696
 9149SOL    HW239081   3.097   4.514  11.177 -0.0923  0.8747  0.4691
 9150SOL     OW39082   0.901   0.950   2.777  0.1343  0.3810 -0.1790
 9150SOL    HW139083   0.895   1.007   2.700  0.3099 -0.1519 -0.5877
 9150SOL    HW239084   0.810   0.963   2.802  0.2811 -2.0651  1.5899
 9151SOL     OW39085   0.921   2.457   8.061 -0.7044 -0.0900  0.2172
 9151SOL    HW139086   0.991   2.426   8.004 -1.2555  0.2454 -0.6335
 9151SOL    HW239087   0.955   2.408   8.137  0.7353 -0.9456 -0.9823
 9152SOL     OW39088   0.646   1.745   1.923 -0.3961 -0.4602  0.1736
 9152SOL    HW139089   0.561   1.785   1.903  0.5803  0.4713 -2.0899
 9152SOL    HW239090   0.640   1.762   2.017  0.9022 -4.4752  0.9682
 9153SOL     OW39091   1.533   2.246  11.452 -1.0754  0.9694  0.0132
 9153SOL    HW139092   1.470   2.194  11.502  1.0200  0.0227  1.6599
 9153SOL    HW239093   1.616   2.207  11.477 -1.9159 -0.6181  0.3136
 9154SOL     OW39094   0.366   2.430  12.862 -0.4152  0.6807  0.2370
 9154SOL    HW139095   0.428   2.392  12.800 -2.4880  1.5629 -2.3983
 9154SOL    HW239096   0.385   2.523  12.854 -0.9521  0.7361 -0.4680
 9155SOL     OW39097   1.415   0.373  17.100 -0.2992  0.0076  0.2895
 9155SOL    HW139098   1.343   0.435  17.114 -0.2722  0.5098 -1.7011
 9155SOL    HW239099   1.368   0.297  17.133 -1.3891  0.2013 -0.7929
 9156SOL     OW39100   2.546   3.222   3.160  0.2783 -0.2887  0.1899
 9156SOL    HW139101   2.490   3.145   3.150 -0.2015 -0.1506  1.7702
 9156SOL    HW239102   2.623   3.190   3.208  0.3088  0.4097  0.6090
 9157SOL     OW39103   0.339   0.150   4.219  0.0555 -0.1114  0.4435
 9157SOL    HW139104   0.287   0.072   4.201 -0.0561 -0.0864  0.6472
 9157SOL    HW239105   0.409   0.144   4.155 -1.0056 -1.3296 -0.6125
 9158SOL     OW39106   2.947   4.130  15.530  0.3086 -0.8773 -0.1843
 9158SOL    HW139107   3.004   4.155  15.602 -1.3300  1.5430  0.2799
 9158SOL    HW239108   2.881   4.068  15.562 -1.1841  1.0488  0.4413
 9159SOL     OW39109   4.366   1.329  17.275 -0.0573  0.3593  0.2476
 9159SOL    HW139110   4.411   1.409  17.302  0.7909  0.8613 -2.6927
 9159SOL    HW239111   4.433   1.280  17.229  1.9673  0.1819  3.3784
 9160SOL     OW39112   0.412   4.181   3.456 -0.1837 -0.5071  0.5278
 9160SOL    HW139113   0.322   4.180   3.424 -0.3737 -0.9977  1.0714
 9160SOL    HW239114   0.405   4.103   3.512 -1.5046  0.7244  2.0928
 9161SOL     OW39115   0.559   3.009  10.258  0.3310 -0.3597 -0.3016
 9161SOL    HW139116   0.471   2.996  10.293 -0.9772  2.6664 -2.4582
 9161SOL    HW239117   0.581   3.101  10.244 -1.8340  0.1647 -0.1911
 9162SOL     OW39118   0.760   2.238  17.316 -0.1595 -0.0878  0.4509
 9162SOL    HW139119   0.798   2.219  17.402  0.1254 -0.0065  0.3426
 9162SOL    HW239120   0.819   2.180  17.268 -3.5215 -2.9989 -0.1617
 9163SOL     OW39121   4.544   1.232  17.529 -0.5192  0.4710 -0.5039
 9163SOL    HW139122   4.636   1.211  17.543 -0.8519  0.2920  1.5155
 9163SOL    HW239123   4.517   1.317  17.563  3.8670  0.8053  2.0860
 9164SOL     OW39124   2.635   3.017   6.290  0.0146 -1.0402 -0.0669
 9164SOL    HW139125   2.720   2.987   6.257 -0.1097 -1.0894 -0.3454
 9164SOL    HW239126   2.650   3.104   6.326 -1.6671  0.1913 -2.2780
 9165SOL     OW39127   2.898   2.247   2.687 -0.5958 -0.5897  0.3157
 9165SOL    HW139128   2.812   2.246   2.730  0.3964 -0.2670  2.3217
 9165SOL    HW239129   2.950   2.277   2.762 -0.2286 -2.5734  0.8800
 9166SOL     OW39130   4.489   3.411   7.234  0.4193  0.0625  0.5654
 9166SOL    HW139131   4.549   3.337   7.226  0.3385  0.0741 -0.1293
 9166SOL    HW239132   4.550   3.484   7.225  0.8289 -0.7154 -2.9635
 9167SOL     OW39133   4.624   0.256  12.824 -0.1196  0.3273 -0.1359
 9167SOL    HW139134   4.647   0.339  12.782  0.3417  0.2955  0.0504
 9167SOL    HW239135   4.711   0.221  12.843 -1.2640 -2.2383  0.3521
 9168SOL     OW39136   3.781   0.290   5.132 -0.3699 -0.5401  0.1228
 9168SOL    HW139137   3.774   0.385   5.140 -0.0251 -0.4998 -0.0808
 9168SOL    HW239138   3.875   0.285   5.143 -0.6547 -0.5175  2.5651
 9169SOL     OW39139   2.748   3.525   3.743 -0.3985 -0.1430 -1.0208
 9169SOL    HW139140   2.678   3.513   3.808  1.3200  2.6881  1.3096
 9169SOL    HW239141   2.829   3.508   3.790 -0.3556  1.6152 -0.4872
 9170SOL     OW39142   3.547   1.914  14.641  0.1301  0.7105  0.8330
 9170SOL    HW139143   3.583   1.975  14.705 -0.1388  0.8485  0.8540
 9170SOL    HW239144   3.467   1.878  14.680  0.1184 -0.9821 -0.7448
 9171SOL     OW39145   2.033   3.012  14.252  0.2174  0.0453  0.0483
 9171SOL    HW139146   1.971   3.044  14.187 -0.7035  0.6566  1.2313
 9171SOL    HW239147   2.113   3.002  14.200 -0.2109 -0.6539 -0.4827
 9172SOL     OW39148   2.110   3.569   8.407 -0.2189 -0.3039 -0.1573
 9172SOL    HW139149   2.134   3.510   8.479 -0.2679  0.6399  0.6214
 9172SOL    HW239150   2.193   3.585   8.363 -0.2367 -0.1075 -0.1157
 9173SOL     OW39151   0.673   3.430   8.071 -0.3733  0.2649  0.0509
 9173SOL    HW139152   0.681   3.378   8.152 -0.2969 -3.0519 -2.0733
 9173SOL    HW239153   0.763   3.421   8.040 -1.3315  1.0433 -2.8720
 9174SOL     OW39154   3.831   4.203   0.330  0.5124 -0.5482  0.1907
 9174SOL    HW139155   3.812   4.207   0.236 -0.3692 -0.5619  0.3765
 9174SOL    HW239156   3.924   4.182   0.317  0.7090  0.1291  0.5372
 9175SOL     OW39157   2.718   3.131   3.673  0.3321 -0.8342  0.0491
 9175SOL    HW139158   2.715   3.068   3.745  0.4622  0.7365  1.4445
 9175SOL    HW239159   2.627   3.156   3.655  0.2218 -1.1658  0.1558
 9176SOL     OW39160   0.755   0.421   4.732 -0.2166 -0.5597  0.2042
 9176SOL    HW139161   0.715   0.359   4.671 -0.2132  0.5105 -0.8962
 9176SOL    HW239162   0.758   0.366   4.810  0.8090  1.6601  1.7353
 9177SOL     OW39163   4.396   2.528   2.724  0.3181  0.4277  0.6958
 9177SOL    HW139164   4.353   2.565   2.801 -0.0399  0.3362  0.5410
 9177SOL    HW239165   4.339   2.458   2.691  2.8247 -1.1647 -0.2456
 9178SOL     OW39166   2.383   3.554   4.089 -0.3274  0.3048  0.6665
 9178SOL    HW139167   2.417   3.643   4.078 -0.1585  0.1041 -0.4035
 9178SOL    HW239168   2.451   3.500   4.129  1.9201  1.9858 -0.9007
 9179SOL     OW39169   0.844   4.294  15.656 -0.3488  0.0523 -0.0494
 9179SOL    HW139170   0.791   4.365  15.692  2.1853  1.9933 -0.1509
 9179SOL    HW239171   0.898   4.345  15.595  0.2287  0.5369  0.8726
 9180SOL     OW39172   3.585   1.054   1.071  0.0812  0.1267 -0.4227
 9180SOL    HW139173   3.567   1.113   0.998  0.4100  0.8855  0.1079
 9180SOL    HW239174   3.647   0.993   1.030  0.0497  0.5383 -1.0926
 9181SOL     OW39175   4.412   0.762   7.278 -0.0624  0.1202  0.9716
 9181SOL    HW139176   4.387   0.848   7.312 -1.6145 -0.0165  0.2138
 9181SOL    HW239177   4.399   0.704   7.353 -4.1816  0.2882  0.4236
 9182SOL     OW39178   1.025   3.058   2.132 -0.2018 -0.3788 -0.0687
 9182SOL    HW139179   0.948   3.022   2.088 -1.4245  1.2618  0.7514
 9182SOL    HW239180   1.024   3.005   2.212 -1.5912  0.8493  0.7278
 9183SOL     OW39181   3.877   2.903   7.496  0.0793  0.0965  0.3197
 9183SOL    HW139182   3.806   2.945   7.449 -0.5121 -2.9983 -1.5073
 9183SOL    HW239183   3.890   2.821   7.448 -0.1075 -0.6129  1.4704
 9184SOL     OW39184   3.457   2.013   8.658  0.3117  0.4062 -0.4760
 9184SOL    HW139185   3.500   1.972   8.733  1.0052 -0.2051 -1.2014
 9184SOL    HW239186   3.391   1.948   8.636  1.2756 -1.0192  0.8271
 9185SOL     OW39187   0.844   4.228   6.570  0.1953 -0.4299  0.4895
 9185SOL    HW139188   0.930   4.208   6.534  0.7652 -1.7884  2.6432
 9185SOL    HW239189   0.864   4.252   6.661  2.7992 -0.3299 -0.1244
 9186SOL     OW39190   4.000   1.656   2.917 -0.4022  0.2338  0.2412
 9186SOL    HW139191   3.980   1.641   2.825 -0.8078 -1.0988  0.5400
 9186SOL    HW239192   4.093   1.671   2.905 -0.5839  1.5249  0.4875
 9187SOL     OW39193   1.104   1.216   2.294  0.1429 -0.7348 -0.0525
 9187SOL    HW139194   1.057   1.276   2.236 -0.7682 -3.6512 -2.3066
 9187SOL    HW239195   1.178   1.183   2.243  0.1238  0.7984 -1.0711
 9188SOL     OW39196   3.200   0.750   2.475 -0.0319  0.5163 -1.0131
 9188SOL    HW139197   3.158   0.747   2.561 -1.9622 -0.0862 -1.9602
 9188SOL    HW239198   3.271   0.689   2.493 -0.7264 -0.3921 -1.3725
 9189SOL     OW39199   4.189   3.300   1.581 -0.0162  0.3235 -0.3600
 9189SOL    HW139200   4.211   3.350   1.503 -0.7129 -1.3817 -1.6453
 9189SOL    HW239201   4.152   3.221   1.540  0.3620 -0.5185  0.9109
 9190SOL     OW39202   0.693   0.146   3.083  0.2800 -0.4668  0.1566
 9190SOL    HW139203   0.634   0.106   3.148  0.8935 -0.6150  0.6227
 9190SOL    HW239204   0.640   0.220   3.055 -1.5962 -2.5151 -1.6626
 9191SOL     OW39205   1.245   1.735   2.248 -0.4904  0.5051  0.3045
 9191SOL    HW139206   1.162   1.781   2.258 -0.2283  0.4354  2.8459
 9191SOL    HW239207   1.302   1.801   2.208 -1.1399 -0.3956 -2.1497
 9192SOL     OW39208   3.234   0.914   4.298  0.1354  0.2390  0.2966
 9192SOL    HW139209   3.234   0.888   4.390  0.8240 -1.1591 -0.1046
 9192SOL    HW239210   3.189   0.998   4.304 -0.4292 -0.1431  1.3661
 9193SOL     OW39211   0.984   3.065   7.290 -0.3124  0.3190 -0.2899
 9193SOL    HW139212   0.906   3.051   7.344 -0.1955  0.4755 -0.0805
 9193SOL    HW239213   0.945   3.072   7.203  1.9265 -0.0576 -1.3232
 9194SOL     OW39214   1.917   1.800  16.198  0.0412  0.4564 -0.2954
 9194SOL    HW139215   1.936   1.857  16.124 -0.0379  0.7939 -0.0579
 9194SOL    HW239216   1.912   1.719  16.148  3.3820  0.3459 -0.3849
 9195SOL     OW39217   2.925   1.864   3.211  0.2616  0.5167 -0.3048
 9195SOL    HW139218   2.943   1.941   3.266  1.4432  0.6946 -0.9179
 9195SOL    HW239219   2.943   1.905   3.126 -1.0933 -0.5146 -1.0775
 9196SOL     OW39220   1.719   2.681   7.296 -0.4503  0.5104  0.1076
 9196SOL    HW139221   1.627   2.693   7.273 -0.5889  0.3511  0.5812
 9196SOL    HW239222   1.724   2.588   7.273 -1.0827  0.2790  0.9113
 9197SOL     OW39223   3.472   1.884   3.184  0.3199 -0.0713  0.0403
 9197SOL    HW139224   3.443   1.941   3.112  0.4844  1.6465  1.3389
 9197SOL    HW239225   3.493   1.810   3.127 -0.2218 -0.6148  0.5566
 9198SOL     OW39226   0.005   3.084   5.538  0.2043 -0.2488 -0.2316
 9198SOL    HW139227   4.673   3.063   5.476  1.4491 -1.2911 -1.2787
 9198SOL    HW239228   0.046   2.998   5.549 -0.8036 -0.6278  0.5343
 9199SOL     OW39229   2.658   0.075   9.393  0.2834  0.1683 -0.1544
 9199SOL    HW139230   2.712   0.142   9.434  1.4161 -1.5398  1.1772
 9199SOL    HW239231   2.724   0.033   9.338  1.1348 -0.6647  1.5161
 9200SOL     OW39232   1.838   0.029   8.136 -0.2768 -0.5431 -0.0476
 9200SOL    HW139233   1.846   0.125   8.135  1.8684 -0.6754  4.4682
 9200SOL    HW239234   1.926   0.014   8.102  0.5899  2.6136  0.7539
 9201SOL     OW39235   0.181   0.141   5.031  0.1693 -0.5174  0.0212
 9201SOL    HW139236   0.169   0.234   5.011  0.7098 -0.3791  0.3248
 9201SOL    HW239237   0.146   0.108   4.949  0.2488 -1.1821  0.2570
 9202SOL     OW39238   0.496   1.724   8.681  0.3448 -0.0169  0.4053
 9202SOL    HW139239   0.579   1.763   8.707  0.5584 -0.2285  0.0372
 9202SOL    HW239240   0.494   1.649   8.741 -1.5651 -0.2186  0.0962
 9203SOL     OW39241   4.317   1.820   6.498 -0.3229 -0.1498  0.5819
 9203SOL    HW139242   4.395   1.767   6.511 -0.0159  0.5474  1.5605
 9203SOL    HW239243   4.317   1.873   6.578  1.7077  1.8457 -0.7239
 9204SOL     OW39244   1.147   3.530   8.431  1.2545 -0.0162  0.2514
 9204SOL    HW139245   1.143   3.613   8.478 -0.7936  0.9571 -1.6855
 9204SOL    HW239246   1.242   3.514   8.426  1.3394  1.7094 -2.9266
 9205SOL     OW39247   1.695   1.329  11.450  0.9452  0.2155  0.0400
 9205SOL    HW139248   1.646   1.253  11.481  1.1638  1.0652  2.4489
 9205SOL    HW239249   1.652   1.401  11.497  0.8888 -1.6146  2.7873
 9206SOL     OW39250   3.477   1.097   7.788  0.7527  0.2602  0.1962
 9206SOL    HW139251   3.419   1.169   7.813 -0.3156 -0.9178  1.0431
 9206SOL    HW239252   3.557   1.147   7.771  0.8683  0.4600  1.3460
 9207SOL     OW39253   1.036   0.586   9.777 -0.3187  0.1734 -0.1868
 9207SOL    HW139254   1.011   0.552   9.692  0.5005 -0.8264 -0.0316
 9207SOL    HW239255   0.957   0.594   9.831 -0.3824  1.0834 -0.4054
 9208SOL     OW39256   1.667   0.443   4.980 -0.3684  0.1344  0.2597
 9208SOL    HW139257   1.585   0.491   4.967 -0.8005 -0.3965  1.0067
 9208SOL    HW239258   1.669   0.436   5.076  0.8109  2.0760  0.3708
 9209SOL     OW39259   0.799   4.624   4.160 -0.0736  0.1747 -0.2329
 9209SOL    HW139260   0.727   4.676   4.197 -2.2644 -2.2642 -1.0794
 9209SOL    HW239261   0.860   4.603   4.231  0.1524  1.1939 -0.1147
 9210SOL     OW39262   1.819   2.902   6.397 -0.1182 -0.1371 -0.4044
 9210SOL    HW139263   1.844   2.863   6.481  1.3079  0.4268 -0.5682
 9210SOL    HW239264   1.736   2.943   6.422  2.1873  2.4614  2.8910
 9211SOL     OW39265   3.495   1.731   1.038 -0.5053  0.0181  0.0006
 9211SOL    HW139266   3.497   1.680   1.119  0.7122  2.2992  1.3912
 9211SOL    HW239267   3.455   1.812   1.070  1.5243  0.3594  1.6794
 9212SOL     OW39268   0.484   1.304   5.722  0.0793  0.3416 -0.1994
 9212SOL    HW139269   0.469   1.323   5.629 -0.1696  0.4864 -0.1284
 9212SOL    HW239270   0.442   1.219   5.735 -1.0356  1.0081  0.5113
 9213SOL     OW39271   4.613   2.603   9.396  0.4546 -0.9828 -0.0850
 9213SOL    HW139272   4.581   2.581   9.309  0.4903 -1.1964 -0.0429
 9213SOL    HW239273   4.591   2.520   9.438  0.1454 -0.7014  0.3220
 9214SOL     OW39274   3.892   2.867  15.288  0.0424  0.5138 -0.5367
 9214SOL    HW139275   3.899   2.961  15.301 -0.0962  0.4948 -0.3269
 9214SOL    HW239276   3.944   2.853  15.209  0.7064  0.7219 -0.1374
 9215SOL     OW39277   3.509   0.969   9.026  0.5995 -0.2455  0.1247
 9215SOL    HW139278   3.420   0.998   9.005  0.0804 -2.7746 -1.0966
 9215SOL    HW239279   3.504   0.877   9.051 -0.9316  0.2126  1.4795
 9216SOL     OW39280   2.250   2.422   2.712  0.0645 -0.2497  0.6266
 9216SOL    HW139281   2.269   2.446   2.622 -0.8862  1.0647  0.7629
 9216SOL    HW239282   2.155   2.426   2.728 -0.5451 -2.8114 -2.4585
 9217SOL     OW39283   0.855   4.001   8.575 -0.0241 -0.1239 -0.2841
 9217SOL    HW139284   0.773   4.029   8.614  2.0050  1.9655  2.4713
 9217SOL    HW239285   0.836   3.916   8.534 -0.3592 -0.3935  0.4334
 9218SOL     OW39286   2.604   2.648  11.324  0.1159  0.1010  0.2761
 9218SOL    HW139287   2.601   2.554  11.344 -2.1418 -0.0331 -0.7579
 9218SOL    HW239288   2.598   2.638  11.229  1.9590  0.8870  0.0760
 9219SOL     OW39289   2.647   2.133   3.558  0.5465  0.0748  0.0034
 9219SOL    HW139290   2.682   2.045   3.576  3.3922  1.0687 -0.6502
 9219SOL    HW239291   2.653   2.159   3.650 -0.9461 -1.3827  0.5211
 9220SOL     OW39292   1.105   1.841   5.613  0.2314 -0.2404 -0.3435
 9220SOL    HW139293   1.028   1.893   5.588 -0.2106 -0.6064  0.2593
 9220SOL    HW239294   1.144   1.821   5.528  0.4265 -1.4223  0.0298
 9221SOL     OW39295   0.286   2.103  13.532 -0.3415 -0.7572 -0.4520
 9221SOL    HW139296   0.287   2.153  13.451  4.0349 -0.2135 -0.0955
 9221SOL    HW239297   0.309   2.167  13.600 -0.6910 -1.4816  0.3437
 9222SOL     OW39298   3.269   0.015   4.864  0.2264 -0.4147  0.2956
 9222SOL    HW139299   3.232   0.102   4.846  0.0590 -0.1598  1.8696
 9222SOL    HW239300   3.218   4.723   4.939 -0.8191 -0.6044 -0.4860
 9223SOL     OW39301   2.437   1.101   3.798  0.0426 -0.3529 -0.1981
 9223SOL    HW139302   2.346   1.073   3.785 -0.3925  0.9151  0.0803
 9223SOL    HW239303   2.449   1.134   3.709  3.0716 -1.5771 -0.2340
 9224SOL     OW39304   3.632   1.478   4.914 -0.5717  0.4010  0.4964
 9224SOL    HW139305   3.692   1.493   4.841 -0.3985 -0.1791  0.5175
 9224SOL    HW239306   3.558   1.494   4.855 -1.0960  0.9525  1.3162
 9225SOL     OW39307   0.844   0.841   4.306 -0.3782  0.4114 -1.0177
 9225SOL    HW139308   0.820   0.753   4.279 -0.5750  0.8358 -2.2076
 9225SOL    HW239309   0.939   0.834   4.296 -0.1670  0.9347  0.6568
 9226SOL     OW39310   0.100   1.388  12.011  0.1160  0.1591 -0.1223
 9226SOL    HW139311   0.182   1.420  11.973  1.1257  1.8701  3.4630
 9226SOL    HW239312   0.117   1.380  12.105  3.4224 -0.4780 -0.7788
 9227SOL     OW39313   3.289   2.982   5.730 -0.2711  0.2674  0.1679
 9227SOL    HW139314   3.221   2.981   5.662  2.5146  1.1981 -2.6372
 9227SOL    HW239315   3.345   3.044   5.683  1.6814 -1.7823 -0.2216
 9228SOL     OW39316   2.682   2.041   4.868 -0.1473  0.2974 -0.6666
 9228SOL    HW139317   2.616   2.001   4.925  0.3023  0.8224  0.2039
 9228SOL    HW239318   2.761   2.016   4.916  0.1080  1.1795 -0.6347
 9229SOL     OW39319   0.493   0.190   3.654 -0.0500 -0.1406  0.4032
 9229SOL    HW139320   0.461   0.222   3.569 -0.5935 -0.2046  0.5852
 9229SOL    HW239321   0.536   0.265   3.695  1.8524  0.6690 -3.0721
 9230SOL     OW39322   4.374   3.127   1.767  0.1313  0.9741 -0.4142
 9230SOL    HW139323   4.297   3.171   1.803 -0.7699 -1.2560  0.3589
 9230SOL    HW239324   4.331   3.043   1.756 -0.8076  1.4420 -0.2789
 9231SOL     OW39325   1.185   2.712   6.001 -0.0748 -1.0460 -0.1040
 9231SOL    HW139326   1.232   2.793   5.982 -0.8966  0.1545  3.0415
 9231SOL    HW239327   1.197   2.669   5.916 -1.7068  1.0973 -1.4127
 9232SOL     OW39328   1.947   4.181   7.336  0.0639 -0.3131  0.6053
 9232SOL    HW139329   1.856   4.194   7.309  1.0547  3.0121 -1.1786
 9232SOL    HW239330   1.933   4.138   7.420  0.5340  0.6911  1.1934
 9233SOL     OW39331   0.303   2.933   7.410  0.2899  0.1071  0.4331
 9233SOL    HW139332   0.243   2.977   7.350  0.2599 -1.0377 -0.3781
 9233SOL    HW239333   0.246   2.869   7.454  1.2853  1.7680  4.1139
 9234SOL     OW39334   4.164   4.582   5.861 -0.0170 -0.3227  0.3188
 9234SOL    HW139335   4.173   4.515   5.794 -2.3067 -0.9960  0.6673
 9234SOL    HW239336   4.157   4.529   5.941 -0.0443 -2.6457 -1.2435
 9235SOL     OW39337   3.462   0.655   5.109  0.8951  0.0124  0.6307
 9235SOL    HW139338   3.377   0.666   5.152 -0.2000  1.4964 -1.8800
 9235SOL    HW239339   3.517   0.644   5.186  0.6565  0.4161  0.8606
 9236SOL     OW39340   0.584   1.004   1.634 -0.3325  0.3565 -0.5504
 9236SOL    HW139341   0.678   1.008   1.651 -0.7044  1.6799  1.1955
 9236SOL    HW239342   0.559   0.959   1.715  1.4356 -0.7137 -0.6187
 9237SOL     OW39343   3.205   1.415   8.067 -0.5095  0.3606  0.1669
 9237SOL    HW139344   3.178   1.502   8.038  0.8106  0.6001 -0.3520
 9237SOL    HW239345   3.147   1.398   8.142 -1.1288 -0.8152 -0.5866
 9238SOL     OW39346   1.923   1.424  14.912  0.0325 -0.2604 -0.9559
 9238SOL    HW139347   1.995   1.486  14.899  1.4412 -1.7634 -0.3219
 9238SOL    HW239348   1.856   1.490  14.929  0.9490  0.4169  0.0449
 9239SOL     OW39349   0.724   4.035   7.848 -0.7613  0.2041  0.1816
 9239SOL    HW139350   0.764   3.973   7.909 -0.3359 -0.0715 -0.3760
 9239SOL    HW239351   0.772   4.116   7.864  0.6077 -0.3895 -0.8686
 9240SOL     OW39352   4.454   1.630  17.301  0.3359 -0.0245  0.0126
 9240SOL    HW139353   4.452   1.690  17.376 -1.2737  0.4673 -0.4261
 9240SOL    HW239354   4.360   1.630  17.287  0.7349  1.9800 -2.6818
 9241SOL     OW39355   3.852   1.444   6.719  0.4681  0.1571 -0.0390
 9241SOL    HW139356   3.813   1.509   6.777  0.1113  0.2418 -0.3777
 9241SOL    HW239357   3.852   1.373   6.784 -2.5788  0.3732  0.1718
 9242SOL     OW39358   1.655   0.936   3.388 -0.0997 -0.4817 -0.0388
 9242SOL    HW139359   1.596   0.904   3.320 -1.8180  0.1571  1.1722
 9242SOL    HW239360   1.637   0.865   3.449  0.2396  1.9588  2.8823
 9243SOL     OW39361   3.991   0.831   5.336 -0.0551 -0.4245 -0.3104
 9243SOL    HW139362   3.921   0.797   5.392  0.2261 -0.0177  0.2839
 9243SOL    HW239363   4.073   0.788   5.357  0.2280 -0.1384 -0.8364
 9244SOL     OW39364   1.631   2.272   4.155 -0.1063  0.4088  0.2104
 9244SOL    HW139365   1.603   2.353   4.197 -2.8384 -0.1398 -0.5617
 9244SOL    HW239366   1.570   2.255   4.084 -0.2067  0.6264  0.2473
 9245SOL     OW39367   2.433   2.955   0.475  0.2728  0.4527 -0.0946
 9245SOL    HW139368   2.452   2.881   0.418 -0.9169  1.1979 -1.4679
 9245SOL    HW239369   2.410   2.908   0.556 -0.0266  1.3380  0.3380
 9246SOL     OW39370   2.052   1.305   7.707  0.0205 -0.4249  0.0063
 9246SOL    HW139371   2.125   1.340   7.656  0.9156  1.2237  2.3866
 9246SOL    HW239372   1.979   1.303   7.645  1.0045  2.2017 -1.2464
 9247SOL     OW39373   4.216   3.047  15.907 -0.0456  0.5208  0.3563
 9247SOL    HW139374   4.141   3.003  15.868  0.5591  0.1721 -0.4227
 9247SOL    HW239375   4.182   3.080  15.990  0.1656 -0.1690  0.7119
 9248SOL     OW39376   0.688   4.170   6.135  0.6689 -0.8144 -0.1380
 9248SOL    HW139377   0.710   4.118   6.212 -2.4225  0.6270  1.6961
 9248SOL    HW239378   0.597   4.188   6.157  0.5735 -0.0110 -1.1595
 9249SOL     OW39379   3.179   1.600   6.330 -0.3036 -1.0448 -0.2232
 9249SOL    HW139380   3.269   1.577   6.349  0.8999  3.3704 -0.4897
 9249SOL    HW239381   3.171   1.562   6.243 -1.1467  0.0726 -0.6350
 9250SOL     OW39382   2.653   2.010   6.432 -0.3420  0.3298 -0.7317
 9250SOL    HW139383   2.700   2.060   6.366  1.1434 -0.3549 -0.2002
 9250SOL    HW239384   2.700   1.929   6.451  1.0858  0.8297 -2.1299
 9251SOL     OW39385   1.072   1.694   2.961 -0.1542 -0.0570 -0.2089
 9251SOL    HW139386   0.981   1.705   2.989 -0.2443 -0.8981 -0.1761
 9251SOL    HW239387   1.109   1.664   3.044 -0.6504 -0.8374 -0.2704
 9252SOL     OW39388   1.652   2.565  11.820 -0.2224  0.2960 -0.4887
 9252SOL    HW139389   1.738   2.543  11.783 -0.3443 -2.8728  1.0798
 9252SOL    HW239390   1.613   2.477  11.821  0.8507 -0.1748  0.8280
 9253SOL     OW39391   2.550   1.414   6.729 -0.1258 -0.0903 -0.2920
 9253SOL    HW139392   2.631   1.456   6.757 -0.1493 -2.2385  3.0947
 9253SOL    HW239393   2.490   1.489   6.733 -2.2766 -1.8595  0.8425
 9254SOL     OW39394   2.185   4.619   6.680 -0.2745  0.1823  0.1886
 9254SOL    HW139395   2.209   4.682   6.612  0.6161 -0.7856 -0.3950
 9254SOL    HW239396   2.095   4.646   6.700 -0.2471  1.7833 -1.7912
 9255SOL     OW39397   2.064   2.052   5.306  0.1404  0.1343  0.1374
 9255SOL    HW139398   2.076   2.141   5.337  0.7926  0.5694 -1.3653
 9255SOL    HW239399   1.969   2.047   5.295  0.1025 -0.0821  0.5550
 9256SOL     OW39400   2.027   4.497   3.430  0.0238 -0.0618  0.4860
 9256SOL    HW139401   1.991   4.529   3.348  0.0847  0.8231  0.8007
 9256SOL    HW239402   2.065   4.412   3.406  1.9418  0.9529 -0.1294
 9257SOL     OW39403   3.870   0.310  12.075  0.0892  0.3157 -0.1186
 9257SOL    HW139404   3.865   0.387  12.019 -3.4164  1.7104  2.0777
 9257SOL    HW239405   3.912   0.356  12.147  0.7028 -1.8566  0.9082
 9258SOL     OW39406   3.997   0.253   7.644 -0.1521  0.9177 -0.6212
 9258SOL    HW139407   4.062   0.314   7.610 -0.1724  1.4049  0.2058
 9258SOL    HW239408   4.005   0.187   7.575 -0.2141  2.1816 -1.8420
 9259SOL     OW39409   3.681   4.643   7.058 -0.2300 -0.3824 -0.5321
 9259SOL    HW139410   3.633   4.586   6.999 -0.4563 -1.8026  1.0392
 9259SOL    HW239411   3.675   4.586   7.134 -0.5290 -1.2203 -1.1824
 9260SOL     OW39412   0.664   4.174   4.564 -0.6435 -0.6005  1.2492
 9260SOL    HW139413   0.582   4.142   4.527 -1.1030 -1.9439  3.4222
 9260SOL    HW239414   0.688   4.241   4.500 -0.6295 -0.0977  1.7832
 9261SOL     OW39415   1.543   2.891   8.342  0.0785 -0.5075  0.5385
 9261SOL    HW139416   1.470   2.895   8.279 -1.4159 -0.1208  2.2868
 9261SOL    HW239417   1.506   2.922   8.425  0.0163 -0.1886  0.3922
 9262SOL     OW39418   4.093   1.220   6.872  0.0785  0.5493  0.5828
 9262SOL    HW139419   4.148   1.152   6.835  1.0319  2.0122 -0.7016
 9262SOL    HW239420   4.123   1.286   6.809  0.6508 -0.5270 -0.2724
 9263SOL     OW39421   3.621   0.069   1.077 -0.2072  0.5600  0.9185
 9263SOL    HW139422   3.527   0.053   1.073 -0.3438  1.8230 -1.1100
 9263SOL    HW239423   3.638   0.051   1.170  2.1572  2.3530  0.8251
 9264SOL     OW39424   3.251   2.902   2.054  0.1448  0.1555  0.0360
 9264SOL    HW139425   3.213   2.921   2.140 -1.0481 -1.3663 -0.1788
 9264SOL    HW239426   3.322   2.967   2.052  0.5882 -0.3606 -0.9142
 9265SOL     OW39427   0.383   0.277   3.954  0.1483  0.3659 -0.4351
 9265SOL    HW139428   0.414   0.365   3.933  0.4171 -0.7237 -4.6330
 9265SOL    HW239429   0.339   0.299   4.036 -0.0920 -1.6025 -0.0440
 9266SOL     OW39430   2.727   1.042   8.510 -0.2586  0.0889  0.2074
 9266SOL    HW139431   2.688   1.126   8.487 -1.3901 -1.1357 -2.2899
 9266SOL    HW239432   2.731   1.000   8.424 -1.2398  1.0773 -0.3111
 9267SOL     OW39433   1.767   3.272   4.991  0.3687  0.5245  0.0962
 9267SOL    HW139434   1.710   3.282   4.915  1.4198  0.7976 -0.6600
 9267SOL    HW239435   1.703   3.223   5.044 -0.9797  3.1932  0.9125
 9268SOL     OW39436   4.145   0.342   8.283  0.0237  0.3710 -0.6400
 9268SOL    HW139437   4.058   0.306   8.264  0.1095 -0.1715  0.0058
 9268SOL    HW239438   4.125   0.385   8.366 -0.1964  1.2812 -1.1702
 9269SOL     OW39439   1.825   4.188   2.364  0.4853 -0.0643 -0.3156
 9269SOL    HW139440   1.816   4.244   2.442  2.5937  0.6956 -0.6324
 9269SOL    HW239441   1.893   4.242   2.325 -1.0131  0.3955 -2.2998
 9270SOL     OW39442   0.747   4.094   5.513  0.1374 -0.0684 -0.1564
 9270SOL    HW139443   0.719   4.049   5.593 -2.1172  1.0954 -0.2973
 9270SOL    HW239444   0.793   4.172   5.543  1.3048 -0.7108 -0.2497
 9271SOL     OW39445   1.608   2.122   9.060  0.6748 -0.5658  0.4289
 9271SOL    HW139446   1.674   2.103   9.127 -2.2803 -0.8078  3.2874
 9271SOL    HW239447   1.601   2.037   9.016  1.1399 -0.3005 -0.1519
 9272SOL     OW39448   1.892   4.507  10.025  0.4106 -0.2714 -0.0785
 9272SOL    HW139449   1.926   4.595  10.043 -1.5200  0.4825 -0.1304
 9272SOL    HW239450   1.800   4.521  10.045  1.0636  1.9512  1.3464
 9273SOL     OW39451   4.282   2.457   7.128 -0.4954 -0.1155  0.3847
 9273SOL    HW139452   4.326   2.532   7.168  0.4905  0.7091 -2.2409
 9273SOL    HW239453   4.364   2.411   7.116  0.8450  1.8321  2.1184
 9274SOL     OW39454   2.897   0.513   4.007  0.2195 -0.1316  0.1688
 9274SOL    HW139455   2.822   0.549   4.054  0.9090  2.0250 -0.4005
 9274SOL    HW239456   2.855   0.448   3.950  0.2982 -0.2413  0.2364
 9275SOL     OW39457   2.467   1.228   3.029  0.2809  0.2238  0.3829
 9275SOL    HW139458   2.519   1.303   3.057 -1.9014  1.9359 -0.1663
 9275SOL    HW239459   2.533   1.168   3.065 -1.5927 -0.9466  1.8653
 9276SOL     OW39460   1.521   3.037   8.830 -0.0880 -0.3978  0.0137
 9276SOL    HW139461   1.608   3.074   8.815 -0.0857 -0.1790  0.5846
 9276SOL    HW239462   1.541   2.979   8.903  0.6889  0.9099  0.8368
 9277SOL     OW39463   1.264   4.601   9.442 -0.3920  0.1888  0.3594
 9277SOL    HW139464   1.269   4.656   9.364 -1.6558  0.2012  0.2778
 9277SOL    HW239465   1.217   4.658   9.503  0.2350 -0.5107  1.5131
 9278SOL     OW39466   3.408   0.696   3.889  0.3898 -0.2164 -0.4109
 9278SOL    HW139467   3.437   0.737   3.970  0.0068 -0.2107 -0.2760
 9278SOL    HW239468   3.483   0.709   3.831 -1.8265 -1.3476 -3.5120
 9279SOL     OW39469   3.813   4.088  15.653 -0.0457 -0.0108  0.0566
 9279SOL    HW139470   3.792   4.175  15.618  1.4271 -0.5198 -2.0870
 9279SOL    HW239471   3.824   4.042  15.570 -0.0356 -2.8201  1.6512
 9280SOL     OW39472   3.389   2.161   0.729 -0.0470  0.0963 -0.3252
 9280SOL    HW139473   3.432   2.076   0.720 -1.0727 -0.3012 -1.4350
 9280SOL    HW239474   3.375   2.151   0.824  0.9233  1.0341 -0.0827
 9281SOL     OW39475   1.860   1.456   0.327  0.2275 -0.0186 -0.3686
 9281SOL    HW139476   1.944   1.501   0.338  0.3411 -0.3771  0.1862
 9281SOL    HW239477   1.876   1.412   0.244  2.4507  2.2747 -1.1678
 9282SOL     OW39478   4.734   3.224   9.484  0.0450 -0.0729  0.3260
 9282SOL    HW139479   4.686   3.161   9.429 -0.1133  1.3814 -1.2224
 9282SOL    HW239480   4.684   3.305   9.480  2.2011  1.2385  0.2967
 9283SOL     OW39481   0.659   4.106   7.324  0.8640  0.3575  0.4540
 9283SOL    HW139482   0.569   4.084   7.346  0.9316  0.7789  1.1380
 9283SOL    HW239483   0.689   4.113   7.414  0.5625  0.5173  0.5431
 9284SOL     OW39484   1.354   1.721  14.230 -0.4854  0.0703  0.1783
 9284SOL    HW139485   1.302   1.707  14.151  0.2062 -0.5738 -0.1653
 9284SOL    HW239486   1.320   1.805  14.262  1.4680  0.7075  0.5413
 9285SOL     OW39487   0.157   0.360  16.689  0.8000 -0.4171  0.3576
 9285SOL    HW139488   0.063   0.349  16.702  0.9711 -0.6899  1.4432
 9285SOL    HW239489   0.177   0.431  16.750 -1.0931  0.3454  0.1005
 9286SOL     OW39490   1.157   3.819   8.869 -0.0269 -0.1287 -0.0128
 9286SOL    HW139491   1.225   3.886   8.860 -1.1483  0.9900 -0.1344
 9286SOL    HW239492   1.162   3.786   8.959  2.3641 -2.0920 -0.8578
 9287SOL     OW39493   0.677   1.204   8.691  0.0785  0.1240  0.2443
 9287SOL    HW139494   0.620   1.141   8.646  1.2099  0.5426 -1.7911
 9287SOL    HW239495   0.682   1.272   8.623 -0.3560  2.0245  2.1124
 9288SOL     OW39496   0.374   0.825   3.198  0.7480  0.2126 -0.0375
 9288SOL    HW139497   0.453   0.867   3.231  1.2257 -0.9846  0.3800
 9288SOL    HW239498   0.405   0.781   3.119 -3.2025 -0.3438 -1.2809
 9289SOL     OW39499   3.082   2.174   6.099  0.1467 -0.1398  0.2141
 9289SOL    HW139500   3.044   2.116   6.034  1.5298 -1.5228  0.6300
 9289SOL    HW239501   3.082   2.117   6.175  0.9205 -0.8854 -0.3386
 9290SOL     OW39502   2.317   2.597   3.278  0.4361 -0.1187 -0.2989
 9290SOL    HW139503   2.270   2.525   3.319  0.3404  0.7719  1.1327
 9290SOL    HW239504   2.356   2.555   3.201 -0.2740  1.7471 -1.6752
 9291SOL     OW39505   2.413   3.562   8.342 -0.0487  0.5076 -0.0470
 9291SOL    HW139506   2.467   3.484   8.332  1.8520  2.0436 -1.6283
 9291SOL    HW239507   2.408   3.592   8.251 -1.2469 -2.7022 -1.0247
 9292SOL     OW39508   2.505   4.517   4.229 -0.3701 -0.5448  0.0465
 9292SOL    HW139509   2.545   4.532   4.143  2.7393 -1.4014  1.3517
 9292SOL    HW239510   2.419   4.486   4.200  0.2604 -3.3177  1.1415
 9293SOL     OW39511   2.944   0.412  13.053  0.0326 -0.0833 -0.2001
 9293SOL    HW139512   3.019   0.426  12.996  0.1123  2.4091  0.5078
 9293SOL    HW239513   2.901   0.494  13.028  2.4035  1.3450  0.4270
 9294SOL     OW39514   0.675   1.923   6.723  0.0018 -0.3129  0.1506
 9294SOL    HW139515   0.585   1.906   6.693  0.1048 -1.5841  0.5756
 9294SOL    HW239516   0.675   2.018   6.709 -0.2030 -0.0573  1.8702
 9295SOL     OW39517   0.850   3.903   4.520  0.2174  0.1014  0.0400
 9295SOL    HW139518   0.795   3.977   4.494  1.2646  0.9766  0.3407
 9295SOL    HW239519   0.915   3.890   4.451 -1.3835  1.1582 -1.6644
 9296SOL     OW39520   2.806   3.780  16.805  0.0511 -0.2716  0.7723
 9296SOL    HW139521   2.724   3.793  16.758  0.6363  1.5306  0.2565
 9296SOL    HW239522   2.856   3.861  16.814  0.2547 -0.0569 -2.2493
 9297SOL     OW39523   2.289   3.955   7.067  0.7327  0.2909  0.0797
 9297SOL    HW139524   2.311   3.935   6.976 -0.6618  0.8884 -0.3822
 9297SOL    HW239525   2.284   3.863   7.091 -0.0396  0.4309  0.4529
 9298SOL     OW39526   1.174   2.792   0.597 -0.4563  0.2934 -0.2249
 9298SOL    HW139527   1.087   2.801   0.636  0.3726  0.2399  1.6739
 9298SOL    HW239528   1.179   2.877   0.554  1.2799  0.6164  0.6240
 9299SOL     OW39529   2.531   1.639  15.727  0.3224  0.4683  0.8509
 9299SOL    HW139530   2.511   1.549  15.752 -1.4355  1.1447  1.9348
 9299SOL    HW239531   2.463   1.663  15.664 -0.2743 -0.4036  1.1509
 9300SOL     OW39532   2.834   0.027  14.232 -0.1533 -0.4850 -0.1767
 9300SOL    HW139533   2.857   4.732  14.319  1.1822  0.2345 -0.2537
 9300SOL    HW239534   2.878   4.706  14.170 -2.2671 -1.2846 -0.9058
 9301SOL     OW39535   2.070   1.354   3.086 -0.2218  0.7306 -0.1813
 9301SOL    HW139536   2.018   1.335   3.008 -0.6866 -0.2892  0.3875
 9301SOL    HW239537   2.008   1.394   3.147  0.5137  0.1958  0.9108
 9302SOL     OW39538   0.456   0.174  13.298  0.1684  0.3582 -0.0369
 9302SOL    HW139539   0.528   0.115  13.276 -0.0108 -0.4537  1.6331
 9302SOL    HW239540   0.389   0.148  13.235  0.1609 -2.9107  1.3197
 9303SOL     OW39541   0.765   1.016   5.514 -0.0209 -0.4844 -1.0160
 9303SOL    HW139542   0.717   1.091   5.479  0.4743  0.4644  0.3189
 9303SOL    HW239543   0.725   1.012   5.601  0.4042 -2.5014 -0.9030
 9304SOL     OW39544   4.358   0.180   8.157 -0.0028 -0.4081 -0.2276
 9304SOL    HW139545   4.436   0.218   8.196 -0.0592  1.0940 -1.5636
 9304SOL    HW239546   4.292   0.233   8.202  1.3615  1.2330 -0.1503
 9305SOL     OW39547   0.382   3.514  12.377 -0.4305  0.2065  0.3141
 9305SOL    HW139548   0.378   3.419  12.368 -1.4315  0.1461  1.3487
 9305SOL    HW239549   0.398   3.538  12.286 -1.7980 -2.1641 -0.5564
 9306SOL     OW39550   3.968   0.109   3.949 -0.5336 -0.1741 -0.1344
 9306SOL    HW139551   3.900   0.142   3.891 -0.7752 -1.0149 -0.3362
 9306SOL    HW239552   3.957   0.171   4.021 -0.5761  1.0079 -1.1536
 9307SOL     OW39553   0.551   2.035   3.540  0.2762  0.0322 -0.0582
 9307SOL    HW139554   0.574   1.957   3.488 -0.5169 -1.3536  1.6780
 9307SOL    HW239555   0.479   2.073   3.490  0.8867  1.9228  0.5207
 9308SOL     OW39556   2.577   0.093   4.311 -0.3279  0.1716  0.5712
 9308SOL    HW139557   2.634   0.035   4.361  0.0603 -1.0642 -1.3035
 9308SOL    HW239558   2.504   0.096   4.373 -1.1864 -1.5468 -0.3397
 9309SOL     OW39559   1.919   2.850   8.477 -0.1873  0.5345 -0.2942
 9309SOL    HW139560   1.968   2.905   8.538 -3.1124  0.0557  2.4874
 9309SOL    HW239561   1.982   2.781   8.454  0.0164  0.6156  0.0190
 9310SOL     OW39562   3.152   0.768   0.109 -0.1764  0.2495  0.0263
 9310SOL    HW139563   3.137   0.726   0.024  1.0193 -1.9149  0.8748
 9310SOL    HW239564   3.231   0.819   0.090  0.7703 -1.6453 -1.1217
 9311SOL     OW39565   3.032   1.433   8.295  0.8055 -0.2121  0.8456
 9311SOL    HW139566   3.076   1.507   8.336  0.1693 -0.7266  2.4781
 9311SOL    HW239567   2.944   1.457   8.325  0.3159 -0.6841 -0.2183
 9312SOL     OW39568   2.921   1.917   9.604  0.3854 -0.3980  0.6119
 9312SOL    HW139569   2.906   1.985   9.670  0.4407  0.2636 -0.0575
 9312SOL    HW239570   2.937   1.973   9.528 -0.4437 -3.1597 -1.5763
 9313SOL     OW39571   2.976   0.691   8.996 -0.2728 -0.2158  0.8285
 9313SOL    HW139572   3.052   0.692   8.937 -1.0188  1.8352 -0.0685
 9313SOL    HW239573   2.974   0.778   9.036 -0.5835  1.0184 -1.8779
 9314SOL     OW39574   2.487   1.842   2.129  0.3148  0.0251  0.1603
 9314SOL    HW139575   2.529   1.812   2.209 -1.6364 -0.1699  1.1234
 9314SOL    HW239576   2.565   1.864   2.078 -0.5475 -0.0982 -1.2392
 9315SOL     OW39577   1.089   2.483  17.491 -0.4422 -0.3663 -0.2675
 9315SOL    HW139578   1.156   2.539  17.530  1.9781 -2.3291 -1.6479
 9315SOL    HW239579   1.059   2.534  17.415  2.0889 -0.0231 -1.0516
 9316SOL     OW39580   3.647   1.265   6.580  0.4075 -0.2765  0.5535
 9316SOL    HW139581   3.714   1.329   6.604 -0.2682 -0.1970  2.1862
 9316SOL    HW239582   3.684   1.184   6.615 -0.5752 -1.1767 -0.5231
 9317SOL     OW39583   4.589   3.470  15.763 -0.2430 -0.0770  0.0833
 9317SOL    HW139584   4.576   3.378  15.787  0.2670 -0.5114 -1.2993
 9317SOL    HW239585   4.596   3.512  15.849 -2.5374 -1.5024  0.9583
 9318SOL     OW39586   3.527   0.806   0.195  0.0682  0.2037 -0.1436
 9318SOL    HW139587   3.590   0.868   0.158 -0.8119  1.0748 -0.1938
 9318SOL    HW239588   3.448   0.832   0.147 -0.2210  1.6500  1.1151
 9319SOL     OW39589   4.300   1.272  10.234  0.3921  0.1049 -0.4199
 9319SOL    HW139590   4.226   1.270  10.174  0.5463  0.9855 -0.6301
 9319SOL    HW239591   4.376   1.253  10.178 -0.1387 -0.7381 -0.8575
 9320SOL     OW39592   1.150   2.778   7.753 -0.2587  0.1407  0.7979
 9320SOL    HW139593   1.086   2.717   7.718  1.1507 -0.9079  0.0610
 9320SOL    HW239594   1.239   2.745   7.742 -1.1341 -0.7341 -3.7165
 9321SOL     OW39595   3.530   2.136   9.704  0.2670  0.0669 -0.1671
 9321SOL    HW139596   3.621   2.119   9.678  0.1922 -1.7643  0.7691
 9321SOL    HW239597   3.477   2.067   9.664  1.5217  0.5131 -2.6611
 9322SOL     OW39598   2.238   1.276   5.020  0.2716  0.2090 -0.1107
 9322SOL    HW139599   2.175   1.229   5.075 -1.3083  2.3818 -0.0308
 9322SOL    HW239600   2.203   1.361   5.046 -3.4904 -1.4391  0.2990
 9323SOL     OW39601   1.457   1.417   8.365  0.2187 -0.0026 -0.0337
 9323SOL    HW139602   1.455   1.447   8.274  1.3928  0.0587 -0.0366
 9323SOL    HW239603   1.363   1.400   8.373  0.4250  0.2868  2.8600
 9324SOL     OW39604   0.862   3.356   3.055  0.3325  0.4895  0.2444
 9324SOL    HW139605   0.790   3.415   3.078 -0.3143 -0.3045  0.2539
 9324SOL    HW239606   0.823   3.269   3.059 -2.0116  1.6027  1.5317
 9325SOL     OW39607   1.011   3.661   3.082  0.2883  0.4859 -0.1565
 9325SOL    HW139608   1.008   3.707   2.998  0.9458  0.4584 -0.1939
 9325SOL    HW239609   1.098   3.624   3.092  0.4689  0.6124 -1.2585
 9326SOL     OW39610   0.091   4.097   4.147  0.3179 -0.2805 -0.0291
 9326SOL    HW139611   0.078   4.055   4.232  0.0826  0.0596  0.1055
 9326SOL    HW239612   4.736   4.108   4.121  0.1940  2.0302  1.3667
 9327SOL     OW39613   1.603   0.424  11.517  0.0825 -0.4136  0.0524
 9327SOL    HW139614   1.566   0.343  11.552  0.2470 -1.9413 -3.3011
 9327SOL    HW239615   1.592   0.482  11.592  1.9886 -0.4142  0.3368
 9328SOL     OW39616   1.457   0.759  10.053  0.1213 -0.3048  0.0236
 9328SOL    HW139617   1.469   0.729  10.143  0.7915  2.8485  1.0078
 9328SOL    HW239618   1.363   0.739  10.048 -0.1983  1.5321 -1.6288
 9329SOL     OW39619   1.236   2.210  13.182 -0.3539  0.4027  0.2213
 9329SOL    HW139620   1.179   2.191  13.108 -1.8205 -0.8640  1.6991
 9329SOL    HW239621   1.174   2.208  13.254 -1.0866  2.4047 -0.3572
 9330SOL     OW39622   1.171   4.032   1.657  0.5915  0.3231 -0.2756
 9330SOL    HW139623   1.091   3.986   1.680  2.5443 -2.3422  1.2551
 9330SOL    HW239624   1.230   3.956   1.665  0.9673  0.5618 -0.7793
 9331SOL     OW39625   2.874   0.439   2.764  0.6699 -0.5054  0.3468
 9331SOL    HW139626   2.902   0.495   2.836  1.2256 -1.8610  1.1818
 9331SOL    HW239627   2.808   0.388   2.810 -0.1973 -2.3664 -2.9147
 9332SOL     OW39628   1.361   3.793   3.473  0.2588 -0.3759  0.1355
 9332SOL    HW139629   1.441   3.821   3.428  0.8256 -1.1928  0.6221
 9332SOL    HW239630   1.352   3.702   3.444  1.1222  0.1460 -1.7793
 9333SOL     OW39631   2.647   0.533   5.571  0.1662 -0.0900  0.1265
 9333SOL    HW139632   2.571   0.477   5.556 -1.0136  1.6396 -0.3390
 9333SOL    HW239633   2.623   0.609   5.518  0.4720 -1.4812 -1.9704
 9334SOL     OW39634   3.242   0.669   5.303 -0.0697  0.1467  0.4084
 9334SOL    HW139635   3.256   0.615   5.381 -1.4274 -0.3283  0.3241
 9334SOL    HW239636   3.210   0.753   5.336  1.2535  0.9237 -0.3252
 9335SOL     OW39637   0.754   2.706   9.599  0.5532  0.1042 -0.4267
 9335SOL    HW139638   0.773   2.749   9.515 -0.4870 -1.6403 -1.5451
 9335SOL    HW239639   0.662   2.734   9.602  0.5769  0.2276 -0.9481
 9336SOL     OW39640   2.631   2.207  11.929 -0.5387  0.0176 -0.2116
 9336SOL    HW139641   2.608   2.299  11.919 -0.0418  0.0544 -1.0310
 9336SOL    HW239642   2.636   2.205  12.025 -1.7090  1.9581 -0.1046
 9337SOL     OW39643   1.382   4.718   2.095  0.1934  0.8160 -0.0368
 9337SOL    HW139644   1.306   0.038   2.083  0.2144  1.0532  0.8998
 9337SOL    HW239645   1.377   4.664   2.017  1.3007 -0.1690  0.5800
 9338SOL     OW39646   1.191   0.654   8.960 -0.0916 -0.0642 -0.1335
 9338SOL    HW139647   1.125   0.586   8.977 -0.7040  0.4864 -0.3340
 9338SOL    HW239648   1.154   0.733   8.999 -2.9663 -0.6764 -1.5586
 9339SOL     OW39649   1.070   0.906  16.376  0.0000  0.1275 -0.4465
 9339SOL    HW139650   1.057   0.838  16.442 -2.1414  0.9876  0.0254
 9339SOL    HW239651   1.148   0.946  16.414  0.0087 -2.4895  2.3191
 9340SOL     OW39652   3.084   2.870   6.415  0.0962  0.0227  0.1949
 9340SOL    HW139653   3.109   2.779   6.399 -1.7313 -0.3723 -0.4016
 9340SOL    HW239654   3.033   2.859   6.496 -1.1551  0.2430 -0.5684
 9341SOL     OW39655   1.513   4.651  11.695  0.1690  0.5561 -0.1858
 9341SOL    HW139656   1.527   4.561  11.666  0.1120  0.2055  0.8656
 9341SOL    HW239657   1.588   4.656  11.755 -0.6026 -0.8023  0.8950
 9342SOL     OW39658   2.300   3.284  17.284  0.0941  0.6722 -0.2094
 9342SOL    HW139659   2.344   3.345  17.344  1.7886  0.0693 -0.8702
 9342SOL    HW239660   2.368   3.222  17.260  0.0031  1.0471 -1.4232
 9343SOL     OW39661   0.391   3.456  10.816 -0.2218  0.1329 -0.0824
 9343SOL    HW139662   0.455   3.465  10.745  1.9704  1.0538  1.9858
 9343SOL    HW239663   0.345   3.535  10.789  1.4383  1.3534  0.6801
 9344SOL     OW39664   1.607   4.622   5.645  0.2039 -0.2449  0.5117
 9344SOL    HW139665   1.645   4.675   5.575  0.2473  0.1644  0.8449
 9344SOL    HW239666   1.580   4.537   5.611  0.5333 -0.0553 -0.2130
 9345SOL     OW39667   2.774   4.708  16.519  0.4553  0.1340  0.0856
 9345SOL    HW139668   2.794   0.051  16.470 -2.7955  0.6188 -0.4403
 9345SOL    HW239669   2.717   0.016  16.581  1.1189  0.7935  0.2256
 9346SOL     OW39670   3.532   3.700   9.277  0.2619  0.1774  0.7231
 9346SOL    HW139671   3.557   3.704   9.185 -1.8325 -0.1271  0.1320
 9346SOL    HW239672   3.571   3.615   9.296 -0.1289 -0.5097 -1.5962
 9347SOL     OW39673   4.541   2.733   1.658  0.1224 -0.1119  0.0890
 9347SOL    HW139674   4.621   2.781   1.640  1.8604 -3.6084 -1.5318
 9347SOL    HW239675   4.581   2.652   1.626 -2.8802 -1.3699 -0.5069
 9348SOL     OW39676   3.870   3.985   4.086 -0.2233  0.2906 -0.2550
 9348SOL    HW139677   3.944   3.993   4.025 -0.5867  0.4767 -0.6779
 9348SOL    HW239678   3.885   4.072   4.123 -3.7372  0.4597  0.8317
 9349SOL     OW39679   3.822   1.248   6.907  0.4131 -0.8266 -0.2185
 9349SOL    HW139680   3.909   1.229   6.875  1.0265  1.0686  0.3068
 9349SOL    HW239681   3.826   1.202   6.991 -0.2155 -0.8973 -0.2224
 9350SOL     OW39682   2.662   4.662   5.812  0.5942  0.4674 -0.0692
 9350SOL    HW139683   2.588   4.609   5.841 -0.3262  1.3848 -0.7559
 9350SOL    HW239684   2.611   0.003   5.790 -2.8848 -1.6229  0.5258
 9351SOL     OW39685   2.846   4.381  11.369 -0.0515 -0.0748 -0.1361
 9351SOL    HW139686   2.899   4.398  11.291 -1.0052 -0.5489 -0.8833
 9351SOL    HW239687   2.875   4.438  11.440 -0.6806 -1.7079  1.4144
 9352SOL     OW39688   1.479   4.391   9.183 -0.2338 -0.4333 -0.3012
 9352SOL    HW139689   1.489   4.477   9.222  0.4191  0.1592 -1.7659
 9352SOL    HW239690   1.567   4.355   9.171  0.3561 -0.1864  3.5020
 9353SOL     OW39691   3.163   0.171  17.687 -0.2659  0.0848 -0.1000
 9353SOL    HW139692   3.174   0.265  17.676  0.9586  0.1016  1.2982
 9353SOL    HW239693   3.231   0.161   0.005  0.1976  0.0498 -0.5881
 9354SOL     OW39694   4.226   2.299   1.863  0.0736  0.0409 -0.5304
 9354SOL    HW139695   4.296   2.364   1.863  1.3853 -1.3551 -0.4139
 9354SOL    HW239696   4.162   2.339   1.805  1.1068 -0.5480 -2.1013
 9355SOL     OW39697   0.473   2.623   3.604  0.4868  0.0357 -0.4305
 9355SOL    HW139698   0.386   2.662   3.615 -0.4471 -1.7884 -1.3974
 9355SOL    HW239699   0.462   2.528   3.593  0.7127 -0.0913  0.4199
 9356SOL     OW39700   4.608   2.583  11.631  0.3618 -0.0353  0.5630
 9356SOL    HW139701   4.604   2.503  11.578  0.6411 -0.0925  0.6273
 9356SOL    HW239702   4.560   2.636  11.567  1.0543  2.1293  1.8482
 9357SOL     OW39703   2.144   1.478  11.432  0.3829  0.3479  0.4997
 9357SOL    HW139704   2.104   1.405  11.384 -1.2440  1.5795 -0.0010
 9357SOL    HW239705   2.063   1.520  11.459 -0.6459 -0.4048 -1.4786
 9358SOL     OW39706   2.243   0.971   8.739  0.7145 -0.3403  0.5234
 9358SOL    HW139707   2.222   1.048   8.687  1.1601 -2.2414 -2.4793
 9358SOL    HW239708   2.304   0.927   8.680  1.9442 -1.3573  2.5634
 9359SOL     OW39709   4.314   3.703   2.592  0.5445  0.2704 -0.5412
 9359SOL    HW139710   4.314   3.787   2.636 -1.7194  1.2692 -2.4112
 9359SOL    HW239711   4.292   3.736   2.505  1.2827  2.1230 -0.0092
 9360SOL     OW39712   0.748   1.513   6.499  0.8687 -0.6157  0.6192
 9360SOL    HW139713   0.660   1.540   6.475  1.3836 -0.5311 -1.1558
 9360SOL    HW239714   0.788   1.505   6.413  1.3392  0.3920  0.7392
 9361SOL     OW39715   0.017   0.058   7.585  0.4959  0.0406 -0.1422
 9361SOL    HW139716   4.698   4.725   7.550  0.1141 -0.1815  0.9243
 9361SOL    HW239717   4.723   0.128   7.528  3.7107  2.2861  0.8680
 9362SOL     OW39718   3.103   0.385   0.196  0.3223 -0.1415 -0.1742
 9362SOL    HW139719   3.059   0.306   0.165 -0.5434 -0.1680  1.1131
 9362SOL    HW239720   3.145   0.417   0.116  1.1912 -0.1004  0.3008
 9363SOL     OW39721   0.459   0.284   6.861 -0.6935 -0.0953  0.8043
 9363SOL    HW139722   0.418   0.368   6.882 -2.4981 -1.0444  1.1007
 9363SOL    HW239723   0.440   0.234   6.940 -1.6621 -1.7912 -0.4895
 9364SOL     OW39724   2.158   4.321   1.789 -0.3265 -0.1102  0.5901
 9364SOL    HW139725   2.169   4.409   1.824  0.8686 -0.5735  1.3757
 9364SOL    HW239726   2.167   4.265   1.866  1.1347 -0.2884  0.3032
 9365SOL     OW39727   3.857   3.815   0.103  0.4922  0.3694 -0.5482
 9365SOL    HW139728   3.855   3.906   0.071  0.0266  0.4319 -0.3435
 9365SOL    HW239729   3.858   3.765   0.021 -1.9514  0.2604 -0.5012
 9366SOL     OW39730   0.486   3.633   8.083  0.4081 -0.0743 -0.3308
 9366SOL    HW139731   0.410   3.594   8.041  1.2575 -1.8949 -0.1919
 9366SOL    HW239732   0.549   3.564   8.059  0.4996  0.6201 -2.0537
 9367SOL     OW39733   2.244   0.612   5.973 -0.0279 -0.0459 -0.8551
 9367SOL    HW139734   2.239   0.594   5.880 -0.2836 -2.6680 -0.3202
 9367SOL    HW239735   2.275   0.703   5.970  0.0276 -0.1234 -2.2975
 9368SOL     OW39736   0.483   3.804   2.436 -0.0242 -0.3465  0.0056
 9368SOL    HW139737   0.393   3.778   2.451 -0.1618  0.4603  0.5908
 9368SOL    HW239738   0.467   3.849   2.353  0.3194 -0.8599 -0.3395
 9369SOL     OW39739   4.431   0.332   4.321  0.0533 -0.0568  0.3167
 9369SOL    HW139740   4.474   0.313   4.238  0.4202  1.5667  0.1266
 9369SOL    HW239741   4.439   0.428   4.328 -1.4351  0.0429  0.5256
 9370SOL     OW39742   1.844   3.997   6.400  0.2132 -0.5797  0.4015
 9370SOL    HW139743   1.938   4.013   6.408 -0.0071  1.4823 -1.1318
 9370SOL    HW239744   1.805   4.077   6.435  0.1255 -0.4521  0.0174
 9371SOL     OW39745   1.073   3.252   6.310 -0.9199 -0.0121  0.3368
 9371SOL    HW139746   1.033   3.198   6.242 -1.5815 -1.2396  1.7030
 9371SOL    HW239747   1.135   3.183   6.333 -1.0669 -0.1685  0.2668
 9372SOL     OW39748   2.118   1.234   2.726  0.3207  0.0765 -0.2236
 9372SOL    HW139749   2.119   1.141   2.702 -1.0213 -0.7456  2.8883
 9372SOL    HW239750   2.039   1.242   2.779 -0.8213 -0.9212 -1.7798
 9373SOL     OW39751   2.827   2.412  12.856 -0.1560  0.0386  0.0692
 9373SOL    HW139752   2.796   2.465  12.783  0.7286  1.7100  0.9120
 9373SOL    HW239753   2.740   2.380  12.881 -0.7051 -1.2117 -3.3925
 9374SOL     OW39754   4.370   0.975   7.814  0.0423  0.4847  0.0284
 9374SOL    HW139755   4.461   0.962   7.842  0.0393  0.7688  0.1658
 9374SOL    HW239756   4.328   0.978   7.899  2.8471  1.6265  1.3676
 9375SOL     OW39757   0.191   4.728   4.025  0.2847 -0.4327 -0.0398
 9375SOL    HW139758   0.202   0.074   3.979 -0.7968 -0.8091 -0.9687
 9375SOL    HW239759   0.113   4.692   3.984  0.6899 -0.3433 -0.8922
 9376SOL     OW39760   0.653   1.064   0.576  0.1419  0.1189  0.2372
 9376SOL    HW139761   0.687   1.050   0.665 -1.6659 -0.7441  0.8006
 9376SOL    HW239762   0.677   0.987   0.525 -2.7272 -0.8317  0.3038
 9377SOL     OW39763   0.662   0.045   3.873  0.3097 -0.8570 -0.3651
 9377SOL    HW139764   0.683   4.698   3.835 -0.0066 -0.4429 -1.4575
 9377SOL    HW239765   0.624   0.089   3.797 -1.7502 -2.5800 -0.3108
 9378SOL     OW39766   0.674   2.109   2.380 -0.1005  0.4795 -0.3066
 9378SOL    HW139767   0.700   2.149   2.297 -2.1013 -1.4247 -1.8648
 9378SOL    HW239768   0.583   2.139   2.389 -0.8678 -1.7464 -0.5074
 9379SOL     OW39769   3.766   0.926  10.005 -0.3260 -0.3987  0.2936
 9379SOL    HW139770   3.689   0.967  10.045 -1.8080 -4.4452  1.5811
 9379SOL    HW239771   3.723   0.869   9.942 -0.5621  0.2983 -0.1739
 9380SOL     OW39772   3.109   3.010   8.505  0.4740 -0.2900  0.6002
 9380SOL    HW139773   3.156   3.042   8.582 -1.7596 -1.3357  2.3909
 9380SOL    HW239774   3.023   3.052   8.514  0.5124 -0.2325  0.6964
 9381SOL     OW39775   0.761   2.508   4.486 -0.0132 -0.5543 -0.1574
 9381SOL    HW139776   0.695   2.552   4.433 -0.9978  0.9180  2.2520
 9381SOL    HW239777   0.849   2.544   4.471  0.0474 -1.1974 -1.3041
 9382SOL     OW39778   3.407   1.780   9.810  0.1587  0.0884  0.1106
 9382SOL    HW139779   3.411   1.703   9.752 -0.4662  0.6481 -0.6845
 9382SOL    HW239780   3.320   1.811   9.783 -0.0865 -0.9914 -0.3328
 9383SOL     OW39781   0.834   0.159   9.204 -0.3137 -0.2900  0.9777
 9383SOL    HW139782   0.811   0.212   9.128 -0.9136  3.5747  3.8320
 9383SOL    HW239783   0.851   0.073   9.165  0.3714 -0.1059  0.8590
 9384SOL     OW39784   4.208   0.536   4.930  0.2356  0.5905  0.0599
 9384SOL    HW139785   4.264   0.606   4.898  0.8039 -0.8947 -2.2238
 9384SOL    HW239786   4.123   0.579   4.931  1.0597  2.1723  3.0450
 9385SOL     OW39787   2.906   1.754   8.046 -0.0343  0.1265 -0.4953
 9385SOL    HW139788   2.826   1.804   8.061 -0.1409 -0.4851  0.9378
 9385SOL    HW239789   2.870   1.666   8.042  1.9806 -0.7520  0.7607
 9386SOL     OW39790   0.924   3.640  10.380  0.3176  0.1292  0.2043
 9386SOL    HW139791   0.991   3.640  10.312 -2.0992 -2.9303 -2.1838
 9386SOL    HW239792   0.920   3.735  10.387 -2.5498  0.0860 -0.7827
 9387SOL     OW39793   0.098   1.922   7.517  0.3186 -0.0677 -0.0825
 9387SOL    HW139794   0.070   2.012   7.498  0.1864  0.6084  3.2448
 9387SOL    HW239795   0.178   1.944   7.566 -0.6515 -1.2458  2.0256
 9388SOL     OW39796   4.689   2.405   9.752 -0.4043 -0.2826  0.2059
 9388SOL    HW139797   4.658   2.336   9.810  0.3480 -0.7602  0.0340
 9388SOL    HW239798   4.718   2.466   9.821  1.4810  1.9738 -2.5670
 9389SOL     OW39799   4.130   0.598   0.617 -0.8358 -0.1820  0.0976
 9389SOL    HW139800   4.131   0.515   0.666  1.0321 -0.3094 -0.1424
 9389SOL    HW239801   4.205   0.588   0.558 -1.2467 -0.3753 -0.3919
 9390SOL     OW39802   4.421   3.312   9.116  0.0218  0.0218  0.1697
 9390SOL    HW139803   4.431   3.219   9.096  1.0935  0.7560 -2.6151
 9390SOL    HW239804   4.327   3.324   9.101 -0.3370 -0.8566  1.7573
 9391SOL     OW39805   3.127   2.498  16.996  0.2717 -0.2850  0.1277
 9391SOL    HW139806   3.057   2.562  16.981 -1.1156 -1.7713  0.2248
 9391SOL    HW239807   3.140   2.465  16.907  1.7634 -0.9416  0.5900
 9392SOL     OW39808   0.914   4.152  13.507 -0.3036  0.3641 -0.5491
 9392SOL    HW139809   1.002   4.162  13.470 -0.1903  1.1595 -0.0849
 9392SOL    HW239810   0.943   4.152  13.599 -1.0592 -0.7058 -0.3108
 9393SOL     OW39811   0.531   3.480   4.616  0.4990  0.0070 -0.5226
 9393SOL    HW139812   0.621   3.479   4.650 -0.7057 -1.5106  2.5313
 9393SOL    HW239813   0.514   3.386   4.615 -2.1216  0.4948  0.5292
 9394SOL     OW39814   0.747   2.315  12.828 -0.1426  0.7498  0.2143
 9394SOL    HW139815   0.661   2.314  12.785 -0.0708 -1.2914  0.1307
 9394SOL    HW239816   0.809   2.325  12.755  1.1781  0.2996  1.2761
 9395SOL     OW39817   4.638   3.851   9.331  0.2994 -0.4459 -0.2505
 9395SOL    HW139818   4.650   3.923   9.393 -0.0649 -0.0081 -0.6932
 9395SOL    HW239819   4.718   3.863   9.280  1.3460 -0.1513  1.4481
 9396SOL     OW39820   1.386   3.810  14.566 -0.2259 -0.0086 -0.1108
 9396SOL    HW139821   1.421   3.891  14.604 -1.5140  0.4681  0.1004
 9396SOL    HW239822   1.345   3.765  14.640 -0.9207  1.0004  0.1184
 9397SOL     OW39823   0.603   3.690   8.582 -0.0569 -0.2077  0.3890
 9397SOL    HW139824   0.570   3.765   8.533  0.8050 -0.3547 -0.4057
 9397SOL    HW239825   0.681   3.668   8.532  0.6958 -2.0623  2.3854
 9398SOL     OW39826   2.150   2.328  13.842  0.6425  0.0954  0.4098
 9398SOL    HW139827   2.241   2.329  13.871 -0.0068 -1.8394  2.5065
 9398SOL    HW239828   2.164   2.366  13.756  1.5030  2.9686  1.8039
 9399SOL     OW39829   1.312   0.170   3.084 -0.4566  0.6995 -0.0185
 9399SOL    HW139830   1.301   0.223   3.005 -0.7036 -1.5489 -1.5157
 9399SOL    HW239831   1.255   0.097   3.058 -0.3896  1.3470 -1.9624
 9400SOL     OW39832   3.700   4.637  16.969  0.6469  0.6391 -0.3328
 9400SOL    HW139833   3.612   4.600  16.966  1.3780 -1.0356 -1.6343
 9400SOL    HW239834   3.711   4.654  16.875 -1.4244 -1.2884 -0.9146
 9401SOL     OW39835   2.939   3.145  12.199  0.3248 -0.3037 -0.3049
 9401SOL    HW139836   2.861   3.186  12.161  1.4002  1.4126 -0.6663
 9401SOL    HW239837   2.990   3.225  12.213  3.5031 -2.3907 -0.0754
 9402SOL     OW39838   0.969   3.934   5.762 -0.5876  0.6225  0.3702
 9402SOL    HW139839   0.882   3.963   5.732 -0.7367 -0.0888  0.1258
 9402SOL    HW239840   0.978   3.985   5.843  0.9108 -0.8297  1.1205
 9403SOL     OW39841   0.403   0.907   2.071 -0.4408 -0.1381  0.2570
 9403SOL    HW139842   0.341   0.980   2.064  0.2365  0.4580  0.4719
 9403SOL    HW239843   0.344   0.836   2.096 -1.6571 -0.1697 -2.7025
 9404SOL     OW39844   3.594   0.805  15.648 -0.1380  0.6430  0.2866
 9404SOL    HW139845   3.564   0.896  15.642 -0.3722  0.6051  0.8744
 9404SOL    HW239846   3.641   0.793  15.565 -0.3110 -2.4315  0.6445
 9405SOL     OW39847   1.497   2.133   7.560  0.3562  0.0788  0.6591
 9405SOL    HW139848   1.404   2.139   7.538  0.0847  0.3473  1.9005
 9405SOL    HW239849   1.502   2.120   7.654 -1.2044 -2.4796  0.3769
 9406SOL     OW39850   4.032   1.744   6.931  0.3895 -0.1682 -0.1151
 9406SOL    HW139851   3.974   1.817   6.908  1.7212  0.7001 -0.6664
 9406SOL    HW239852   3.988   1.707   7.008 -1.0118 -0.2657 -0.9486
 9407SOL     OW39853   1.963   4.587   9.666 -0.3432 -0.0371 -0.0057
 9407SOL    HW139854   1.963   4.619   9.576  1.8065  1.3050  0.4598
 9407SOL    HW239855   2.056   4.570   9.685 -0.2432 -0.7949 -1.1082
 9408SOL     OW39856   0.912   3.131  16.980 -0.0336  0.2755  0.4487
 9408SOL    HW139857   0.983   3.163  17.036  0.8823 -1.2494  0.1617
 9408SOL    HW239858   0.840   3.180  17.020 -1.4400 -0.6081 -0.9744
 9409SOL     OW39859   4.356   0.137   1.353 -0.0085 -0.7557 -0.6831
 9409SOL    HW139860   4.273   0.174   1.322 -1.0119 -0.9628  1.7288
 9409SOL    HW239861   4.349   0.047   1.321 -1.6104 -0.8215 -0.1568
 9410SOL     OW39862   0.523   0.557   9.715  0.1575  0.0990 -0.3921
 9410SOL    HW139863   0.435   0.589   9.737 -0.7175 -0.9289 -2.3411
 9410SOL    HW239864   0.528   0.481   9.773 -2.0991  1.9668  2.2533
 9411SOL     OW39865   0.027   1.847   3.907  0.0128  0.5490 -0.1920
 9411SOL    HW139866   0.113   1.860   3.947  0.1818  2.5999 -1.2143
 9411SOL    HW239867   0.054   1.758   3.884 -0.7561  0.3312 -0.2590
 9412SOL     OW39868   1.840   0.908  11.332 -0.1886 -0.0945 -0.2601
 9412SOL    HW139869   1.801   0.857  11.402 -0.9647  0.6494 -0.1495
 9412SOL    HW239870   1.867   0.840  11.271 -0.1517 -1.3017  1.1094
 9413SOL     OW39871   1.627   3.527   0.024 -0.1986  0.7236 -0.1050
 9413SOL    HW139872   1.628   3.435  17.747 -1.9127  1.2386 -2.1841
 9413SOL    HW239873   1.708   3.559  17.732 -1.2603  1.2404 -1.8531
 9414SOL     OW39874   4.622   2.661   2.982 -0.3416 -0.0354  0.2802
 9414SOL    HW139875   4.650   2.620   3.064 -0.6835 -1.8613 -0.5114
 9414SOL    HW239876   4.560   2.728   3.008  2.2779  2.8506 -0.8421
 9415SOL     OW39877   2.343   4.595   1.682 -0.5102  0.3349 -0.5043
 9415SOL    HW139878   2.335   4.508   1.644 -0.7833  0.3071 -0.3840
 9415SOL    HW239879   2.261   4.639   1.659  0.6491  3.1916  0.6973
 9416SOL     OW39880   0.849   4.367   8.144 -0.3658  0.4186 -0.0928
 9416SOL    HW139881   0.761   4.404   8.147 -0.0497  0.9723  2.4126
 9416SOL    HW239882   0.885   4.388   8.230  1.3774 -0.0460 -0.7105
 9417SOL     OW39883   0.374   1.954   8.632  0.1420  0.1913  0.3925
 9417SOL    HW139884   0.418   2.027   8.588  1.8896 -0.9714  0.2204
 9417SOL    HW239885   0.444   1.891   8.648 -0.8700 -0.5320  1.9928
 9418SOL     OW39886   3.219   1.803  16.630  0.8878  0.2427  0.6217
 9418SOL    HW139887   3.239   1.886  16.672  0.4675  0.7345 -0.1330
 9418SOL    HW239888   3.274   1.741  16.677  0.2840 -2.4229 -2.1695
 9419SOL     OW39889   2.979   2.671   5.723 -0.0872 -0.3533 -0.2077
 9419SOL    HW139890   3.043   2.651   5.791 -1.5744  0.8952  1.5796
 9419SOL    HW239891   2.909   2.709   5.776  0.5536  0.1228  0.2982
 9420SOL     OW39892   3.027   4.248   7.786  0.2246 -0.1816  0.0260
 9420SOL    HW139893   3.022   4.160   7.748  0.3035  0.1101 -0.6521
 9420SOL    HW239894   2.958   4.303   7.752 -1.2833 -1.8210  0.4413
 9421SOL     OW39895   2.614   1.750   5.133  0.2619 -0.2878 -0.0854
 9421SOL    HW139896   2.558   1.766   5.056  1.3942 -0.2452 -0.9045
 9421SOL    HW239897   2.574   1.816   5.190 -1.2248  0.8115 -2.3600
 9422SOL     OW39898   4.478   4.309  11.700 -0.3548 -0.5086  0.4963
 9422SOL    HW139899   4.406   4.326  11.639  0.3427 -1.2787 -0.5282
 9422SOL    HW239900   4.462   4.362  11.778 -1.2946 -0.7198  0.4543
 9423SOL     OW39901   2.865   4.196   6.321  0.5478 -0.2501  0.2469
 9423SOL    HW139902   2.951   4.190   6.363  0.9320 -0.1256 -0.5377
 9423SOL    HW239903   2.886   4.158   6.236 -1.3218  0.7968 -0.6766
 9424SOL     OW39904   3.357   1.693   4.148  0.3292 -0.1483  0.5064
 9424SOL    HW139905   3.284   1.749   4.120  0.2448 -0.2068  0.6111
 9424SOL    HW239906   3.395   1.657   4.068  1.1390  0.9653  0.3864
 9425SOL     OW39907   3.575   3.757   2.124 -0.1162  0.3488 -0.2123
 9425SOL    HW139908   3.611   3.670   2.141 -0.7388  0.4124  1.3959
 9425SOL    HW239909   3.658   3.804   2.116 -1.0215  2.1582  1.1955
 9426SOL     OW39910   3.319   0.182   3.928  0.2099 -0.1677 -0.6600
 9426SOL    HW139911   3.253   0.202   3.995 -0.2802  2.4847 -1.9554
 9426SOL    HW239912   3.311   0.258   3.872  3.4299  1.0264  0.4866
 9427SOL     OW39913   3.571   2.821   6.478 -0.0305  0.1209  0.0508
 9427SOL    HW139914   3.594   2.775   6.397  1.8707  2.7696 -0.9205
 9427SOL    HW239915   3.477   2.808   6.471 -0.5732  4.0039 -0.1043
 9428SOL     OW39916   1.163   2.429   3.789  0.1103 -0.2201 -0.1966
 9428SOL    HW139917   1.167   2.387   3.703  1.7517  4.3683 -2.3402
 9428SOL    HW239918   1.231   2.496   3.788  0.3059 -0.3826  1.8955
 9429SOL     OW39919   2.357   3.474   6.031  0.3482  0.9220  0.2403
 9429SOL    HW139920   2.444   3.480   6.070  1.7662 -1.3826 -2.5798
 9429SOL    HW239921   2.366   3.546   5.970 -0.2917  0.2406 -0.6522
 9430SOL     OW39922   2.468   2.635   9.746 -0.1375  0.0939  0.3487
 9430SOL    HW139923   2.492   2.543   9.753  0.8897  0.2669 -1.0748
 9430SOL    HW239924   2.503   2.662   9.661  2.2040 -1.1258  0.9454
 9431SOL     OW39925   2.134   2.535  11.312 -0.4432 -0.1557 -0.3873
 9431SOL    HW139926   2.207   2.484  11.276 -1.3506 -0.6142 -1.5563
 9431SOL    HW239927   2.150   2.543  11.406 -0.6801  0.3158 -0.3884
 9432SOL     OW39928   1.621   4.720   3.996 -0.1041 -0.4297  0.7687
 9432SOL    HW139929   1.613   4.634   3.953 -0.0314  0.8519 -1.7921
 9432SOL    HW239930   1.705   0.016   3.964  0.6433 -1.2155  1.8860
 9433SOL     OW39931   1.764   3.319   6.764 -0.2151  0.1589  0.1903
 9433SOL    HW139932   1.775   3.373   6.686  1.6648 -1.1974 -0.4902
 9433SOL    HW239933   1.833   3.353   6.821  1.6766 -2.2674 -0.6435
 9434SOL     OW39934   3.971   1.036   9.028  0.5305  0.8060 -0.3940
 9434SOL    HW139935   3.929   1.107   9.075 -0.8260 -1.5823  2.0267
 9434SOL    HW239936   3.915   0.960   9.043 -0.6228  2.3380  2.8733
 9435SOL     OW39937   1.987   3.994  12.949  0.2615 -0.8472 -0.0866
 9435SOL    HW139938   2.069   3.964  12.990  0.2172  0.2641  0.8054
 9435SOL    HW239939   2.024   4.034  12.870  0.0688 -1.9032 -0.7173
 9436SOL     OW39940   3.626   2.474   3.537  0.4165  0.4961 -0.0597
 9436SOL    HW139941   3.686   2.515   3.475  1.8889  1.1183  1.7809
 9436SOL    HW239942   3.580   2.415   3.477 -1.1632  0.8537  0.7985
 9437SOL     OW39943   3.794   1.430   2.389  0.1831  0.6882  0.0727
 9437SOL    HW139944   3.884   1.430   2.355 -0.4278 -0.0668 -1.5597
 9437SOL    HW239945   3.767   1.339   2.400  1.7576  0.1567 -0.4248
 9438SOL     OW39946   2.135   1.125   2.035 -0.0449 -0.1867 -0.3282
 9438SOL    HW139947   2.196   1.116   2.108 -2.0459  1.9580  1.6100
 9438SOL    HW239948   2.198   1.110   1.965  0.4626  0.2684  0.0235
 9439SOL     OW39949   2.453   0.693   8.755 -0.4647 -0.0095 -0.0161
 9439SOL    HW139950   2.393   0.683   8.829 -0.1376  0.9259  0.3697
 9439SOL    HW239951   2.509   0.769   8.770 -1.2504  0.8628 -1.5751
 9440SOL     OW39952   1.013   2.134   4.899  0.1157 -0.2593 -0.0741
 9440SOL    HW139953   0.956   2.156   4.826 -1.2332  2.5546  1.8144
 9440SOL    HW239954   0.959   2.066   4.940 -0.1899  1.4214  2.2785
 9441SOL     OW39955   1.739   4.733   6.340 -0.2300 -0.2920 -0.1449
 9441SOL    HW139956   1.786   4.663   6.293 -1.0830 -0.9845  0.0506
 9441SOL    HW239957   1.666   0.019   6.283  0.9095 -0.3072 -1.6362
 9442SOL     OW39958   4.427   1.670   4.571 -0.1330 -0.6170 -0.1745
 9442SOL    HW139959   4.496   1.725   4.533 -0.3212  0.5756  1.2111
 9442SOL    HW239960   4.461   1.661   4.660 -0.4832 -0.1491  0.0035
 9443SOL     OW39961   1.172   4.399   3.266  0.4922  0.2026 -0.3910
 9443SOL    HW139962   1.103   4.345   3.227  1.3920 -0.6909 -0.7426
 9443SOL    HW239963   1.129   4.439   3.342 -0.9055 -1.0780 -0.5120
 9444SOL     OW39964   1.273   1.085   9.483  0.9832  0.3894 -0.0934
 9444SOL    HW139965   1.235   1.172   9.474 -0.0246 -0.1097 -0.6390
 9444SOL    HW239966   1.202   1.023   9.465  0.3990  1.4664 -1.4755
 9445SOL     OW39967   0.562   3.213   7.969 -0.1018 -0.1658  0.5113
 9445SOL    HW139968   0.477   3.243   7.938 -0.2071 -0.5028  0.4776
 9445SOL    HW239969   0.596   3.301   7.985  2.2626 -0.7634 -1.2541
 9446SOL     OW39970   1.719   4.620  13.163  0.3179 -0.5951 -0.1948
 9446SOL    HW139971   1.712   4.706  13.122 -3.0559 -0.2062  1.2443
 9446SOL    HW239972   1.632   4.581  13.166  0.7275 -1.4829  0.2777
 9447SOL     OW39973   1.565   2.243   3.251  0.5044 -0.4831 -0.3303
 9447SOL    HW139974   1.588   2.322   3.299 -0.0098 -0.1364 -0.6553
 9447SOL    HW239975   1.481   2.222   3.292 -0.7115  1.7406 -1.6864
 9448SOL     OW39976   2.797   3.544   1.492  0.1371 -0.1263 -0.3863
 9448SOL    HW139977   2.767   3.612   1.552  0.9868  1.1068 -1.3457
 9448SOL    HW239978   2.747   3.575   1.416 -1.7994  1.0523  1.4016
 9449SOL     OW39979   2.690   4.247   5.233 -0.8987  0.0633  0.4430
 9449SOL    HW139980   2.777   4.285   5.219 -0.9770  0.7555  1.9174
 9449SOL    HW239981   2.680   4.189   5.158 -2.5783 -0.9779  1.4888
 9450SOL     OW39982   1.938   1.486   3.291  0.1975 -0.6856 -1.0329
 9450SOL    HW139983   2.013   1.502   3.349  0.2616 -1.6913 -0.8345
 9450SOL    HW239984   1.872   1.474   3.359  1.6661  0.5249  0.6210
 9451SOL     OW39985   3.545   2.717   1.199  0.1167  0.2891 -0.7358
 9451SOL    HW139986   3.628   2.764   1.211  0.0380  0.1643  0.3194
 9451SOL    HW239987   3.487   2.774   1.149 -1.6328 -2.1673 -1.4868
 9452SOL     OW39988   0.929   2.414   3.923 -0.2567 -0.1197  0.1097
 9452SOL    HW139989   0.861   2.428   3.858 -0.8283 -0.3374  0.6592
 9452SOL    HW239990   1.005   2.415   3.865 -0.2615 -1.1256  0.0941
 9453SOL     OW39991   0.063   0.993   8.176  0.4083 -0.0352 -0.7286
 9453SOL    HW139992   0.109   1.072   8.203  0.0682  0.1122 -0.5772
 9453SOL    HW239993   0.136   0.951   8.130  0.0056 -0.2000 -1.2208
 9454SOL     OW39994   4.479   2.118  15.181 -0.2691  0.8386  0.7654
 9454SOL    HW139995   4.551   2.088  15.237 -0.7104 -1.0396  0.3443
 9454SOL    HW239996   4.431   2.041  15.149  1.0558  0.9732 -1.5118
 9455SOL     OW39997   1.858   4.471   5.487  0.0153 -0.0955  0.1455
 9455SOL    HW139998   1.907   4.407   5.436  3.1196  1.0726  1.6743
 9455SOL    HW239999   1.798   4.509   5.423 -0.5688  0.4157  0.9904
 9456SOL     OW40000   2.373   1.934   6.302 -0.2120  0.0214  0.0414
 9456SOL    HW140001   2.304   1.969   6.358 -0.9349 -0.5974 -0.4557
 9456SOL    HW240002   2.448   1.988   6.327  0.6586 -1.6683  1.0018
 9457SOL     OW40003   2.360   2.481  13.078 -0.3934 -0.2426 -0.3936
 9457SOL    HW140004   2.392   2.548  13.138  0.4566 -0.3648 -0.7106
 9457SOL    HW240005   2.328   2.418  13.143 -1.1593  1.9168  1.2999
 9458SOL     OW40006   1.366   4.118   6.424  0.4926  0.2497  0.3044
 9458SOL    HW140007   1.354   4.110   6.329 -1.8638 -0.9109  0.6794
 9458SOL    HW240008   1.405   4.204   6.433 -1.6301  0.9650  2.8933
 9459SOL     OW40009   0.109   3.160   5.823 -0.0453 -0.1866  0.3690
 9459SOL    HW140010   0.159   3.081   5.844 -2.0890 -0.8828  2.5870
 9459SOL    HW240011   0.025   3.114   5.818 -1.4337  2.4097 -0.6295
 9460SOL     OW40012   4.004   1.479   4.475 -0.1108  0.2639  0.2749
 9460SOL    HW140013   4.047   1.394   4.482  0.1473  0.2824 -1.1542
 9460SOL    HW240014   4.069   1.527   4.424  0.7228 -2.2873 -1.0472
 9461SOL     OW40015   0.947   4.595  15.335 -0.4592 -0.3462  0.9633
 9461SOL    HW140016   0.952   4.595  15.431 -1.1860  1.4782  1.0007
 9461SOL    HW240017   0.905   4.681  15.328 -2.8050 -1.3781  2.1711
 9462SOL     OW40018   2.754   4.344   8.437 -0.2138 -0.0120 -0.0412
 9462SOL    HW140019   2.690   4.339   8.366 -1.3792 -1.9991  1.1306
 9462SOL    HW240020   2.785   4.254   8.446  0.5398  0.1737 -0.7361
 9463SOL     OW40021   1.894   1.307   0.084 -0.2909 -0.4141  0.1341
 9463SOL    HW140022   1.978   1.277   0.117 -2.0386  0.4556  5.4160
 9463SOL    HW240023   1.865   1.232   0.031 -1.1914  0.8859 -1.2105
 9464SOL     OW40024   4.245   1.818   0.665 -0.1278 -0.1254 -0.0463
 9464SOL    HW140025   4.241   1.805   0.760 -1.5855 -1.3872 -0.2860
 9464SOL    HW240026   4.337   1.798   0.646  0.2175  0.7489  0.6822
 9465SOL     OW40027   0.330   0.116   1.869  0.3557 -0.4684  0.2065
 9465SOL    HW140028   0.251   0.169   1.880 -1.4217 -2.4375 -3.0577
 9465SOL    HW240029   0.295   0.040   1.821  1.9857 -1.3228  0.3847
 9466SOL     OW40030   3.415   1.750  17.009 -0.3461 -0.9224  0.0671
 9466SOL    HW140031   3.366   1.762  17.090 -2.5744 -2.8883 -1.0146
 9466SOL    HW240032   3.412   1.839  16.974 -0.2828 -1.2432 -0.7486
 9467SOL     OW40033   0.795   2.474   8.408 -0.0725  0.2346  0.9307
 9467SOL    HW140034   0.755   2.554   8.373 -1.6709 -0.7355  0.5552
 9467SOL    HW240035   0.861   2.452   8.343 -1.7758  1.4315 -1.2250
 9468SOL     OW40036   1.310   1.950   6.637  0.0723 -0.2295  0.6794
 9468SOL    HW140037   1.356   1.915   6.713  0.6914  0.1295  0.4728
 9468SOL    HW240038   1.292   2.042   6.656 -0.2837 -0.3412  0.8753
 9469SOL     OW40039   4.080   3.421   2.174 -0.3100  0.2428 -0.2218
 9469SOL    HW140040   4.037   3.506   2.159 -1.5066 -0.0933  1.3047
 9469SOL    HW240041   4.022   3.376   2.113  0.1444 -0.8846  0.1897
 9470SOL     OW40042   0.749   4.571  15.120  0.3151  0.5624 -0.3521
 9470SOL    HW140043   0.793   4.499  15.074  2.2456  1.4408  0.1166
 9470SOL    HW240044   0.798   4.579  15.202  0.5477 -1.3009 -0.3037
 9471SOL     OW40045   1.178   3.542   5.822 -0.0470 -0.0550  0.3837
 9471SOL    HW140046   1.267   3.531   5.854 -0.8456 -1.4038  2.1335
 9471SOL    HW240047   1.170   3.478   5.751 -0.4149  1.1773 -0.6867
 9472SOL     OW40048   0.635   2.063   5.387 -0.3223  0.2530 -0.0246
 9472SOL    HW140049   0.730   2.064   5.402 -0.4250  1.6454  0.5420
 9472SOL    HW240050   0.615   1.970   5.396  0.2376  0.2317  1.0093
 9473SOL     OW40051   1.684   1.544   2.114 -0.1698 -0.5059 -0.2575
 9473SOL    HW140052   1.715   1.612   2.053  0.5492  0.3408  1.0569
 9473SOL    HW240053   1.686   1.469   2.054  0.2294  0.5005 -1.5197
 9474SOL     OW40054   3.991   3.522   3.117  0.5048  0.1980  0.4384
 9474SOL    HW140055   3.900   3.498   3.131  0.5018  0.1328  0.3072
 9474SOL    HW240056   3.998   3.551   3.026 -0.7206  0.9584  0.5920
 9475SOL     OW40057   4.616   3.705   7.211 -0.2128  0.2288 -0.4295
 9475SOL    HW140058   4.574   3.790   7.200  0.6364  0.7311  0.2142
 9475SOL    HW240059   4.705   3.714   7.177  0.0838 -0.2981  0.2105
 9476SOL     OW40060   4.162   0.758   3.304 -0.0877  0.1992  0.1668
 9476SOL    HW140061   4.091   0.749   3.367 -0.8884 -2.3094 -1.0604
 9476SOL    HW240062   4.213   0.682   3.332 -2.2408 -1.4831 -0.4437
 9477SOL     OW40063   4.476   4.243   7.070 -0.3129 -0.1729 -0.6635
 9477SOL    HW140064   4.486   4.263   7.163  0.1820 -1.0254 -0.5343
 9477SOL    HW240065   4.429   4.160   7.063  2.2074 -1.5893 -0.6213
 9478SOL     OW40066   1.404   4.592   7.088 -0.3098  0.1786  0.2588
 9478SOL    HW140067   1.439   4.588   7.177  2.1459  0.8699 -0.6756
 9478SOL    HW240068   1.319   4.550   7.094 -0.2775  0.2614  1.4089
 9479SOL     OW40069   3.601   1.296   0.145 -0.0714  0.0401 -0.2370
 9479SOL    HW140070   3.639   1.302   0.232 -1.6882 -1.2382  0.5750
 9479SOL    HW240071   3.576   1.387   0.130 -0.4678 -0.2301 -1.2847
 9480SOL     OW40072   1.358   3.995   5.569 -0.4605  0.0636 -0.2357
 9480SOL    HW140073   1.429   3.931   5.563  0.7204  1.4691 -1.1618
 9480SOL    HW240074   1.297   3.933   5.607 -0.7238  0.5804  0.1777
 9481SOL     OW40075   3.288   2.738   9.206 -0.5079 -0.1326 -0.3498
 9481SOL    HW140076   3.230   2.676   9.249  0.1307  1.8070  3.2973
 9481SOL    HW240077   3.365   2.689   9.235 -0.1220  0.5465 -0.2236
 9482SOL     OW40078   3.862   3.069  11.819  0.6368  0.0144 -0.4586
 9482SOL    HW140079   3.893   3.012  11.748 -0.6194 -2.7456  1.2127
 9482SOL    HW240080   3.818   3.010  11.879  0.0470  1.2658  0.3387
 9483SOL     OW40081   2.578   2.234   3.100 -0.2686 -0.0470  0.2469
 9483SOL    HW140082   2.589   2.160   3.160 -0.6466  1.9600  2.7722
 9483SOL    HW240083   2.489   2.261   3.120 -1.1546 -1.2916 -1.9677
 9484SOL     OW40084   0.248   0.126   5.316  0.2380 -0.1594 -0.5095
 9484SOL    HW140085   0.337   0.155   5.338  0.2121 -1.1406  0.8766
 9484SOL    HW240086   0.261   0.119   5.222  1.3078  1.2938 -0.4721
 9485SOL     OW40087   4.714   3.823   4.106 -0.4923  0.2787 -0.7753
 9485SOL    HW140088   0.016   3.797   4.023  0.1420 -0.7559 -0.1478
 9485SOL    HW240089   4.622   3.843   4.087 -0.2298  1.3474 -0.8970
 9486SOL     OW40090   1.197   0.139   6.070  0.5871 -0.5852 -0.1136
 9486SOL    HW140091   1.197   0.235   6.076 -1.1872 -0.4814 -1.9531
 9486SOL    HW240092   1.178   0.114   5.980  0.4314 -0.2164 -0.1836
 9487SOL     OW40093   0.036   3.022  12.836 -0.5468  0.5217  0.8039
 9487SOL    HW140094   4.683   2.997  12.819  0.0228 -1.9879  1.3802
 9487SOL    HW240095   0.035   3.074  12.917  0.3366  0.8203  0.6229
 9488SOL     OW40096   4.250   2.474   5.718  0.2271 -0.0012 -0.4546
 9488SOL    HW140097   4.260   2.381   5.739  3.3784  0.2261 -0.9713
 9488SOL    HW240098   4.287   2.508   5.799 -1.8796 -0.1591  0.5946
 9489SOL     OW40099   3.582   4.688   3.074  0.0188 -0.4756  1.0502
 9489SOL    HW140100   3.661   4.709   3.124  0.7496 -0.7732  0.0175
 9489SOL    HW240101   3.551   4.617   3.131 -1.3301  1.2930  2.5459
 9490SOL     OW40102   0.452   2.270   2.618 -0.2034  0.4242  0.2246
 9490SOL    HW140103   0.503   2.194   2.648  2.0656  1.6319 -0.6285
 9490SOL    HW240104   0.408   2.241   2.538  1.0124  0.2997 -0.3955
 9491SOL     OW40105   0.280   0.263   9.120 -0.1108  0.3158 -0.5040
 9491SOL    HW140106   0.317   0.350   9.105  0.9234 -0.2261 -1.1053
 9491SOL    HW240107   0.320   0.207   9.053 -0.1789  0.7991 -0.9562
 9492SOL     OW40108   0.489   4.245   8.373 -0.8740 -0.3508  0.1403
 9492SOL    HW140109   0.562   4.302   8.350 -0.5549 -1.4773 -1.6565
 9492SOL    HW240110   0.461   4.292   8.452  1.0324  2.2296 -0.7100
 9493SOL     OW40111   2.247   2.304  13.252  0.5474  0.6506  0.7401
 9493SOL    HW140112   2.253   2.235  13.186  0.6398  0.3712  1.0331
 9493SOL    HW240113   2.177   2.271  13.308 -0.0002 -2.3593 -1.7464
 9494SOL     OW40114   3.812   0.160  15.903  0.1722  0.3534 -0.2949
 9494SOL    HW140115   3.719   0.168  15.926  0.1695  1.8476 -0.7885
 9494SOL    HW240116   3.809   0.185  15.811  0.4412 -2.0130 -0.9291
 9495SOL     OW40117   4.285   0.969   5.304  0.6343 -0.5187 -0.6895
 9495SOL    HW140118   4.249   0.882   5.317  0.2800 -0.2468  0.2219
 9495SOL    HW240119   4.338   0.966   5.384 -0.4622  0.7925  0.0839
 9496SOL     OW40120   2.428   3.679  13.127 -0.3933 -0.4953 -0.2311
 9496SOL    HW140121   2.427   3.589  13.094  1.6074  0.3737 -2.6886
 9496SOL    HW240122   2.378   3.673  13.208 -2.1815 -0.2016 -1.3167
 9497SOL     OW40123   0.665   2.303   1.816 -0.2156 -0.3140  0.6036
 9497SOL    HW140124   0.659   2.228   1.756  1.0062 -0.0069  0.1087
 9497SOL    HW240125   0.746   2.345   1.789 -0.5700  0.4114  0.6618
 9498SOL     OW40126   3.631   3.182   8.584 -0.1132  0.1841 -0.0333
 9498SOL    HW140127   3.594   3.197   8.497  1.3805 -1.9437 -1.0512
 9498SOL    HW240128   3.712   3.233   8.592 -1.1354  1.4625  2.3064
 9499SOL     OW40129   4.330   1.384   4.075  0.1196  0.0800  0.2033
 9499SOL    HW140130   4.392   1.449   4.107 -0.8190  0.2931  1.5616
 9499SOL    HW240131   4.370   1.326   4.010 -1.0382 -2.1002  1.4625
 9500SOL     OW40132   3.130   3.628   2.876 -0.5939 -0.0298 -0.8063
 9500SOL    HW140133   3.088   3.681   2.809  0.3594  2.8943  0.8768
 9500SOL    HW240134   3.121   3.539   2.842  0.0874 -0.7556  0.8856
 9501SOL     OW40135   0.278   4.321   6.150 -0.1929 -0.1562  0.1301
 9501SOL    HW140136   0.343   4.344   6.216 -1.1276  2.4918  0.1484
 9501SOL    HW240137   0.208   4.378   6.183  1.2834  1.3776  0.6303
 9502SOL     OW40138   1.192   1.281   3.951 -0.0968  0.8151  0.1034
 9502SOL    HW140139   1.181   1.212   3.886 -0.6176 -1.2415  2.4118
 9502SOL    HW240140   1.116   1.337   3.936 -0.4643  0.4327  0.5441
 9503SOL     OW40141   3.578   2.351   7.710  0.9187 -0.1775  0.1694
 9503SOL    HW140142   3.655   2.346   7.766 -0.2748 -1.2961  1.7224
 9503SOL    HW240143   3.585   2.439   7.674 -1.7990 -0.8098 -1.8513
 9504SOL     OW40144   0.850   2.170   1.568 -0.4074 -0.4366 -0.8580
 9504SOL    HW140145   0.848   2.218   1.485  2.0396 -1.2900 -1.3993
 9504SOL    HW240146   0.893   2.093   1.531  0.9176  0.0207 -0.2512
 9505SOL     OW40147   4.091   3.865   3.071  0.1965 -0.6395 -0.2590
 9505SOL    HW140148   4.011   3.892   3.115  0.3885  0.6104 -0.6989
 9505SOL    HW240149   4.084   3.908   2.987  3.6638  0.7447  0.1661
 9506SOL     OW40150   4.064   1.292   4.702  0.3794 -0.3409 -0.4047
 9506SOL    HW140151   4.054   1.288   4.797  0.0394 -0.6050 -0.4532
 9506SOL    HW240152   4.137   1.354   4.706  0.2162 -0.4072  3.0558
 9507SOL     OW40153   0.506   1.221   2.638 -0.6220 -0.4108 -0.8669
 9507SOL    HW140154   0.558   1.211   2.558 -1.4638 -1.5125 -1.2740
 9507SOL    HW240155   0.418   1.243   2.607 -2.1871 -1.7366  2.6801
 9508SOL     OW40156   1.453   1.542   4.462  0.6005  0.4771  0.3277
 9508SOL    HW140157   1.524   1.488   4.497  1.0809  0.6525 -0.3876
 9508SOL    HW240158   1.497   1.624   4.484  0.4707  0.4374  0.7357
 9509SOL     OW40159   0.900   4.070  15.233 -0.4693 -0.7583 -0.0751
 9509SOL    HW140160   0.898   4.166  15.232 -2.5510 -0.8156 -2.5925
 9509SOL    HW240161   0.933   4.052  15.321  1.4752 -1.5394 -0.9508
 9510SOL     OW40162   0.730   1.592  13.665 -0.9807  0.8156 -0.4672
 9510SOL    HW140163   0.744   1.645  13.743  2.4654 -0.7824  0.0445
 9510SOL    HW240164   0.764   1.651  13.598 -1.0864  0.1997 -1.0677
 9511SOL     OW40165   4.280   0.738  12.222 -0.0298  0.0503 -0.2399
 9511SOL    HW140166   4.238   0.712  12.304  0.7123  3.3585  1.2047
 9511SOL    HW240167   4.352   0.784  12.265 -0.5078  0.1055  0.4899
 9512SOL     OW40168   1.209   2.531   4.916 -0.5463 -0.1014  0.0528
 9512SOL    HW140169   1.285   2.584   4.939 -0.6868  0.9054 -1.8287
 9512SOL    HW240170   1.144   2.600   4.911 -0.8572 -0.4662 -1.1473
 9513SOL     OW40171   2.138   0.631   8.320  0.2180 -0.3365 -0.0947
 9513SOL    HW140172   2.152   0.547   8.276  1.1792  0.5182 -1.4447
 9513SOL    HW240173   2.225   0.668   8.304  0.5409 -1.3241 -0.6172
 9514SOL     OW40174   0.385   2.980   6.205 -0.3609  0.3586 -0.1470
 9514SOL    HW140175   0.392   2.885   6.205 -0.5642  0.3431 -1.0226
 9514SOL    HW240176   0.442   2.996   6.280 -0.0574  0.9958 -0.5125
 9515SOL     OW40177   1.318   4.264   7.135  0.2663  0.1054  0.4287
 9515SOL    HW140178   1.256   4.311   7.190 -0.2987 -2.0278  1.6022
 9515SOL    HW240179   1.255   4.247   7.065 -0.0436 -0.8479  0.9367
 9516SOL     OW40180   1.712   2.818   5.078 -0.5420 -0.0265 -0.1417
 9516SOL    HW140181   1.803   2.806   5.107 -0.5118 -2.5079 -1.2542
 9516SOL    HW240182   1.727   2.855   4.991 -0.0383 -0.2124 -0.1347
 9517SOL     OW40183   3.119   0.961   9.716 -0.3324 -0.6185  0.4069
 9517SOL    HW140184   3.194   0.947   9.773 -1.6518  1.6894  2.7076
 9517SOL    HW240185   3.047   0.963   9.778 -0.4830  1.6056  0.1769
 9518SOL     OW40186   2.889   3.459   4.102  0.6227  0.5771 -0.7642
 9518SOL    HW140187   2.853   3.386   4.052 -0.1687  0.3748  0.0851
 9518SOL    HW240188   2.924   3.509   4.029  0.2224  0.0587 -1.3074
 9519SOL     OW40189   4.154   0.941   4.328 -0.0605  0.0198  0.6376
 9519SOL    HW140190   4.164   0.848   4.309  0.4330  0.1142  0.4165
 9519SOL    HW240191   4.061   0.951   4.345 -0.8115 -0.9407 -2.9479
 9520SOL     OW40192   2.547   1.762   7.811  0.3689 -0.1463  0.1509
 9520SOL    HW140193   2.501   1.797   7.887 -0.7557 -0.4882 -0.3648
 9520SOL    HW240194   2.500   1.789   7.732 -0.1119 -0.2756  0.3924
 9521SOL     OW40195   1.499   3.336   7.097 -0.0677  0.4350 -0.2051
 9521SOL    HW140196   1.555   3.401   7.139  0.7548 -0.9254  0.7783
 9521SOL    HW240197   1.424   3.316   7.153  0.2619  2.2176  0.8819
 9522SOL     OW40198   3.058   2.381   7.346  0.4783  0.3217 -0.2941
 9522SOL    HW140199   2.973   2.406   7.382  0.4640  1.0286 -0.8092
 9522SOL    HW240200   3.058   2.416   7.256  1.1431 -1.2304 -0.9027
 9523SOL     OW40201   0.384   1.210   4.733 -0.0990  0.4005 -0.6471
 9523SOL    HW140202   0.458   1.213   4.793  1.3996  2.6790 -2.5950
 9523SOL    HW240203   0.323   1.264   4.784  0.4302 -0.2173  0.6467
 9524SOL     OW40204   0.639   2.974   7.813  0.5343 -0.4077 -0.1534
 9524SOL    HW140205   0.626   3.048   7.872 -0.8198 -1.3394  0.7035
 9524SOL    HW240206   0.705   3.009   7.752 -0.1583  2.3241  0.6548
 9525SOL     OW40207   0.383   2.738   7.044  1.2019 -0.0966 -0.0554
 9525SOL    HW140208   0.297   2.779   7.049  0.4779 -1.9115  2.3550
 9525SOL    HW240209   0.438   2.816   7.053 -1.5580  1.7947  0.2766
 9526SOL     OW40210   3.730   0.563   5.868  0.5376  0.3646  0.4307
 9526SOL    HW140211   3.774   0.556   5.953 -1.0810  1.0533  1.3195
 9526SOL    HW240212   3.736   0.657   5.855  1.9540  0.4021  1.3201
 9527SOL     OW40213   2.321   3.659   7.089  0.2901 -0.0000  0.0670
 9527SOL    HW140214   2.254   3.609   7.136  0.1278 -0.7592 -0.9744
 9527SOL    HW240215   2.296   3.645   6.998  1.3992 -1.6164  0.0104
 9528SOL     OW40216   2.798   1.555   8.339 -0.0020 -0.3574 -0.4231
 9528SOL    HW140217   2.768   1.633   8.386  1.5186  0.6291 -1.0976
 9528SOL    HW240218   2.753   1.550   8.255  1.0679  1.4164 -1.0981
 9529SOL     OW40219   3.557   0.374   4.550  0.0624  0.4075  0.1770
 9529SOL    HW140220   3.496   0.442   4.525 -0.6237  0.4644  2.0436
 9529SOL    HW240221   3.531   0.303   4.491 -0.1602  0.2883  0.4237
 9530SOL     OW40222   0.472   0.338  14.965  0.5652  0.2365  0.4370
 9530SOL    HW140223   0.496   0.246  14.979 -0.3050  0.2925  2.2977
 9530SOL    HW240224   0.436   0.370  15.047 -1.0211  0.7003 -0.4297
 9531SOL     OW40225   2.300   0.149  14.499  0.1471  0.6077  0.3439
 9531SOL    HW140226   2.258   0.063  14.504  2.8067 -0.6165  2.0893
 9531SOL    HW240227   2.294   0.176  14.407 -0.1081  0.3746  0.2946
 9532SOL     OW40228   2.556   1.300  11.902 -0.1350 -0.3104 -0.0255
 9532SOL    HW140229   2.645   1.284  11.935 -0.1410 -0.9235 -0.3006
 9532SOL    HW240230   2.581   1.277  11.812 -0.4227 -1.2304  0.1270
 9533SOL     OW40231   3.194   1.391   1.971 -0.0068 -0.4310 -0.6342
 9533SOL    HW140232   3.255   1.317   1.975  1.0898  0.6864  2.7616
 9533SOL    HW240233   3.248   1.459   1.931 -1.7643  2.1101  1.2887
 9534SOL     OW40234   4.721   0.696   8.349  0.4534 -0.2123  0.0894
 9534SOL    HW140235   0.063   0.647   8.326  2.2174  1.2131  3.1823
 9534SOL    HW240236   4.735   0.694   8.444  1.3943  0.4820 -0.0386
 9535SOL     OW40237   3.603   3.901   8.406 -0.0513 -0.2631 -0.3015
 9535SOL    HW140238   3.520   3.939   8.433  0.7167 -0.6156  2.4906
 9535SOL    HW240239   3.653   3.897   8.487  0.5307  0.8199 -0.5906
 9536SOL     OW40240   3.295   3.110   9.673  0.1415  0.4370 -0.8823
 9536SOL    HW140241   3.220   3.145   9.721 -0.5340  0.7440 -2.1436
 9536SOL    HW240242   3.299   3.158   9.590  1.1493 -0.7676 -1.5323
 9537SOL     OW40243   0.143   0.497  12.240  0.8071  0.0293 -0.1104
 9537SOL    HW140244   0.236   0.501  12.263  0.4873  1.9618  0.8605
 9537SOL    HW240245   0.144   0.509  12.145 -0.0983 -0.9767 -0.2383
 9538SOL     OW40246   3.880   0.215   6.620  0.4054  0.1411  0.5710
 9538SOL    HW140247   3.944   0.145   6.609 -0.1543 -0.3872  0.6292
 9538SOL    HW240248   3.906   0.286   6.563  1.8489  0.3252  1.4594
 9539SOL     OW40249   3.657   2.948   8.821  0.1477 -0.0235 -0.2614
 9539SOL    HW140250   3.646   3.042   8.830 -3.0472 -0.2773 -1.6879
 9539SOL    HW240251   3.643   2.940   8.726  2.8177 -0.6869 -0.6014
 9540SOL     OW40252   0.410   4.283  10.661  0.0966  0.4517 -0.4113
 9540SOL    HW140253   0.354   4.250  10.731  0.2555  0.1339 -0.4326
 9540SOL    HW240254   0.411   4.379  10.669  1.2362  0.3520  0.6136
 9541SOL     OW40255   0.004   2.848  11.289 -0.2607 -0.5146 -0.2345
 9541SOL    HW140256   0.056   2.784  11.240 -0.6600 -0.0667 -1.2449
 9541SOL    HW240257   0.021   2.929  11.241  0.0765 -0.2418  0.3365
 9542SOL     OW40258   1.911   3.717   0.021  0.3206 -0.0887 -0.9245
 9542SOL    HW140259   1.860   3.788   0.061 -0.6842 -0.4635 -1.5398
 9542SOL    HW240260   1.994   3.743   0.062 -0.3538  0.5337  0.0511
 9543SOL     OW40261   3.617   3.040   3.139 -0.6956 -0.4673  0.0983
 9543SOL    HW140262   3.677   3.095   3.089  0.4777 -2.2188 -0.4450
 9543SOL    HW240263   3.555   3.014   3.070 -1.4527 -0.6851  0.8664
 9544SOL     OW40264   0.197   2.251   7.852  0.1282  0.1873  0.1271
 9544SOL    HW140265   0.247   2.169   7.854 -1.1373 -0.5752  0.5151
 9544SOL    HW240266   0.250   2.304   7.911  0.1854 -1.5746  1.6721
 9545SOL     OW40267   2.071   0.275  14.051  0.0075  0.2293  0.0397
 9545SOL    HW140268   2.057   0.317  13.966 -1.2317 -1.0317 -0.3790
 9545SOL    HW240269   2.001   0.300  14.111 -1.0191 -1.7595 -0.3106
 9546SOL     OW40270   3.861   1.733   8.623 -0.0918 -0.6724 -0.3384
 9546SOL    HW140271   3.899   1.821   8.617 -0.4415 -0.4918  0.1111
 9546SOL    HW240272   3.910   1.687   8.555 -2.1003 -2.5709 -0.4827
 9547SOL     OW40273   4.658   1.281   4.975 -0.3812 -0.1302 -0.6079
 9547SOL    HW140274   4.650   1.334   5.054  1.7185 -0.7284  0.0151
 9547SOL    HW240275   0.001   1.308   4.929  1.0301 -4.4400 -0.6771
 9548SOL     OW40276   3.460   1.126   2.337 -0.0329 -0.0121 -0.4383
 9548SOL    HW140277   3.555   1.131   2.349 -0.2166  1.7408  0.3458
 9548SOL    HW240278   3.447   1.178   2.258 -1.1287  1.1862  0.5319
 9549SOL     OW40279   3.590   1.883   3.970 -0.3554  0.4655 -0.5327
 9549SOL    HW140280   3.524   1.936   4.014 -1.1404 -0.5632 -0.4441
 9549SOL    HW240281   3.662   1.871   4.031 -0.3155 -1.6249 -0.9737
 9550SOL     OW40282   0.139   3.316   5.392  0.1911 -0.0467 -0.6960
 9550SOL    HW140283   0.225   3.276   5.403 -0.1612 -0.6093  0.0340
 9550SOL    HW240284   0.083   3.252   5.436 -0.4648  3.5449  3.7063
 9551SOL     OW40285   4.515   3.889   9.065 -0.2870  0.8092 -0.9404
 9551SOL    HW140286   4.601   3.930   9.076  0.5575 -0.9105 -1.1800
 9551SOL    HW240287   4.512   3.826   9.137 -1.0816  1.4662 -0.3904
 9552SOL     OW40288   3.613   1.828   7.292 -0.5836  0.1287 -0.3228
 9552SOL    HW140289   3.520   1.824   7.316 -0.7272 -0.0769 -0.9091
 9552SOL    HW240290   3.662   1.842   7.373 -0.9451  2.0107 -0.4340
 9553SOL     OW40291   0.386   2.698  16.071  0.2100 -0.1615  0.1954
 9553SOL    HW140292   0.299   2.706  16.110  0.6791  0.7287  1.0588
 9553SOL    HW240293   0.428   2.778  16.103  2.1939 -1.4842  0.8554
 9554SOL     OW40294   4.234   3.435   5.222 -1.0231  0.6252 -0.0388
 9554SOL    HW140295   4.202   3.488   5.295 -0.8633  1.9627 -0.9478
 9554SOL    HW240296   4.190   3.465   5.143 -2.2830  0.8487  0.7367
 9555SOL     OW40297   0.966   0.133  15.771  0.3859 -0.1189 -0.1584
 9555SOL    HW140298   1.005   0.051  15.741  0.8032 -0.2251  0.6892
 9555SOL    HW240299   1.046   0.183  15.783  0.2360  0.2758 -0.7831
 9556SOL     OW40300   4.220   0.252   6.455 -0.3545 -0.1575  0.3478
 9556SOL    HW140301   4.308   0.273   6.424  0.0121 -0.5534  1.1150
 9556SOL    HW240302   4.230   0.290   6.543  2.2077  0.3291 -0.1470
 9557SOL     OW40303   1.948   2.189  11.014 -0.6544  0.4148  0.2072
 9557SOL    HW140304   1.944   2.171  10.920 -0.4786  2.5061 -0.2045
 9557SOL    HW240305   1.948   2.100  11.048 -0.7564  0.2155 -0.3135
 9558SOL     OW40306   0.861   4.602   7.942  0.0598 -0.3751  0.0317
 9558SOL    HW140307   0.938   4.586   7.998 -0.9286  0.5797  1.6586
 9558SOL    HW240308   0.899   4.654   7.871  0.4218  0.7426  1.0248
 9559SOL     OW40309   0.040   0.746   5.676 -0.3235 -0.1296  0.0786
 9559SOL    HW140310   0.107   0.758   5.609  2.6342  1.1430  3.2623
 9559SOL    HW240311   4.698   0.762   5.624 -1.7377 -2.7073  1.4175
 9560SOL     OW40312   0.951   2.703   8.126 -0.3139 -0.1411  0.2220
 9560SOL    HW140313   0.905   2.621   8.105  1.5806 -1.2900  0.4934
 9560SOL    HW240314   1.035   2.671   8.158 -0.9637 -3.1567 -1.0067
 9561SOL     OW40315   2.331   3.274   5.848  0.0666 -0.2523 -0.0988
 9561SOL    HW140316   2.340   3.341   5.779 -1.3279  1.3497  1.2734
 9561SOL    HW240317   2.347   3.322   5.929  1.4077  0.4103 -0.7578
 9562SOL     OW40318   1.627   1.511   2.385  0.5145 -0.6107  0.0122
 9562SOL    HW140319   1.535   1.536   2.381  0.5746 -0.2829  0.6767
 9562SOL    HW240320   1.659   1.526   2.296 -2.0760 -0.1806 -0.8431
 9563SOL     OW40321   1.446   0.516   5.487  0.0222  0.5400 -0.6781
 9563SOL    HW140322   1.387   0.569   5.433 -0.8588  1.1242  0.8446
 9563SOL    HW240323   1.386   0.515   5.562  0.7417  0.6609 -0.1074
 9564SOL     OW40324   1.528   4.507  17.030 -0.3029  0.5608  0.8111
 9564SOL    HW140325   1.607   4.463  16.999 -0.0067  1.1087  0.7916
 9564SOL    HW240326   1.477   4.543  16.958  0.2106  1.9832  1.1594
 9565SOL     OW40327   3.944   0.821  16.081 -0.5013 -0.4308 -0.2094
 9565SOL    HW140328   3.989   0.741  16.107  1.0950  1.0040  1.4497
 9565SOL    HW240329   3.970   0.833  15.989 -0.6994 -1.0877 -0.3540
 9566SOL     OW40330   1.092   3.200  17.205  0.1820 -0.3163 -0.3353
 9566SOL    HW140331   1.156   3.178  17.272 -1.5736  1.1739  1.8044
 9566SOL    HW240332   1.033   3.243  17.266 -1.8958  1.6046 -3.7102
 9567SOL     OW40333   2.939   1.988   4.985 -0.2379 -0.8786 -0.0240
 9567SOL    HW140334   2.942   1.920   4.918  0.3203 -0.5100 -0.3747
 9567SOL    HW240335   2.991   2.056   4.942  2.2444 -2.3781  0.6043
 9568SOL     OW40336   0.025   3.807   7.793 -0.4547  0.4116 -0.6550
 9568SOL    HW140337   0.041   3.860   7.715  1.3100 -1.3608 -1.4973
 9568SOL    HW240338   4.719   3.730   7.756 -0.3913  0.9580 -1.8649
 9569SOL     OW40339   3.862   0.366   2.695  0.6727 -0.4475  0.3257
 9569SOL    HW140340   3.879   0.349   2.788 -1.5457 -1.4517  0.5407
 9569SOL    HW240341   3.779   0.320   2.685 -0.7968  2.5267 -1.3979
 9570SOL     OW40342   3.235   0.788  14.499  0.3798 -0.4111 -0.0668
 9570SOL    HW140343   3.230   0.865  14.556  0.3497 -1.4503  1.3363
 9570SOL    HW240344   3.323   0.757  14.522  0.9566  1.3898  0.1364
 9571SOL     OW40345   1.081   0.465  14.697  0.2429 -0.2337 -0.2090
 9571SOL    HW140346   1.142   0.413  14.749 -0.0371 -0.9026 -0.5530
 9571SOL    HW240347   0.998   0.448  14.742  0.1207  1.9050  0.3746
   4.73735   4.73735  17.74767
