Membrane in water
40347
    1TMC1    C1    1   1.155   3.006  11.329 -0.0129  0.1890  0.0223
    1TMC1    C2    2   1.229   3.061  11.431  0.2599  0.6841  0.5353
    1TMC1    C3    3   1.285   3.188  11.401  0.3366 -0.1476  0.5028
    1TMC1    C4    4   1.113   3.069  11.209  0.3103 -0.6620  0.7771
    1TMC1    C5    5   1.185   3.180  11.186  0.6636 -0.1140 -0.3246
    1TMC1    C6    6   1.275   3.244  11.276 -0.2701 -0.1562 -0.2978
    1TMC1     C    7   1.087   2.882  11.364 -0.9292  0.5580  0.3352
    1TMC1     O    8   1.078   2.845  11.479 -0.3724 -1.1649 -0.2917
    1TMC1     H    9   1.262   3.001  11.515  1.3745  1.0029  0.3354
    1TMC1    H1   10   1.039   3.030  11.140  0.7890  2.5171 -1.5487
    1TMC1    H2   11   1.338   3.328  11.250 -0.8514  0.8951  1.6417
    1TMC1    C7   12   1.194   3.224  11.049 -0.7750 -0.2750 -0.1581
    1TMC1    C8   13   1.380   3.243  11.490 -0.0227 -0.1248  1.0915
    1TMC1    O1   14   1.231   3.342  11.030  0.1533  0.3828 -0.1962
    1TMC1    O2   15   1.457   3.331  11.459  0.0821 -0.2800  0.2749
    1TMC1    O3   16   1.230   3.116  10.978 -0.5090  0.1679  0.2828
    1TMC1    H3   17   1.190   3.035  11.017  1.8252 -0.4919  1.2981
    1TMC1    O5   18   1.335   3.214  11.614 -0.0838 -0.3023 -0.2705
    1TMC1    H5   19   1.250   3.166  11.617 -0.5575  0.6675  1.9892
    2MPD2     C   20   0.810   2.472  11.254 -0.1272 -0.4181 -0.5198
    2MPD2    C1   21   0.815   2.538  11.376  0.4291 -0.1159 -0.3624
    2MPD2    C2   22   0.897   2.652  11.379 -0.3717 -0.5518 -0.8375
    2MPD2    C3   23   0.968   2.694  11.270  0.4162 -0.0623 -0.1390
    2MPD2    C4   24   0.968   2.620  11.152 -0.0599  0.0814  0.3050
    2MPD2    C5   25   0.889   2.510  11.151  0.1174  0.2864  0.2675
    2MPD2     H   26   0.907   2.710  11.470  0.2983 -0.8446 -0.7237
    2MPD2    H1   27   1.027   2.639  11.063 -1.0545  1.9937  0.0305
    2MPD2    H2   28   0.759   2.378  11.236 -0.4296 -0.5728  1.1686
    2MPD2    H3   29   0.879   2.449  11.061  0.8082  1.3425 -0.5323
    2MPD2     N   30   1.041   2.816  11.255  0.8817  0.0489 -0.0417
    2MPD2    H5   31   1.080   2.834  11.163 -0.4999 -0.5284 -0.7284
    2MPD2    N1   32   0.751   2.489  11.489 -0.2741 -0.2165 -0.4411
    2MPD2    H7   33   0.745   2.551  11.569 -0.6338 -0.7100 -0.0788
    3TMC1    C1   34   3.901   2.714  11.159  0.9082  0.8337 -0.5510
    3TMC1    C2   35   4.033   2.734  11.161 -1.0727  0.4582 -0.6496
    3TMC1    C3   36   4.104   2.633  11.097 -0.6495 -0.1993  0.8456
    3TMC1    C4   37   3.842   2.615  11.092 -0.4108 -0.1848 -0.1428
    3TMC1    C5   38   3.912   2.521  11.024  0.3840 -0.7696  0.1793
    3TMC1    C6   39   4.049   2.526  11.026  0.0830  0.0841  0.4972
    3TMC1     C   40   3.819   2.799  11.245  0.0505 -0.2713  0.6306
    3TMC1     O   41   3.708   2.747  11.265  0.1028 -0.3887  0.2803
    3TMC1     H   42   4.083   2.798  11.232  0.5308 -1.9817  0.4441
    3TMC1    H1   43   3.734   2.614  11.105 -0.3290 -0.9103  0.4553
    3TMC1    H2   44   4.105   2.456  10.966  0.1901 -0.2737  1.0213
    3TMC1    C7   45   3.848   2.427  10.937 -0.5513 -0.1282  0.9857
    3TMC1    C8   46   4.224   2.660  11.026 -0.0703  0.3181 -0.1169
    3TMC1    O1   47   3.915   2.332  10.894 -0.1285  0.4322 -0.2459
    3TMC1    O2   48   4.311   2.578  10.994  0.6302  0.0926  0.6322
    3TMC1    O3   49   3.760   2.495  10.856  0.1403 -0.0914 -0.0132
    3TMC1    H3   50   3.712   2.575  10.886 -0.2972 -0.2069 -0.3985
    3TMC1    O5   51   4.231   2.792  11.009  0.2359  0.1027 -0.5500
    3TMC1    H5   52   4.147   2.838  11.029 -0.6301 -1.0612 -1.5847
    4MPD2     C   53   3.669   3.186  11.561  0.3567 -0.3578  0.6154
    4MPD2    C1   54   3.765   3.236  11.475  0.5280  0.0318 -0.0278
    4MPD2    C2   55   3.831   3.148  11.387  0.3749 -0.0421 -0.3706
    4MPD2    C3   56   3.791   3.013  11.369  0.0219  0.1814  0.1290
    4MPD2    C4   57   3.686   2.974  11.450 -0.1581  0.6069  0.2987
    4MPD2    C5   58   3.633   3.057  11.547 -0.1198  0.3097 -0.1340
    4MPD2     H   59   3.930   3.170  11.348  0.0960  0.6198 -0.6970
    4MPD2    H1   60   3.674   2.866  11.462  0.6693  0.5672  0.7834
    4MPD2    H2   61   3.616   3.253  11.628 -0.0190  0.1339 -0.1638
    4MPD2    H3   62   3.563   3.030  11.625 -0.4365 -2.1467 -1.2663
    4MPD2     N   63   3.867   2.925  11.286  0.3080  0.1863  0.7479
    4MPD2    H5   64   3.945   2.965  11.235 -1.2015 -1.7938 -3.1830
    4MPD2    N1   65   3.804   3.374  11.477  0.0420  0.2232 -0.7240
    4MPD2    H7   66   3.888   3.395  11.423 -0.9421  0.0120 -2.3436
    5TCq1    O1   67   0.358   4.542  12.134  0.0726 -0.2042 -0.1197
    5TCq1    C1   68   0.375   4.641  12.219 -0.2083 -0.8834 -0.1321
    5TCq1    O2   69   0.367   4.629  12.343 -0.3279 -0.1713  0.0335
    5TCq1    C2   70   0.361   0.038  12.150 -0.4022  0.9162  0.4649
    5TCq1    C3   71   0.289   0.129  12.219  0.0508 -0.7149 -0.0644
    5TCq1    C4   72   0.268   0.246  12.153 -0.2005  0.8274  0.5322
    5TCq1    C5   73   0.321   0.272  12.032  0.3631 -0.4203 -0.2757
    5TCq1    C6   74   0.401   0.175  11.970 -0.0818  0.4244  0.3903
    5TCq1    C7   75   0.413   0.049  12.020  0.3564 -0.1707  0.3141
    5TCq1    C8   76   0.416   0.180  11.826 -0.0352 -0.2592  0.1256
    5TCq1    O4   77   0.434   0.072  11.777 -0.2911 -1.0033  0.3017
    5TCq1    C9   78   0.181   0.342  12.213  0.3558  0.3301  0.2074
    5TCq1    O5   79   0.131   0.438  12.145  0.2802  0.3441 -0.0416
    5TCq1    O6   80   0.159   0.331  12.339  0.5254 -0.1274  0.1138
    5TCq1    H1   81   0.350   4.582  12.045 -1.9766  2.2635  1.1850
    5TCq1    H2   82   0.233   0.109  12.310  2.6622 -0.6521  1.5787
    5TCq1    H3   83   0.299   0.363  11.976  0.5226 -0.3663 -0.2509
    5TCq1    H4   84   0.478   4.709  11.977 -1.2792 -0.8097 -1.0624
    6MPD2     C   85   0.360   0.448  11.580  0.4361 -0.2605  0.0962
    6MPD2    C1   86   0.379   0.322  11.623 -0.9251  0.0573 -0.0358
    6MPD2    C2   87   0.362   0.217  11.533  0.2355 -0.1829 -0.2055
    6MPD2    C3   88   0.320   0.235  11.403 -0.1989 -0.5609  0.9323
    6MPD2    C4   89   0.300   0.362  11.363 -0.0069 -0.9347 -0.0988
    6MPD2    C5   90   0.313   0.462  11.450 -0.3599 -0.1431  0.3326
    6MPD2     H   91   0.386   0.114  11.561 -0.4828 -0.3280 -0.1241
    6MPD2    H1   92   0.282   0.382  11.258  1.4695 -2.3370 -0.6226
    6MPD2    H2   93   0.367   0.537  11.641 -3.0498  0.6991 -0.9232
    6MPD2    H3   94   0.305   0.566  11.420 -1.5345 -0.6107 -0.9618
    6MPD2     N   95   0.299   0.120  11.324 -0.1784 -0.2715  0.0612
    6MPD2    H5   96   0.301   0.029  11.370  0.1869  0.8492  2.2513
    6MPD2    N1   97   0.398   0.304  11.765  0.0691 -0.2444 -0.3679
    6MPD2    H7   98   0.393   0.389  11.821  0.6872 -0.0193 -0.6486
    7TCq1    O1   99   2.603   4.446  13.539  0.0251 -0.1708  0.2123
    7TCq1    C1  100   2.605   4.314  13.516 -0.0836  1.5530 -0.3723
    7TCq1    O2  101   2.511   4.244  13.489 -0.0796  0.1414 -0.3124
    7TCq1    C2  102   2.727   4.259  13.563  0.5666  0.1802  0.1925
    7TCq1    C3  103   2.835   4.306  13.492 -0.0520  0.1811  0.0299
    7TCq1    C4  104   2.943   4.218  13.491  0.7066  0.7789  0.1641
    7TCq1    C5  105   2.936   4.091  13.534 -0.0230 -0.0039  0.7306
    7TCq1    C6  106   2.814   4.046  13.576  0.3198  0.3806 -0.1196
    7TCq1    C7  107   2.708   4.133  13.601 -0.2538  0.0666 -0.1690
    7TCq1    C8  108   2.775   3.908  13.545  0.5369  0.1068 -0.3021
    7TCq1    O4  109   2.850   3.828  13.595  0.0955 -0.7070  0.1602
    7TCq1    C9  110   3.070   4.259  13.437  0.4399  0.0734  0.2258
    7TCq1    O5  111   3.158   4.170  13.444  0.1930  0.5873 -0.6229
    7TCq1    O6  112   3.078   4.369  13.378 -0.2498 -0.1670  0.5837
    7TCq1    H1  113   2.689   4.485  13.567 -1.3532  2.3090  1.0113
    7TCq1    H2  114   2.855   4.410  13.469 -3.0792  1.2190  1.9945
    7TCq1    H3  115   3.015   4.017  13.528  1.2064  1.4158 -0.8145
    7TCq1    H4  116   2.615   4.093  13.639 -0.2619 -0.4045 -0.6833
    8MPD2     C  117   2.459   3.540  13.388 -0.3615  0.2804 -0.1866
    8MPD2    C1  118   2.586   3.534  13.445 -0.3951  0.3019 -0.8974
    8MPD2    C2  119   2.660   3.653  13.470 -0.2132  0.1723 -1.2041
    8MPD2    C3  120   2.600   3.772  13.447  0.2980 -0.0034  0.5259
    8MPD2    C4  121   2.472   3.779  13.391 -0.0014 -0.1135 -0.7036
    8MPD2    C5  122   2.408   3.666  13.361 -0.3745 -0.2121  0.4380
    8MPD2     H  123   2.759   3.645  13.513  0.0417  0.5724 -1.7083
    8MPD2    H1  124   2.424   3.873  13.367  0.1017 -0.0638 -0.7155
    8MPD2    H2  125   2.396   3.452  13.386 -0.8372  0.6474 -1.5473
    8MPD2    H3  126   2.310   3.678  13.318 -0.7573  0.9955  1.6774
    8MPD2     N  127   2.653   3.897  13.481 -1.0560  0.0344  0.5189
    8MPD2    H5  128   2.600   3.979  13.455 -3.1003 -1.1117  1.0894
    8MPD2    N1  129   2.649   3.409  13.481 -0.0126 -0.1692  0.3167
    8MPD2    H7  130   2.735   3.418  13.534  0.2428 -1.0199  0.0494
    9TMC1    C1  131   0.027   3.287  11.126 -0.5297 -0.7051  0.1759
    9TMC1    C2  132   4.644   3.240  11.175 -0.2959  0.3968 -0.3513
    9TMC1    C3  133   4.588   3.139  11.097  0.3862 -0.3679 -0.3649
    9TMC1    C4  134   0.089   3.237  11.012 -0.4425  0.3073  0.4481
    9TMC1    C5  135   0.019   3.147  10.937  0.3259  0.3461  0.2237
    9TMC1    C6  136   4.629   3.098  10.971 -0.0580 -0.1280  0.1558
    9TMC1     C  137   0.091   3.380  11.213  0.2801 -0.2318  0.3045
    9TMC1     O  138   0.168   3.464  11.173 -0.5781 -0.3036 -0.1514
    9TMC1     H  139   4.597   3.276  11.266  1.2298 -0.1824  0.6697
    9TMC1    H1  140   0.190   3.265  10.982 -0.5463  0.6474  0.4177
    9TMC1    H2  141   4.570   3.032  10.908 -0.4818  0.2529  0.1483
    9TMC1    C7  142   0.086   3.064  10.836 -0.3936 -0.5242  0.2574
    9TMC1    C8  143   4.449   3.096  11.133 -0.0484 -0.1197 -0.0854
    9TMC1    O1  144   0.040   2.954  10.814 -0.4469  0.3098 -0.1474
    9TMC1    O2  145   4.423   3.092  11.254  0.3785 -0.3104  0.1084
    9TMC1    O3  146   0.143   3.136  10.733 -0.2590  0.2728 -0.0383
    9TMC1    H3  147   0.123   3.228  10.759 -2.3100 -0.5425  1.2576
    9TMC1    O5  148   4.360   3.137  11.039  0.0537 -0.0069 -0.7422
    9TMC1    H5  149   4.393   3.173  10.954  1.4890  3.8472  1.4126
   10MPD2     C  150   0.168   3.556  11.440  0.1520 -0.8035  0.2776
   10MPD2    C1  151   0.123   3.423  11.458 -0.7997 -0.2134 -0.8001
   10MPD2    C2  152   0.111   3.374  11.583  0.3597  0.7343  0.2453
   10MPD2    C3  153   0.168   3.446  11.687 -0.0534  0.1312  0.2412
   10MPD2    C4  154   0.211   3.578  11.668  0.3026 -0.4931  0.4815
   10MPD2    C5  155   0.199   3.634  11.548  0.1652  0.0900 -0.2738
   10MPD2     H  156   0.070   3.275  11.598  0.3926  0.9320  1.6521
   10MPD2    H1  157   0.227   3.643  11.753  0.7071 -0.4576  0.3783
   10MPD2    H2  158   0.167   3.604  11.343  0.2713 -0.5497  0.4007
   10MPD2    H3  159   0.216   3.739  11.528  2.0632 -0.2435 -0.4843
   10MPD2     N  160   0.175   3.407  11.819  0.0469  0.4801  0.3335
   10MPD2    H5  161   0.224   3.470  11.880 -0.5006 -1.3865  2.7002
   10MPD2    N1  162   0.082   3.342  11.346  0.6249  1.2051  0.3928
   10MPD2    H7  163   0.049   3.248  11.363 -0.4845  1.9425  2.4403
   11TCq1    O1  164   0.648   2.533  14.625 -0.1082 -0.1175 -0.1080
   11TCq1    C1  165   0.608   2.490  14.509  0.2667 -0.7153 -0.5700
   11TCq1    O2  166   0.646   2.381  14.465  0.2485  0.5136 -0.0779
   11TCq1    C2  167   0.536   2.594  14.437  0.2277 -0.2798  0.2669
   11TCq1    C3  168   0.467   2.697  14.503  0.3369 -0.0635  0.4486
   11TCq1    C4  169   0.369   2.766  14.437  0.3092 -0.7013  0.2394
   11TCq1    C5  170   0.350   2.739  14.304 -0.6634  0.1000 -0.2562
   11TCq1    C6  171   0.410   2.633  14.245  1.1073  0.4941  1.3303
   11TCq1    C7  172   0.504   2.562  14.308 -0.2499  0.2144 -0.2264
   11TCq1    C8  173   0.365   2.586  14.108  0.0335 -0.2657 -0.2161
   11TCq1    O4  174   0.259   2.640  14.074  0.0767  0.3345 -0.2197
   11TCq1    C9  175   0.274   2.855  14.507 -0.2134  0.3676 -0.3719
   11TCq1    O5  176   0.300   2.884  14.629 -0.1135 -0.2378  0.1736
   11TCq1    O6  177   0.190   2.914  14.439 -0.2790  0.2635 -0.3061
   11TCq1    H1  178   0.644   2.630  14.636  1.5318 -0.1514  0.6778
   11TCq1    H2  179   0.491   2.738  14.601 -0.0583  0.3476  0.3764
   11TCq1    H3  180   0.268   2.787  14.251  0.1524  0.9298 -0.7517
   11TCq1    H4  181   0.559   2.483  14.259  0.6103 -0.2969  1.5413
   12MPD2     C  182   0.361   2.524  13.819 -0.5952 -0.1447  0.0746
   12MPD2    C1  183   0.444   2.460  13.908  0.4976 -0.1267 -0.7880
   12MPD2    C2  184   0.540   2.371  13.865 -0.2924  0.1391  0.4366
   12MPD2    C3  185   0.551   2.342  13.726 -0.1463  0.1061 -0.6462
   12MPD2    C4  186   0.457   2.391  13.640 -0.1090  0.5437 -0.6057
   12MPD2    C5  187   0.369   2.484  13.683  0.3141 -0.1341 -0.0550
   12MPD2     H  188   0.609   2.329  13.937 -2.8415 -0.1248  2.7360
   12MPD2    H1  189   0.457   2.367  13.534  1.2778  0.7108 -0.6513
   12MPD2    H2  190   0.306   2.608  13.859 -1.1139 -0.3557 -0.2005
   12MPD2    H3  191   0.302   2.529  13.611  0.3458  1.8212  1.1167
   12MPD2     N  192   0.635   2.244  13.670 -0.5181 -0.4664  0.3940
   12MPD2    H5  193   0.638   2.228  13.570  1.6072 -0.5591  0.4797
   12MPD2    N1  194   0.439   2.497  14.044  0.8267  0.3454 -0.8475
   12MPD2    H7  195   0.521   2.473  14.098 -0.5430 -2.8460 -0.1534
   13TCq1    O1  196   0.485   3.375  11.158 -0.0535 -1.2840 -0.2404
   13TCq1    C1  197   0.464   3.292  11.263 -0.3676  0.8048 -0.0332
   13TCq1    O2  198   0.472   3.320  11.381  0.1124 -0.3013 -0.2542
   13TCq1    C2  199   0.422   3.169  11.215 -0.6911  0.5054 -0.1338
   13TCq1    C3  200   0.453   3.129  11.090  0.0597 -0.9115 -0.2070
   13TCq1    C4  201   0.385   3.032  11.032 -0.4761 -0.2557 -0.3230
   13TCq1    C5  202   0.287   2.964  11.096 -0.0837  0.2740  0.1642
   13TCq1    C6  203   0.257   3.005  11.224  0.2533 -0.4284 -0.1865
   13TCq1    C7  204   0.324   3.105  11.285 -0.6236 -0.1506  1.1019
   13TCq1    C8  205   0.133   2.957  11.278 -0.3565 -0.8952  0.6913
   13TCq1    O4  206   0.070   3.041  11.343 -0.3851  0.4809  0.9866
   13TCq1    C9  207   0.443   2.989  10.905 -0.0586 -0.6628 -0.1469
   13TCq1    O5  208   0.386   2.884  10.861  0.8000 -0.3710 -0.8803
   13TCq1    O6  209   0.547   3.048  10.866  0.1229 -0.1298 -0.5818
   13TCq1    H1  210   0.438   3.339  11.080 -0.9819 -0.0767 -0.2442
   13TCq1    H2  211   0.528   3.189  11.041  1.3315 -2.6396 -0.3502
   13TCq1    H3  212   0.240   2.879  11.048 -0.9757  1.7058 -1.4730
   13TCq1    H4  213   0.300   3.137  11.386 -2.9494 -1.1161  0.8567
   14MPD2     C  214   4.699   2.624  11.262  0.2268 -0.0628 -1.0943
   14MPD2    C1  215   4.719   2.758  11.293 -0.1710  0.1252 -0.6727
   14MPD2    C2  216   4.609   2.823  11.356 -0.0113 -0.4814  0.6535
   14MPD2    C3  217   4.493   2.755  11.387  0.3760  0.3360 -0.3190
   14MPD2    C4  218   4.486   2.618  11.359 -0.1819 -0.5065  0.0492
   14MPD2    C5  219   4.586   2.559  11.294 -0.5070 -0.2866  0.3033
   14MPD2     H  220   4.610   2.929  11.377  0.4548 -0.4504  0.4798
   14MPD2    H1  221   4.397   2.560  11.383 -1.2191  1.0064 -0.1858
   14MPD2    H2  222   0.052   2.573  11.223  0.1218 -0.9607 -0.1651
   14MPD2    H3  223   4.580   2.452  11.278 -0.9094 -0.2577  0.2856
   14MPD2     N  224   4.390   2.831  11.438 -0.0798  0.4590  0.4868
   14MPD2    H5  225   4.417   2.929  11.435 -1.8400  0.9051 -0.5647
   14MPD2    N1  226   0.102   2.824  11.253 -0.3082  0.0343  0.1678
   14MPD2    H7  227   0.172   2.775  11.198 -1.9463 -1.5292 -0.5346
   15TCq1    O1  228   3.214   2.489   1.798  0.1119 -0.0848 -0.8165
   15TCq1    C1  229   3.155   2.440   1.687  0.2143 -0.0007 -0.5013
   15TCq1    O2  230   3.175   2.476   1.573 -0.1321  0.1536 -0.4058
   15TCq1    C2  231   3.019   2.390   1.719 -0.6717 -0.3870 -0.1934
   15TCq1    C3  232   2.958   2.448   1.823 -0.6113 -0.4782  0.2519
   15TCq1    C4  233   2.846   2.389   1.867  0.7573 -0.9030 -0.3806
   15TCq1    C5  234   2.795   2.268   1.818 -0.3436 -0.0994  0.2603
   15TCq1    C6  235   2.864   2.210   1.709  0.3104  0.5737  0.1105
   15TCq1    C7  236   2.982   2.270   1.672  0.6487 -0.3783 -0.1340
   15TCq1    C8  237   2.811   2.108   1.617 -0.2438 -0.5840 -0.0560
   15TCq1    O4  238   2.878   2.057   1.532  0.2630  0.1302  0.0336
   15TCq1    C9  239   2.773   2.444   1.979  0.2726 -0.2616 -0.0012
   15TCq1    O5  240   2.825   2.537   2.047  0.1731 -0.5386  0.0143
   15TCq1    O6  241   2.660   2.395   1.996  0.0772 -0.0923 -0.0713
   15TCq1    H1  242   3.177   2.448   1.879 -0.8672 -0.8326 -1.6308
   15TCq1    H2  243   2.971   2.548   1.861 -0.7462 -0.0065 -0.9553
   15TCq1    H3  244   2.711   2.215   1.863 -0.8887  1.0739  0.6266
   15TCq1    H4  245   3.046   2.224   1.598  2.8444  0.7334  1.1088
   16MPD2     C  246   2.466   2.015   1.579 -0.4516 -0.2396 -0.9071
   16MPD2    C1  247   2.600   1.995   1.579  1.2794 -0.1160 -0.2438
   16MPD2    C2  248   2.652   1.886   1.529  0.0568 -0.2512  0.3489
   16MPD2    C3  249   2.569   1.791   1.471 -0.1456  0.7342  0.3290
   16MPD2    C4  250   2.436   1.809   1.462 -0.1775 -0.1649 -0.6682
   16MPD2    C5  251   2.388   1.920   1.517  0.3741 -0.5823  0.5289
   16MPD2     H  252   2.759   1.871   1.526  0.1644  0.8044 -0.7661
   16MPD2    H1  253   2.378   1.742   1.400  0.7469 -0.9753 -0.6765
   16MPD2    H2  254   2.426   2.108   1.618 -0.8669  0.0008 -1.9047
   16MPD2    H3  255   2.282   1.942   1.512  0.0115 -2.3319  0.6892
   16MPD2     N  256   2.643   1.694   1.406 -0.7721  0.3461  0.5492
   16MPD2    H5  257   2.743   1.709   1.405 -0.7192 -0.1142 -0.9372
   16MPD2    N1  258   2.672   2.099   1.638  0.2077 -0.4093  0.3356
   16MPD2    H7  259   2.618   2.164   1.694  1.3951  0.4600  0.4582
   17TMC1    C1  260   4.616   1.030   9.833 -0.1190 -0.0370 -0.1404
   17TMC1    C2  261   4.601   0.901   9.799  0.0276  0.7441 -0.3369
   17TMC1    C3  262   4.509   0.830   9.862 -0.0890  0.4408  0.2632
   17TMC1    C4  263   4.548   1.089   9.934  0.2593 -0.7385 -0.5273
   17TMC1    C5  264   4.464   1.004  10.000 -0.4065 -0.0664 -0.3523
   17TMC1    C6  265   4.431   0.872   9.962 -0.4647  0.3210  0.3711
   17TMC1     C  266   4.722   1.107   9.765  0.1870  0.0137  0.2536
   17TMC1     O  267   0.025   1.068   9.653 -0.3868 -0.0687 -0.0136
   17TMC1     H  268   4.637   0.870   9.702 -0.1978  1.1987 -0.5648
   17TMC1    H1  269   4.549   1.195   9.957  3.6115 -0.3704 -2.3275
   17TMC1    H2  270   4.381   0.797  10.023  0.7798  0.6777  1.8352
   17TMC1    C7  271   4.367   1.054  10.101  0.2434 -0.3563  0.2178
   17TMC1    C8  272   4.507   0.691   9.829  0.0860 -0.3290 -0.1003
   17TMC1    O1  273   4.315   0.975  10.180  0.4929  0.2080 -0.6083
   17TMC1    O2  274   4.593   0.634   9.763  0.3861 -0.1786 -0.1076
   17TMC1    O3  275   4.394   1.180  10.135 -0.3800 -0.1524 -0.1511
   17TMC1    H3  276   4.423   1.244  10.066  0.0286 -1.0193 -0.7864
   17TMC1    O5  277   4.386   0.643   9.837 -0.1232 -0.0271  0.2067
   17TMC1    H5  278   4.321   0.702   9.881  0.2432  0.1011  0.5731
   18MPD2     C  279   0.191   1.311   9.669 -0.0079  0.2416 -0.4803
   18MPD2    C1  280   0.128   1.315   9.790 -0.3690 -0.4621 -0.6551
   18MPD2    C2  281   0.141   1.427   9.870  0.0022 -0.8062  0.1035
   18MPD2    C3  282   0.219   1.537   9.828  0.2928  0.1729  0.6139
   18MPD2    C4  283   0.278   1.534   9.713 -0.1686  0.0945  0.0189
   18MPD2    C5  284   0.264   1.426   9.631  0.7333  0.2007  0.0393
   18MPD2     H  285   0.084   1.429   9.962 -0.1851 -0.3843 -0.0220
   18MPD2    H1  286   0.342   1.618   9.686 -1.1967  0.5388 -1.0637
   18MPD2    H2  287   0.179   1.228   9.601  0.4556 -0.2053 -0.0213
   18MPD2    H3  288   0.321   1.432   9.540  0.8815  2.8989  0.3183
   18MPD2     N  289   0.220   1.658   9.898 -0.6797  0.2272  0.0236
   18MPD2    H5  290   0.274   1.736   9.861  0.8166  0.1966  2.1402
   18MPD2    N1  291   0.028   1.219   9.834  0.3150 -0.5029  0.2791
   18MPD2    H7  292   4.721   1.225   9.926 -1.0249  2.2381 -0.4859
   19TMC2    C1  293   2.440   2.711  13.590  0.0014 -0.3618 -0.0933
   19TMC2    C2  294   2.424   2.749  13.458 -0.0259  0.1179  0.0422
   19TMC2    C3  295   2.318   2.704  13.392 -0.2497  0.0100 -0.0601
   19TMC2    C4  296   2.362   2.615  13.652  0.6319 -0.1497  0.2586
   19TMC2    C5  297   2.257   2.571  13.583 -0.0018  0.7110  0.0346
   19TMC2    C6  298   2.226   2.623  13.461  0.3058  0.1163  0.9598
   19TMC2     C  299   2.563   2.749  13.652 -0.2040  0.0353  0.0690
   19TMC2     O  300   2.661   2.789  13.589  0.2442 -0.2188  0.6090
   19TMC2     H  301   2.485   2.823  13.409  1.5161 -1.0829  0.1661
   19TMC2    H1  302   2.377   2.577  13.752  1.8838  0.8498  0.4379
   19TMC2    H2  303   2.137   2.591  13.409  2.5450 -1.8966 -1.6352
   19TMC2    C7  304   2.155   2.487  13.653 -0.0811 -0.1523  0.2442
   19TMC2    C8  305   2.317   2.725  13.248  0.1361  0.0290  0.0425
   19TMC2    O1  306   2.197   2.427  13.753 -0.4847 -0.2323 -0.1447
   19TMC2    O2  307   2.375   2.815  13.191 -0.6904  0.1302 -0.0820
   19TMC2    O5  308   2.294   2.602  13.196 -0.4322  0.0378  0.2779
   19TMC2    H5  309   2.278   2.531  13.261 -0.0366 -1.3734 -1.1454
   20MPD2     C  310   2.790   2.797  13.834 -0.2098 -0.0497 -0.2561
   20MPD2    C1  311   2.671   2.730  13.867 -0.1889 -0.1450 -0.4969
   20MPD2    C2  312   2.649   2.680  13.997 -0.2619  0.2424 -0.5583
   20MPD2    C3  313   2.741   2.702  14.098 -0.5135 -0.3781  0.1512
   20MPD2    C4  314   2.862   2.771  14.061 -0.0188 -0.3623 -0.2626
   20MPD2    C5  315   2.878   2.816  13.935 -0.1440  0.2178 -0.0526
   20MPD2     H  316   2.551   2.641  14.022 -0.2818  1.2077  0.8639
   20MPD2    H1  317   2.938   2.792  14.136 -1.4390 -1.7240  1.5841
   20MPD2    H2  318   2.818   2.852  13.746 -0.9235  2.8591  1.3369
   20MPD2    H3  319   2.968   2.872  13.914 -1.0484  0.5865 -2.9554
   20MPD2     N  320   2.718   2.668  14.233  0.1082 -0.2943 -0.3966
   20MPD2    H5  321   2.786   2.707  14.298  1.3086 -1.7164 -0.8093
   20MPD2    N1  322   2.565   2.710  13.784  0.1519  0.2717 -0.6838
   20MPD2    H7  323   2.478   2.676  13.823  1.5741 -2.3036  0.2606
   21TMC2    C1  324   4.049   2.555  14.930  0.0769  0.2561 -0.3612
   21TMC2    C2  325   4.123   2.478  15.015  0.4080  0.2349  0.8603
   21TMC2    C3  326   4.111   2.504  15.152  0.7200 -0.7267 -0.2146
   21TMC2    C4  327   3.968   2.662  14.968  0.0629  0.7718  0.3073
   21TMC2    C5  328   3.957   2.678  15.106  0.3505 -0.1327  0.6253
   21TMC2    C6  329   4.030   2.604  15.198  0.4598  0.0417  0.4051
   21TMC2     C  330   4.075   2.530  14.795 -0.3902  0.1449 -0.2187
   21TMC2     O  331   4.149   2.436  14.766  0.7543  0.3374 -0.5968
   21TMC2     H  332   4.186   2.395  14.986 -0.5714  0.2085 -1.1952
   21TMC2    H1  333   3.904   2.714  14.897  0.9519  1.5818  0.1115
   21TMC2    H2  334   4.039   2.643  15.299 -0.8592  0.2140  0.4523
   21TMC2    C7  335   3.909   2.808  15.157  0.2028 -0.0061  0.8422
   21TMC2    C8  336   4.242   2.483  15.213 -0.3174  0.4543 -0.1282
   21TMC2    O1  337   3.891   2.813  15.279  0.6378  0.3159  0.0023
   21TMC2    O2  338   4.340   2.528  15.155 -0.4728 -0.3129  0.3371
   21TMC2    O5  339   4.228   2.475  15.346 -0.1301 -0.5627 -0.5628
   21TMC2    H5  340   4.145   2.427  15.368  0.8475 -1.6042  0.8445
   22MPD2     C  341   3.998   2.563  14.291 -0.1727  0.3535  0.3811
   22MPD2    C1  342   4.112   2.558  14.366 -0.2380 -1.0664 -0.2950
   22MPD2    C2  343   4.110   2.562  14.504  0.3945 -0.2857  0.0290
   22MPD2    C3  344   3.999   2.588  14.568 -0.2192  0.1494 -0.6405
   22MPD2    C4  345   3.889   2.630  14.492 -0.5672 -0.2608  0.2111
   22MPD2    C5  346   3.884   2.588  14.361 -0.1243 -0.0712  0.3561
   22MPD2     H  347   4.204   2.549  14.557 -0.2891  2.5464  1.9282
   22MPD2    H1  348   3.801   2.674  14.539 -0.3789  1.1770 -0.7844
   22MPD2    H2  349   3.998   2.555  14.183  0.0885 -2.3662  0.5892
   22MPD2    H3  350   3.791   2.590  14.304  0.4695  4.5533 -0.4229
   22MPD2     N  351   3.992   2.596  14.709 -0.1969 -0.3127  0.1983
   22MPD2    H5  352   3.917   2.650  14.752  0.3097 -0.2982  1.0552
   22MPD2    N1  353   4.244   2.557  14.308 -0.0377  0.3956 -0.3657
   22MPD2    H7  354   4.318   2.570  14.376  0.5034 -4.7337 -0.0163
   23TMC2    C1  355   1.073   4.353  14.348  0.3600  0.0377  0.1630
   23TMC2    C2  356   1.098   4.343  14.215 -0.1435 -0.0839  0.8404
   23TMC2    C3  357   0.991   4.368  14.126 -0.0218 -0.4614 -0.9217
   23TMC2    C4  358   0.951   4.401  14.393  0.0269 -0.1789  1.3962
   23TMC2    C5  359   0.854   4.433  14.302  0.9729 -0.4357 -0.0795
   23TMC2    C6  360   0.868   4.408  14.166 -0.7604  0.3947  0.0793
   23TMC2     C  361   1.135   4.249  14.434 -0.0125 -0.6078  0.3132
   23TMC2     O  362   1.067   4.216  14.533 -0.4870 -0.1620  0.6713
   23TMC2     H  363   1.198   4.319  14.183 -0.2039  0.7071  0.0508
   23TMC2    H1  364   0.928   4.403  14.499 -0.7219 -2.1965  1.2637
   23TMC2    H2  365   0.788   4.419  14.092  0.3831  1.4720 -1.0061
   23TMC2    C7  366   0.739   4.491  14.359  0.0845  0.3662  0.4690
   23TMC2    C8  367   1.021   4.420  13.988  0.3584 -0.4587 -0.5594
   23TMC2    O1  368   0.759   4.558  14.463  0.0798 -0.0632 -0.5514
   23TMC2    O2  369   0.927   4.444  13.912 -0.4586  0.3955 -0.2210
   23TMC2    O5  370   1.143   4.476  13.981 -0.3375 -0.2864 -0.0912
   23TMC2    H5  371   1.213   4.463  14.048  1.9487 -1.3408 -2.6900
   24MPD2     C  372   1.484   3.884  14.492 -0.3636 -0.0652  0.3348
   24MPD2    C1  373   1.375   3.914  14.573 -0.3911 -0.1340 -0.5990
   24MPD2    C2  374   1.305   4.024  14.544  0.2414  0.6593 -0.2176
   24MPD2    C3  375   1.345   4.109  14.443 -0.3680  0.2707 -0.1889
   24MPD2    C4  376   1.453   4.082  14.367  0.1267  0.8417  0.0188
   24MPD2    C5  377   1.522   3.971  14.393 -0.5883  0.7032 -0.1672
   24MPD2     H  378   1.227   4.051  14.615 -0.0700 -0.1487 -0.2516
   24MPD2    H1  379   1.484   4.146  14.285 -1.7531 -0.9557 -2.0635
   24MPD2    H2  380   1.537   3.791  14.504  1.1358  0.7293 -0.0881
   24MPD2    H3  381   1.606   3.954  14.326  1.7208  1.5382  2.5473
   24MPD2     N  382   1.265   4.216  14.395  0.0828  0.0314 -0.5527
   24MPD2    H5  383   1.300   4.265  14.313 -3.1028 -0.0517 -1.9708
   24MPD2    N1  384   1.327   3.825  14.678  0.8963  0.7107 -0.3642
   24MPD2    H7  385   1.251   3.861  14.734 -1.0101 -3.5662 -0.2205
   25TMC2    C1  386   0.111   2.388  11.503 -0.1767  0.3340 -1.4582
   25TMC2    C2  387   0.145   2.523  11.493  0.1422 -0.0119 -0.1900
   25TMC2    C3  388   0.135   2.595  11.610  0.4739 -0.3664 -0.0909
   25TMC2    C4  389   0.067   2.333  11.615 -0.8562  0.0663 -0.0942
   25TMC2    C5  390   0.053   2.417  11.727  0.1176 -0.1521 -0.2644
   25TMC2    C6  391   0.097   2.544  11.731  0.6811  0.3256 -0.4073
   25TMC2     C  392   0.104   2.311  11.375 -0.3482 -0.0095 -0.1224
   25TMC2     O  393   0.176   2.349  11.285 -0.2003 -0.3273  0.2036
   25TMC2     H  394   0.156   2.573  11.397  1.4286  2.1364  1.0900
   25TMC2    H1  395   0.042   2.228  11.627  0.1346 -0.5185 -3.1083
   25TMC2    H2  396   0.121   2.606  11.817 -1.2388 -1.1475  1.1906
   25TMC2    C7  397   4.715   2.361  11.835 -0.4907 -0.2704  0.1716
   25TMC2    C8  398   0.164   2.738  11.602 -0.6091  0.8519 -0.4751
   25TMC2    O1  399   4.672   2.247  11.826  0.0829  0.0402 -0.7536
   25TMC2    O2  400   0.101   2.816  11.671 -0.1224  0.4623 -0.2724
   25TMC2    O5  401   0.266   2.762  11.522  0.4129 -0.7519 -0.0396
   25TMC2    H5  402   0.312   2.689  11.474  0.3892 -0.1487 -0.9644
   26MPD2     C  403   4.584   1.963  11.108  0.2881 -0.3799  0.0979
   26MPD2    C1  404   4.564   1.938  11.242  0.2108  0.8514 -0.3388
   26MPD2    C2  405   4.636   2.014  11.324  0.8569  0.2145 -0.1700
   26MPD2    C3  406   4.714   2.119  11.286 -0.5506 -0.4162  0.4569
   26MPD2    C4  407   0.001   2.144  11.152  0.1745  0.5099 -0.7129
   26MPD2    C5  408   4.663   2.070  11.062  0.0633 -0.9008  0.3580
   26MPD2     H  409   4.622   2.001  11.431 -2.2105 -0.1846 -0.6220
   26MPD2    H1  410   0.057   2.231  11.120 -0.3799  0.6860 -1.1996
   26MPD2    H2  411   4.537   1.900  11.034  1.4035  0.2898 -1.1814
   26MPD2    H3  412   4.655   2.074  10.954  2.5075  0.7531  0.2512
   26MPD2     N  413   0.019   2.205  11.387 -0.6939  0.5517 -0.0036
   26MPD2    H5  414   4.702   2.192  11.474  0.2059  0.7528  0.5609
   26MPD2    N1  415   4.461   1.855  11.283 -0.0615  0.3648  0.5924
   26MPD2    H7  416   4.406   1.808  11.212  1.8459  0.1781 -0.7475
   27TMC2    C1  417   3.611   4.214  12.543 -0.6329  0.2041 -0.8069
   27TMC2    C2  418   3.563   4.329  12.493 -0.1805 -0.1926 -0.2901
   27TMC2    C3  419   3.633   4.442  12.535 -0.0400  1.0729  0.0543
   27TMC2    C4  420   3.710   4.202  12.631  0.3788  1.0428  0.2518
   27TMC2    C5  421   3.772   4.313  12.670 -0.0818  0.6224 -0.4641
   27TMC2    C6  422   3.739   4.436  12.620  0.4468 -0.2770 -0.3364
   27TMC2     C  423   3.553   4.093  12.500 -0.0499  0.7988  0.1394
   27TMC2     O  424   3.494   4.101  12.394  0.0291  0.0038 -0.0583
   27TMC2     H  425   3.477   4.338  12.427  0.5498 -2.7261 -1.5568
   27TMC2    H1  426   3.751   4.106  12.660 -1.3238  0.7581  1.7012
   27TMC2    H2  427   3.801   4.516  12.658 -0.1608  0.4263 -0.8442
   27TMC2    C7  428   3.881   4.298  12.758  0.9976  0.1960 -0.5569
   27TMC2    C8  429   3.601   4.567  12.468  0.2286  0.0416 -0.0473
   27TMC2    O1  430   3.974   4.377  12.741 -0.0145 -0.1046 -0.7378
   27TMC2    O2  431   3.528   4.570  12.371 -0.4664 -0.3069 -0.4294
   27TMC2    O5  432   3.621   4.670  12.554  0.7928  0.0197  0.6576
   27TMC2    H5  433   3.647   4.645  12.645  1.6766 -1.3628  0.0270
   28MPD2     C  434   3.334   3.639  12.594  0.1307 -0.5735 -0.4696
   28MPD2    C1  435   3.367   3.698  12.713  0.1147 -0.2668  0.7759
   28MPD2    C2  436   3.443   3.813  12.709  0.7746 -0.1495 -0.3331
   28MPD2    C3  437   3.465   3.883  12.590  0.0936 -0.7860  0.7421
   28MPD2    C4  438   3.424   3.823  12.472 -0.2595  0.2275  0.1753
   28MPD2    C5  439   3.361   3.703  12.477 -0.2209  0.3591  0.1199
   28MPD2     H  440   3.477   3.856  12.802  1.1239 -0.6731 -0.2229
   28MPD2    H1  441   3.436   3.860  12.371  1.9562 -0.2834  0.2412
   28MPD2    H2  442   3.269   3.553  12.587 -0.6605  0.1514 -2.2016
   28MPD2    H3  443   3.325   3.662  12.383 -0.5884 -0.1046  0.4598
   28MPD2     N  444   3.536   4.002  12.602  0.3047 -0.3522 -0.7041
   28MPD2    H5  445   3.569   4.020  12.697  1.2050 -3.3872 -0.4551
   28MPD2    N1  446   3.336   3.635  12.834 -0.1858 -0.7874  0.2142
   28MPD2    H7  447   3.272   3.556  12.828  0.8010 -1.5441 -0.1895
   29TMC2    C1  448   3.056   1.001  14.609  0.3953 -0.8037 -0.5244
   29TMC2    C2  449   2.982   1.113  14.643 -0.0052 -1.0795  0.2893
   29TMC2    C3  450   3.055   1.223  14.664 -0.5718 -0.0826  0.1458
   29TMC2    C4  451   3.190   0.991  14.618  0.0750 -0.3395 -0.2875
   29TMC2    C5  452   3.258   1.106  14.649  0.1655  0.6044 -0.1917
   29TMC2    C6  453   3.191   1.222  14.681 -0.6213  0.2343  0.6990
   29TMC2     C  454   2.991   0.893  14.545  0.3511  0.6341 -0.5943
   29TMC2     O  455   3.057   0.813  14.485  0.3162  1.1795  0.4500
   29TMC2     H  456   2.876   1.131  14.629 -0.1801 -1.4736  1.0486
   29TMC2    H1  457   3.241   0.899  14.592  0.5379 -0.7737  2.1508
   29TMC2    H2  458   3.239   1.315  14.709  1.1647 -0.1797 -1.0194
   29TMC2    C7  459   3.389   1.119  14.595  0.0648 -0.5591 -0.2697
   29TMC2    C8  460   2.992   1.335  14.738  0.3294 -0.5563 -0.2129
   29TMC2    O1  461   3.446   1.026  14.536 -0.7914  0.3114  0.0655
   29TMC2    O2  462   3.062   1.433  14.744  0.4727 -0.5248 -0.2717
   29TMC2    O5  463   2.910   1.296  14.840 -0.4631 -0.5869  0.0749
   29TMC2    H5  464   2.854   1.217  14.824 -0.4815 -0.3928 -0.8014
   30MPD2     C  465   2.565   0.646  14.402  0.2555 -0.0854  0.3385
   30MPD2    C1  466   2.694   0.630  14.359  0.1380  0.0215  0.2705
   30MPD2    C2  467   2.792   0.706  14.419  0.6359 -0.1479 -0.1228
   30MPD2    C3  468   2.766   0.795  14.525  0.6744  0.5505 -0.1748
   30MPD2    C4  469   2.636   0.798  14.576  0.2429  0.5063 -0.4193
   30MPD2    C5  470   2.537   0.727  14.513 -0.4445 -0.5565  0.5575
   30MPD2     H  471   2.894   0.697  14.382  1.0762 -0.1046  1.0724
   30MPD2    H1  472   2.608   0.863  14.659 -1.4657 -0.8214  0.0515
   30MPD2    H2  473   2.478   0.597  14.362  0.2421 -0.6133  1.0064
   30MPD2    H3  474   2.439   0.746  14.556 -0.2912  2.4993 -0.4248
   30MPD2     N  475   2.856   0.882  14.583 -0.4723 -0.6840  0.2440
   30MPD2    H5  476   2.811   0.957  14.635 -0.9183 -0.5051 -0.3981
   30MPD2    N1  477   2.740   0.550  14.247 -0.2065  0.1872 -0.6870
   30MPD2    H7  478   2.839   0.535  14.236 -0.0408  0.6019  0.1980
   31TMC2    C1  479   0.876   4.519  15.148  0.0747 -0.2037  0.0351
   31TMC2    C2  480   0.745   4.519  15.107  0.2916  0.3181 -0.4305
   31TMC2    C3  481   0.666   4.427  15.170 -0.2554 -0.7742  0.1178
   31TMC2    C4  482   0.931   4.436  15.248  0.0148  0.0423  0.2233
   31TMC2    C5  483   0.838   4.351  15.309  0.2608 -0.2141  1.3694
   31TMC2    C6  484   0.714   4.335  15.255  0.4005  0.2610  0.2547
   31TMC2     C  485   0.961   4.622  15.099 -0.8796 -0.1264  0.2810
   31TMC2     O  486   0.898   4.724  15.067  0.8445 -1.2170 -0.0128
   31TMC2     H  487   0.722   4.591  15.029 -0.5004  1.2462  0.6668
   31TMC2    H1  488   1.029   4.447  15.291  0.4145  0.7691 -0.8901
   31TMC2    H2  489   0.647   4.263  15.301 -0.8752 -0.1613 -2.3294
   31TMC2    C7  490   0.872   4.269  15.423 -0.4670  0.1021  0.2973
   31TMC2    C8  491   0.538   4.400  15.107 -0.2156  0.3525  0.0750
   31TMC2    O1  492   0.803   4.174  15.452  0.6069  0.5026 -0.1813
   31TMC2    O2  493   0.478   4.298  15.123  0.1982 -0.2451  0.7942
   31TMC2    O5  494   0.488   4.519  15.068  0.2348 -0.0222  0.2052
   31TMC2    H5  495   0.552   4.583  15.104 -0.4224  1.1801 -0.7784
   32MPD2     C  496   1.401   0.117  14.936 -0.1119 -0.0863 -0.2416
   32MPD2    C1  497   1.270   0.157  14.917  0.2180  0.1886 -0.0926
   32MPD2    C2  498   1.168   0.069  14.965 -0.2090  0.3804 -0.2582
   32MPD2    C3  499   1.197   4.693  15.040  0.2758  0.7419 -0.0960
   32MPD2    C4  500   1.331   4.655  15.059  0.3167  0.1681 -0.0175
   32MPD2    C5  501   1.426   0.005  15.005  0.1264 -0.2793 -0.6256
   32MPD2     H  502   1.064   0.087  14.943 -0.8448 -1.4141  1.1698
   32MPD2    H1  503   1.361   4.571  15.120 -0.6182 -0.2046 -0.0590
   32MPD2    H2  504   1.477   0.182  14.893 -1.6636  1.6482 -0.3798
   32MPD2    H3  505   1.529   4.716  15.028 -0.4258 -0.7493  1.3224
   32MPD2     N  506   1.096   4.603  15.093 -0.3126  0.3763  0.8756
   32MPD2    H5  507   1.130   4.516  15.133  0.0402  0.2374  0.2855
   32MPD2    N1  508   1.249   0.267  14.838  0.2629  0.0184 -0.1796
   32MPD2    H7  509   1.333   0.318  14.815  1.6830 -2.3184 -0.1048
   33TMC2    C1  510   0.686   2.657   9.761 -0.6246 -0.2321 -0.0762
   33TMC2    C2  511   0.746   2.659   9.641 -0.2427 -0.1509 -0.4011
   33TMC2    C3  512   0.857   2.726   9.614 -0.7250 -0.1852 -0.4234
   33TMC2    C4  513   0.741   2.726   9.863 -0.0916 -0.3550  0.0035
   33TMC2    C5  514   0.843   2.811   9.832 -0.1522  0.1898  0.0381
   33TMC2    C6  515   0.910   2.814   9.711 -0.9260  0.0243  0.9774
   33TMC2     C  516   0.586   2.561   9.793  0.2454  0.4781 -0.1822
   33TMC2     O  517   0.568   2.529   9.909  0.2588  0.2382  0.0633
   33TMC2     H  518   0.709   2.601   9.557 -1.5242 -0.3032  0.2704
   33TMC2    H1  519   0.685   2.728   9.956 -3.0683  2.1104 -1.8262
   33TMC2    H2  520   1.003   2.866   9.691 -1.0505  0.3525  1.2571
   33TMC2    C7  521   0.903   2.897   9.930  0.0280  0.0119  0.1750
   33TMC2    C8  522   0.885   2.751   9.472  0.2380 -0.5093 -0.1443
   33TMC2    O1  523   1.020   2.928   9.906  0.1548  0.1446  0.4253
   33TMC2    O2  524   0.811   2.723   9.381 -0.1364 -0.0229  0.0454
   33TMC2    O5  525   1.021   2.758   9.453  0.4022  0.3274 -0.1412
   33TMC2    H5  526   1.062   2.731   9.538  1.4167  0.6507 -0.5285
   34MPD2     C  527   0.245   2.214   9.620 -0.1877  0.0924  0.3698
   34MPD2    C1  528   0.285   2.246   9.750 -0.1377  0.0101  0.8435
   34MPD2    C2  529   0.373   2.348   9.777 -0.0436  0.4336 -0.2466
   34MPD2    C3  530   0.420   2.422   9.673  1.0702  0.0587  1.1864
   34MPD2    C4  531   0.369   2.401   9.542  0.6674 -0.5280 -1.0146
   34MPD2    C5  532   0.276   2.304   9.521 -0.0360 -0.0832  0.0718
   34MPD2     H  533   0.425   2.358   9.872 -1.2626 -0.7157  0.5509
   34MPD2    H1  534   0.401   2.469   9.464 -0.8101  1.4901  0.1198
   34MPD2    H2  535   0.180   2.132   9.594 -0.7060  0.3852  0.7484
   34MPD2    H3  536   0.253   2.290   9.416  0.7194 -0.7976  0.0000
   34MPD2     N  537   0.527   2.512   9.680 -0.5239  0.0076 -0.1330
   34MPD2    H5  538   0.543   2.562   9.592 -1.1975  0.1478 -0.1758
   34MPD2    N1  539   0.245   2.152   9.847 -0.0176 -0.3139 -0.0687
   34MPD2    H7  540   0.184   2.079   9.811  1.2757 -0.9533 -0.9265
   35TMC2    C1  541   1.275   3.508  11.847 -0.1261 -0.3343 -0.2111
   35TMC2    C2  542   1.152   3.541  11.902  0.3513  0.1198 -0.4630
   35TMC2    C3  543   1.088   3.443  11.976  0.2373 -0.3627 -0.3425
   35TMC2    C4  544   1.340   3.387  11.877 -0.0374  0.0862 -1.5247
   35TMC2    C5  545   1.269   3.303  11.956 -0.2236  0.3323 -0.2053
   35TMC2    C6  546   1.144   3.323  12.002 -0.6707 -0.1316  0.2717
   35TMC2     C  547   1.364   3.626  11.813 -0.2654  0.1768  0.2256
   35TMC2     O  548   1.301   3.735  11.794  0.4372  0.2794  0.7741
   35TMC2     H  549   1.101   3.632  11.871  1.1646  0.5645 -0.4743
   35TMC2    H1  550   1.440   3.363  11.842  0.7345  3.3000 -1.5322
   35TMC2    H2  551   1.087   3.244  12.048 -0.8746  0.0839  0.3904
   35TMC2    C7  552   1.325   3.172  11.974  0.1666  0.6365  0.3329
   35TMC2    C8  553   0.956   3.479  12.033 -0.3770  0.5170  0.5872
   35TMC2    O1  554   1.411   3.131  11.894  0.7217  0.5348  0.4325
   35TMC2    O2  555   0.878   3.393  12.061  0.4421  0.4155  0.4158
   35TMC2    O5  556   0.934   3.613  12.026 -0.3038  0.3355 -0.2236
   35TMC2    H5  557   1.014   3.670  12.025 -1.4988  2.0409  0.7139
   36MPD2     C  558   1.809   3.881  11.844 -0.2634 -0.5210 -0.1175
   36MPD2    C1  559   1.831   3.746  11.834  0.2595  0.0253 -0.4463
   36MPD2    C2  560   1.732   3.655  11.835 -0.7001  0.3546  0.2910
   36MPD2    C3  561   1.605   3.703  11.822  0.4060  0.2116 -0.1490
   36MPD2    C4  562   1.578   3.838  11.837 -0.2416 -0.2514 -0.1117
   36MPD2    C5  563   1.676   3.925  11.845 -0.2007  0.4510 -0.0911
   36MPD2     H  564   1.749   3.549  11.825 -0.2205  0.2427  2.2890
   36MPD2    H1  565   1.478   3.880  11.841 -1.3341 -2.9445  0.9625
   36MPD2    H2  566   1.892   3.951  11.854 -0.3888 -0.1114 -2.0502
   36MPD2    H3  567   1.670   4.033  11.859  1.9845  0.6489 -0.7182
   36MPD2     N  568   1.498   3.602  11.809  0.0825  0.0933 -0.2688
   36MPD2    H5  569   1.521   3.504  11.824  0.8266  0.0853 -1.4569
   36MPD2    N1  570   1.964   3.710  11.843  0.0537  0.5177 -0.5161
   36MPD2    H7  571   2.037   3.780  11.841  0.9214 -0.3700 -0.1161
   37TMC2    C1  572   4.092   4.283  11.450  0.1981  0.2168  0.0641
   37TMC2    C2  573   3.995   4.309  11.355  0.2534  0.4727  0.2628
   37TMC2    C3  574   4.020   4.404  11.263 -0.3250 -0.1270  0.3289
   37TMC2    C4  575   4.199   4.360  11.460  0.1232 -0.0135 -0.5182
   37TMC2    C5  576   4.208   4.467  11.377  0.8202  0.3847  0.3192
   37TMC2    C6  577   4.119   4.492  11.277 -0.3228 -0.6609 -0.2417
   37TMC2     C  578   4.055   4.216  11.573 -0.1824  0.5355 -0.3180
   37TMC2     O  579   3.936   4.212  11.596 -0.0061  1.2744  0.2283
   37TMC2     H  580   3.899   4.259  11.355 -0.3287  1.5982  1.7694
   37TMC2    H1  581   4.279   4.341  11.531 -0.5454 -0.6026  0.0837
   37TMC2    H2  582   4.123   4.572  11.204  2.3090 -1.8563 -1.4110
   37TMC2    C7  583   4.320   4.553  11.388  0.0382 -0.0008  0.4296
   37TMC2    C8  584   3.922   4.465  11.187  0.0782 -0.0159 -0.1092
   37TMC2    O1  585   4.383   4.547  11.490  0.6014 -0.2785  0.0860
   37TMC2    O2  586   3.943   4.499  11.070  0.6684 -0.5331  0.1013
   37TMC2    O5  587   3.885   4.548  11.284 -0.7809  0.5864 -0.1832
   37TMC2    H5  588   3.895   4.521  11.378 -1.0655 -2.4318 -1.0218
   38MPD2     C  589   4.152   4.025  12.031  0.0539  0.4454 -0.2058
   38MPD2    C1  590   4.243   3.970  11.947  0.2833  0.4972 -0.2200
   38MPD2    C2  591   4.236   4.000  11.812 -0.0109 -0.2218  1.1141
   38MPD2    C3  592   4.142   4.093  11.767  0.0263 -0.1940 -0.3098
   38MPD2    C4  593   4.060   4.154  11.862 -0.1275 -0.1566  0.6976
   38MPD2    C5  594   4.062   4.118  11.992  0.1626  0.4056  0.5765
   38MPD2     H  595   4.310   3.958  11.744 -0.9488 -1.1052  0.6477
   38MPD2    H1  596   3.997   4.236  11.830 -0.8310 -1.1827 -0.5408
   38MPD2    H2  597   4.138   3.991  12.134  2.0835  0.6130  0.1138
   38MPD2    H3  598   3.995   4.162  12.065 -0.2409 -1.1989  1.1706
   38MPD2     N  599   4.158   4.149  11.635 -0.6443 -0.6505 -0.1561
   38MPD2    H5  600   4.243   4.128  11.584 -0.9975 -0.7400 -0.7058
   38MPD2    N1  601   4.325   3.865  11.985  0.4078  0.2801  0.9109
   38MPD2    H7  602   4.378   3.821  11.911 -0.0713  1.3424 -0.0702
   39TMC2    C1  603   2.680   1.603   1.772  0.3882  0.1029 -0.6292
   39TMC2    C2  604   2.600   1.697   1.836  1.1286  0.0321 -0.5738
   39TMC2    C3  605   2.663   1.808   1.875  0.1399 -0.5173 -0.3025
   39TMC2    C4  606   2.816   1.626   1.740  0.4094 -0.1907 -0.3792
   39TMC2    C5  607   2.866   1.747   1.781  0.2301 -0.4342 -0.5851
   39TMC2    C6  608   2.796   1.830   1.861 -0.4076 -0.6012 -0.4596
   39TMC2     C  609   2.609   1.499   1.698  0.0704  0.0789 -1.0332
   39TMC2     O  610   2.496   1.528   1.668  0.2140  0.4195 -0.5301
   39TMC2     H  611   2.494   1.685   1.854  1.1769 -0.1003 -0.3749
   39TMC2    H1  612   2.874   1.570   1.669 -0.0570 -0.9732 -0.1400
   39TMC2    H2  613   2.838   1.924   1.897  0.1790 -0.9761 -0.1657
   39TMC2    C7  614   2.984   1.800   1.704  0.4776 -0.5974 -0.2619
   39TMC2    C8  615   2.599   1.903   1.957 -0.0722  0.8844 -0.0650
   39TMC2    O1  616   2.991   1.756   1.587  0.4570  0.8732  0.1221
   39TMC2    O2  617   2.616   2.025   1.961  0.0614  0.3656  0.2214
   39TMC2    O5  618   2.535   1.829   2.049 -0.4729 -0.6562 -0.7318
   39TMC2    H5  619   2.541   1.731   2.045 -0.8135 -0.7930  1.9386
   40MPD2     C  620   2.747   1.179   1.572  0.1192  0.3918 -0.1068
   40MPD2    C1  621   2.654   1.276   1.594 -0.5176  0.1196  0.1664
   40MPD2    C2  622   2.524   1.254   1.548  0.4333  0.6636 -0.0089
   40MPD2    C3  623   2.490   1.137   1.482  0.8032  0.0723  0.2239
   40MPD2    C4  624   2.592   1.050   1.451 -0.1047 -0.0998  0.4598
   40MPD2    C5  625   2.714   1.065   1.497 -0.1704  0.1392  0.7251
   40MPD2     H  626   2.445   1.325   1.571  1.0020  1.1233  0.5299
   40MPD2    H1  627   2.574   0.956   1.399 -0.1631 -1.5046  3.0219
   40MPD2    H2  628   2.850   1.199   1.600 -0.0077 -2.0901  2.2515
   40MPD2    H3  629   2.794   1.001   1.459  0.0138  1.3899 -0.9815
   40MPD2     N  630   2.359   1.102   1.438  0.3906 -0.2102  0.6765
   40MPD2    H5  631   2.354   1.017   1.382 -0.1763 -0.0961  0.5527
   40MPD2    N1  632   2.688   1.395   1.660 -0.0852  0.5620  0.3554
   40MPD2    H7  633   2.782   1.411   1.696  0.4098 -0.8762 -0.3185
   41TMC2    C1  634   1.663   3.947  13.716  0.7027 -0.1874  0.4201
   41TMC2    C2  635   1.578   3.933  13.609  0.5749 -0.0805 -0.2270
   41TMC2    C3  636   1.601   4.016  13.499 -0.3228  0.1498 -0.3457
   41TMC2    C4  637   1.771   4.025  13.704 -0.3104 -0.7614 -0.4296
   41TMC2    C5  638   1.796   4.102  13.593  0.6974 -0.9772 -0.8359
   41TMC2    C6  639   1.702   4.106  13.489  0.2556 -0.1186 -0.3961
   41TMC2     C  640   1.666   3.847  13.824 -0.8197  0.3647  0.0183
   41TMC2     O  641   1.706   3.874  13.935  0.4481 -0.3159  0.4510
   41TMC2     H  642   1.501   3.857  13.610 -1.2773  1.8115  0.0360
   41TMC2    H1  643   1.842   4.026  13.786  0.3937  0.0128 -1.0484
   41TMC2    H2  644   1.709   4.176  13.407  0.4104 -1.2346 -1.3217
   41TMC2    C7  645   1.914   4.191  13.593  0.6376 -0.7374  0.3257
   41TMC2    C8  646   1.502   4.017  13.390 -0.5977 -0.3252 -0.8330
   41TMC2    O1  647   1.989   4.184  13.690 -0.5076  0.1359 -0.2542
   41TMC2    O2  648   1.528   4.063  13.278  0.0606  0.4548  0.1493
   41TMC2    O5  649   1.384   4.026  13.453 -0.1746  0.3215 -0.9570
   41TMC2    H5  650   1.375   3.995  13.546  3.0524  2.1354 -0.0254
   42MPD2     C  651   1.607   3.487  13.778 -0.0146 -0.3696 -0.1072
   42MPD2    C1  652   1.624   3.602  13.846 -0.0234 -0.1908 -0.3635
   42MPD2    C2  653   1.648   3.593  13.979  1.2875  0.4057 -0.7215
   42MPD2    C3  654   1.659   3.474  14.047 -0.2930 -0.1624  0.0771
   42MPD2    C4  655   1.631   3.359  13.979  0.0153  0.4270  0.2587
   42MPD2    C5  656   1.605   3.366  13.843 -0.3410 -0.2469  0.2106
   42MPD2     H  657   1.667   3.676  14.046 -0.7009 -0.0406  0.3950
   42MPD2    H1  658   1.629   3.267  14.037 -0.7541 -0.5362 -1.2853
   42MPD2    H2  659   1.588   3.491  13.672 -0.1738  0.5682 -0.0463
   42MPD2    H3  660   1.581   3.280  13.782  1.3566  0.7047 -1.7981
   42MPD2     N  661   1.671   3.467  14.187 -0.8476 -0.4786 -0.5023
   42MPD2    H5  662   1.643   3.378  14.227  1.0601 -0.2925  1.2706
   42MPD2    N1  663   1.632   3.726  13.776  0.1073 -0.2047  0.0054
   42MPD2    H7  664   1.618   3.707  13.677 -1.6187  2.8045 -0.2940
   43TMC2    C1  665   3.286   1.993   0.831  0.1858 -1.0414 -0.6524
   43TMC2    C2  666   3.162   2.053   0.830  0.4497  0.3806  0.1694
   43TMC2    C3  667   3.120   2.130   0.932 -0.6230 -0.3754  0.0107
   43TMC2    C4  668   3.370   1.996   0.939 -0.8299 -0.1713  0.4248
   43TMC2    C5  669   3.316   2.062   1.043  0.5723 -0.4662 -0.1102
   43TMC2    C6  670   3.195   2.138   1.044  0.2759  0.0407 -0.3849
   43TMC2     C  671   3.316   1.895   0.724  0.3112  0.2036  0.9402
   43TMC2     O  672   3.403   1.807   0.750  0.5351  0.6749 -0.5287
   43TMC2     H  673   3.092   2.020   0.755 -0.1020 -1.3385  1.4528
   43TMC2    H1  674   3.456   1.931   0.939 -1.1224 -0.5602 -2.5829
   43TMC2    H2  675   3.150   2.185   1.130 -0.7852 -1.1227 -0.3085
   43TMC2    C7  676   3.424   2.100   1.140 -0.1846  0.0730  0.9466
   43TMC2    C8  677   2.980   2.174   0.941  0.7311 -0.4898 -0.0007
   43TMC2    O1  678   3.523   2.030   1.148  0.0847 -0.2395 -0.4174
   43TMC2    O2  679   2.926   2.195   1.049  0.2570  0.0520 -0.1937
   43TMC2    O5  680   2.955   2.226   0.823 -0.0426 -0.2329  0.4266
   43TMC2    H5  681   3.020   2.214   0.752 -0.7822  0.2850 -0.3364
   44MPD2     C  682   3.218   1.758   0.240  0.1134 -0.1834  1.4147
   44MPD2    C1  683   3.321   1.714   0.326  0.3337 -0.1567  0.6525
   44MPD2    C2  684   3.332   1.770   0.449  0.1414  0.1734  0.1636
   44MPD2    C3  685   3.253   1.875   0.488  0.8188  0.7520 -0.6247
   44MPD2    C4  686   3.160   1.922   0.397  0.2245 -0.6777  0.2610
   44MPD2    C5  687   3.143   1.869   0.264  1.4323 -0.0745  0.3601
   44MPD2     H  688   3.387   1.717   0.526 -0.0646  0.5176  0.5448
   44MPD2    H1  689   3.096   2.004   0.427  0.2926 -0.3683 -0.4326
   44MPD2    H2  690   3.213   1.724   0.137  0.6889  0.9400  1.0154
   44MPD2    H3  691   3.073   1.913   0.195  1.2643 -0.1923  0.4543
   44MPD2     N  692   3.256   1.939   0.610  0.0599  0.5098 -0.2906
   44MPD2    H5  693   3.194   2.019   0.621 -1.5232 -1.0416  2.2173
   44MPD2    N1  694   3.416   1.624   0.285  0.4029 -0.2440 -0.7680
   44MPD2    H7  695   3.477   1.582   0.354  0.1479  0.5335 -0.0709
   45TMC2    C1  696   3.484   4.700   9.981  0.1640  0.3788 -0.8345
   45TMC2    C2  697   3.471   4.711   9.844 -0.4194 -0.1509 -0.0782
   45TMC2    C3  698   3.453   0.103   9.798  0.2823  0.6510 -0.2850
   45TMC2    C4  699   3.477   0.068  10.068 -0.4127 -0.9408 -0.0166
   45TMC2    C5  700   3.460   0.196  10.021  0.1203 -0.0907  0.5289
   45TMC2    C6  701   3.438   0.216   9.880  0.5324  0.0116 -0.0237
   45TMC2     C  702   3.512   4.573  10.042 -0.1037  0.1438  0.5654
   45TMC2     O  703   3.551   4.577  10.159 -0.1226  0.1739  0.1806
   45TMC2     H  704   3.489   4.628   9.777  0.6724 -2.0142  2.5063
   45TMC2    H1  705   3.470   0.059  10.176  1.2681 -0.6808  0.1267
   45TMC2    H2  706   3.420   0.308   9.826 -0.8810 -2.2361 -3.4255
   45TMC2    C7  707   3.500   0.307  10.104  0.6410  0.2221  0.5307
   45TMC2    C8  708   3.421   0.119   9.659 -0.2727 -0.2149  0.2456
   45TMC2    O1  709   3.493   0.291  10.226  0.4686 -0.0174  0.3642
   45TMC2    O2  710   3.416   0.226   9.605 -0.2368  0.3038 -0.0201
   45TMC2    O5  711   3.334   0.016   9.625 -0.1429 -0.9380 -0.6067
   45TMC2    H5  712   3.327   4.672   9.683 -1.3092  1.0003  1.8558
   46MPD2     C  713   3.557   4.288  10.106  0.0430  0.0828 -0.2094
   46MPD2    C1  714   3.472   4.331  10.005  0.0620 -0.3927  0.3981
   46MPD2    C2  715   3.387   4.247   9.943  0.2815 -0.7421 -0.2094
   46MPD2    C3  716   3.374   4.114   9.995 -0.0079  0.1778 -0.1444
   46MPD2    C4  717   3.451   4.070  10.104  0.7429  0.1667 -0.1328
   46MPD2    C5  718   3.541   4.159  10.156  0.3519 -0.1703  0.0701
   46MPD2     H  719   3.328   4.293   9.865  0.3943 -1.6405 -0.8172
   46MPD2    H1  720   3.433   3.974  10.152  1.7359  1.3714  2.6118
   46MPD2    H2  721   3.634   4.347  10.156 -0.8608  1.8819 -0.9581
   46MPD2    H3  722   3.609   4.135  10.237  1.4229 -0.7690 -1.0046
   46MPD2     N  723   3.276   4.030   9.935 -0.5787  0.2258  0.5878
   46MPD2    H5  724   3.235   4.061   9.848  0.5902 -1.4262 -0.5485
   46MPD2    N1  725   3.465   4.470   9.970 -0.0862 -0.1413 -0.2324
   46MPD2    H7  726   3.413   4.486   9.884  1.7988  0.0275 -1.3428
   47TMC2    C1  727   0.796   4.247   9.130 -0.0312  0.3379 -0.7514
   47TMC2    C2  728   0.723   4.180   9.037 -0.0615  0.3017 -0.5092
   47TMC2    C3  729   0.633   4.079   9.072 -0.5854 -0.2063 -0.0370
   47TMC2    C4  730   0.782   4.220   9.262  0.2531  0.7184  0.1609
   47TMC2    C5  731   0.689   4.122   9.299  0.0082 -0.6408  0.2828
   47TMC2    C6  732   0.620   4.049   9.206 -0.7872 -0.0894  0.4118
   47TMC2     C  733   0.907   4.324   9.077  0.4381 -0.4960  0.1389
   47TMC2     O  734   0.881   4.388   8.975  0.1403 -0.3301 -0.5317
   47TMC2     H  735   0.738   4.197   8.931 -0.2888  0.7597 -0.4626
   47TMC2    H1  736   0.847   4.264   9.337  0.7958  0.3453 -0.0908
   47TMC2    H2  737   0.550   3.970   9.232 -0.1938 -1.4072 -2.0380
   47TMC2    C7  738   0.664   4.088   9.434  0.0703  0.4215  0.3127
   47TMC2    C8  739   0.551   4.005   8.981  0.0399 -0.6748  0.4371
   47TMC2    O1  740   0.593   3.996   9.467  0.9686  0.2022  0.2786
   47TMC2    O2  741   0.508   3.895   9.000 -0.0912 -0.0673  0.2154
   47TMC2    O5  742   0.484   4.096   8.908  0.4618 -0.0712 -0.4934
   47TMC2    H5  743   0.512   4.189   8.918  0.9329 -0.4440  1.6127
   48MPD2     C  744   1.174   4.431   9.002 -0.7554  0.0887 -0.1625
   48MPD2    C1  745   1.160   4.322   9.092  0.4286 -0.6183 -0.2140
   48MPD2    C2  746   1.275   4.261   9.150 -0.6491  0.2112  0.0536
   48MPD2    C3  747   1.397   4.323   9.122 -0.1616  0.6611 -0.2424
   48MPD2    C4  748   1.410   4.424   9.025  0.6284 -0.9192 -0.2048
   48MPD2    C5  749   1.298   4.483   8.976 -0.5764 -0.0250  0.5636
   48MPD2     H  750   1.270   4.190   9.232 -1.0694 -0.8620 -0.9020
   48MPD2    H1  751   1.499   4.478   8.995  0.2359  0.7645  1.6561
   48MPD2    H2  752   1.085   4.478   8.960 -0.5662  0.2362 -0.4001
   48MPD2    H3  753   1.309   4.570   8.912 -1.8569 -0.6048 -0.4250
   48MPD2     N  754   1.504   4.265   9.191  0.2229  0.2480  0.8853
   48MPD2    H5  755   1.479   4.185   9.248 -0.4313  0.1451  0.4539
   48MPD2    N1  756   1.021   4.284   9.137  0.1404  0.1580  0.2923
   48MPD2    H7  757   1.018   4.208   9.204  1.0692 -2.1306 -2.2864
   49TMC2    C1  758   4.546   2.177  10.297  0.5772  0.1016 -0.5089
   49TMC2    C2  759   4.623   2.192  10.183 -0.2725  0.2772  0.2342
   49TMC2    C3  760   4.584   2.114  10.079  0.0493  0.0816 -0.3630
   49TMC2    C4  761   4.445   2.085  10.305 -0.4728  0.1828  0.8531
   49TMC2    C5  762   4.412   2.014  10.200 -0.2392  0.4540  0.5608
   49TMC2    C6  763   4.479   2.025  10.081 -0.8078  0.3794 -0.9469
   49TMC2     C  764   4.608   2.238  10.415 -1.0073  0.5520 -0.1517
   49TMC2     O  765   4.688   2.326  10.391  0.7734 -0.6554 -0.1811
   49TMC2     H  766   4.705   2.262  10.177 -1.4350  1.6410  0.1698
   49TMC2    H1  767   4.377   2.077  10.389 -3.5534 -2.0857 -1.8324
   49TMC2    H2  768   4.442   1.977   9.991  1.1914 -0.7180 -1.2080
   49TMC2    C7  769   4.316   1.904  10.223  0.2798 -0.0706 -0.1357
   49TMC2    C8  770   4.639   2.148   9.957 -0.1516  0.7508  0.0178
   49TMC2    O1  771   4.272   1.856  10.120 -0.6995  0.5555 -0.0225
   49TMC2    O2  772   4.668   2.266   9.937  0.0899 -0.3153 -0.2024
   49TMC2    O5  773   4.633   2.041   9.866  0.3223 -0.0477  0.3041
   49TMC2    H5  774   4.637   1.949   9.900  2.2946 -0.1031 -0.0495
   50MPD2     C  775   4.702   2.354  10.690 -0.1363  0.6507 -0.5846
   50MPD2    C1  776   4.591   2.269  10.670 -0.3080 -0.2656 -0.0516
   50MPD2    C2  777   4.500   2.246  10.775  0.3162 -0.1021  0.2382
   50MPD2    C3  778   4.517   2.308  10.899 -0.9646 -0.8942  0.7034
   50MPD2    C4  779   4.630   2.376  10.920  0.1082 -0.5875 -0.7763
   50MPD2    C5  780   4.720   2.412  10.813 -0.6538  0.7613 -0.2198
   50MPD2     H  781   4.416   2.179  10.761  1.1965 -1.0633 -0.4832
   50MPD2    H1  782   4.652   2.425  11.015 -1.6237  1.6323 -1.5170
   50MPD2    H2  783   0.040   2.365  10.610  1.3837  0.1471  0.7314
   50MPD2    H3  784   0.066   2.481  10.833  0.8083 -0.7262 -0.9440
   50MPD2     N  785   4.432   2.290  11.008  0.0587  0.2448 -0.8598
   50MPD2    H5  786   4.460   2.336  11.094 -0.2440 -0.3861 -0.4179
   50MPD2    N1  787   4.564   2.210  10.539 -0.1521 -0.7322  0.1521
   50MPD2    H7  788   4.491   2.141  10.554 -2.0889  1.0231 -1.2466
   51TMC2    C1  789   3.755   0.511   1.594  0.3864 -0.2130  0.1606
   51TMC2    C2  790   3.676   0.562   1.692  0.5961  0.2201  0.4783
   51TMC2    C3  791   3.704   0.690   1.745  0.3656 -0.1134 -0.4332
   51TMC2    C4  792   3.866   0.583   1.555 -0.0054 -0.7734  0.5303
   51TMC2    C5  793   3.884   0.714   1.599  0.5085 -0.1699 -0.2326
   51TMC2    C6  794   3.795   0.771   1.687  0.1263 -0.2902  0.3246
   51TMC2     C  795   3.742   0.375   1.538 -0.0028  0.1465 -0.1205
   51TMC2     O  796   3.820   0.350   1.450  0.7285  0.8045  0.0004
   51TMC2     H  797   3.594   0.502   1.731 -0.5836 -0.1428 -2.5979
   51TMC2    H1  798   3.932   0.539   1.481 -0.8651 -0.6862 -0.2911
   51TMC2    H2  799   3.809   0.873   1.722 -1.6592 -0.2460  0.8905
   51TMC2    C7  800   4.011   0.783   1.575 -0.1981 -0.6576  0.3757
   51TMC2    C8  801   3.609   0.749   1.833 -0.5014 -0.4092  0.0673
   51TMC2    O1  802   4.070   0.736   1.481  0.5399 -0.0470 -0.4756
   51TMC2    O2  803   3.582   0.871   1.836 -0.5493  0.7701 -0.3788
   51TMC2    O5  804   3.567   0.647   1.911  0.1064 -0.1942  0.6711
   51TMC2    H5  805   3.627   0.570   1.895 -0.0128 -0.0726 -0.3644
   52MPD2     C  806   3.715   4.612   1.641 -0.2321  0.0522  0.3676
   52MPD2    C1  807   3.810   4.683   1.571  0.4716  0.0836  0.2558
   52MPD2    C2  808   3.789   0.086   1.556  1.2773  0.1342 -0.0349
   52MPD2    C3  809   3.678   0.148   1.611 -0.0769 -0.4238 -1.1084
   52MPD2    C4  810   3.593   0.086   1.697 -0.1357 -0.1145 -0.2480
   52MPD2    C5  811   3.619   4.685   1.715 -0.0070 -0.3305 -0.2273
   52MPD2     H  812   3.863   0.133   1.493  0.2649  1.6394 -0.1076
   52MPD2    H1  813   3.516   0.131   1.760 -0.0862 -0.9488  0.4136
   52MPD2    H2  814   3.725   4.508   1.671  1.4899  0.5466  1.5121
   52MPD2    H3  815   3.549   4.625   1.772 -0.3587 -0.6013 -0.9441
   52MPD2     N  816   3.673   0.288   1.618  0.0834  0.0991  0.6101
   52MPD2    H5  817   3.592   0.320   1.671 -2.3785 -1.5918 -2.1002
   52MPD2    N1  818   3.927   4.637   1.517  0.1025 -0.0856  0.4570
   52MPD2    H7  819   3.984   4.698   1.459 -1.0942  1.1876  0.6255
   53TMC2    C1  820   0.026   0.322  11.633 -0.8056  0.3793 -0.4508
   53TMC2    C2  821   4.711   0.438  11.696  0.1453 -0.4724 -0.3717
   53TMC2    C3  822   4.684   0.425  11.831  0.6246 -0.0941 -0.7041
   53TMC2    C4  823   0.055   0.214  11.702 -0.2099 -0.0264  0.2670
   53TMC2    C5  824   0.044   0.209  11.836  0.5579  0.1010  0.2185
   53TMC2    C6  825   4.720   0.315  11.901  0.1305  0.1848  0.9985
   53TMC2     C  826   4.723   0.304  11.491 -0.3134  0.1582 -0.0087
   53TMC2     O  827   4.721   0.410  11.423  0.1545  0.8043  0.1918
   53TMC2     H  828   4.687   0.526  11.637 -1.8163  0.7391  2.2573
   53TMC2    H1  829   0.098   0.132  11.647 -2.1766 -0.3254 -0.8371
   53TMC2    H2  830   4.703   0.300  12.007 -1.0757  3.0213  1.2119
   53TMC2    C7  831   0.063   0.083  11.900 -0.7513  0.0584  0.3150
   53TMC2    C8  832   4.634   0.542  11.903 -0.2915  0.2274  0.0300
   53TMC2    O1  833   0.014   0.068  12.011 -0.8883  0.6220  0.4216
   53TMC2    O2  834   4.574   0.628  11.837 -0.0069  0.1366  0.1199
   53TMC2    O5  835   4.650   0.536  12.045  0.2298 -0.8344 -0.1857
   53TMC2    H5  836   4.722   0.476  12.074  0.2283 -0.5210  0.4680
   54MPD2     C  837   4.619   0.213  11.230 -0.0476 -0.0035  0.3848
   54MPD2    C1  838   4.605   0.146  11.350 -0.0174 -0.1228 -0.2612
   54MPD2    C2  839   4.526   0.031  11.359  0.6216 -0.1639  0.8707
   54MPD2    C3  840   4.446   4.723  11.256  0.0335  0.1132 -1.1023
   54MPD2    C4  841   4.469   0.051  11.132 -0.1219 -0.0766 -0.1217
   54MPD2    C5  842   4.550   0.162  11.125 -0.2076 -0.4367  0.0018
   54MPD2     H  843   4.521   4.725  11.460  0.1497 -3.5740 -0.5198
   54MPD2    H1  844   4.414   0.014  11.045 -1.3702  2.2925 -0.3459
   54MPD2    H2  845   4.682   0.301  11.219  0.2891 -0.3623 -0.5371
   54MPD2    H3  846   4.566   0.205  11.027  1.4482  0.1087  0.5181
   54MPD2     N  847   4.338   4.631  11.277  0.0901  0.5246 -0.8108
   54MPD2    H5  848   4.270   4.632  11.202 -0.9586  3.6568  0.1795
   54MPD2    N1  849   4.668   0.183  11.468 -0.2454  0.2751 -0.1664
   54MPD2    H7  850   4.651   0.126  11.551  1.2246 -0.4426 -0.3401
   55TMC2    C1  851   1.261   2.021   0.122  0.2446 -0.4855 -0.0852
   55TMC2    C2  852   1.250   2.055  17.725 -0.2174  0.4633 -0.2599
   55TMC2    C3  853   1.187   1.967  17.642  0.2005  0.0960 -0.3651
   55TMC2    C4  854   1.186   1.917   0.167  0.7701 -0.3426  0.5974
   55TMC2    C5  855   1.108   1.841   0.084  0.0442  0.3371 -0.2721
   55TMC2    C6  856   1.113   1.862  17.681  1.1753 -0.1644  0.4174
   55TMC2     C  857   1.307   2.119   0.212  0.3546  0.0303 -0.6555
   55TMC2     O  858   1.266   2.105   0.328  0.5069 -0.2543 -0.1094
   55TMC2     H  859   1.271   2.149  17.676 -1.1875 -1.2507 -3.9812
   55TMC2    H1  860   1.194   1.896   0.273 -2.6446 -0.9531  0.7219
   55TMC2    H2  861   1.063   1.793  17.614  0.6158  0.5353  0.1123
   55TMC2    C7  862   1.028   1.737   0.143 -0.3967  0.0842  0.2023
   55TMC2    C8  863   1.180   2.013  17.506  0.2075  0.2809  0.7179
   55TMC2    O1  864   1.002   1.637   0.079 -0.7102  0.3255 -0.2933
   55TMC2    O2  865   1.279   2.066  17.448  0.4430  0.0404 -0.5266
   55TMC2    O5  866   1.051   2.053  17.484 -0.2768 -0.3650 -0.1228
   55TMC2    H5  867   1.004   2.022  17.564  1.4086 -0.2775  0.9126
   56MPD2     C  868   1.381   2.458   0.082 -0.0192 -0.0329  0.5003
   56MPD2    C1  869   1.346   2.361   0.180 -0.1348  0.3227  0.3282
   56MPD2    C2  870   1.288   2.402   0.301  0.6892  0.0331  0.1268
   56MPD2    C3  871   1.269   2.540   0.324  0.9485  0.1024  0.4018
   56MPD2    C4  872   1.322   2.626   0.234 -0.1175  0.4732  0.0577
   56MPD2    C5  873   1.367   2.586   0.110  0.6317 -0.3211 -0.3329
   56MPD2     H  874   1.253   2.337   0.380 -3.1136  1.0452 -0.7378
   56MPD2    H1  875   1.322   2.734   0.244 -0.5167  0.3620  1.2865
   56MPD2    H2  876   1.418   2.444  17.718 -0.7684 -2.2606  0.5555
   56MPD2    H3  877   1.398   2.660   0.038 -0.7745 -0.0336 -0.6358
   56MPD2     N  878   1.191   2.582   0.434 -0.2503  0.2371  0.0223
   56MPD2    H5  879   1.183   2.509   0.504  0.5352  1.0666  0.9833
   56MPD2    N1  880   1.362   2.226   0.146 -0.2491 -0.0029 -0.5083
   56MPD2    H7  881   1.378   2.216   0.046  0.3379  1.5315 -0.5665
   57TMC2    C1  882   0.139   2.887  13.816  0.3968  0.3064  0.0977
   57TMC2    C2  883   0.233   2.904  13.915  0.9479 -0.1048 -0.3974
   57TMC2    C3  884   0.370   2.916  13.869  0.2089 -0.0670  0.2241
   57TMC2    C4  885   0.179   2.888  13.678  1.0309 -0.4499  0.1290
   57TMC2    C5  886   0.313   2.905  13.641 -0.1848 -0.5559  0.5643
   57TMC2    C6  887   0.408   2.919  13.738 -0.8427 -0.6569 -0.0581
   57TMC2     C  888   0.001   2.864  13.861 -0.6335  0.2096 -0.4586
   57TMC2     O  889   4.702   2.913  13.968  0.0090 -0.7186  0.0908
   57TMC2     H  890   0.214   2.887  14.020 -0.2384  0.8154 -0.4685
   57TMC2    H1  891   0.106   2.878  13.598  2.9465  1.3144 -1.8481
   57TMC2    H2  892   0.512   2.931  13.709 -1.7472 -1.2350 -3.4945
   57TMC2    C7  893   0.369   2.859  13.511 -0.1453 -0.4494 -0.6754
   57TMC2    C8  894   0.469   2.896  13.964  0.0300 -0.5697  0.6757
   57TMC2    O1  895   0.487   2.836  13.515 -0.4826 -0.7999 -0.2347
   57TMC2    O2  896   0.583   2.880  13.928 -0.0514 -0.0677  0.0440
   57TMC2    O5  897   0.438   2.953  14.080  0.2127 -0.4880  0.0359
   57TMC2    H5  898   0.343   2.962  14.102  0.0020  0.5055 -1.2920
   58MPD2     C  899   4.259   2.715  13.780  1.0019 -0.0901  0.8217
   58MPD2    C1  900   4.300   2.814  13.871  0.0267  0.5547  0.2024
   58MPD2    C2  901   4.436   2.836  13.876  0.4150 -0.4186 -0.4864
   58MPD2    C3  902   4.520   2.771  13.787  0.3147  0.2459  0.2119
   58MPD2    C4  903   4.476   2.681  13.700 -0.1400 -0.0614 -0.4294
   58MPD2    C5  904   4.345   2.644  13.701  0.8516  0.1928  0.2305
   58MPD2     H  905   4.464   2.909  13.951  0.9089 -0.9774 -0.1207
   58MPD2    H1  906   4.544   2.634  13.630 -0.1436 -0.4105 -0.1955
   58MPD2    H2  907   4.155   2.685  13.782  0.3156  2.2939  1.1509
   58MPD2    H3  908   4.303   2.567  13.639  0.8299 -0.4126  0.9972
   58MPD2     N  909   4.660   2.798  13.771 -0.5725  0.0357 -0.9648
   58MPD2    H5  910   4.712   2.736  13.711 -2.1966 -1.4791 -0.8132
   58MPD2    N1  911   4.218   2.880  13.967 -0.6199  0.3345 -0.2229
   58MPD2    H7  912   4.250   2.962  14.018  0.5235 -0.1711 -0.1299
   59TMC2    C1  913   2.840   3.090  12.833 -0.6398  0.5168 -0.0843
   59TMC2    C2  914   2.960   3.114  12.765 -0.3787 -0.6065 -0.1469
   59TMC2    C3  915   2.954   3.089  12.632 -0.3714  1.1655 -0.2633
   59TMC2    C4  916   2.731   3.033  12.777 -0.2864  0.6547  0.0717
   59TMC2    C5  917   2.729   3.020  12.646 -0.2419 -0.6400 -0.1356
   59TMC2    C6  918   2.841   3.044  12.565 -0.0668 -0.5727  0.7174
   59TMC2     C  919   2.815   3.155  12.967 -0.1287 -0.8669  1.0127
   59TMC2     O  920   2.704   3.196  12.996 -0.1019 -0.0745 -0.0686
   59TMC2     H  921   3.037   3.175  12.810 -2.1528  1.2981  0.3380
   59TMC2    H1  922   2.642   3.019  12.837 -1.6581  1.9594 -1.6281
   59TMC2    H2  923   2.850   3.024  12.459 -2.2327  0.3228  0.3667
   59TMC2    C7  924   2.598   3.009  12.577 -0.0652  0.8736  1.0236
   59TMC2    C8  925   3.063   3.126  12.540  0.5525 -0.0999  0.3554
   59TMC2    O1  926   2.502   2.968  12.641 -0.4194 -0.4176  0.2307
   59TMC2    O2  927   3.035   3.156  12.427 -0.0044 -0.1615 -0.1194
   59TMC2    O5  928   3.176   3.078  12.602  0.4725 -0.3619 -0.3508
   59TMC2    H5  929   3.171   3.080  12.700 -0.8894 -0.9912 -0.4111
   60MPD2     C  930   2.876   3.341  13.202 -0.2292 -0.0585  0.7944
   60MPD2    C1  931   2.946   3.223  13.166 -0.6475 -0.0799 -0.2499
   60MPD2    C2  932   3.052   3.187  13.248  0.2091  0.0507  0.1908
   60MPD2    C3  933   3.093   3.258  13.361 -0.2105  0.0030 -0.0218
   60MPD2    C4  934   3.028   3.374  13.385 -0.8749 -0.0041  0.4300
   60MPD2    C5  935   2.923   3.413  13.312  0.5302  0.1396 -0.3371
   60MPD2     H  936   3.103   3.097  13.215  1.5013  0.3295  1.4701
   60MPD2    H1  937   3.049   3.442  13.466  1.2338 -0.2348  0.0720
   60MPD2    H2  938   2.796   3.368  13.134 -0.1229  0.7226  0.9717
   60MPD2    H3  939   2.870   3.505  13.336 -1.7561 -1.7021  1.7903
   60MPD2     N  940   3.196   3.218  13.447  0.0559 -0.5972 -0.7689
   60MPD2    H5  941   3.242   3.286  13.506 -3.1631  0.0602  0.9328
   60MPD2    N1  942   2.925   3.143  13.050 -0.0977 -0.6436  0.4425
   60MPD2    H7  943   2.996   3.072  13.036 -0.4513 -1.1662  1.2787
   61TMC2    C1  944   1.455   0.082  15.554 -0.8136  0.3932  0.1612
   61TMC2    C2  945   1.365   0.102  15.656 -0.6066  0.2519  0.0319
   61TMC2    C3  946   1.382   0.210  15.735 -0.2037  0.4149  0.6386
   61TMC2    C4  947   1.567   0.161  15.544 -0.6957 -0.4708 -0.4909
   61TMC2    C5  948   1.575   0.269  15.632  0.5581 -0.1186  0.1890
   61TMC2    C6  949   1.480   0.302  15.722  0.0949  0.1170 -0.2941
   61TMC2     C  950   1.443   4.692  15.482 -0.4402  0.6919  0.0533
   61TMC2     O  951   1.350   4.617  15.505 -0.3777  0.0893 -0.1418
   61TMC2     H  952   1.288   0.027  15.671 -3.8364  3.0334 -2.3831
   61TMC2    H1  953   1.650   0.142  15.477  0.4556 -0.6984  1.0041
   61TMC2    H2  954   1.469   0.397  15.773  0.2651  1.4954 -2.8591
   61TMC2    C7  955   1.687   0.360  15.610 -0.8057 -0.2003  0.0249
   61TMC2    C8  956   1.278   0.227  15.834 -0.3965 -0.1118  0.2091
   61TMC2    O1  957   1.737   0.360  15.498  0.3876  0.6445 -0.2841
   61TMC2    O2  958   1.174   0.165  15.846  0.2927 -0.6998 -0.2644
   61TMC2    O5  959   1.346   0.289  15.936  0.0667  0.0194  0.4424
   61TMC2    H5  960   1.443   0.296  15.928 -0.0716  2.8021  0.8968
   62MPD2     C  961   1.502   4.434  15.342  0.4454  0.3234 -0.2465
   62MPD2    C1  962   1.569   4.552  15.327  0.1302 -0.1026 -0.3081
   62MPD2    C2  963   1.678   4.552  15.245 -0.3081  0.3629  0.6904
   62MPD2    C3  964   1.717   4.443  15.172 -0.4788  0.2154  1.0356
   62MPD2    C4  965   1.641   4.326  15.176  0.0402  0.0727  0.4887
   62MPD2    C5  966   1.540   4.323  15.264  0.1673  0.0909  0.5102
   62MPD2     H  967   1.739   4.642  15.243 -0.5394  0.5054  0.0546
   62MPD2    H1  968   1.667   4.236  15.121  1.2570 -0.8386  2.5384
   62MPD2    H2  969   1.416   4.422  15.406  0.0725  1.3689 -0.5552
   62MPD2    H3  970   1.478   4.235  15.271 -0.9418  0.8772  0.5931
   62MPD2     N  971   1.838   4.439  15.100 -0.3116  0.0851 -0.2397
   62MPD2    H5  972   1.867   4.353  15.055 -0.4309  0.6946 -1.4741
   62MPD2    N1  973   1.546   4.668  15.393 -0.0161 -0.0839  0.7590
   62MPD2    H7  974   1.611   0.010  15.380 -0.3352  0.0758  0.0871
   63TMC2    C1  975   1.538   4.490  11.144  0.7959  0.2974 -0.1922
   63TMC2    C2  976   1.623   4.526  11.249  0.0215  0.4888  0.2007
   63TMC2    C3  977   1.725   4.613  11.216 -0.5030  0.7148  0.8733
   63TMC2    C4  978   1.553   4.531  11.017  0.9065  0.0035  0.2753
   63TMC2    C5  979   1.663   4.610  10.990 -0.4856  0.3548 -0.5129
   63TMC2    C6  980   1.748   4.660  11.089  0.2946  0.0686 -0.7851
   63TMC2     C  981   1.449   4.376  11.180  0.1057  0.1769  0.4693
   63TMC2     O  982   1.429   4.353  11.295  0.0116 -0.1222 -0.2573
   63TMC2     H  983   1.601   4.482  11.345 -0.3204  0.1667 -0.0258
   63TMC2    H1  984   1.475   4.520  10.943 -0.9112 -1.4005  2.3859
   63TMC2    H2  985   1.827   4.732  11.073  0.5689  0.1791  0.9931
   63TMC2    C7  986   1.645   4.691  10.868 -0.2359  0.2820  0.3943
   63TMC2    C8  987   1.819   4.659  11.320  0.0989  0.6740 -0.3569
   63TMC2    O1  988   1.542   4.689  10.805  0.2876 -0.2962 -0.0133
   63TMC2    O2  989   1.872   0.035  11.319 -0.0627  0.2831 -0.4163
   63TMC2    O5  990   1.850   4.551  11.399  0.0113  0.3158 -0.0989
   63TMC2    H5  991   1.812   4.466  11.369  1.8046 -0.4252 -0.2017
   64MPD2     C  992   1.085   4.038  11.091 -0.6144 -0.4344 -0.4346
   64MPD2    C1  993   1.124   4.088  10.967  0.9052 -0.3053  0.5694
   64MPD2    C2  994   1.226   4.185  10.970  0.6522 -0.1910 -0.4952
   64MPD2    C3  995   1.286   4.222  11.087  0.4934 -0.1135 -0.4740
   64MPD2    C4  996   1.257   4.150  11.205  0.0089 -0.4947 -0.0395
   64MPD2    C5  997   1.150   4.065  11.206 -0.1300 -0.2108 -0.1496
   64MPD2     H  998   1.264   4.237  10.883  3.0475 -1.1365 -0.0182
   64MPD2    H1  999   1.309   4.165  11.299  0.2252 -1.1306 -0.0614
   64MPD2    H2 1000   0.995   3.979  11.102  0.2051 -1.5178  0.3534
   64MPD2    H3 1001   1.116   4.014  11.295 -0.1968  0.1306  0.0187
   64MPD2     N 1002   1.378   4.325  11.077  0.3147 -0.1004  0.1020
   64MPD2    H5 1003   1.397   4.355  10.982 -0.1905  1.5959  0.5366
   64MPD2    N1 1004   1.066   4.058  10.842 -0.2673 -0.3937  0.4900
   64MPD2    H7 1005   1.080   4.121  10.764 -1.5439  0.1173  0.6734
   65TMC2    C1 1006   2.539   4.209  15.234  0.4604  0.0063  0.5549
   65TMC2    C2 1007   2.618   4.215  15.127  0.4483 -0.3831 -0.0757
   65TMC2    C3 1008   2.661   4.332  15.080 -0.1347 -0.6549 -0.1604
   65TMC2    C4 1009   2.515   4.318  15.307  0.4576 -1.1812  0.2113
   65TMC2    C5 1010   2.564   4.440  15.264  0.4704  1.1944  0.4932
   65TMC2    C6 1011   2.641   4.450  15.146  0.3338  0.4108  0.7328
   65TMC2     C 1012   2.508   4.083  15.289  0.4788  0.0264  0.0731
   65TMC2     O 1013   2.478   4.079  15.405  0.1143  0.2541  0.1970
   65TMC2     H 1014   2.642   4.128  15.067  0.1669  0.5096 -1.4695
   65TMC2    H1 1015   2.471   4.314  15.406 -0.3159  2.2790  0.0275
   65TMC2    H2 1016   2.677   4.545  15.108  2.1967 -1.2695 -1.7609
   65TMC2    C7 1017   2.538   4.562  15.346 -0.7524 -0.1818 -0.2787
   65TMC2    C8 1018   2.737   4.337  14.960  0.1571 -0.3241  0.5326
   65TMC2    O1 1019   2.603   4.666  15.323  0.2072  0.2709 -0.1897
   65TMC2    O2 1020   2.717   4.266  14.862  0.6292 -0.2629  0.6356
   65TMC2    O5 1021   2.866   4.350  15.010  0.6566  0.0956 -0.2923
   65TMC2    H5 1022   2.884   4.423  15.073 -0.8969  0.3670 -0.1623
   66MPD2     C 1023   2.446   3.796  15.335  0.4698  0.0543 -0.0174
   66MPD2    C1 1024   2.498   3.842  15.221 -0.3540 -0.1471  0.2895
   66MPD2    C2 1025   2.522   3.751  15.121  0.0770  0.4474  0.1057
   66MPD2    C3 1026   2.494   3.616  15.140  0.2157 -0.7495 -0.5759
   66MPD2    C4 1027   2.445   3.575  15.262 -1.3975  0.1177 -0.1790
   66MPD2    C5 1028   2.418   3.665  15.361 -0.2443  0.3503  0.0652
   66MPD2     H 1029   2.567   3.781  15.027 -0.8066  3.0942  0.5195
   66MPD2    H1 1030   2.410   3.474  15.281  0.1174 -0.3806 -0.0143
   66MPD2    H2 1031   2.419   3.860  15.418  0.0776 -0.2540  0.0951
   66MPD2    H3 1032   2.381   3.627  15.456  0.0114  0.4197  0.1933
   66MPD2     N 1033   2.520   3.513  15.052  0.4967  0.1822  0.9932
   66MPD2    H5 1034   2.503   3.419  15.087 -0.1664 -0.1689 -0.2888
   66MPD2    N1 1035   2.523   3.980  15.196  0.3565 -0.1002  0.2057
   66MPD2    H7 1036   2.559   4.002  15.103  1.1293  0.7289  0.6968
   67TMC2    C1 1037   2.910   3.394  14.149 -0.7971 -0.1040 -0.1732
   67TMC2    C2 1038   2.879   3.529  14.136 -0.3978 -0.6238  0.3408
   67TMC2    C3 1039   2.938   3.611  14.229  0.1271  0.5223  0.8760
   67TMC2    C4 1040   2.991   3.342  14.247 -0.2467 -0.0284 -0.4251
   67TMC2    C5 1041   3.041   3.433  14.333 -0.0488 -0.2639  0.2225
   67TMC2    C6 1042   3.020   3.565  14.332 -0.0887  0.0738  0.2957
   67TMC2     C 1043   2.835   3.294  14.073 -0.3462 -0.1654  0.3462
   67TMC2     O 1044   2.856   3.177  14.096  0.7422  0.0403  0.3246
   67TMC2     H 1045   2.819   3.575  14.059 -1.8680  0.6024  2.1947
   67TMC2    H1 1046   3.006   3.234  14.250 -0.6705 -0.0767 -0.0358
   67TMC2    H2 1047   3.056   3.636  14.405 -0.3402 -2.1023  2.5501
   67TMC2    C7 1048   3.134   3.392  14.441 -0.2342 -0.2390 -0.6367
   67TMC2    C8 1049   2.920   3.753  14.217  0.6052 -0.2199 -0.1610
   67TMC2    O1 1050   3.198   3.294  14.412  0.4357  0.1135 -0.1353
   67TMC2    O2 1051   2.989   3.832  14.275  0.4786 -0.1899 -0.4184
   67TMC2    O5 1052   2.811   3.785  14.156 -0.0347 -0.5795  0.5766
   67TMC2    H5 1053   2.751   3.709  14.141  1.1462 -1.0768 -1.5485
   68MPD2     C 1054   2.680   3.130  13.884 -0.4010  0.0400 -0.2169
   68MPD2    C1 1055   2.646   3.263  13.919  0.2232 -0.8361  0.4665
   68MPD2    C2 1056   2.536   3.330  13.871  0.5790 -0.0025  0.2713
   68MPD2    C3 1057   2.459   3.262  13.774 -0.3497 -0.0292  0.0771
   68MPD2    C4 1058   2.485   3.129  13.741 -0.3175  0.0555 -0.1647
   68MPD2    C5 1059   2.602   3.066  13.788 -0.0832 -0.5283 -0.0360
   68MPD2     H 1060   2.517   3.431  13.906  1.9730 -0.2824  1.8167
   68MPD2    H1 1061   2.426   3.082  13.663 -1.2886 -0.7514  1.0711
   68MPD2    H2 1062   2.761   3.073  13.927 -0.1899 -2.2589 -3.6471
   68MPD2    H3 1063   2.635   2.968  13.755  2.0436  0.6294 -1.3697
   68MPD2     N 1064   2.343   3.314  13.712  0.7676 -0.2541 -0.3261
   68MPD2    H5 1065   2.292   3.256  13.646  0.3371 -2.1290  1.6600
   68MPD2    N1 1066   2.722   3.340  14.008  0.2420  0.3197 -0.5011
   68MPD2    H7 1067   2.696   3.438  14.019  1.1041  0.7251 -1.9801
   69TMC2    C1 1068   0.320   0.033  12.699  0.0986  0.3362  1.1594
   69TMC2    C2 1069   0.219   0.125  12.680 -0.2447 -0.0942  0.2431
   69TMC2    C3 1070   0.257   0.239  12.602  0.2063  0.6466 -0.2659
   69TMC2    C4 1071   0.446   0.046  12.654 -0.8311  0.3467 -0.4768
   69TMC2    C5 1072   0.478   0.157  12.580  0.0926  0.1198  0.4618
   69TMC2    C6 1073   0.389   0.257  12.564  0.2432 -0.4300 -0.1494
   69TMC2     C 1074   0.293   4.649  12.776 -0.2129 -0.2977 -0.0410
   69TMC2     O 1075   0.387   4.573  12.789  0.5710 -0.4675  0.0776
   69TMC2     H 1076   0.114   0.120  12.706  0.1893  0.4144  2.1004
   69TMC2    H1 1077   0.524   4.710  12.681 -1.8438  0.6958  3.3888
   69TMC2    H2 1078   0.419   0.345  12.508 -2.2947  0.6566  0.2079
   69TMC2    C7 1079   0.570   0.123  12.470 -0.2720  0.2267  0.3779
   69TMC2    C8 1080   0.181   0.348  12.657 -0.1017 -0.1501 -0.2836
   69TMC2    O1 1081   0.615   0.010  12.464 -0.1322  0.5679 -0.8583
   69TMC2    O2 1082   0.177   0.372  12.777  0.0927  0.1310  0.0042
   69TMC2    O5 1083   0.206   0.437  12.560 -0.2578  0.1257  0.5181
   69TMC2    H5 1084   0.205   0.398  12.469 -0.0409  2.6400 -0.5626
   70MPD2     C 1085   4.724   4.522  12.965  0.3469 -0.1415  0.0385
   70MPD2    C1 1086   0.123   4.526  12.919  0.3464  0.2155  0.3993
   70MPD2    C2 1087   0.198   4.418  12.962  0.1724  0.0491 -0.0613
   70MPD2    C3 1088   0.160   4.308  13.043  0.1881 -0.3555  0.3915
   70MPD2    C4 1089   0.032   4.328  13.089 -0.0700 -0.4804 -0.7709
   70MPD2    C5 1090   4.687   4.432  13.055 -0.2174 -0.5592 -0.9116
   70MPD2     H 1091   0.303   4.422  12.935  0.4180 -0.6684  0.8011
   70MPD2    H1 1092   4.711   4.253  13.146 -0.4766  0.1749 -0.3051
   70MPD2    H2 1093   4.656   4.598  12.927 -1.6781 -1.7255  0.4833
   70MPD2    H3 1094   4.585   4.437  13.092  1.0512  0.7357  2.4781
   70MPD2     N 1095   0.233   4.188  13.064  0.1494  0.4567 -0.0164
   70MPD2    H5 1096   0.194   4.123  13.132  0.2663  0.6091  0.1965
   70MPD2    N1 1097   0.169   4.638  12.841  0.6284  0.4066  0.3395
   70MPD2    H7 1098   0.098   4.711  12.839  1.3517  1.0810 -0.6371
   71TMC2    C1 1099   1.823   0.687   2.014  0.0758 -0.2305  0.1557
   71TMC2    C2 1100   1.904   0.777   2.072 -0.0131 -0.4962  0.0123
   71TMC2    C3 1101   1.848   0.882   2.142 -0.0274  0.2087 -0.0368
   71TMC2    C4 1102   1.686   0.700   2.015 -0.0641 -0.3514 -0.3681
   71TMC2    C5 1103   1.633   0.805   2.091  0.3247 -0.0363 -0.7269
   71TMC2    C6 1104   1.714   0.894   2.160  0.5165 -0.5381  0.6930
   71TMC2     C 1105   1.891   0.599   1.924  0.8308 -0.1875  0.2931
   71TMC2     O 1106   1.998   0.638   1.878 -0.2938 -0.0674  0.4461
   71TMC2     H 1107   2.011   0.767   2.062  0.0023 -1.4031  1.1587
   71TMC2    H1 1108   1.622   0.649   1.944  0.5782 -0.9921 -0.4877
   71TMC2    H2 1109   1.671   0.968   2.227 -0.9672  0.6252 -1.5380
   71TMC2    C7 1110   1.488   0.833   2.097  0.6640  0.0576 -0.3380
   71TMC2    C8 1111   1.936   0.958   2.227 -0.4405 -0.5125 -0.4996
   71TMC2    O1 1112   1.445   0.906   2.186  0.2837  0.1605  0.4463
   71TMC2    O2 1113   2.000   0.907   2.318 -0.0671  0.0417  0.0682
   71TMC2    O5 1114   1.887   1.086   2.217  0.3691  0.0559  0.0801
   71TMC2    H5 1115   1.851   1.099   2.127  0.8321 -1.0827 -0.2768
   72MPD2     C 1116   1.826   0.276   1.535 -0.0139 -0.7987 -0.2318
   72MPD2    C1 1117   1.881   0.399   1.534  0.6753 -0.8090 -0.0335
   72MPD2    C2 1118   1.893   0.471   1.653  0.1771 -1.0205  0.0638
   72MPD2    C3 1119   1.826   0.420   1.767 -0.0288  0.8793  0.2393
   72MPD2    C4 1120   1.764   0.298   1.763  0.0214 -0.3567  0.5750
   72MPD2    C5 1121   1.775   0.223   1.650 -0.1853  0.6545 -0.0304
   72MPD2     H 1122   1.940   0.569   1.649 -3.4741  0.7700  1.0780
   72MPD2    H1 1123   1.706   0.258   1.846  0.1972  1.2580  1.4680
   72MPD2    H2 1124   1.816   0.225   1.440 -0.6256  0.7796 -1.0125
   72MPD2    H3 1125   1.738   0.121   1.645  2.4902 -0.2456 -1.7318
   72MPD2     N 1126   1.811   0.491   1.891  0.7332 -0.4967  0.0620
   72MPD2    H5 1127   1.754   0.454   1.966 -0.8233  2.6024  0.4203
   72MPD2    N1 1128   1.937   0.439   1.407  0.1814  0.0841 -0.0076
   72MPD2    H7 1129   1.929   0.370   1.332  0.0573  1.6090 -1.3846
   73TMC2    C1 1130   2.412   1.651  14.371 -0.2995 -0.1673  0.3606
   73TMC2    C2 1131   2.305   1.658  14.450 -1.0929 -0.9399 -0.2215
   73TMC2    C3 1132   2.312   1.704  14.576  0.4703 -0.0919 -0.1729
   73TMC2    C4 1133   2.529   1.693  14.427  0.1100  0.7051  0.1528
   73TMC2    C5 1134   2.537   1.749  14.549 -0.0986 -0.9326  0.0593
   73TMC2    C6 1135   2.426   1.756  14.632 -0.1379  0.0689 -1.0179
   73TMC2     C 1136   2.405   1.703  14.240 -0.1985 -0.4317 -1.2023
   73TMC2     O 1137   2.499   1.779  14.216 -0.1663  0.1839 -0.1716
   73TMC2     H 1138   2.212   1.614  14.416 -1.8429 -0.0587  0.6823
   73TMC2    H1 1139   2.623   1.669  14.379  1.2430  1.2663  2.1107
   73TMC2    H2 1140   2.431   1.805  14.728  2.0830 -3.6211  0.7187
   73TMC2    C7 1141   2.622   1.865  14.551  0.8081  0.5118  0.4040
   73TMC2    C8 1142   2.190   1.692  14.651  0.1869  0.0373 -0.1974
   73TMC2    O1 1143   2.653   1.916  14.657  0.7167  0.0869 -0.8218
   73TMC2    O2 1144   2.088   1.645  14.607  0.4889 -0.0406  0.2312
   73TMC2    O5 1145   2.241   1.660  14.773  0.0478 -0.3804 -0.1549
   73TMC2    H5 1146   2.338   1.654  14.760 -0.0751 -0.3912 -1.0929
   74MPD2     C 1147   2.177   1.829  13.802  0.0989  0.0357 -0.1952
   74MPD2    C1 1148   2.274   1.899  13.881  0.2059 -0.2931 -0.0707
   74MPD2    C2 1149   2.312   1.844  14.001  0.1282 -0.4337 -0.4713
   74MPD2    C3 1150   2.257   1.724  14.044 -0.2959  0.0142  0.1152
   74MPD2    C4 1151   2.172   1.655  13.962  0.2794  0.6054 -0.6859
   74MPD2    C5 1152   2.142   1.702  13.842 -0.2321  0.4436 -0.0885
   74MPD2     H 1153   2.370   1.899  14.074  1.4095 -1.6699 -0.5423
   74MPD2    H1 1154   2.142   1.558  13.999 -1.7507  1.9288  1.1942
   74MPD2    H2 1155   2.144   1.876  13.709 -0.3371  2.0952  1.0080
   74MPD2    H3 1156   2.094   1.635  13.771  1.4627  0.7807 -1.5615
   74MPD2     N 1157   2.290   1.673  14.172  0.0233  0.3504  0.6931
   74MPD2    H5 1158   2.231   1.596  14.203 -1.0895  0.6541 -0.6262
   74MPD2    N1 1159   2.309   2.035  13.842 -0.6014  0.3900  0.0466
   74MPD2    H7 1160   2.290   2.065  13.747 -4.4784 -1.5672  0.2069
   75TMC2    C1 1161   2.162   3.449  13.668  0.0204  0.0446 -0.1262
   75TMC2    C2 1162   2.081   3.333  13.675 -0.2372  0.1621  0.5477
   75TMC2    C3 1163   1.950   3.349  13.634  0.0674  0.3777  0.7938
   75TMC2    C4 1164   2.115   3.574  13.613 -0.6901  0.1125 -0.4914
   75TMC2    C5 1165   1.995   3.570  13.550  1.0450  0.2678  0.4006
   75TMC2    C6 1166   1.912   3.461  13.561  0.1204 -0.3202 -0.3439
   75TMC2     C 1167   2.297   3.442  13.730  0.6169 -0.5573  0.0530
   75TMC2     O 1168   2.332   3.538  13.797  0.1283 -0.0353 -0.4172
   75TMC2     H 1169   2.118   3.252  13.738  0.1512 -0.5941 -0.6655
   75TMC2    H1 1170   2.179   3.660  13.597 -0.5860 -0.2730 -2.1317
   75TMC2    H2 1171   1.814   3.464  13.515 -0.7031  1.9397  1.5355
   75TMC2    C7 1172   1.974   3.650  13.438  0.2524 -1.0759 -0.1922
   75TMC2    C8 1173   1.857   3.241  13.627 -0.1703  0.2633  1.0422
   75TMC2    O1 1174   1.905   3.599  13.351  0.3373  0.5511  0.3097
   75TMC2    O2 1175   1.842   3.162  13.717 -0.0568 -0.1200  0.6901
   75TMC2    O5 1176   1.832   3.216  13.494  0.2908 -0.1445 -0.0934
   75TMC2    H5 1177   1.883   3.270  13.429 -1.3561  0.4687 -0.8762
   76TMC2    C1 1178   1.554   3.764  12.195  0.0890  0.1294 -0.1263
   76TMC2    C2 1179   1.496   3.640  12.190  0.4857 -0.2898 -0.1384
   76TMC2    C3 1180   1.574   3.529  12.207  0.0436  0.4154 -0.3324
   76TMC2    C4 1181   1.686   3.774  12.228  0.5206 -0.0859  0.1451
   76TMC2    C5 1182   1.762   3.658  12.234  0.0202  0.1754  0.3080
   76TMC2    C6 1183   1.708   3.533  12.228  0.6778 -0.1031 -0.0809
   76TMC2     C 1184   1.468   3.881  12.157 -0.6904  0.4850 -0.0402
   76TMC2     O 1185   1.353   3.859  12.131  0.3694 -0.3413  0.5996
   76TMC2     H 1186   1.392   3.635  12.158  1.0440 -2.4028 -1.6072
   76TMC2    H1 1187   1.741   3.867  12.218 -0.8810  0.5232 -1.8039
   76TMC2    H2 1188   1.763   3.439  12.226 -0.3592 -0.7214  1.0573
   76TMC2    C7 1189   1.908   3.650  12.241  0.2005  0.1637  0.2188
   76TMC2    C8 1190   1.505   3.409  12.239 -0.4353  0.2715  0.0352
   76TMC2    O1 1191   1.955   3.542  12.212 -0.8414  0.4114 -0.4636
   76TMC2    O2 1192   1.388   3.402  12.277  0.4431 -0.1752  0.4283
   76TMC2    O5 1193   1.569   3.310  12.176 -0.6136  0.0453  0.3993
   76TMC2    H5 1194   1.643   3.345  12.122 -1.4045 -2.7721 -2.5462
   77MPD2     C 1195   1.425   4.387  12.059  0.0316 -0.0824  0.0217
   77MPD2    C1 1196   1.334   4.292  12.051 -0.5374  0.4917  0.7162
   77MPD2    C2 1197   1.363   4.160  12.088  0.5275  0.3977 -0.2878
   77MPD2    C3 1198   1.488   4.129  12.132 -0.4010  0.4325  0.4786
   77MPD2    C4 1199   1.580   4.229  12.136  0.3100 -0.1478  0.6704
   77MPD2    C5 1200   1.554   4.357  12.095  0.2352  0.4970 -0.5078
   77MPD2     H 1201   1.279   4.092  12.099  1.9230 -1.0254  1.5662
   77MPD2    H1 1202   1.679   4.196  12.164 -0.7046 -1.4632  2.7200
   77MPD2    H2 1203   1.402   4.488  12.029 -0.1210 -0.4642 -1.1590
   77MPD2    H3 1204   1.630   4.433  12.110 -1.9661  2.7930 -1.0794
   77MPD2     N 1205   1.538   3.995  12.169 -0.7169  0.1022 -0.5232
   77MPD2    H5 1206   1.633   3.996  12.205 -0.8325  0.8168 -0.2265
   77MPD2    N1 1207   1.215   4.331  11.986  0.1617  0.3226 -0.1980
   77MPD2    H7 1208   1.202   4.426  11.953 -1.1386  0.6362  1.2442
   78TMC2    C1 1209   2.330   0.833   1.676  0.5764  0.1829  0.4690
   78TMC2    C2 1210   2.452   0.877   1.716 -0.0293 -0.0218  0.1353
   78TMC2    C3 1211   2.563   0.812   1.673  0.1711 -0.2670  0.0232
   78TMC2    C4 1212   2.316   0.718   1.603 -1.1512 -0.6386  0.5238
   78TMC2    C5 1213   2.429   0.652   1.569 -0.2756 -0.3941 -1.0893
   78TMC2    C6 1214   2.556   0.707   1.585 -0.4998 -0.2214 -0.1334
   78TMC2     C 1215   2.221   0.922   1.719 -0.4053 -0.2606  0.2207
   78TMC2     O 1216   2.246   1.019   1.789 -0.6444 -0.9824 -0.1932
   78TMC2     H 1217   2.463   0.955   1.790  0.8556 -1.1492  1.1967
   78TMC2    H1 1218   2.219   0.683   1.570 -1.4323  1.5623 -0.9498
   78TMC2    H2 1219   2.646   0.652   1.561 -0.3451 -0.1683  0.3191
   78TMC2    C7 1220   2.420   0.523   1.500 -0.0209  0.1336 -0.2571
   78TMC2    C8 1221   2.685   0.835   1.745  0.1813  0.5018 -0.6566
   78TMC2    O1 1222   2.504   0.500   1.414  0.1176  0.9794  0.2584
   78TMC2    O2 1223   2.700   0.895   1.852 -0.0728  0.1814  0.4586
   78TMC2    O5 1224   2.790   0.800   1.661  0.2830  0.0220  0.4067
   78TMC2    H5 1225   2.762   0.776   1.571 -1.9265 -1.2707  1.4433
   79MPD1     C 1226   1.726   1.021   1.833 -0.1918 -0.0618 -0.1145
   79MPD1    C1 1227   1.835   1.098   1.861  0.0403 -0.2265  0.5867
   79MPD1    C2 1228   1.957   1.055   1.808  0.6024  0.3073  0.3114
   79MPD1    C3 1229   1.966   0.945   1.727  0.2844 -0.7035 -0.2345
   79MPD1    C4 1230   1.848   0.892   1.683 -0.0919 -0.8228  0.4841
   79MPD1    C5 1231   1.729   0.933   1.728 -0.1790  0.6473 -0.6593
   79MPD1     H 1232   2.050   1.098   1.843  0.8179 -2.1213  2.7066
   79MPD1    H1 1233   1.840   0.818   1.605  1.1201  0.4720 -0.8848
   79MPD1    H2 1234   1.632   1.046   1.882  0.4021 -1.0199  1.5049
   79MPD1    H3 1235   1.640   0.888   1.686 -0.7203  0.3777  0.7609
   79MPD1     N 1236   2.091   0.882   1.683 -0.1490  0.0392  0.0360
   79MPD1    H5 1237   2.079   0.802   1.621 -1.5685 -0.6547  1.2166
   79MPD1    N1 1238   1.834   1.189   1.971  0.2038  0.7175 -0.3441
   79MPD1    H6 1239   1.896   1.270   1.961  0.6505  0.3083 -0.8712
   79MPD1    H7 1240   1.738   1.224   1.974  0.1943  0.6431  0.1057
   80TMC2    C1 1241   4.073   2.758  12.051  0.4899  0.5495  0.4702
   80TMC2    C2 1242   3.963   2.686  12.028  0.0458  0.5897  0.4186
   80TMC2    C3 1243   3.870   2.699  12.126  0.1600 -0.6244 -0.2183
   80TMC2    C4 1244   4.104   2.836  12.154  0.5139  0.8108 -0.1518
   80TMC2    C5 1245   4.003   2.842  12.253  0.3619 -0.2815  0.3595
   80TMC2    C6 1246   3.880   2.785  12.234  0.1953  0.0128  0.2426
   80TMC2     C 1247   4.163   2.775  11.938  0.0781  0.0729  0.2672
   80TMC2     O 1248   4.199   2.671  11.884  0.0717 -0.2347  0.4427
   80TMC2     H 1249   3.948   2.617  11.946  2.2042  0.9453 -0.2677
   80TMC2    H1 1250   4.200   2.885  12.169  1.1561 -0.6740  0.5790
   80TMC2    H2 1251   3.806   2.787  12.313 -0.2675  0.6271 -0.2009
   80TMC2    C7 1252   4.032   2.898  12.388 -0.3958 -0.6381 -0.9217
   80TMC2    C8 1253   3.738   2.638  12.098 -0.1524  0.6025  0.1687
   80TMC2    O1 1254   3.941   2.957  12.443 -0.2168 -0.3948  0.2014
   80TMC2    O2 1255   3.703   2.590  11.992 -0.2540 -0.0839 -0.3445
   80TMC2    O5 1256   3.658   2.646  12.209 -0.4141  0.2072 -0.0332
   80TMC2    H5 1257   3.700   2.649  12.297  0.3556  2.8424 -0.4849
   81MPD2     C 1258   4.413   2.886  11.787  0.1374  0.2760  0.2631
   81MPD2    C1 1259   4.321   2.959  11.862 -0.0411  0.4086 -0.1895
   81MPD2    C2 1260   4.335   3.091  11.886 -0.0400  0.1451 -0.1915
   81MPD2    C3 1261   4.444   3.161  11.833  0.6888  0.5699 -0.2650
   81MPD2    C4 1262   4.539   3.091  11.757 -0.5584 -0.3538 -0.2048
   81MPD2    C5 1263   4.524   2.952  11.739 -0.2169 -0.1212  0.0254
   81MPD2     H 1264   4.253   3.145  11.932  0.8786  0.3908  1.1367
   81MPD2    H1 1265   4.626   3.137  11.712 -0.4427 -1.1564 -0.8048
   81MPD2    H2 1266   4.404   2.778  11.777  2.9278  0.0725  0.1297
   81MPD2    H3 1267   4.599   2.900  11.679 -1.3804  0.7407 -2.1945
   81MPD2     N 1268   4.466   3.305  11.841  0.2060  0.2592 -0.1679
   81MPD2    H5 1269   4.548   3.344  11.795  0.7167  0.7854  1.2052
   81MPD2    N1 1270   4.209   2.904  11.932  0.6267 -0.0680  0.6820
   81MPD2    H7 1271   4.156   2.967  11.991 -2.8159 -0.1192 -2.3127
   82TMC2    C1 1272   2.634   2.974  11.329 -0.9743 -0.3486 -0.4695
   82TMC2    C2 1273   2.659   3.012  11.201 -0.0901  0.7703 -0.1863
   82TMC2    C3 1274   2.675   2.906  11.106  0.2285 -0.4905 -0.1182
   82TMC2    C4 1275   2.633   2.842  11.362  0.0509  0.0724  0.0914
   82TMC2    C5 1276   2.660   2.739  11.272 -0.3354  0.8972  0.0941
   82TMC2    C6 1277   2.686   2.772  11.143  0.4097  0.3626 -0.0910
   82TMC2     C 1278   2.556   3.068  11.409 -0.1233 -0.5302 -0.2994
   82TMC2     O 1279   2.504   3.160  11.357  0.2982  0.3595  0.0185
   82TMC2     H 1280   2.663   3.119  11.183  0.9997  1.0323  1.6057
   82TMC2    H1 1281   2.602   2.806  11.460  0.1354 -0.5577 -0.1094
   82TMC2    H2 1282   2.735   2.703  11.075 -0.7818  0.9850 -1.5974
   82TMC2    C7 1283   2.662   2.603  11.317 -0.6726  0.5035  0.4706
   82TMC2    C8 1284   2.693   2.945  10.968  0.4401  0.0383 -0.1056
   82TMC2    O1 1285   2.649   2.583  11.441  0.2298  0.5178 -0.0547
   82TMC2    O2 1286   2.697   3.066  10.931 -1.0001 -0.2575 -0.3671
   82TMC2    O5 1287   2.673   2.838  10.895 -0.0136  0.1714 -0.7281
   82TMC2    H5 1288   2.617   2.781  10.952  0.0843 -0.9293 -1.7172
   83MPD2     C 1289   2.255   3.105  11.811  0.7004  0.4208  0.7147
   83MPD2    C1 1290   2.270   3.191  11.705  1.2917  0.0010  0.2631
   83MPD2    C2 1291   2.368   3.171  11.618  0.1871  0.4768 -0.3104
   83MPD2    C3 1292   2.463   3.074  11.635 -0.0059  0.1508 -0.9750
   83MPD2    C4 1293   2.451   2.994  11.743  0.0331 -0.1317  0.3964
   83MPD2    C5 1294   2.342   3.004  11.826  0.2169 -0.0764  0.5072
   83MPD2     H 1295   2.364   3.235  11.531  4.1674 -2.2023 -2.4327
   83MPD2    H1 1296   2.516   2.907  11.749 -0.0747 -0.3721 -1.9652
   83MPD2    H2 1297   2.176   3.117  11.885 -2.1754  0.7757 -2.4064
   83MPD2    H3 1298   2.326   2.926  11.900 -3.8092  0.8364  0.6450
   83MPD2     N 1299   2.557   3.031  11.539  0.3878  0.5741  0.2623
   83MPD2    H5 1300   2.627   2.964  11.568  1.5730  1.6913 -0.0393
   83MPD2    N1 1301   2.159   3.276  11.679 -0.3365  0.2225  0.1112
   83MPD2    H7 1302   2.068   3.261  11.721  0.3416  1.3179  1.9706
   84TMC2    C1 1303   4.077   2.201  11.287 -1.2215 -0.1688  0.7727
   84TMC2    C2 1304   4.159   2.198  11.394  0.6460  0.6181 -0.0861
   84TMC2    C3 1305   4.291   2.218  11.374  0.1986 -0.0640 -0.2169
   84TMC2    C4 1306   4.127   2.201  11.158 -0.0868  0.0735 -0.0054
   84TMC2    C5 1307   4.257   2.224  11.146  0.0900  0.2690  0.0611
   84TMC2    C6 1308   4.341   2.241  11.252  0.1318  0.1872  0.5886
   84TMC2     C 1309   3.958   2.268  11.301 -0.7738  0.2224  0.0407
   84TMC2     O 1310   3.966   2.363  11.376  0.0862  0.1203 -0.3326
   84TMC2     H 1311   4.116   2.213  11.493  2.0022  1.5946  0.3542
   84TMC2    H1 1312   4.065   2.211  11.069  0.4411  1.6224 -0.1992
   84TMC2    H2 1313   4.449   2.248  11.243  0.1385 -0.4308  0.2161
   84TMC2    C7 1314   4.314   2.228  11.012  0.8231  0.5538 -0.0834
   84TMC2    C8 1315   4.380   2.224  11.488 -0.3833  0.0098  0.1607
   84TMC2    O1 1316   4.242   2.189  10.916  0.0965 -0.2552 -0.1457
   84TMC2    O2 1317   4.491   2.278  11.484  0.0788  0.1555  0.3421
   84TMC2    O5 1318   4.338   2.139  11.587 -0.1936 -0.2036 -0.1906
   84TMC2    H5 1319   4.247   2.104  11.575 -0.4412  0.1895  0.5559
   85TMC2    C1 1320   0.541   0.304  15.892  0.4782 -0.1936 -0.6955
   85TMC2    C2 1321   0.521   0.226  15.776  0.3396  0.4793  0.6653
   85TMC2    C3 1322   0.514   0.288  15.657  0.3926 -0.1250 -0.1034
   85TMC2    C4 1323   0.570   0.439  15.892  0.2728 -0.6403  0.3460
   85TMC2    C5 1324   0.540   0.497  15.771  0.3095  0.3488  0.6730
   85TMC2    C6 1325   0.515   0.429  15.652 -0.0935  0.2427  0.0150
   85TMC2     C 1326   0.526   0.251  16.030 -0.2397  1.0017  0.1049
   85TMC2     O 1327   0.583   0.313  16.118 -0.8787 -0.4867 -0.1603
   85TMC2     H 1328   0.525   0.118  15.786 -1.7157  0.2254 -1.2018
   85TMC2    H1 1329   0.590   0.491  15.985  2.4571  3.1790 -2.2346
   85TMC2    H2 1330   0.511   0.485  15.559 -0.1579  2.6033  1.4414
   85TMC2    C7 1331   0.556   0.642  15.773 -0.1559 -1.2051 -0.2810
   85TMC2    C8 1332   0.467   0.203  15.545  0.4251  0.1564 -0.3253
   85TMC2    O1 1333   0.634   0.697  15.849 -0.3649 -0.0477 -0.5749
   85TMC2    O2 1334   0.394   0.110  15.573 -0.3977 -0.0414  0.7323
   85TMC2    O5 1335   0.443   0.281  15.444 -0.4608 -0.4034 -0.4931
   85TMC2    H5 1336   0.511   0.345  15.414  0.4478 -1.4984 -0.7283
   86MPD2     C 1337   0.353   4.681  16.410  0.2094  0.0145  0.1357
   86MPD2    C1 1338   0.264   4.680  16.305  0.4884 -0.3376  0.2813
   86MPD2    C2 1339   0.295   0.017  16.192  0.0004  0.4352  0.7232
   86MPD2    C3 1340   0.413   0.094  16.176 -0.3914 -0.1172  0.5771
   86MPD2    C4 1341   0.499   0.092  16.288  0.5335 -0.2397  0.6637
   86MPD2    C5 1342   0.472   0.022  16.399 -0.9898  0.2512 -0.0869
   86MPD2     H 1343   0.219   0.004  16.116  0.3582  1.4035  0.1884
   86MPD2    H1 1344   0.600   0.132  16.286  0.3692  0.0889 -0.9724
   86MPD2    H2 1345   0.334   4.632  16.505  0.4964 -0.2784  0.0425
   86MPD2    H3 1346   0.552   0.019  16.471 -1.9356  2.8820  1.0716
   86MPD2     N 1347   0.431   0.154  16.050  0.0760  0.0854  0.5054
   86MPD2    H5 1348   0.368   0.127  15.975  2.4658 -0.2982 -1.3258
   86MPD2    N1 1349   0.151   4.592  16.306 -0.4445  0.0471  0.8724
   86MPD2    H7 1350   0.091   4.580  16.226 -0.2311 -1.1782  0.8991
   87TMC2    C1 1351   2.679   3.076   1.062  0.1269  0.6509 -0.9678
   87TMC2    C2 1352   2.640   2.985   1.156  0.0754  0.0763 -0.5868
   87TMC2    C3 1353   2.595   3.027   1.276  0.3195  0.6099 -0.2126
   87TMC2    C4 1354   2.678   3.209   1.091 -0.6741 -1.1157 -0.3551
   87TMC2    C5 1355   2.624   3.248   1.211  0.0264 -0.4899 -0.6239
   87TMC2    C6 1356   2.585   3.166   1.307  0.2348 -0.7815 -1.8126
   87TMC2     C 1357   2.685   3.045   0.922  0.2095 -0.3265 -0.5962
   87TMC2     O 1358   2.768   3.111   0.861  0.2021 -0.2607 -0.9573
   87TMC2     H 1359   2.648   2.878   1.139  0.4480 -0.1700  1.0792
   87TMC2    H1 1360   2.713   3.284   1.021  0.7870 -1.8804 -0.4490
   87TMC2    H2 1361   2.541   3.205   1.398  1.4969 -1.3250 -0.9673
   87TMC2    C7 1362   2.580   3.387   1.216 -0.2972  0.2398 -0.1146
   87TMC2    C8 1363   2.569   2.938   1.388 -1.0627  0.1964 -0.3093
   87TMC2    O1 1364   2.518   3.421   1.114 -0.1180 -0.3884  0.1364
   87TMC2    O2 1365   2.498   2.977   1.479  0.6044  0.0197  0.4279
   87TMC2    O5 1366   2.627   2.820   1.370  0.6781 -0.1795  0.4295
   87TMC2    H5 1367   2.709   2.822   1.316  1.2305 -1.3392  1.2140
   88MPD2     C 1368   2.646   3.615   1.488  0.3023  0.2442  0.3434
   88MPD2    C1 1369   2.605   3.575   1.363  0.5914  0.3620 -0.7722
   88MPD2    C2 1370   2.532   3.666   1.290  0.2062 -0.6985 -0.3012
   88MPD2    C3 1371   2.509   3.799   1.326 -0.0541  0.1602  0.6836
   88MPD2    C4 1372   2.559   3.839   1.443  0.7908 -0.0587  0.4632
   88MPD2    C5 1373   2.617   3.743   1.521 -0.1173  0.2717  0.3979
   88MPD2     H 1374   2.476   3.626   1.207  2.1647 -0.3162 -1.7891
   88MPD2    H1 1375   2.543   3.940   1.477  0.4437 -0.1755  0.6434
   88MPD2    H2 1376   2.702   3.551   1.556 -0.3983  0.3791  1.0559
   88MPD2    H3 1377   2.650   3.773   1.620  1.5022 -0.9364  0.2157
   88MPD2     N 1378   2.427   3.894   1.257  0.0980  0.3737  0.0790
   88MPD2    H5 1379   2.422   3.991   1.284 -1.2739  0.6504 -1.1601
   88MPD2    N1 1380   2.609   3.440   1.335  0.3679 -0.2212  0.3916
   88MPD2    H7 1381   2.650   3.380   1.405  0.9099 -1.0052 -0.5963
   89TMC2    C1 1382   3.595   2.361   1.865  0.4402 -0.1895 -0.3957
   89TMC2    C2 1383   3.506   2.410   1.960 -0.0672 -0.5950  0.3268
   89TMC2    C3 1384   3.553   2.511   2.042 -0.2980  0.2613  0.4796
   89TMC2    C4 1385   3.711   2.424   1.844  0.9700 -0.0615 -0.7387
   89TMC2    C5 1386   3.760   2.507   1.941  1.4636 -0.2389  0.0972
   89TMC2    C6 1387   3.678   2.566   2.034  0.0663 -1.1295  1.1935
   89TMC2     C 1388   3.546   2.261   1.766 -0.5472 -0.0559 -0.7210
   89TMC2     O 1389   3.627   2.240   1.679 -0.1614  0.5638  0.5720
   89TMC2     H 1390   3.413   2.359   1.982 -1.3924  1.5925 -0.1829
   89TMC2    H1 1391   3.784   2.371   1.784 -0.0526 -0.1740 -1.8969
   89TMC2    H2 1392   3.706   2.655   2.090 -0.9646 -0.0641  0.0240
   89TMC2    C7 1393   3.884   2.572   1.912  0.9355  0.0768 -0.2149
   89TMC2    C8 1394   3.452   2.559   2.136  1.1514 -0.8252 -0.0000
   89TMC2    O1 1395   3.941   2.619   2.011  0.1286  0.1873 -0.2992
   89TMC2    O2 1396   3.330   2.578   2.115  0.3422  0.5708 -0.3701
   89TMC2    O5 1397   3.518   2.598   2.238 -0.0035  0.4736  0.5509
   89TMC2    H5 1398   3.614   2.581   2.235 -0.0497  0.4969 -0.7398
   90MPD2     C 1399   3.233   1.898   1.585  0.8661  0.1179  0.2132
   90MPD2    C1 1400   3.183   1.940   1.708  0.2440  0.1735  0.6151
   90MPD2    C2 1401   3.249   2.043   1.779  0.1840  0.3740 -0.3536
   90MPD2    C3 1402   3.356   2.108   1.730  0.1034 -0.1675  0.9298
   90MPD2    C4 1403   3.399   2.073   1.598  0.7782 -0.0788  0.0710
   90MPD2    C5 1404   3.341   1.966   1.530  0.2701  0.0066  0.0158
   90MPD2     H 1405   3.199   2.072   1.871 -0.1397 -0.1695 -0.3575
   90MPD2    H1 1406   3.485   2.120   1.551  0.4584 -0.8341 -1.2622
   90MPD2    H2 1407   3.181   1.832   1.516  3.2781 -0.9976 -0.5357
   90MPD2    H3 1408   3.382   1.949   1.432  2.2875  2.6020  0.4102
   90MPD2     N 1409   3.425   2.201   1.808  0.4157 -0.2646 -0.5307
   90MPD2    H5 1410   3.388   2.222   1.900 -2.1729 -0.2516 -1.5942
   90MPD2    N1 1411   3.070   1.885   1.771  0.7615 -0.2379 -0.5459
   90MPD2    H7 1412   3.044   1.914   1.865  2.3395  2.7189 -1.0419
   91TMC2    C1 1413   0.322   1.213  16.444  0.0387 -0.1608  0.1424
   91TMC2    C2 1414   0.337   1.240  16.575 -0.6896  0.4555  0.4972
   91TMC2    C3 1415   0.294   1.143  16.659  0.2458  0.0387 -0.6614
   91TMC2    C4 1416   0.271   1.102  16.389  0.2146  0.2074  0.1323
   91TMC2    C5 1417   0.236   1.002  16.478 -0.4129 -0.4138  0.7834
   91TMC2    C6 1418   0.250   1.022  16.615 -0.6617  0.4152  0.6938
   91TMC2     C 1419   0.398   1.289  16.345  0.6890 -0.2523 -0.3111
   91TMC2     O 1420   0.358   1.285  16.229 -0.0118 -0.0298 -0.5674
   91TMC2     H 1421   0.373   1.335  16.611  1.2087 -1.6993  4.2524
   91TMC2    H1 1422   0.254   1.089  16.282  1.9193 -2.7893  0.2492
   91TMC2    H2 1423   0.234   0.938  16.681  0.5194  0.6738  1.3132
   91TMC2    C7 1424   0.175   0.874  16.446 -0.1339  0.2171  0.1227
   91TMC2    C8 1425   0.310   1.148  16.801  0.4017 -0.4584 -0.1956
   91TMC2    O1 1426   0.165   0.795  16.542 -0.2231 -0.4155 -0.3677
   91TMC2    O2 1427   0.407   1.186  16.857  0.5303  0.1522  0.3410
   91TMC2    O5 1428   0.189   1.117  16.852 -0.1092  0.1312 -0.3398
   91TMC2    H5 1429   0.127   1.082  16.785 -0.8069 -0.7193  0.7467
   92MPD2     C 1430   0.526   1.518  16.212  0.2259 -0.1194 -0.7381
   92MPD2    C1 1431   0.577   1.458  16.323 -0.0542 -0.0350 -0.7188
   92MPD2    C2 1432   0.695   1.496  16.372  0.4066  0.5881 -1.1084
   92MPD2    C3 1433   0.774   1.575  16.295 -0.5189  0.2176  0.4157
   92MPD2    C4 1434   0.728   1.633  16.170 -1.1946 -0.3713 -0.0102
   92MPD2    C5 1435   0.599   1.606  16.134  0.0526 -0.1285 -0.0086
   92MPD2     H 1436   0.711   1.464  16.474 -3.2368 -0.8658 -0.9907
   92MPD2    H1 1437   0.793   1.694  16.108 -1.7934 -0.2739 -0.5420
   92MPD2    H2 1438   0.426   1.505  16.173 -0.0760  0.4531 -0.1554
   92MPD2    H3 1439   0.561   1.644  16.040 -0.6282  0.7318  0.6158
   92MPD2     N 1440   0.903   1.588  16.342  0.5113 -0.0596  0.0123
   92MPD2    H5 1441   0.919   1.558  16.438 -0.4206 -2.7411 -0.6550
   92MPD2    N1 1442   0.493   1.373  16.399  0.2846  0.3256 -0.0735
   92MPD2    H7 1443   0.522   1.349  16.494 -2.3397  0.4995  0.7643
   93TMC2    C1 1444   2.347   1.057  14.163  0.6990 -0.5204  0.1457
   93TMC2    C2 1445   2.392   1.027  14.290  0.0171 -0.5236  0.4827
   93TMC2    C3 1446   2.457   1.119  14.358  0.0706 -0.0659 -0.2559
   93TMC2    C4 1447   2.355   1.184  14.107  0.1319 -0.1355 -0.3074
   93TMC2    C5 1448   2.424   1.278  14.179 -0.3572  0.7310 -0.1393
   93TMC2    C6 1449   2.479   1.241  14.303 -0.1381  0.4674 -0.1784
   93TMC2     C 1450   2.266   0.953  14.103 -0.1528  0.5894 -0.1027
   93TMC2     O 1451   2.286   0.839  14.141  0.4041  0.0233  0.6601
   93TMC2     H 1452   2.389   0.931  14.339  0.2982 -0.5651  0.4187
   93TMC2    H1 1453   2.360   1.191  13.999 -2.0040 -2.5570 -0.5417
   93TMC2    H2 1454   2.557   1.301  14.349 -0.9674  1.4769 -0.0912
   93TMC2    C7 1455   2.519   1.361  14.111  0.7876 -0.7175  0.0514
   93TMC2    C8 1456   2.535   1.072  14.471  0.1091  0.5313  1.0370
   93TMC2    O1 1457   2.627   1.398  14.156 -0.6257 -0.0601  0.0420
   93TMC2    O2 1458   2.636   1.132  14.509  0.1347  0.0462  0.0159
   93TMC2    O5 1459   2.433   1.041  14.555 -0.0993 -0.1161 -0.2085
   93TMC2    H5 1460   2.348   1.015  14.514  0.0629 -0.4170 -0.3529
   94MPD2     C 1461   2.050   0.798  13.957 -0.4444 -0.6391 -0.0295
   94MPD2    C1 1462   2.048   0.938  13.972  0.4116 -0.4583 -0.7952
   94MPD2    C2 1463   1.944   1.013  13.913  0.0263 -0.0944 -0.8244
   94MPD2    C3 1464   1.840   0.953  13.851  1.0333  0.1771  0.1387
   94MPD2    C4 1465   1.840   0.819  13.844 -0.0656  0.5348 -0.5690
   94MPD2    C5 1466   1.938   0.746  13.902  0.4627  0.0765  0.2028
   94MPD2     H 1467   1.947   1.121  13.925 -1.8056  0.0220 -1.3948
   94MPD2    H1 1468   1.757   0.766  13.798 -0.1291  0.2264 -0.1049
   94MPD2    H2 1469   2.124   0.736  14.004 -0.2261  0.2834  0.8550
   94MPD2    H3 1470   1.930   0.638  13.893 -1.7562  0.2233  0.4986
   94MPD2     N 1471   1.731   1.027  13.796 -0.0289  0.8869 -0.1184
   94MPD2    H5 1472   1.660   0.980  13.741 -0.3524 -1.1664  2.0546
   94MPD2    N1 1473   2.156   1.006  14.034 -0.0606  0.3848 -0.0130
   94MPD2    H7 1474   2.153   1.107  14.028  0.3168  0.3218 -1.2279
   95TMC2    C1 1475   2.394   2.755  15.524  0.7528 -0.0540  0.3901
   95TMC2    C2 1476   2.451   2.643  15.571  0.1865 -0.6350 -0.0596
   95TMC2    C3 1477   2.417   2.609  15.698 -0.0502 -0.4210 -0.1230
   95TMC2    C4 1478   2.319   2.840  15.600 -0.9978  0.4969 -0.4909
   95TMC2    C5 1479   2.284   2.801  15.727 -0.0403 -0.0376 -0.3735
   95TMC2    C6 1480   2.335   2.684  15.782 -0.2710  0.9010  0.5193
   95TMC2     C 1481   2.417   2.804  15.391  0.4212 -0.0422  0.3909
   95TMC2     O 1482   2.412   2.925  15.368  0.2582  0.0036 -0.3606
   95TMC2     H 1483   2.522   2.594  15.506 -0.2652 -1.1404 -0.1784
   95TMC2    H1 1484   2.273   2.930  15.561 -1.3000  0.3170 -0.5531
   95TMC2    H2 1485   2.304   2.643  15.878 -0.9906  0.0193 -0.0969
   95TMC2    C7 1486   2.242   2.907  15.824  0.3049 -0.6477 -0.0653
   95TMC2    C8 1487   2.458   2.482  15.751  0.7556 -0.1424  0.0667
   95TMC2    O1 1488   2.202   2.857  15.929  0.0018 -0.1914  0.3386
   95TMC2    O2 1489   2.491   2.494  15.867 -0.4161  0.3906 -0.4916
   95TMC2    O5 1490   2.537   2.420  15.654 -0.1995 -0.2465 -0.4647
   95TMC2    H5 1491   2.494   2.420  15.566 -1.1244 -0.4306 -0.0139
   96MPD2     C 1492   2.478   2.723  14.881 -0.1206 -0.2809  0.1732
   96MPD2    C1 1493   2.495   2.836  14.960 -0.2537  0.6019 -0.4796
   96MPD2    C2 1494   2.477   2.826  15.093  0.5230 -0.1896 -0.0846
   96MPD2    C3 1495   2.454   2.713  15.163  0.5218 -0.0590 -0.3792
   96MPD2    C4 1496   2.449   2.596  15.079 -0.1723 -0.5959  0.0331
   96MPD2    C5 1497   2.464   2.604  14.939 -0.1906  0.1148 -0.4392
   96MPD2     H 1498   2.473   2.919  15.149 -0.1804  0.4852 -1.2648
   96MPD2    H1 1499   2.445   2.499  15.126 -0.6606 -0.3873  0.4218
   96MPD2    H2 1500   2.475   2.728  14.773  0.4198 -0.6127  0.1439
   96MPD2    H3 1501   2.452   2.511  14.884  0.5898 -1.1182  1.4473
   96MPD2     N 1502   2.434   2.702  15.304  0.6274 -0.2363 -0.0656
   96MPD2    H5 1503   2.410   2.609  15.335 -0.3104 -0.5645 -1.7758
   96MPD2    N1 1504   2.516   2.956  14.888  0.4074  0.4650 -0.0671
   96MPD2    H7 1505   2.488   2.969  14.791  1.3740  0.6439 -0.3228
   97TMC2    C1 1506   4.252   1.275  17.474 -0.4505 -0.7349  0.4465
   97TMC2    C2 1507   4.286   1.248  17.345  0.6307  0.3749 -0.9445
   97TMC2    C3 1508   4.311   1.357  17.272  0.2155  0.0455 -0.3305
   97TMC2    C4 1509   4.274   1.398  17.526 -0.3048  0.2062 -0.3217
   97TMC2    C5 1510   4.326   1.500  17.451 -0.1056  0.6740 -0.4403
   97TMC2    C6 1511   4.339   1.483  17.319  0.5846  0.4062  0.3610
   97TMC2     C 1512   4.242   1.160  17.558  0.3029 -0.0415  0.2096
   97TMC2     O 1513   4.307   1.059  17.539  0.3317  0.1403  0.5946
   97TMC2     H 1514   4.275   1.152  17.297 -3.1470  0.2586  0.1212
   97TMC2    H1 1515   4.253   1.409  17.631  3.0749 -0.9062  0.4766
   97TMC2    H2 1516   4.385   1.560  17.257 -0.8171  0.8476 -0.1265
   97TMC2    C7 1517   4.396   1.607  17.525  0.4871 -0.2850  0.6585
   97TMC2    C8 1518   4.342   1.326  17.138 -0.1426 -0.3061  0.0315
   97TMC2    O1 1519   4.420   1.591  17.645 -0.3499 -0.2206  0.0701
   97TMC2    O2 1520   4.394   1.220  17.099  0.0982  0.0269 -0.7038
   97TMC2    O5 1521   4.319   1.438  17.063  0.0678  0.0766  0.0675
   97TMC2    H5 1522   4.255   1.493  17.113  0.1792  1.6454 -1.5273
   98MPD2     C 1523   4.057   0.938   0.237 -0.4316  0.3023  0.1770
   98MPD2    C1 1524   4.141   0.885   0.137  0.4688  0.2365  0.0563
   98MPD2    C2 1525   4.163   0.966   0.029 -0.3566  0.4036 -0.6285
   98MPD2    C3 1526   4.116   1.097   0.022 -0.0518 -0.5180  0.1222
   98MPD2    C4 1527   4.031   1.146   0.122 -0.4195  0.3236  0.3081
   98MPD2    C5 1528   4.007   1.066   0.232 -0.7065 -0.2631 -0.0765
   98MPD2     H 1529   4.218   0.925  17.682  0.3392 -1.6395  0.8316
   98MPD2    H1 1530   3.988   1.245   0.123  0.6258  0.7594  1.6253
   98MPD2    H2 1531   4.044   0.883   0.329  2.2651 -0.6269 -0.0198
   98MPD2    H3 1532   3.943   1.093   0.315 -0.2172  2.7766 -0.6708
   98MPD2     N 1533   4.148   1.183  17.658  0.0968  0.1261 -0.1471
   98MPD2    H5 1534   4.096   1.270  17.662  1.4189  0.9147 -0.1653
   98MPD2    N1 1535   4.200   0.760   0.170 -0.7960  0.4166  0.1976
   98MPD2    H7 1536   4.170   0.728   0.261 -0.8589  1.2410  0.4653
   99TMC2    C1 1537   3.447   2.718   1.700  0.0499 -1.0623 -0.4554
   99TMC2    C2 1538   3.512   2.780   1.804 -0.4733  0.2272  0.2314
   99TMC2    C3 1539   3.431   2.861   1.877  0.1263  0.1002 -0.3239
   99TMC2    C4 1540   3.319   2.739   1.658  0.0806  0.1816 -0.2025
   99TMC2    C5 1541   3.244   2.822   1.742 -0.2026  0.1958 -0.2865
   99TMC2    C6 1542   3.304   2.889   1.839 -0.3047 -0.2681 -0.7441
   99TMC2     C 1543   3.541   2.644   1.617 -0.3624  0.3828  0.4943
   99TMC2     O 1544   3.661   2.658   1.620 -0.0983 -0.2151 -0.0963
   99TMC2     H 1545   3.616   2.756   1.820 -0.5246 -0.9302 -1.1434
   99TMC2    H1 1546   3.273   2.708   1.565  1.9505 -1.7031 -0.5005
   99TMC2    H2 1547   3.254   2.972   1.888 -0.9221 -1.5586  0.8030
   99TMC2    C7 1548   3.103   2.845   1.722 -0.5289  0.4775  0.1619
   99TMC2    C8 1549   3.487   2.934   1.993 -0.9635 -0.5186 -0.5807
   99TMC2    O1 1550   3.048   2.947   1.757  0.3877  0.4104  0.4558
   99TMC2    O2 1551   3.605   2.931   2.016 -0.0870  0.3460 -0.0694
   99TMC2    O5 1552   3.405   2.887   2.091 -0.0854  0.6795 -0.3265
   99TMC2    H5 1553   3.316   2.864   2.055  0.4383 -3.0002  0.7402
  100MPD2     C 1554   3.657   2.438   1.439  0.3676 -0.2537 -0.5964
  100MPD2    C1 1555   3.522   2.460   1.450  0.3598 -0.2083  0.2536
  100MPD2    C2 1556   3.433   2.386   1.369  0.3267  0.1453 -0.2204
  100MPD2    C3 1557   3.489   2.287   1.279 -0.4728 -0.2013  0.0207
  100MPD2    C4 1558   3.626   2.259   1.276 -0.2117 -0.5827  0.2486
  100MPD2    C5 1559   3.703   2.338   1.357 -0.4335  0.6242  0.2596
  100MPD2     H 1560   3.326   2.399   1.371  0.3149  0.0114  0.0921
  100MPD2    H1 1561   3.674   2.189   1.208  2.7926  0.0295  1.7031
  100MPD2    H2 1562   3.730   2.498   1.493  2.2553 -0.1843 -3.2200
  100MPD2    H3 1563   3.811   2.327   1.357 -0.5239 -0.2238  0.3945
  100MPD2     N 1564   3.399   2.221   1.201 -0.0121 -0.0107 -0.0997
  100MPD2    H5 1565   3.307   2.262   1.194 -0.1426 -0.2960 -0.0499
  100MPD2    N1 1566   3.466   2.551   1.540 -0.6744  0.4196 -0.0682
  100MPD2    H7 1567   3.365   2.556   1.554 -0.6422 -2.0783  0.9332
  101TMC2    C1 1568   4.274   3.685  13.276  0.7971 -0.1651  0.1418
  101TMC2    C2 1569   4.296   3.772  13.385 -0.2354  0.1761  0.5240
  101TMC2    C3 1570   4.392   3.864  13.364  0.0800  0.3929  0.8860
  101TMC2    C4 1571   4.317   3.702  13.147 -0.1689  0.3314  0.5641
  101TMC2    C5 1572   4.420   3.795  13.143 -0.1253  0.8372 -0.0642
  101TMC2    C6 1573   4.457   3.875  13.245  0.2296 -0.9123  0.4156
  101TMC2     C 1574   4.196   3.569  13.308  0.0043 -0.8190  0.2351
  101TMC2     O 1575   4.133   3.569  13.414 -0.2740 -0.5671  0.0494
  101TMC2     H 1576   4.255   3.754  13.484 -0.4027  3.2238  1.0125
  101TMC2    H1 1577   4.292   3.639  13.063 -1.6945  0.4878  0.9070
  101TMC2    H2 1578   4.547   3.934  13.230  0.2121 -0.3802  2.3768
  101TMC2    C7 1579   4.473   3.823  13.013 -0.4551 -0.6580  0.3171
  101TMC2    C8 1580   4.436   3.947  13.465  0.2166 -0.5640  0.1525
  101TMC2    O1 1581   4.392   3.825  12.920  0.6044 -0.5268  0.0646
  101TMC2    O2 1582   4.553   3.977  13.478 -0.6696  0.2657  0.5070
  101TMC2    O5 1583   4.330   4.012  13.522 -0.0530 -0.3980 -0.0096
  101TMC2    H5 1584   4.243   3.983  13.488 -0.0200 -0.4194 -0.0746
  102MPD2     C 1585   4.135   3.259  13.107  0.3417 -0.1044  0.3947
  102MPD2    C1 1586   4.109   3.359  13.202 -0.1279 -0.3212  0.3763
  102MPD2    C2 1587   3.996   3.345  13.287  0.5899 -0.0845  0.5087
  102MPD2    C3 1588   3.916   3.233  13.281  0.7625  0.1863  0.7144
  102MPD2    C4 1589   3.959   3.130  13.197  0.5703 -0.0361 -1.1129
  102MPD2    C5 1590   4.063   3.146  13.112  0.4926 -0.5826  0.1780
  102MPD2     H 1591   3.971   3.423  13.358 -1.5264  0.5090 -0.9056
  102MPD2    H1 1592   3.912   3.033  13.191  1.9858 -0.7738 -0.2173
  102MPD2    H2 1593   4.217   3.267  13.036  1.2462 -1.7736  1.2630
  102MPD2    H3 1594   4.085   3.066  13.042 -0.0469 -2.9149  2.6911
  102MPD2     N 1595   3.810   3.217  13.369 -0.0815 -0.1323  0.3538
  102MPD2    H5 1596   3.791   3.299  13.426  1.2038  0.8554 -0.6488
  102MPD2    N1 1597   4.202   3.465  13.212 -0.0777  0.4416 -0.2453
  102MPD2    H7 1598   4.275   3.468  13.142 -0.7258  0.3991 -0.9263
  103TMC2    C1 1599   2.304   4.202  12.709  0.3015  0.2599  0.4710
  103TMC2    C2 1600   2.439   4.235  12.697  0.0910  0.2189 -0.4948
  103TMC2    C3 1601   2.492   4.328  12.784 -0.2167  0.6885  0.0352
  103TMC2    C4 1602   2.228   4.251  12.816 -0.0407 -0.2789  0.1696
  103TMC2    C5 1603   2.290   4.325  12.915 -0.2586  0.2020  0.0792
  103TMC2    C6 1604   2.422   4.370  12.896  0.3236  0.2046  0.2917
  103TMC2     C 1605   2.231   4.113  12.618 -0.5804 -0.5355 -0.3519
  103TMC2     O 1606   2.106   4.131  12.616  0.2075  0.0047 -0.1963
  103TMC2     H 1607   2.501   4.219  12.610 -0.1204 -1.5734 -0.3199
  103TMC2    H1 1608   2.136   4.197  12.830  0.9188 -0.8722  4.1040
  103TMC2    H2 1609   2.463   4.434  12.973 -0.7633 -0.7805  1.6919
  103TMC2    C7 1610   2.212   4.345  13.036  0.4063  0.6804 -0.4753
  103TMC2    C8 1611   2.634   4.309  12.814 -0.5498  0.0870 -0.4959
  103TMC2    O1 1612   2.100   4.297  13.029  1.1121  0.0812 -0.5411
  103TMC2    O2 1613   2.689   4.202  12.789  0.6783  0.8335 -0.3097
  103TMC2    O5 1614   2.684   4.427  12.861 -0.2598 -0.2534 -0.2176
  103TMC2    H5 1615   2.619   4.501  12.855  1.8613  1.3777 -2.8899
  104MPD2     C 1616   2.359   3.841  12.396  0.2700 -0.0522  0.4489
  104MPD2    C1 1617   2.260   3.917  12.462  0.1820  0.0650  0.0614
  104MPD2    C2 1618   2.131   3.883  12.440  0.5355  0.2042  0.6395
  104MPD2    C3 1619   2.099   3.776  12.354 -0.3183 -0.3697 -0.7101
  104MPD2    C4 1620   2.196   3.701  12.294  0.1977  0.2851  0.6037
  104MPD2    C5 1621   2.324   3.737  12.316 -0.3377  0.7192  0.8785
  104MPD2     H 1622   2.043   3.920  12.492  0.4562  0.5472  0.2563
  104MPD2    H1 1623   2.177   3.631  12.214 -1.4692  1.6401 -0.1805
  104MPD2    H2 1624   2.465   3.862  12.400  0.4807 -0.5276 -2.3184
  104MPD2    H3 1625   2.403   3.679  12.269 -0.8690  2.0762 -1.6469
  104MPD2     N 1626   1.964   3.761  12.308 -0.0031  0.5454  0.8133
  104MPD2    H5 1627   1.906   3.841  12.332  0.0809  0.6858  0.5549
  104MPD2    N1 1628   2.309   4.020  12.550 -0.2568  0.6350 -0.0332
  104MPD2    H7 1629   2.408   4.027  12.571 -0.5176  1.2290  0.9529
  105TMC2    C1 1630   2.970   2.896   0.020  0.6450  0.2117  0.1613
  105TMC2    C2 1631   3.006   3.024   0.036  0.5002  0.0300 -0.1592
  105TMC2    C3 1632   2.962   3.096   0.143 -0.3660  0.1638 -0.3832
  105TMC2    C4 1633   2.888   2.836   0.109 -0.0119 -0.3973 -0.4713
  105TMC2    C5 1634   2.852   2.903   0.218  0.0081 -0.5775  0.1092
  105TMC2    C6 1635   2.887   3.035   0.242 -0.2079  0.3907 -0.4384
  105TMC2     C 1636   3.046   2.802  17.677  0.6251  0.0748  0.2296
  105TMC2     O 1637   3.055   2.688  17.718  0.2480 -0.7143  0.4434
  105TMC2     H 1638   3.076   3.069  17.703  0.4417 -1.1424 -0.9783
  105TMC2    H1 1639   2.856   2.736   0.085  2.3354 -1.6604  1.6196
  105TMC2    H2 1640   2.853   3.101   0.321  0.8408  0.9577 -0.4568
  105TMC2    C7 1641   2.759   2.838   0.306  0.3355 -0.5500  0.0032
  105TMC2    C8 1642   3.005   3.232   0.158  0.0245  0.0606 -0.4693
  105TMC2    O1 1643   2.700   2.742   0.262 -0.1863 -0.6004 -0.2263
  105TMC2    O2 1644   2.955   3.314   0.238 -0.0941 -0.3084  0.1853
  105TMC2    O5 1645   3.136   3.236   0.120 -0.3217  0.8718  0.1664
  105TMC2    H5 1646   3.178   3.151   0.097 -1.9855  0.2225 -0.4483
  106MPD2     C 1647   3.368   2.690  17.287 -0.4804 -0.3083  0.6173
  106MPD2    C1 1648   3.355   2.822  17.300 -0.1536  0.3173  0.1825
  106MPD2    C2 1649   3.274   2.879  17.397  0.1541 -0.1855  0.1559
  106MPD2    C3 1650   3.200   2.796  17.479  0.9104 -0.1676 -0.9743
  106MPD2    C4 1651   3.201   2.659  17.461 -0.2294 -1.2009  0.1848
  106MPD2    C5 1652   3.283   2.609  17.358 -0.8527 -0.4962  0.6746
  106MPD2     H 1653   3.270   2.986  17.415 -2.0158  0.1635 -2.4083
  106MPD2    H1 1654   3.130   2.590  17.506 -1.2148 -0.5431 -0.3557
  106MPD2    H2 1655   3.418   2.644  17.202 -0.9168  0.2903  0.0314
  106MPD2    H3 1656   3.288   2.502  17.341 -2.1790 -0.4658  0.1100
  106MPD2     N 1657   3.114   2.859  17.572  0.5104 -0.1033  0.4286
  106MPD2    H5 1658   3.117   2.960  17.565  0.7224 -0.1685 -0.3950
  106MPD2    N1 1659   3.444   2.913  17.240  0.3470 -0.7177  0.0066
  106MPD2    H7 1660   3.429   3.010  17.266  1.4334  0.0167 -2.1736
  107TMC2    C1 1661   3.269   2.927  11.417  0.1584  0.1138  0.3497
  107TMC2    C2 1662   3.333   3.025  11.340 -0.1554  0.5103  0.1168
  107TMC2    C3 1663   3.416   2.962  11.244 -0.5722  0.4257 -0.0086
  107TMC2    C4 1664   3.304   2.797  11.411  0.3833  0.7684  0.1369
  107TMC2    C5 1665   3.395   2.746  11.326 -0.0032  0.6850  0.2584
  107TMC2    C6 1666   3.443   2.831  11.234 -0.1691  0.3999  0.4263
  107TMC2     C 1667   3.227   2.965  11.555 -0.3711 -0.2135  0.2819
  107TMC2     O 1668   3.181   2.873  11.619  0.0455 -0.2944  0.1062
  107TMC2     H 1669   3.300   3.128  11.331  1.9045  1.3858  2.6790
  107TMC2    H1 1670   3.261   2.723  11.477 -0.1878  0.1357 -0.9474
  107TMC2    H2 1671   3.504   2.803  11.149 -0.2338  0.6134  0.3087
  107TMC2    C7 1672   3.398   2.606  11.291 -0.2616  0.3991 -0.0680
  107TMC2    C8 1673   3.489   3.047  11.152  0.3719  0.3521  1.4110
  107TMC2    O1 1674   3.303   2.533  11.318  0.0426  0.6431  0.3362
  107TMC2    O2 1675   3.533   2.995  11.050  0.2601 -0.1990 -0.6973
  107TMC2    O5 1676   3.508   3.173  11.202  0.3209  0.2974 -0.1253
  107TMC2    H5 1677   3.467   3.184  11.291 -4.0238 -1.3413 -1.9492
  108MPD2     C 1678   3.326   3.264  11.751 -0.3659  0.3248 -0.1648
  108MPD2    C1 1679   3.276   3.136  11.729  0.3616  0.6814  0.3105
  108MPD2    C2 1680   3.212   3.070  11.838 -0.8561 -0.3744 -0.4739
  108MPD2    C3 1681   3.224   3.127  11.967 -0.4939 -0.6591  0.2298
  108MPD2    C4 1682   3.285   3.247  11.989 -0.0097 -0.5216  0.5826
  108MPD2    C5 1683   3.330   3.317  11.880 -0.3284 -0.0128  0.0189
  108MPD2     H 1684   3.157   2.977  11.825 -0.1899 -1.1635  2.3437
  108MPD2    H1 1685   3.281   3.285  12.090 -2.0924  1.0446 -0.0873
  108MPD2    H2 1686   3.366   3.327  11.672 -0.6967  0.7147 -0.0241
  108MPD2    H3 1687   3.375   3.414  11.898 -1.4196  0.0146  2.5330
  108MPD2     N 1688   3.178   3.057  12.081 -0.2690  0.4625 -0.4087
  108MPD2    H5 1689   3.213   3.087  12.171 -3.0605  1.9794  0.1639
  108MPD2    N1 1690   3.270   3.090  11.593  0.1336 -0.1294  0.3648
  108MPD2    H7 1691   3.315   3.144  11.519  0.4737 -1.9130 -0.7271
  109TMC2    C1 1692   3.205   0.105   0.288 -0.7758 -0.4833  0.1607
  109TMC2    C2 1693   3.139   0.221   0.329  0.2006 -0.6020 -0.2166
  109TMC2    C3 1694   3.208   0.339   0.327 -0.6461 -0.4222  0.1281
  109TMC2    C4 1695   3.332   0.103   0.236  0.5167 -0.1825  0.7867
  109TMC2    C5 1696   3.399   0.222   0.235  0.0311 -0.6465  0.0002
  109TMC2    C6 1697   3.336   0.336   0.276 -0.5458 -0.0987  0.0575
  109TMC2     C 1698   3.144   4.715   0.317  0.3013  0.7498 -0.1756
  109TMC2     O 1699   3.184   4.622   0.249  0.3183 -1.0692  0.0882
  109TMC2     H 1700   3.031   0.215   0.328  0.2166 -1.1619  1.2775
  109TMC2    H1 1701   3.399   0.017   0.231  0.4397 -0.1189 -1.2131
  109TMC2    H2 1702   3.400   0.423   0.284  1.5269 -1.5292 -1.0212
  109TMC2    C7 1703   3.547   0.233   0.225 -0.0910 -0.3128 -0.0408
  109TMC2    C8 1704   3.142   0.465   0.354 -0.6312 -0.0653 -0.8529
  109TMC2    O1 1705   3.607   0.316   0.294  0.0602  0.4374  0.2635
  109TMC2    O2 1706   3.187   0.569   0.301  0.6908  0.0331  0.2142
  109TMC2    O5 1707   3.033   0.453   0.430 -0.1631  0.3401 -0.1846
  109TMC2    H5 1708   3.007   0.360   0.450  2.5661 -1.1655 -3.8179
  110MPD2     C 1709   2.849   4.391   0.581  0.4359  0.2943 -0.0296
  110MPD2    C1 1710   2.830   4.514   0.635  0.5791  0.3769  0.0941
  110MPD2    C2 1711   2.896   4.621   0.573  0.0305  0.6526 -0.6651
  110MPD2    C3 1712   2.978   4.605   0.457  0.4963 -0.0884  0.2472
  110MPD2    C4 1713   2.999   4.473   0.416  0.9954 -0.2067  0.1337
  110MPD2    C5 1714   2.939   4.371   0.479  0.2052  0.2574 -0.2860
  110MPD2     H 1715   2.907   4.716   0.624 -1.1982 -0.1343  1.0713
  110MPD2    H1 1716   3.072   4.444   0.341  1.7059 -0.5904  0.9768
  110MPD2    H2 1717   2.802   4.301   0.620 -2.0026  1.2023 -0.8847
  110MPD2    H3 1718   2.941   4.269   0.443  0.7510 -0.1335  0.8715
  110MPD2     N 1719   3.055   4.718   0.416  0.0159 -0.0587  0.6318
  110MPD2    H5 1720   3.035   0.073   0.459 -0.6451 -0.7339  1.7249
  110MPD2    N1 1721   2.778   4.527   0.762 -0.7179  0.0906 -0.6615
  110MPD2    H7 1722   2.741   4.444   0.808 -1.0002 -0.4709 -1.8847
  111TMC2    C1 1723   3.383   4.478  12.039  0.0013  0.3887 -0.4024
  111TMC2    C2 1724   3.308   4.363  12.046  0.9013 -0.5706  0.1849
  111TMC2    C3 1725   3.367   4.258  12.112  0.3465  0.2108  0.2032
  111TMC2    C4 1726   3.518   4.474  12.075 -0.7354 -0.3298  0.1597
  111TMC2    C5 1727   3.572   4.361  12.134  0.0784 -0.6902 -0.6559
  111TMC2    C6 1728   3.500   4.248  12.140  0.1279 -0.8107  0.5891
  111TMC2     C 1729   3.332   4.594  11.972 -0.4893  0.6679 -0.0104
  111TMC2     O 1730   3.414   4.665  11.911  0.5009 -0.0728  0.2373
  111TMC2     H 1731   3.208   4.356  12.005  0.9687  0.1292 -0.0995
  111TMC2    H1 1732   3.574   4.566  12.065  0.6819 -1.1377  0.6769
  111TMC2    H2 1733   3.545   4.162  12.189 -0.7577  0.1201  3.0545
  111TMC2    C7 1734   3.719   4.353  12.151  0.3945 -0.5411 -0.6151
  111TMC2    C8 1735   3.291   4.127  12.104 -0.4841  0.0470  0.1404
  111TMC2    O1 1736   3.767   4.255  12.206  0.2177  0.1725 -0.0403
  111TMC2    O2 1737   3.194   4.127  12.029 -0.2826 -0.0988  0.0508
  111TMC2    O5 1738   3.329   4.037  12.197  0.1826 -0.2662 -0.7536
  111TMC2    H5 1739   3.394   4.070  12.262 -0.9638  0.9089 -0.2136
  112MPD2     C 1740   2.923   0.140  11.829 -0.9629  0.1444 -0.3096
  112MPD2    C1 1741   3.050   0.136  11.775  0.5024  0.0631 -0.8189
  112MPD2    C2 1742   3.144   0.058  11.840 -0.2883  0.7732  0.1348
  112MPD2    C3 1743   3.108   4.701  11.943  0.0414  0.2981  0.5837
  112MPD2    C4 1744   2.980   4.700  11.988  0.3401  0.3773  0.0381
  112MPD2    C5 1745   2.897   0.054  11.930 -0.0827 -0.6507  0.1131
  112MPD2     H 1746   3.244   0.046  11.799  0.0528  2.0650  0.6009
  112MPD2    H1 1747   2.938   4.634  12.063 -1.1030  2.0063  0.6546
  112MPD2    H2 1748   2.860   0.222  11.795 -1.9078 -0.5382 -0.1885
  112MPD2    H3 1749   2.795   0.061  11.967 -0.2153 -4.3370  0.4598
  112MPD2     N 1750   3.198   4.608  11.996 -1.1937  1.0218 -0.0823
  112MPD2    H5 1751   3.161   4.542  12.064  1.1352 -1.4650 -1.2014
  112MPD2    N1 1752   3.100   0.219  11.672 -0.1208  0.2855  0.4237
  112MPD2    H7 1753   3.202   0.215  11.667 -0.0799  1.8470  0.1110
  113TMC2    C1 1754   1.258   1.649   0.422 -0.2224 -0.7761  0.0501
  113TMC2    C2 1755   1.305   1.591   0.308  0.0755  0.9027 -0.3240
  113TMC2    C3 1756   1.235   1.484   0.263 -0.5909  0.1979  0.5540
  113TMC2    C4 1757   1.149   1.593   0.489  0.0853  0.3520  0.5197
  113TMC2    C5 1758   1.085   1.484   0.436 -0.1893 -0.4009 -0.7532
  113TMC2    C6 1759   1.133   1.424   0.324 -0.2011  0.2042 -0.1885
  113TMC2     C 1760   1.339   1.751   0.486 -0.0504 -0.2435 -0.2316
  113TMC2     O 1761   1.426   1.802   0.422  0.0639 -0.0693 -0.3274
  113TMC2     H 1762   1.377   1.638   0.242  2.1295 -0.2061  1.1467
  113TMC2    H1 1763   1.106   1.639   0.577 -0.2574 -1.5796  1.3612
  113TMC2    H2 1764   1.076   1.347   0.275 -0.8581  0.7235 -0.2382
  113TMC2    C7 1765   0.994   1.396   0.503 -0.3744 -0.0636  0.7911
  113TMC2    C8 1766   1.253   1.441   0.125  0.3700  0.6621 -0.7382
  113TMC2    O1 1767   0.944   1.297   0.449  0.2286  0.9840  0.2879
  113TMC2    O2 1768   1.157   1.428   0.052  0.2406 -0.1727  0.2656
  113TMC2    O5 1769   1.351   1.345   0.138  0.0745  0.3044 -0.1426
  113TMC2    H5 1770   1.409   1.345   0.217 -0.1216 -0.9243 -0.0049
  114MPD2     C 1771   1.543   1.979   0.893  0.1198 -0.0780  0.0445
  114MPD2    C1 1772   1.544   2.020   0.764  1.3996  0.1895  0.0637
  114MPD2    C2 1773   1.484   1.939   0.671 -0.6020  0.0731 -0.5081
  114MPD2    C3 1774   1.400   1.838   0.710 -0.0526  0.8232  0.4729
  114MPD2    C4 1775   1.393   1.808   0.842  0.7322 -1.0192 -0.0011
  114MPD2    C5 1776   1.461   1.883   0.932  0.1193  0.1825 -0.6715
  114MPD2     H 1777   1.494   1.961   0.565  0.3351  0.4000 -0.3430
  114MPD2    H1 1778   1.340   1.721   0.878 -1.5251 -0.4829 -2.0625
  114MPD2    H2 1779   1.598   2.031   0.971  0.7894 -0.1176 -0.4017
  114MPD2    H3 1780   1.445   1.867   1.038 -0.1631  1.0379 -0.5869
  114MPD2     N 1781   1.330   1.750   0.625 -0.0946 -0.3398  0.3720
  114MPD2    H5 1782   1.275   1.680   0.675 -2.5188  1.3610  0.0710
  114MPD2    N1 1783   1.630   2.121   0.715  0.0745  0.2505 -0.6700
  114MPD2    H7 1784   1.617   2.138   0.616 -2.1482 -0.3536 -0.4906
  115TMC2    C1 1785   2.771   0.104  17.593  0.0796 -0.2405 -0.0646
  115TMC2    C2 1786   2.904   0.065  17.596 -0.6807  0.0047 -0.2225
  115TMC2    C3 1787   2.994   0.149  17.540  0.0343 -0.5618  0.7444
  115TMC2    C4 1788   2.725   0.227  17.557  0.3577 -0.6993  0.3017
  115TMC2    C5 1789   2.820   0.310  17.504  0.5466 -0.4059 -1.1923
  115TMC2    C6 1790   2.952   0.268  17.495  0.2265 -0.3328  0.1574
  115TMC2     C 1791   2.684   4.721  17.582 -1.0607  0.2165 -0.7903
  115TMC2     O 1792   2.731   4.633  17.518  0.3590  0.3916  0.7413
  115TMC2     H 1793   2.927   4.699  17.632 -0.3507 -0.6010 -2.0974
  115TMC2    H1 1794   2.620   0.242  17.536  0.6277  2.2039  1.0515
  115TMC2    H2 1795   3.028   0.328  17.445 -2.6782  5.0741  2.3236
  115TMC2    C7 1796   2.783   0.435  17.447 -0.2918  0.1570 -0.1467
  115TMC2    C8 1797   3.128   0.135  17.596  0.0310 -0.2473  0.1121
  115TMC2    O1 1798   2.699   0.504  17.502 -0.1279  0.1818 -0.3068
  115TMC2    O2 1799   3.193   0.028  17.593  0.3796 -0.2326 -0.5167
  115TMC2    O5 1800   3.174   0.251  17.647 -0.4836 -0.1943 -0.4295
  115TMC2    H5 1801   3.109   0.325  17.645  2.0506  2.0016 -2.1555
  116MPD2     C 1802   2.241   4.483  17.685 -0.6263 -0.5642 -0.1679
  116MPD2    C1 1803   2.351   4.435  17.616  1.0424 -0.4608 -0.0214
  116MPD2    C2 1804   2.455   4.524  17.600 -0.4423  0.4306  0.2036
  116MPD2    C3 1805   2.453   4.657  17.649  0.2466  0.1551  0.2854
  116MPD2    C4 1806   2.341   4.688  17.724  0.5762  0.2472  0.6222
  116MPD2    C5 1807   2.239   4.600   0.006  0.3865 -0.0724 -0.9946
  116MPD2     H 1808   2.549   4.491  17.557 -1.2033 -1.9585  0.3633
  116MPD2    H1 1809   2.335   0.050   0.035  1.3127  0.2889  0.6269
  116MPD2    H2 1810   2.158   4.418  17.707  0.2831 -2.0226 -1.0347
  116MPD2    H3 1811   2.153   4.625   0.067 -0.1040 -0.5012 -1.5128
  116MPD2     N 1812   2.565   0.008  17.641 -0.5148 -0.5368 -0.7294
  116MPD2    H5 1813   2.545   0.097  17.685  2.2654 -0.9528  1.3831
  116MPD2    N1 1814   2.346   4.308  17.552  0.0383  0.2784 -0.1224
  116MPD2    H7 1815   2.266   4.245  17.555 -0.8497  1.4696  1.0853
  117TMC2    C1 1816   1.780   1.807  14.058 -0.9334 -0.1130 -0.0029
  117TMC2    C2 1817   1.840   1.790  14.180 -0.1375 -0.7443  0.2310
  117TMC2    C3 1818   1.905   1.906  14.225  0.0643  0.1569 -0.5472
  117TMC2    C4 1819   1.783   1.923  13.985 -0.0523  0.0482  0.2149
  117TMC2    C5 1820   1.848   2.033  14.037  0.3036 -0.2848 -0.2749
  117TMC2    C6 1821   1.909   2.030  14.162 -0.5004  0.4002  0.2085
  117TMC2     C 1822   1.671   1.714  14.038 -0.4999  0.0505 -0.2975
  117TMC2     O 1823   1.690   1.610  14.098  0.9837  0.5978 -0.2826
  117TMC2     H 1824   1.817   1.711  14.251 -0.0305  1.9136  3.2253
  117TMC2    H1 1825   1.760   1.919  13.879  1.2739  1.3649 -0.1118
  117TMC2    H2 1826   1.958   2.110  14.215 -0.7707  2.1090 -2.1512
  117TMC2    C7 1827   1.885   2.148  13.957  0.1061 -0.0505 -0.5085
  117TMC2    C8 1828   1.985   1.876  14.350  0.7357  0.9133 -0.6822
  117TMC2    O1 1829   1.988   2.208  13.982 -0.0159 -0.2440  0.1257
  117TMC2    O2 1830   1.963   1.767  14.399 -0.1789 -0.3580  0.0641
  117TMC2    O5 1831   2.099   1.946  14.358 -0.1345  0.2931  0.3036
  117TMC2    H5 1832   2.106   2.026  14.302  1.5058 -1.5197 -2.0805
  118MPD2     C 1833   1.658   2.354  13.746  0.1426 -0.6125  0.2969
  118MPD2    C1 1834   1.777   2.294  13.783 -0.3371  0.0516  0.2030
  118MPD2    C2 1835   1.895   2.339  13.724 -0.1067 -0.0341 -0.7232
  118MPD2    C3 1836   1.907   2.444  13.644  0.4862 -0.1457  0.7883
  118MPD2    C4 1837   1.785   2.499  13.608  0.6321  0.4460  0.2471
  118MPD2    C5 1838   1.669   2.456  13.658  0.2888 -0.6394  0.1386
  118MPD2     H 1839   1.991   2.295  13.748  0.7690  3.2029  1.7378
  118MPD2    H1 1840   1.777   2.581  13.538 -0.4505  1.1633  1.2175
  118MPD2    H2 1841   1.559   2.315  13.767  0.0273 -0.2087  0.4948
  118MPD2    H3 1842   1.579   2.501  13.617  0.6764  2.2879  2.5014
  118MPD2     N 1843   2.028   2.495  13.591 -0.3923  0.6667  0.6659
  118MPD2    H5 1844   2.023   2.556  13.510 -2.0221  0.6082  0.7225
  118MPD2    N1 1845   1.772   2.189  13.884 -1.0404 -0.8966 -0.1791
  118MPD2    H7 1846   1.682   2.154  13.917 -1.5388  1.4611  0.9136
  119TMC2    C1 1847   3.647   2.787  13.648 -0.1645 -0.0947 -0.0258
  119TMC2    C2 1848   3.624   2.791  13.512 -0.5080  0.3520  0.3171
  119TMC2    C3 1849   3.516   2.722  13.462  0.0629  0.9839 -0.3678
  119TMC2    C4 1850   3.568   2.717  13.740  0.2017  0.3942 -0.3038
  119TMC2    C5 1851   3.471   2.639  13.684 -1.1448 -0.5955 -0.6694
  119TMC2    C6 1852   3.446   2.635  13.544 -0.8075 -0.6251  0.1892
  119TMC2     C 1853   3.740   2.881  13.706 -0.2336 -0.4044 -0.3914
  119TMC2     O 1854   3.715   2.919  13.822 -0.9101  0.5218 -0.3703
  119TMC2     H 1855   3.676   2.847  13.434  1.5901  0.0680  1.4909
  119TMC2    H1 1856   3.572   2.731  13.847 -0.2243 -0.5914 -0.1550
  119TMC2    H2 1857   3.374   2.567  13.500  0.6673 -0.3592 -2.6516
  119TMC2    C7 1858   3.445   2.509  13.739 -0.5944  0.0552  0.1674
  119TMC2    C8 1859   3.520   2.702  13.318 -0.6468 -0.3382  0.0981
  119TMC2    O1 1860   3.364   2.443  13.676  0.2681 -0.0944  0.1456
  119TMC2    O2 1861   3.505   2.797  13.242 -1.1060 -0.2711 -0.3820
  119TMC2    O5 1862   3.549   2.579  13.286 -0.2995 -0.3159  0.5139
  119TMC2    H5 1863   3.566   2.522  13.364  1.0197 -0.9896 -0.2575
  120MPD2     C 1864   4.091   3.265  13.649 -0.1432  0.3706  0.3014
  120MPD2    C1 1865   4.004   3.240  13.749 -0.4802 -0.1131  0.3728
  120MPD2    C2 1866   3.911   3.133  13.737  0.3589  0.2569 -0.0794
  120MPD2    C3 1867   3.926   3.032  13.642 -0.9360  0.0450 -0.3320
  120MPD2    C4 1868   4.032   3.054  13.550  0.2076  0.8848  0.1931
  120MPD2    C5 1869   4.111   3.164  13.551 -0.7959  0.3917  0.1887
  120MPD2     H 1870   3.826   3.142  13.803 -0.5611  1.2870 -1.4010
  120MPD2    H1 1871   4.046   2.986  13.467  0.2396  1.0427  0.0680
  120MPD2    H2 1872   4.149   3.357  13.649  0.2495  0.1209 -2.3239
  120MPD2    H3 1873   4.184   3.168  13.470 -1.8396 -1.4044 -0.8257
  120MPD2     N 1874   3.839   2.924  13.625  0.1217  0.3289  0.0931
  120MPD2    H5 1875   3.846   2.878  13.535  2.1168 -0.4004  0.6238
  120MPD2    N1 1876   4.002   3.329  13.861 -0.1264 -0.2002  0.1282
  120MPD2    H7 1877   4.037   3.424  13.847  0.9457 -0.5967  0.0919
  121TMC2    C1 1878   1.331   0.067  14.486 -0.6296 -0.1200  0.9658
  121TMC2    C2 1879   1.318   4.693  14.567 -0.0559 -0.0126 -0.2876
  121TMC2    C3 1880   1.191   4.676  14.612 -0.1468 -0.1577  0.6216
  121TMC2    C4 1881   1.225   0.142  14.430 -0.2847  0.1916  0.3306
  121TMC2    C5 1882   1.102   0.099  14.456 -0.2717  0.3340  0.7931
  121TMC2    C6 1883   1.079   0.003  14.558  0.7341  0.5883  0.2899
  121TMC2     C 1884   1.454   0.059  14.406 -0.0997 -0.6521 -0.0813
  121TMC2     O 1885   1.560   0.054  14.468 -0.0863  0.2783 -0.1778
  121TMC2     H 1886   1.412   4.649  14.598  0.7159  1.8996  0.1271
  121TMC2    H1 1887   1.231   0.218  14.353  0.2193 -0.0707  0.1068
  121TMC2    H2 1888   0.977   4.706  14.575  0.2035  1.3235 -1.5541
  121TMC2    C7 1889   1.042   0.057  14.332  0.1582  0.1440 -0.8271
  121TMC2    C8 1890   1.186   4.558  14.701  0.3884 -0.1541  0.4648
  121TMC2    O1 1891   1.113   4.716  14.263 -0.8825 -0.1856  0.3507
  121TMC2    O2 1892   1.283   4.485  14.715  0.0151 -0.3894  0.1749
  121TMC2    O5 1893   1.056   4.525  14.699  0.4813 -0.0717  0.0077
  121TMC2    H5 1894   0.983   4.588  14.714  1.0399  0.8029 -0.8947
  122MPD2     C 1895   1.640   0.036  14.166 -0.7252 -0.0773  0.1473
  122MPD2    C1 1896   1.502   0.025  14.163 -0.6383  0.2366 -0.4763
  122MPD2    C2 1897   1.445   0.014  14.040 -0.6944  0.1285  0.2347
  122MPD2    C3 1898   1.524   0.009  13.926 -0.1048  0.1259  0.8254
  122MPD2    C4 1899   1.659   0.008  13.933  0.4351  0.4737 -0.0209
  122MPD2    C5 1900   1.720   0.030  14.056 -0.8288  0.0910 -0.1364
  122MPD2     H 1901   1.337   0.011  14.032 -0.7138  0.7348  0.2872
  122MPD2    H1 1902   1.721   0.036  13.849  2.3921 -2.2079  0.5228
  122MPD2    H2 1903   1.686   0.050  14.263 -2.6968  1.9332  0.7861
  122MPD2    H3 1904   1.826   0.051  14.056 -0.7513 -0.3195  0.4218
  122MPD2     N 1905   1.457   4.733  13.800 -0.3484 -0.0858  0.3187
  122MPD2    H5 1906   1.521   4.723  13.722 -0.9757 -0.4380 -0.1553
  122MPD2    N1 1907   1.422   0.043  14.274  0.3855  0.7507 -0.0774
  122MPD2    H7 1908   1.323   0.051  14.252 -0.1521 -1.0200  1.7483
  123TMC2    C1 1909   4.012   3.512  10.702  0.3510  0.3837  0.2722
  123TMC2    C2 1910   4.031   3.626  10.785  0.0352 -0.5993  0.4667
  123TMC2    C3 1911   4.158   3.684  10.797  1.1583 -0.6672  0.8093
  123TMC2    C4 1912   4.117   3.470  10.619  0.0475  1.0461  0.6202
  123TMC2    C5 1913   4.236   3.536  10.632 -0.2943 -0.5705  0.3165
  123TMC2    C6 1914   4.265   3.639  10.718  0.9687 -0.0313  1.0756
  123TMC2     C 1915   3.882   3.463  10.677  0.2685  0.1879  0.1256
  123TMC2     O 1916   3.786   3.535  10.687 -0.0818 -0.0387 -0.2173
  123TMC2     H 1917   3.947   3.660  10.844  0.5037  0.2441  0.6422
  123TMC2    H1 1918   4.107   3.403  10.534 -1.7240  3.4263 -1.0317
  123TMC2    H2 1919   4.361   3.690  10.723  0.5089  1.0275 -0.8101
  123TMC2    C7 1920   4.344   3.453  10.571 -0.3615  0.5893  0.2224
  123TMC2    C8 1921   4.173   3.820  10.851 -0.2681 -0.0917 -0.3410
  123TMC2    O1 1922   4.325   3.337  10.568  0.1456  0.5196 -0.5792
  123TMC2    O2 1923   4.281   3.875  10.870  0.2757 -0.0147  0.1916
  123TMC2    O5 1924   4.056   3.876  10.871 -0.0488 -0.2279 -0.5524
  123TMC2    H5 1925   3.969   3.843  10.841 -0.0452  0.9108 -1.8344
  124MPD2     C 1926   3.581   3.071  10.564  0.2168  0.1548  0.1250
  124MPD2    C1 1927   3.712   3.027  10.557  0.8274  0.4831 -0.5274
  124MPD2    C2 1928   3.813   3.118  10.580  1.0390  0.1082 -0.0901
  124MPD2    C3 1929   3.780   3.249  10.601 -0.0356 -0.6201  0.7027
  124MPD2    C4 1930   3.649   3.290  10.596 -0.7841 -0.1741 -0.3218
  124MPD2    C5 1931   3.548   3.199  10.580  0.1781 -0.2222 -0.0183
  124MPD2     H 1932   3.916   3.089  10.592  0.3471 -1.8754  1.0642
  124MPD2    H1 1933   3.619   3.394  10.597 -0.9794 -0.2280 -0.5700
  124MPD2    H2 1934   3.503   3.000  10.538 -0.7539  0.7181  1.4497
  124MPD2    H3 1935   3.446   3.229  10.557  0.4359  0.8076  0.1534
  124MPD2     N 1936   3.887   3.339  10.631 -0.3055  0.0374  0.4302
  124MPD2    H5 1937   3.977   3.291  10.625  0.4655  1.4648  0.6175
  124MPD2    N1 1938   3.743   2.888  10.529  0.9877  0.2239  0.0446
  124MPD2    H7 1939   3.663   2.830  10.508  2.1617 -2.2112  2.1649
  125TMC2    C1 1940   0.067   3.938  10.141 -0.3709 -0.5974 -0.8034
  125TMC2    C2 1941   0.108   3.811  10.176 -0.1027  0.1825  0.1613
  125TMC2    C3 1942   0.241   3.793  10.150 -0.1307 -0.3392  0.5407
  125TMC2    C4 1943   0.154   4.037  10.105  0.5808 -0.4617  0.5538
  125TMC2    C5 1944   0.282   4.010  10.083  0.3007  0.2297  0.1112
  125TMC2    C6 1945   0.330   3.881  10.098  0.2575  0.1533  0.4080
  125TMC2     C 1946   4.665   3.970  10.184  0.2761  0.0429  0.4550
  125TMC2     O 1947   4.607   3.891  10.259  0.2833  0.7016  0.8156
  125TMC2     H 1948   0.036   3.745  10.222  1.0640 -0.0811  1.5946
  125TMC2    H1 1949   0.124   4.141  10.090 -2.2809 -1.6465 -1.8373
  125TMC2    H2 1950   0.431   3.851  10.073 -0.2778 -1.9492  0.8130
  125TMC2    C7 1951   0.363   4.115  10.032 -0.7251  0.1878 -0.5458
  125TMC2    C8 1952   0.301   3.660  10.164 -0.0399  0.6511 -0.0588
  125TMC2    O1 1953   0.339   4.226  10.071 -0.6038 -0.6285 -1.0405
  125TMC2    O2 1954   0.243   3.556  10.136  0.1966  0.3367  0.2867
  125TMC2    O5 1955   0.388   3.678  10.260  0.2691 -0.0769 -0.2467
  125TMC2    H5 1956   0.378   3.766  10.301  1.2304 -0.0283 -0.1184
  126MPD1     C 1957   4.240   4.271  10.191 -0.3435 -1.2326 -0.0179
  126MPD1    C1 1958   4.331   4.332  10.110 -0.3333 -0.3065  0.5871
  126MPD1    C2 1959   4.447   4.257  10.088  0.3484  0.3826 -0.9450
  126MPD1    C3 1960   4.478   4.136  10.148 -0.3319  0.3016 -0.4805
  126MPD1    C4 1961   4.388   4.085  10.235  0.2296 -0.5660  0.2588
  126MPD1    C5 1962   4.271   4.158  10.255 -0.4134 -0.4447 -0.9214
  126MPD1     H 1963   4.512   4.298  10.012 -2.5979  0.1116 -3.6185
  126MPD1    H1 1964   4.399   3.991  10.288  0.4261  0.7283  2.4965
  126MPD1    H2 1965   4.150   4.327  10.214  0.6567 -1.0628  3.3971
  126MPD1    H3 1966   4.200   4.099  10.311  0.2268 -1.3011 -0.9996
  126MPD1     N 1967   4.609   4.081  10.123 -0.2651 -0.2145  0.2745
  126MPD1    H5 1968   4.664   4.114  10.044  0.1017 -1.6936 -0.0882
  126MPD1    N1 1969   4.304   4.449  10.033  0.2930 -0.3987  0.6425
  126MPD1    H6 1970   4.252   4.528  10.071  0.5661 -0.5884  1.4116
  126MPD1    H7 1971   4.392   4.491  10.003  0.6063  0.5506  2.9598
  127TMC2    C1 1972   1.492   3.526  10.074  0.3069 -0.4573  0.0828
  127TMC2    C2 1973   1.520   3.571  10.201 -0.8819 -0.0140 -0.7871
  127TMC2    C3 1974   1.438   3.519  10.300  0.2940 -0.3155  0.0052
  127TMC2    C4 1975   1.390   3.440  10.047  1.0768  0.9545  0.0710
  127TMC2    C5 1976   1.315   3.390  10.148  0.2003 -0.0549 -0.1696
  127TMC2    C6 1977   1.343   3.423  10.281  0.1234 -0.0845 -0.1041
  127TMC2     C 1978   1.548   3.601   9.968 -0.5588 -0.7252  0.5091
  127TMC2     O 1979   1.581   3.716   9.981  0.0120  0.0736 -0.1939
  127TMC2     H 1980   1.586   3.656  10.214 -0.3959 -0.2431 -1.7739
  127TMC2    H1 1981   1.361   3.420   9.944  2.2113  1.3059 -0.3269
  127TMC2    H2 1982   1.277   3.398  10.363 -1.4603  0.7235 -1.1142
  127TMC2    C7 1983   1.209   3.287  10.115  0.5293  0.4373 -0.1450
  127TMC2    C8 1984   1.463   3.571  10.433  0.2326 -0.4323  0.5141
  127TMC2    O1 1985   1.220   3.223  10.011  0.2784  0.0917 -0.0127
  127TMC2    O2 1986   1.376   3.549  10.519 -0.0860  0.3983 -0.0226
  127TMC2    O5 1987   1.597   3.555  10.452  0.2409  0.0877 -0.5267
  127TMC2    H5 1988   1.658   3.563  10.376  0.0729  0.4312 -0.6261
  128MPD2     C 1989   1.621   3.464   9.637 -0.2148 -0.8786  0.0404
  128MPD2    C1 1990   1.613   3.561   9.729 -0.1221 -0.0576  1.1124
  128MPD2    C2 1991   1.654   3.689   9.694 -0.7260 -0.1601  0.0696
  128MPD2    C3 1992   1.696   3.724   9.564 -0.0258 -0.0645  0.2445
  128MPD2    C4 1993   1.706   3.620   9.474  0.0087  0.9256 -0.5132
  128MPD2    C5 1994   1.674   3.496   9.513 -0.0188  0.5239  0.5283
  128MPD2     H 1995   1.656   3.762   9.774 -1.8551  1.5858 -1.5223
  128MPD2    H1 1996   1.740   3.628   9.371  0.7554  1.0819 -0.2553
  128MPD2    H2 1997   1.584   3.365   9.659 -2.5417  0.2415  1.0873
  128MPD2    H3 1998   1.676   3.419   9.437  3.2346  0.9107  0.2238
  128MPD2     N 1999   1.718   3.861   9.534  0.1252  0.1957  0.2397
  128MPD2    H5 2000   1.721   3.931   9.608 -1.0444  0.2823  0.2084
  128MPD2    N1 2001   1.545   3.528   9.854  0.2343  0.2391 -0.4608
  128MPD2    H7 2002   1.510   3.433   9.860 -2.6413  1.2817 -0.5305
  129TMC2    C1 2003   4.138   3.572   1.862 -0.3119 -0.2547 -0.3883
  129TMC2    C2 2004   4.156   3.505   1.982 -0.3576 -0.2551  0.0782
  129TMC2    C3 2005   4.041   3.449   2.032  0.2614  0.3766 -0.1574
  129TMC2    C4 2006   4.021   3.596   1.810  0.0665  0.8010  0.2261
  129TMC2    C5 2007   3.912   3.547   1.871  0.9329  0.2339  0.5746
  129TMC2    C6 2008   3.919   3.474   1.983 -0.3604  0.3036 -0.8737
  129TMC2     C 2009   4.255   3.638   1.803 -0.2668  0.2003  0.6101
  129TMC2     O 2010   4.364   3.590   1.832 -0.0345  0.0760 -0.6251
  129TMC2     H 2011   4.245   3.511   2.043  0.8169 -0.2060 -1.6424
  129TMC2    H1 2012   4.013   3.650   1.716 -0.2355 -2.7007 -1.7564
  129TMC2    H2 2013   3.828   3.428   2.020  1.5001 -1.0611  1.9764
  129TMC2    C7 2014   3.773   3.587   1.831  0.2394 -0.9227  0.3430
  129TMC2    C8 2015   4.035   3.402   2.172 -0.3074 -0.0582 -0.7145
  129TMC2    O1 2016   3.683   3.514   1.868  0.1859  0.2097  0.5154
  129TMC2    O2 2017   3.930   3.407   2.239  1.3863 -0.5173  0.1535
  129TMC2    O5 2018   4.157   3.352   2.211 -1.0560  0.5501  0.1199
  129TMC2    H5 2019   4.228   3.363   2.144 -0.6151  1.3226  0.7145
  130MPD2     C 2020   4.468   3.808   1.682 -0.1996 -0.2251  0.4298
  130MPD2    C1 2021   4.330   3.840   1.691  0.7500 -0.1472 -0.6441
  130MPD2    C2 2022   4.291   3.960   1.630 -0.1663 -0.7541  0.4576
  130MPD2    C3 2023   4.379   4.050   1.572 -0.5315 -0.3250 -0.7138
  130MPD2    C4 2024   4.516   4.019   1.569  0.1715  0.6236  0.1306
  130MPD2    C5 2025   4.550   3.894   1.619 -0.2778  0.2745  0.3400
  130MPD2     H 2026   4.186   3.983   1.619  0.0832 -0.4603 -1.4079
  130MPD2    H1 2027   4.589   4.083   1.521 -1.6666  1.2959 -1.7597
  130MPD2    H2 2028   4.514   3.717   1.720 -0.0595 -0.2371  0.2360
  130MPD2    H3 2029   4.655   3.870   1.606  0.4093  1.6651  3.2411
  130MPD2     N 2030   4.325   4.167   1.517 -0.0557  0.4784  0.3926
  130MPD2    H5 2031   4.227   4.190   1.531 -0.1773  1.6909 -2.2727
  130MPD2    N1 2032   4.226   3.754   1.732  0.2193  0.1879 -0.4636
  130MPD2    H7 2033   4.129   3.785   1.727  0.2422  0.4472  0.5623
  131TMC2    C1 2034   4.414   3.320  10.086  0.5295 -0.7849 -0.6832
  131TMC2    C2 2035   4.328   3.418  10.132  0.7454  0.1981 -0.4623
  131TMC2    C3 2036   4.355   3.548  10.103 -0.0999 -0.2109  0.0432
  131TMC2    C4 2037   4.532   3.358  10.022  0.6419  0.0742 -0.1690
  131TMC2    C5 2038   4.562   3.491  10.008 -0.0088  0.0809  0.1276
  131TMC2    C6 2039   4.473   3.590  10.037  0.1996  0.1954  0.1505
  131TMC2     C 2040   4.375   3.186  10.118  0.0777 -0.7857  0.4139
  131TMC2     O 2041   4.314   3.173  10.225  0.6885  0.3205  0.0341
  131TMC2     H 2042   4.235   3.392  10.180  0.2799 -1.0436 -2.0448
  131TMC2    H1 2043   4.610   3.284  10.008 -0.7275 -1.2551 -0.6796
  131TMC2    H2 2044   4.490   3.693  10.009  3.0977 -0.2756  0.2609
  131TMC2    C7 2045   4.679   3.508   9.933 -0.2541  0.0657 -0.1589
  131TMC2    C8 2046   4.270   3.648  10.171 -0.6883 -0.1406  0.0903
  131TMC2    O1 2047   0.017   3.416   9.901 -0.0088 -0.4639 -0.7110
  131TMC2    O2 2048   4.211   3.606  10.269  0.5907  0.1302 -0.3752
  131TMC2    O5 2049   4.314   3.772  10.156  0.2442 -0.0352 -0.3575
  131TMC2    H5 2050   4.349   3.788  10.066 -1.0046  0.2568 -0.7861
  132MPD2     C 2051   4.412   2.883   9.905 -1.0119  0.4289 -0.4117
  132MPD2    C1 2052   4.360   2.965  10.008  0.0253 -0.1530 -0.0451
  132MPD2    C2 2053   4.282   2.902  10.099  0.2179 -0.4364 -0.3859
  132MPD2    C3 2054   4.251   2.765  10.093 -0.4485  0.8565  0.0628
  132MPD2    C4 2055   4.305   2.692   9.990  0.1838  0.4587  0.0197
  132MPD2    C5 2056   4.376   2.752   9.896 -0.5237  0.9132  0.1245
  132MPD2     H 2057   4.254   2.955  10.190  1.1839 -0.5065 -0.0461
  132MPD2    H1 2058   4.279   2.588   9.978 -0.2231  0.7752 -1.8325
  132MPD2    H2 2059   4.479   2.914   9.826 -1.7687 -0.1537 -1.2783
  132MPD2    H3 2060   4.422   2.687   9.823 -0.9710 -0.1939  0.8292
  132MPD2     N 2061   4.168   2.709  10.190 -0.2463  0.5999 -1.0840
  132MPD2    H5 2062   4.165   2.763  10.276  0.0536 -0.4434 -0.4125
  132MPD2    N1 2063   4.404   3.101  10.009  0.5899  0.0893 -0.3124
  132MPD2    H7 2064   4.454   3.150   9.936 -0.5954  1.6157 -0.0952
  133TMC2    C1 2065   3.185   2.847  10.027  0.1126  0.5598  0.4206
  133TMC2    C2 2066   3.112   2.730  10.028  0.2020  0.0692  0.2323
  133TMC2    C3 2067   3.191   2.619  10.036 -0.0903  0.8255  0.4670
  133TMC2    C4 2068   3.313   2.856  10.079  0.3353  0.3838  0.4210
  133TMC2    C5 2069   3.375   2.742  10.113  0.3794  0.4121 -0.3091
  133TMC2    C6 2070   3.318   2.622  10.083  0.3410 -0.1879  0.5473
  133TMC2     C 2071   3.116   2.975   9.996 -0.1598  0.6569 -0.0939
  133TMC2     O 2072   3.173   3.073  10.047 -0.4750  0.2170 -0.2313
  133TMC2     H 2073   3.005   2.730  10.009 -0.0155 -4.5029  1.2169
  133TMC2    H1 2074   3.361   2.953  10.091  1.6795 -0.5828  2.8344
  133TMC2    H2 2075   3.363   2.524  10.089  0.0875 -0.4009 -0.9559
  133TMC2    C7 2076   3.520   2.748  10.105 -0.8101 -0.3391 -0.0354
  133TMC2    C8 2077   3.125   2.489  10.056 -0.3450 -0.0049  0.2437
  133TMC2    O1 2078   3.582   2.649  10.068 -0.1530 -0.1700  0.9433
  133TMC2    O2 2079   3.174   2.404  10.129  0.2960  0.2673  0.0981
  133TMC2    O5 2080   3.060   2.457   9.938 -0.5272  0.2167 -0.3191
  133TMC2    H5 2081   3.027   2.539   9.894 -0.1694 -0.4787 -1.8986
  134MPD2     C 2082   2.846   3.026   9.762 -0.0774 -0.2310 -0.2386
  134MPD2    C1 2083   2.952   3.062   9.843  0.1993  0.5934  0.1711
  134MPD2    C2 2084   2.965   3.197   9.876  0.2046 -0.1758 -0.5352
  134MPD2    C3 2085   2.882   3.296   9.825 -0.0358  0.4531 -0.4421
  134MPD2    C4 2086   2.772   3.255   9.750  0.2554  0.3101  0.0589
  134MPD2    C5 2087   2.757   3.124   9.722 -0.3227  0.2246  0.4173
  134MPD2     H 2088   3.049   3.221   9.940 -0.9225 -3.5234  2.2546
  134MPD2    H1 2089   2.702   3.329   9.713  0.3694  0.9459  1.1100
  134MPD2    H2 2090   2.823   2.923   9.736  1.1220  0.0004 -2.2240
  134MPD2    H3 2091   2.676   3.090   9.659  2.1746 -1.7397 -1.7628
  134MPD2     N 2092   2.901   3.438   9.849 -0.3433 -0.0632 -0.1880
  134MPD2    H5 2093   2.837   3.500   9.801  1.2179  0.6818 -1.3060
  134MPD2    N1 2094   3.025   2.958   9.896 -0.1287  0.2422 -0.2226
  134MPD2    H7 2095   3.020   2.867   9.852  1.1689 -0.0206  0.1697
  135TMC2    C1 2096   0.763   0.859  10.050 -0.3713 -0.3118 -0.0084
  135TMC2    C2 2097   0.855   0.767  10.091 -0.0486  0.3232 -0.5617
  135TMC2    C3 2098   0.836   0.720  10.215  0.2453 -0.6967  0.0606
  135TMC2    C4 2099   0.654   0.893  10.122 -0.3641  0.4678  0.1527
  135TMC2    C5 2100   0.629   0.824  10.238 -0.1536 -0.3968  0.1720
  135TMC2    C6 2101   0.731   0.746  10.294  0.0610  0.4211 -0.3803
  135TMC2     C 2102   0.781   0.906   9.916  0.8315 -0.3187  0.6823
  135TMC2     O 2103   0.721   1.011   9.903 -0.4193  0.1676  0.5491
  135TMC2     H 2104   0.949   0.740  10.044 -2.3776 -2.5006 -3.6521
  135TMC2    H1 2105   0.575   0.950  10.075  1.3324  2.5295 -0.2081
  135TMC2    H2 2106   0.726   0.695  10.389  0.3588 -0.4030 -0.8134
  135TMC2    C7 2107   0.501   0.837  10.301 -0.0734 -0.2807 -0.4247
  135TMC2    C8 2108   0.918   0.619  10.268  0.1642 -0.4514  0.4077
  135TMC2    O1 2109   0.428   0.935  10.281 -0.7375  0.1906 -0.5749
  135TMC2    O2 2110   0.963   0.627  10.383  0.1882  0.5172 -0.6104
  135TMC2    O5 2111   0.901   0.501  10.199  0.2981 -0.1662 -0.4810
  135TMC2    H5 2112   0.830   0.513  10.133 -0.1712  1.4429  0.3110
  136MPD2     C 2113   0.825   0.962   9.633  0.1928  0.0600  0.7210
  136MPD2    C1 2114   0.880   0.849   9.698 -0.4126  0.1555  0.6497
  136MPD2    C2 2115   0.961   0.759   9.622 -0.2838  0.1249 -0.0124
  136MPD2    C3 2116   0.997   0.796   9.492  0.1556 -0.2119  0.3907
  136MPD2    C4 2117   0.942   0.906   9.434 -0.1298 -0.0861  0.7426
  136MPD2    C5 2118   0.854   0.987   9.502 -0.1123 -0.0379 -0.8789
  136MPD2     H 2119   1.000   0.673   9.675 -2.3988 -0.5038  0.5087
  136MPD2    H1 2120   0.967   0.918   9.329  0.2160  1.6274  1.0165
  136MPD2    H2 2121   0.754   1.027   9.682  1.9916  2.0623  0.6658
  136MPD2    H3 2122   0.817   1.073   9.446 -1.5147 -0.5097 -0.6685
  136MPD2     N 2123   1.088   0.717   9.424 -0.1023  0.2138  0.0637
  136MPD2    H5 2124   1.105   0.736   9.326 -2.4334  1.6281 -0.0700
  136MPD2    N1 2125   0.849   0.821   9.833  0.1985 -0.4404  0.3215
  136MPD2    H7 2126   0.899   0.746   9.880  1.7215 -0.8563 -1.9699
  137TMC2    C1 2127   1.126   4.476   9.509  0.0951  0.2847  0.1480
  137TMC2    C2 2128   1.204   4.515   9.408 -0.2676  0.3806 -0.4264
  137TMC2    C3 2129   1.194   4.649   9.371  0.4168 -0.4814  0.0469
  137TMC2    C4 2130   1.032   4.561   9.566 -0.3821  0.1620 -0.0143
  137TMC2    C5 2131   1.036   4.694   9.534  0.2362 -0.2005 -1.3232
  137TMC2    C6 2132   1.126   0.008   9.443  0.1704 -0.1643  0.3779
  137TMC2     C 2133   1.114   4.330   9.542 -0.0867 -0.1323  1.0013
  137TMC2     O 2134   1.159   4.250   9.461 -0.1022  0.3009  0.3051
  137TMC2     H 2135   1.269   4.446   9.356 -2.2997 -2.0077  0.1716
  137TMC2    H1 2136   0.984   4.538   9.661 -0.8966  3.0362  0.4115
  137TMC2    H2 2137   1.120   0.113   9.418 -2.3747 -0.5508 -0.6454
  137TMC2    C7 2138   0.930   0.043   9.589 -0.3693 -0.5818 -0.7236
  137TMC2    C8 2139   1.309   4.689   9.293 -0.0451 -0.5439  0.0858
  137TMC2    O1 2140   0.953   0.159   9.608  0.2247 -0.0798  0.7747
  137TMC2    O2 2141   1.424   4.674   9.328  0.3284 -0.3680 -0.0056
  137TMC2    O5 2142   1.270   0.066   9.240 -0.5043  0.2244  0.0141
  137TMC2    H5 2143   1.175   0.073   9.216 -0.1169  1.8436 -1.0595
  138MPD2     C 2144   1.011   4.072   9.650  0.1640  0.2098  0.4533
  138MPD2    C1 2145   1.020   4.185   9.726  0.1583  0.4246 -0.6081
  138MPD2    C2 2146   0.984   4.180   9.859 -0.1413 -0.6139  0.1164
  138MPD2    C3 2147   0.927   4.065   9.915 -0.8792 -0.4190 -0.3005
  138MPD2    C4 2148   0.919   3.947   9.835 -0.3631 -0.3556 -0.3903
  138MPD2    C5 2149   0.972   3.955   9.706 -0.4560  0.2526 -0.7847
  138MPD2     H 2150   0.994   4.275   9.910  1.2366 -0.0661 -1.1577
  138MPD2    H1 2151   0.892   3.851   9.877  0.0282  0.7302  2.3977
  138MPD2    H2 2152   1.057   4.066   9.552  1.0780  1.9299  0.7833
  138MPD2    H3 2153   0.962   3.873   9.636  2.0659 -0.4917 -0.2592
  138MPD2     N 2154   0.873   4.069  10.048  0.0295  0.7579  0.3891
  138MPD2    H5 2155   0.881   4.154  10.103  2.8636  0.1010  0.9894
  138MPD2    N1 2156   1.070   4.309   9.672 -0.2294  0.1439 -0.1636
  138MPD2    H7 2157   1.077   4.386   9.738 -1.6093 -0.1090  0.2680
  139TMC2    C1 2158   0.698   2.957  13.251  0.1209 -0.4997 -0.6630
  139TMC2    C2 2159   0.673   2.975  13.118  0.2202  0.0502  0.5401
  139TMC2    C3 2160   0.589   3.075  13.083  0.5183  0.2933 -0.8202
  139TMC2    C4 2161   0.637   3.033  13.348 -0.1005  0.1316  0.6163
  139TMC2    C5 2162   0.559   3.142  13.300  0.4446 -0.2105  0.2859
  139TMC2    C6 2163   0.538   3.170  13.165  0.2161  0.2801  0.0069
  139TMC2     C 2164   0.799   2.857  13.289  0.0346 -0.1571  0.1087
  139TMC2     O 2165   0.881   2.838  13.198 -0.6414 -0.7452  0.9796
  139TMC2     H 2166   0.703   2.903  13.042 -0.9103  0.8264 -0.6565
  139TMC2    H1 2167   0.658   3.007  13.451  2.1972 -2.1365 -0.4311
  139TMC2    H2 2168   0.486   3.258  13.130 -0.2336 -0.1002 -0.2777
  139TMC2    C7 2169   0.542   3.258  13.388  0.1173 -0.2672 -0.8472
  139TMC2    C8 2170   0.556   3.089  12.944  0.8658  0.0314  0.2459
  139TMC2    O1 2171   0.535   3.369  13.338 -0.4419  0.1095  0.1666
  139TMC2    O2 2172   0.545   2.995  12.867 -0.3173 -0.1570  0.7387
  139TMC2    O5 2173   0.514   3.217  12.920 -0.0370  0.2460  0.0663
  139TMC2    H5 2174   0.455   3.217  12.841  0.4860  3.9832 -0.3591
  140MPD2     C 2175   0.790   2.664  13.590  0.6347 -0.1321  0.1116
  140MPD2    C1 2176   0.841   2.710  13.470  0.3211  0.7780 -0.2783
  140MPD2    C2 2177   0.964   2.678  13.425 -0.3227  0.0303  0.2996
  140MPD2    C3 2178   1.036   2.579  13.488  0.8003  0.2762 -0.6264
  140MPD2    C4 2179   0.978   2.518  13.602  0.3946 -1.0864  0.4980
  140MPD2    C5 2180   0.860   2.559  13.647 -0.4112 -0.0326  0.3070
  140MPD2     H 2181   1.013   2.734  13.346  1.1553 -1.4175  0.1817
  140MPD2    H1 2182   1.027   2.444  13.663 -1.6650 -1.4646  1.6872
  140MPD2    H2 2183   0.700   2.713  13.624  0.0468 -1.2600  0.1800
  140MPD2    H3 2184   0.832   2.510  13.740  1.9137 -1.9905 -0.0262
  140MPD2     N 2185   1.163   2.539  13.442  0.0682  0.0995  0.1827
  140MPD2    H5 2186   1.193   2.580  13.354  0.8516 -0.5040  0.1743
  140MPD2    N1 2187   0.759   2.796  13.403  0.2283 -0.6802 -0.4914
  140MPD2    H7 2188   0.668   2.828  13.434  0.1153 -0.3508 -1.1540
  141TMC2    C1 2189   1.698   3.520  14.413 -0.2452  0.1350 -0.1521
  141TMC2    C2 2190   1.628   3.413  14.451  0.3664  0.3403  0.1639
  141TMC2    C3 2191   1.651   3.366  14.579 -0.6859  0.7437 -0.2600
  141TMC2    C4 2192   1.778   3.591  14.504  0.3931 -0.0933 -0.3001
  141TMC2    C5 2193   1.791   3.553  14.630  0.2592 -0.5438 -0.0923
  141TMC2    C6 2194   1.729   3.437  14.669  0.2231 -0.1576 -0.4992
  141TMC2     C 2195   1.698   3.565  14.277 -0.0172 -0.1293 -0.2343
  141TMC2     O 2196   1.750   3.669  14.250 -0.8023  0.3030  0.6333
  141TMC2     H 2197   1.560   3.363  14.383  0.9891 -3.2047  2.1424
  141TMC2    H1 2198   1.828   3.679  14.467  1.7602 -0.4397  0.7521
  141TMC2    H2 2199   1.744   3.396  14.768  1.2401  1.6721  0.1106
  141TMC2    C7 2200   1.915   3.578  14.698  0.1733 -0.0457 -0.0866
  141TMC2    C8 2201   1.550   3.287  14.642  0.1738  0.6902 -0.2963
  141TMC2    O1 2202   1.978   3.488  14.758  0.0385 -0.1773 -0.1280
  141TMC2    O2 2203   1.565   3.229  14.748  0.3895 -0.6929  0.4471
  141TMC2    O5 2204   1.430   3.328  14.592 -0.2462 -0.2713  0.1198
  141TMC2    H5 2205   1.436   3.390  14.517 -1.3143  2.1104  2.0253
  142TMC2    C1 2206   4.556   2.679  10.242  0.2132 -0.5667  0.4232
  142TMC2    C2 2207   4.610   2.674  10.120 -0.6350 -0.8470  0.5638
  142TMC2    C3 2208   4.668   2.791  10.067  0.1090 -0.1190  0.2064
  142TMC2    C4 2209   4.565   2.789  10.325  0.1789 -0.1594 -0.8154
  142TMC2    C5 2210   4.625   2.902  10.267 -0.0298  0.5828  0.3609
  142TMC2    C6 2211   4.675   2.906  10.139  0.4774  0.1954 -0.1505
  142TMC2     C 2212   4.474   2.561  10.282 -0.2703  0.4856  0.0469
  142TMC2     O 2213   4.440   2.479  10.199  0.7233 -0.0936  0.0805
  142TMC2     H 2214   4.587   2.585  10.063  1.7142 -1.3640  0.4464
  142TMC2    H1 2215   4.511   2.795  10.419 -0.9251 -0.7686 -1.4145
  142TMC2    H2 2216   4.704   2.998  10.089 -0.0002  1.0086  1.0669
  142TMC2    C7 2217   4.596   3.036  10.333 -0.5226 -0.2096  0.4065
  142TMC2    C8 2218   0.013   2.784   9.953  1.0085 -0.2975 -0.6030
  142TMC2    O1 2219   4.493   3.037  10.402 -0.2789 -0.3733  0.3326
  142TMC2    O2 2220   0.050   2.879   9.890  0.3580  0.3505 -0.6962
  142TMC2    O5 2221   0.022   2.657   9.906  0.0166 -0.7066 -0.0450
  142TMC2    H5 2222   0.039   2.591   9.977 -0.9950 -0.7185  0.1875
  143MPD2     C 2223   4.178   2.336  10.623  0.4237  0.6368 -0.4635
  143MPD2    C1 2224   4.181   2.313  10.487  0.4886  0.3604  0.2498
  143MPD2    C2 2225   4.267   2.393  10.415 -0.4843 -0.3517  0.1955
  143MPD2    C3 2226   4.352   2.486  10.484 -0.9780  0.1885 -0.0620
  143MPD2    C4 2227   4.334   2.516  10.614  0.2080  0.0732  0.3434
  143MPD2    C5 2228   4.254   2.435  10.688 -0.3448 -0.7140 -0.9928
  143MPD2     H 2229   4.263   2.388  10.307  1.0291  0.7183  0.0852
  143MPD2    H1 2230   4.397   2.580  10.676  2.3010  0.1438 -1.8246
  143MPD2    H2 2231   4.120   2.267  10.683 -0.0009  0.9705 -0.4893
  143MPD2    H3 2232   4.252   2.446  10.796 -1.5407  0.8376 -1.1717
  143MPD2     N 2233   4.434   2.569  10.415 -0.1805  0.0870  0.1088
  143MPD2    H5 2234   4.478   2.649  10.459 -0.1392 -0.6817  1.4572
  143MPD2    N1 2235   4.082   2.223  10.433 -0.7906 -0.6482 -0.0664
  143MPD2    H7 2236   4.014   2.193  10.502 -1.6508 -3.4309 -2.1270
  144TMC2    C1 2237   2.790   1.311   0.717  0.1458  0.4486  0.1044
  144TMC2    C2 2238   2.830   1.177   0.717  0.9368 -0.2281  0.2992
  144TMC2    C3 2239   2.905   1.131   0.819 -0.1225  0.5960 -0.3651
  144TMC2    C4 2240   2.845   1.398   0.811 -0.0235  0.9409  0.1113
  144TMC2    C5 2241   2.933   1.342   0.910 -0.4070 -0.4037  0.1742
  144TMC2    C6 2242   2.964   1.211   0.911  0.3855  0.4729 -0.1176
  144TMC2     C 2243   2.683   1.349   0.631 -0.0657 -0.0592  0.2784
  144TMC2     O 2244   2.626   1.261   0.566 -0.3556  0.0564  0.2911
  144TMC2     H 2245   2.787   1.105   0.648  0.9991  0.4855 -0.4736
  144TMC2    H1 2246   2.818   1.503   0.810 -2.0723  0.3974 -0.8934
  144TMC2    H2 2247   3.025   1.171   0.991 -0.3006 -2.2868 -0.9745
  144TMC2    C7 2248   3.005   1.426   0.999 -0.0591 -0.2210  0.0906
  144TMC2    C8 2249   2.938   0.994   0.816 -0.2423  0.4718  0.3127
  144TMC2    O1 2250   3.090   1.373   1.072 -0.0625  0.1591 -0.3852
  144TMC2    O2 2251   2.855   0.918   0.766 -0.8662 -0.2810 -0.7744
  144TMC2    O5 2252   3.064   0.982   0.770  0.0422 -0.5699  0.2709
  144TMC2    H5 2253   3.115   1.059   0.805 -0.2373 -0.2313 -0.0623
  145MPD2     C 2254   2.278   1.649   0.564 -0.4142  0.2325 -1.2969
  145MPD2    C1 2255   2.303   1.526   0.510  0.2626  0.2734 -0.0635
  145MPD2    C2 2256   2.422   1.463   0.542 -0.0446 -0.0429 -0.4107
  145MPD2    C3 2257   2.517   1.530   0.623 -0.3573  0.0227  0.5733
  145MPD2    C4 2258   2.493   1.660   0.663 -0.6069  0.8894  0.8951
  145MPD2    C5 2259   2.373   1.721   0.628  0.7214  0.3946 -0.7079
  145MPD2     H 2260   2.444   1.373   0.485 -1.0467 -1.2365  1.0536
  145MPD2    H1 2261   2.565   1.723   0.714 -0.3582  0.7733  0.6929
  145MPD2    H2 2262   2.182   1.691   0.537 -1.0760 -0.2327  0.3052
  145MPD2    H3 2263   2.341   1.817   0.666  1.0102 -0.2126  1.0761
  145MPD2     N 2264   2.640   1.476   0.661 -1.0204  0.5565  0.4131
  145MPD2    H5 2265   2.698   1.537   0.719  0.5369 -0.7424  0.2133
  145MPD2    N1 2266   2.214   1.458   0.431 -0.7725 -0.2205 -0.2441
  145MPD2    H7 2267   2.240   1.366   0.399  1.2652  1.1054 -2.4245
  146TMC2    C1 2268   3.673   0.783  12.558  0.1048  0.1693  0.1495
  146TMC2    C2 2269   3.645   0.886  12.469  0.7746 -0.0006  0.0480
  146TMC2    C3 2270   3.699   0.864  12.345 -0.1976 -0.2860  0.7098
  146TMC2    C4 2271   3.739   0.661  12.532  0.5466  0.6408 -0.3116
  146TMC2    C5 2272   3.770   0.644  12.402  0.1348  0.5714 -0.4497
  146TMC2    C6 2273   3.748   0.743  12.309  0.0196 -0.1598  0.8864
  146TMC2     C 2274   3.619   0.802  12.698  0.3253 -0.1271  0.4707
  146TMC2     O 2275   3.569   0.912  12.716  0.3056 -0.4308  0.8438
  146TMC2     H 2276   3.587   0.973  12.496 -0.5421 -0.0080 -2.7651
  146TMC2    H1 2277   3.759   0.584  12.606  1.7680 -0.0563 -1.3618
  146TMC2    H2 2278   3.779   0.718  12.209  1.0935 -1.3019  1.5146
  146TMC2    C7 2279   3.813   0.511  12.354  0.1378  0.1319 -0.4778
  146TMC2    C8 2280   3.677   0.965  12.241  0.7567 -0.3555 -0.2511
  146TMC2    O1 2281   3.801   0.488  12.236 -0.1537 -0.2590 -1.0315
  146TMC2    O2 2282   3.592   1.050  12.260 -0.5665  0.3202  0.1819
  146TMC2    O5 2283   3.773   0.955  12.146 -0.1003 -0.0460 -0.5472
  146TMC2    H5 2284   3.844   0.894  12.173 -0.2963  0.3253  0.8021
  147MPD2     C 2285   3.989   0.038  12.414 -0.1112 -0.1520  0.5799
  147MPD2    C1 2286   4.001   0.095  12.538  0.6131  0.5304  0.4006
  147MPD2    C2 2287   3.954   0.226  12.541 -0.2726 -0.8252 -0.0144
  147MPD2    C3 2288   3.906   0.293  12.432  0.1857  0.1389 -0.6254
  147MPD2    C4 2289   3.903   0.224  12.308 -0.4968 -0.2989 -0.4649
  147MPD2    C5 2290   3.938   0.092  12.303 -0.0750 -0.1300  0.0229
  147MPD2     H 2291   3.956   0.281  12.635 -1.7606  0.3064 -0.6335
  147MPD2    H1 2292   3.844   0.258  12.223  1.4217 -1.9177 -2.4647
  147MPD2    H2 2293   4.039   4.677  12.404  1.4045  0.8174 -1.0408
  147MPD2    H3 2294   3.938   0.045  12.205  1.0672  0.2734 -0.1701
  147MPD2     N 2295   3.854   0.423  12.452 -0.0240  0.1388 -0.4523
  147MPD2    H5 2296   3.858   0.448  12.551  0.7408 -0.4390 -0.3344
  147MPD2    N1 2297   4.064   0.026  12.643  0.0796 -0.0626  0.1089
  147MPD2    H7 2298   4.093   4.667  12.615  1.3013 -0.4539  2.7588
  148TMC2    C1 2299   4.124   4.153  11.043 -0.4643 -0.1106 -0.0077
  148TMC2    C2 2300   4.259   4.131  11.044  0.2710  0.2083 -0.1781
  148TMC2    C3 2301   4.301   4.035  11.124  0.2040 -0.8141 -0.4100
  148TMC2    C4 2302   4.036   4.086  11.124 -0.5814  0.2882 -0.3548
  148TMC2    C5 2303   4.085   3.978  11.203 -0.6421  0.5181  0.2182
  148TMC2    C6 2304   4.218   3.951  11.190  0.0210 -0.0122  0.1251
  148TMC2     C 2305   4.069   4.212  10.920  0.6103 -0.0955 -0.6587
  148TMC2     O 2306   4.127   4.291  10.847  0.2863  0.0652 -0.5418
  148TMC2     H 2307   4.322   4.185  10.974 -0.0995 -0.5682 -1.1144
  148TMC2    H1 2308   3.931   4.114  11.132 -0.5403  0.4331 -0.3276
  148TMC2    H2 2309   4.253   3.865  11.246 -1.9903 -1.6486 -1.1399
  148TMC2    C7 2310   3.990   3.866  11.212 -0.2097  0.5532 -0.3300
  148TMC2    C8 2311   4.446   4.006  11.122  0.0590  0.6194 -0.8350
  148TMC2    O1 2312   3.872   3.897  11.202  0.3331 -0.3404  0.0667
  148TMC2    O2 2313   4.500   3.898  11.153  0.3973 -0.0417 -0.1066
  148TMC2    O5 2314   4.496   4.124  11.161  0.5868  0.4133 -0.2011
  148TMC2    H5 2315   4.445   4.204  11.136  0.0978 -0.6774 -2.7282
  149MPD2     C 2316   3.862   4.324  10.712 -0.2754  0.4786 -0.0021
  149MPD2    C1 2317   3.840   4.218  10.803 -0.4167  0.5576  0.1325
  149MPD2    C2 2318   3.714   4.160  10.801 -0.4206  0.0475 -0.1871
  149MPD2    C3 2319   3.611   4.197  10.716  0.1674  0.4484  0.0086
  149MPD2    C4 2320   3.641   4.300  10.626 -0.5476 -0.0029  0.4455
  149MPD2    C5 2321   3.761   4.367  10.628  1.0573  0.3988 -0.1924
  149MPD2     H 2322   3.691   4.087  10.878 -0.5310 -2.4505 -2.5700
  149MPD2    H1 2323   3.572   4.336  10.551 -1.1256 -1.4283  0.2904
  149MPD2    H2 2324   3.962   4.366  10.700 -1.2409  2.4136 -1.4267
  149MPD2    H3 2325   3.780   4.443  10.553  3.6604 -0.2467 -0.1655
  149MPD2     N 2326   3.485   4.135  10.718 -0.4901  0.2313  0.2965
  149MPD2    H5 2327   3.414   4.181  10.662  1.2510  0.9454 -1.3584
  149MPD2    N1 2328   3.937   4.169  10.892 -0.4117  0.6529 -0.3539
  149MPD2    H7 2329   3.903   4.099  10.957  1.7551  1.1774  1.3411
  150TMC2    C1 2330   1.017   2.936  12.055  0.4415  0.3772 -0.0885
  150TMC2    C2 2331   0.982   3.013  11.955 -0.2463 -0.4874 -0.5829
  150TMC2    C3 2332   1.017   2.980  11.832 -1.0687  1.0983 -0.0064
  150TMC2    C4 2333   1.087   2.820  12.039  0.5457  0.5276  0.1848
  150TMC2    C5 2334   1.127   2.784  11.915  0.3903  0.5835  0.1496
  150TMC2    C6 2335   1.097   2.870  11.812 -0.1392  0.4041  0.2186
  150TMC2     C 2336   0.965   2.960  12.190 -0.4655  0.7793  0.3099
  150TMC2     O 2337   0.984   2.874  12.272 -0.2848 -0.2979 -0.2160
  150TMC2     H 2338   0.929   3.107  11.970  0.5826 -0.0298 -0.5200
  150TMC2    H1 2339   1.118   2.765  12.128 -3.7481 -2.4496 -0.1615
  150TMC2    H2 2340   1.140   2.851  11.715  1.6231  2.6181  0.5885
  150TMC2    C7 2341   1.226   2.682  11.891  0.8945 -0.3614  0.1004
  150TMC2    C8 2342   0.991   3.077  11.728 -0.3680 -0.3066  0.8995
  150TMC2    O1 2343   1.271   2.691  11.777 -0.6201  0.2555  0.2160
  150TMC2    O2 2344   1.087   3.127  11.673  0.0489 -0.1803 -0.1356
  150TMC2    O5 2345   0.870   3.142  11.744 -0.3207 -0.0228  0.6591
  150TMC2    H5 2346   0.804   3.075  11.772  0.4289 -2.0118 -2.3792
  151MPD2     C 2347   0.622   3.158  12.517  1.1212  0.2324 -0.3791
  151MPD2    C1 2348   0.582   3.184  12.387  0.1632  0.2458  0.8013
  151MPD2    C2 2349   0.658   3.148  12.281  0.4620 -0.3595 -0.5266
  151MPD2    C3 2350   0.779   3.079  12.303  0.1379  0.3468  0.2551
  151MPD2    C4 2351   0.816   3.053  12.434  0.3269  0.4675  0.1017
  151MPD2    C5 2352   0.744   3.094  12.547  0.6134  0.4091  0.0810
  151MPD2     H 2353   0.616   3.158  12.182 -1.3378  1.8826  0.4705
  151MPD2    H1 2354   0.911   3.006  12.456  0.2027 -0.1420 -0.6423
  151MPD2    H2 2355   0.569   3.192  12.606  1.1627  0.2563 -0.3635
  151MPD2    H3 2356   0.785   3.073  12.646 -1.1176 -0.5594  0.6150
  151MPD2     N 2357   0.856   3.036  12.191  0.8283  0.3079 -0.7024
  151MPD2    H5 2358   0.837   3.076  12.099 -0.6591  2.6288  0.5912
  151MPD2    N1 2359   0.456   3.244  12.365  0.1437 -0.3435  0.2180
  151MPD2    H7 2360   0.389   3.245  12.441  0.3197  0.5194  0.3668
  152TMC2    C1 2361   1.136   2.854  12.714 -0.7286  0.1935  0.2408
  152TMC2    C2 2362   1.241   2.767  12.710  0.5784  0.2208 -0.1936
  152TMC2    C3 2363   1.368   2.815  12.708 -0.3613 -0.0022 -0.1102
  152TMC2    C4 2364   1.154   2.991  12.699  0.0365 -0.4871  0.0972
  152TMC2    C5 2365   1.279   3.029  12.669 -0.4301  0.1070 -0.7148
  152TMC2    C6 2366   1.388   2.943  12.677  0.8452  0.1640  0.6472
  152TMC2     C 2367   1.001   2.819  12.748  0.5008  0.1540  0.6189
  152TMC2     O 2368   0.926   2.903  12.805  0.1455  0.7791  0.0913
  152TMC2     H 2369   1.226   2.663  12.736 -0.4082  0.2681 -0.5555
  152TMC2    H1 2370   1.069   3.059  12.696  0.1575 -0.4205 -1.8421
  152TMC2    H2 2371   1.483   2.979  12.638  0.4353 -0.6436 -1.0920
  152TMC2    C7 2372   1.288   3.170  12.633 -0.2499 -0.3445 -0.1609
  152TMC2    C8 2373   1.485   2.721  12.705 -0.2501  0.1088  0.0157
  152TMC2    O1 2374   1.187   3.214  12.581 -0.8944 -0.0083 -1.0154
  152TMC2    O2 2375   1.468   2.596  12.698  0.7943  0.0321 -0.2657
  152TMC2    O5 2376   1.586   2.784  12.769 -0.5212 -0.6276 -0.0446
  152TMC2    H5 2377   1.589   2.881  12.783 -0.6608 -0.6778  0.3546
  153MPD2     C 2378   0.831   2.500  12.673  0.1304  0.8328 -0.0504
  153MPD2    C1 2379   0.838   2.630  12.714  0.0114  0.5902  0.5091
  153MPD2    C2 2380   0.726   2.699  12.730  1.0251 -0.2948 -0.0266
  153MPD2    C3 2381   0.603   2.641  12.712  0.3903  0.7333 -0.0204
  153MPD2    C4 2382   0.596   2.507  12.676 -0.4908  0.4404  0.0842
  153MPD2    C5 2383   0.711   2.442  12.656 -0.5983 -0.0506  0.4585
  153MPD2     H 2384   0.733   2.805  12.750  1.2920  0.0379 -1.9706
  153MPD2    H1 2385   0.507   2.450  12.652 -0.3879  0.7750 -1.0671
  153MPD2    H2 2386   0.918   2.438  12.654  0.8138  1.5210  0.8079
  153MPD2    H3 2387   0.707   2.344  12.609 -1.3784  0.2051 -0.0185
  153MPD2     N 2388   0.487   2.722  12.704  0.9633 -0.6886  0.0862
  153MPD2    H5 2389   0.502   2.820  12.727  1.0277 -0.6656 -0.0550
  153MPD2    N1 2390   0.968   2.690  12.712 -0.1958  0.0852 -0.1162
  153MPD2    H7 2391   1.031   2.642  12.647  0.8191 -1.3938  1.9723
  154TMC2    C1 2392   2.368   2.744  17.702  0.6776 -0.6528 -0.0229
  154TMC2    C2 2393   2.296   2.722  17.583  0.0683  0.3809  0.5230
  154TMC2    C3 2394   2.313   2.598  17.528 -0.4557 -0.1919  0.2969
  154TMC2    C4 2395   2.448   2.652   0.014  0.2181 -0.3943 -0.1800
  154TMC2    C5 2396   2.463   2.535  17.687  0.0311 -0.0021 -0.5943
  154TMC2    C6 2397   2.401   2.502  17.570 -0.6188  0.4870 -0.7840
  154TMC2     C 2398   2.333   2.871   0.035  0.3668  0.4187 -0.5537
  154TMC2     O 2399   2.275   2.961  17.716  0.5053 -0.1985  0.0305
  154TMC2     H 2400   2.237   2.799  17.534 -0.4793 -0.9783 -0.9885
  154TMC2    H1 2401   2.510   2.666   0.101 -1.2728 -0.3245  0.8761
  154TMC2    H2 2402   2.415   2.406  17.520 -1.0497  0.9275 -1.7430
  154TMC2    C7 2403   2.555   2.437   0.006  0.0977 -0.0332 -0.5310
  154TMC2    C8 2404   2.268   2.576  17.394 -0.1740  0.7139  0.5111
  154TMC2    O1 2405   2.628   2.478   0.093 -0.1623  0.4759  0.2637
  154TMC2    O2 2406   2.341   2.523  17.314  0.3117 -0.2636 -0.3581
  154TMC2    O5 2407   2.156   2.652  17.369  0.3230  0.4402 -0.0741
  154TMC2    H5 2408   2.105   2.683  17.447  0.4063  0.0731  0.1286
  155MPD2     C 2409   2.404   2.971   0.382  0.3714 -0.8778  0.7837
  155MPD2    C1 2410   2.337   2.971   0.261 -0.0864  0.2639  0.0331
  155MPD2    C2 2411   2.230   3.055   0.252 -0.0531  0.5503  0.0300
  155MPD2    C3 2412   2.194   3.144   0.348  0.3544 -0.1612  0.1513
  155MPD2    C4 2413   2.272   3.151   0.460  1.0435 -0.5197 -0.3883
  155MPD2    C5 2414   2.374   3.062   0.477 -0.1306 -0.1340  0.2114
  155MPD2     H 2415   2.164   3.061   0.167  1.2013 -2.2415 -1.1332
  155MPD2    H1 2416   2.250   3.220   0.541  2.0980 -1.4283  0.6783
  155MPD2    H2 2417   2.494   2.912   0.392 -0.0478 -1.6277  0.0120
  155MPD2    H3 2418   2.437   3.065   0.565 -1.0448  0.4056  0.8499
  155MPD2     N 2419   2.073   3.216   0.328  0.4871 -0.5276  0.1782
  155MPD2    H5 2420   2.022   3.197   0.243  0.6448 -0.2151  0.0141
  155MPD2    N1 2421   2.380   2.877   0.168 -0.7201 -0.1154  0.0296
  155MPD2    H7 2422   2.434   2.797   0.200 -1.2582  0.0704  1.4074
  156TMC2    C1 2423   0.267   0.905  11.513  0.6799  0.1899 -0.0078
  156TMC2    C2 2424   0.136   0.877  11.563  0.0706  0.2127  0.0672
  156TMC2    C3 2425   0.048   0.977  11.549  0.4149  0.1925 -0.2404
  156TMC2    C4 2426   0.306   1.024  11.464  0.5670 -0.4323  0.8293
  156TMC2    C5 2427   0.209   1.124  11.462 -0.2651 -0.4557  0.4083
  156TMC2    C6 2428   0.078   1.097  11.491 -1.0020  0.4684  0.2838
  156TMC2     C 2429   0.373   0.835  11.575  0.5561  0.4460  0.0369
  156TMC2     O 2430   0.352   0.780  11.684 -0.3104  0.3402 -0.5101
  156TMC2     H 2431   0.118   0.777  11.599 -1.8025  0.5085 -0.0279
  156TMC2    H1 2432   0.405   1.048  11.427 -0.5877 -0.5589 -2.3202
  156TMC2    H2 2433   4.734   1.172  11.489 -0.7547  0.7101 -0.3790
  156TMC2    C7 2434   0.254   1.250  11.415 -0.1426 -0.5736 -0.2355
  156TMC2    C8 2435   4.646   0.943  11.589  0.5047  0.1117 -0.0360
  156TMC2    O1 2436   0.371   1.276  11.416  0.2204 -0.8129 -0.7533
  156TMC2    O2 2437   4.549   0.985  11.527  1.0699  0.4367 -0.5715
  156TMC2    O5 2438   4.640   0.879  11.709 -0.5898  0.9018  0.5069
  156TMC2    H5 2439   4.722   0.881  11.763  0.5809  0.8057 -1.2535
  157MPD2     C 2440   0.685   0.766  11.395  0.2157  1.3706 -0.6664
  157MPD2    C1 2441   0.608   0.775  11.511 -0.5290  0.1209  0.6654
  157MPD2    C2 2442   0.657   0.738  11.637 -0.2310  0.5580 -0.2350
  157MPD2    C3 2443   0.788   0.707  11.649  0.2455 -0.3701  0.6109
  157MPD2    C4 2444   0.868   0.709  11.537 -0.6415 -0.3018 -0.1584
  157MPD2    C5 2445   0.816   0.742  11.414  0.0381  0.4060  0.2422
  157MPD2     H 2446   0.593   0.737  11.725  0.1731 -0.9364  0.0540
  157MPD2    H1 2447   0.972   0.680  11.545 -0.1485  1.8957  1.3494
  157MPD2    H2 2448   0.652   0.789  11.294 -1.2903  1.6442 -0.1080
  157MPD2    H3 2449   0.887   0.745  11.332  1.8689  0.9609  1.8631
  157MPD2     N 2450   0.859   0.689  11.773  0.0830 -0.2343  0.5609
  157MPD2    H5 2451   0.961   0.692  11.768  0.0190 -1.1471 -1.4859
  157MPD2    N1 2452   0.478   0.822  11.484  0.0169  0.1241  0.3411
  157MPD2    H7 2453   0.460   0.853  11.389 -0.9041 -0.7084  0.2522
  158TMC2    C1 2454   1.282   3.781  13.188 -0.4027 -1.4424 -0.0021
  158TMC2    C2 2455   1.388   3.784  13.101  0.6346  0.6913 -0.2043
  158TMC2    C3 2456   1.390   3.890  13.020  0.5408  0.4722  0.5890
  158TMC2    C4 2457   1.194   3.887  13.207 -0.1152 -0.2963 -0.8678
  158TMC2    C5 2458   1.196   3.991  13.115  0.1474  0.0126  0.2376
  158TMC2    C6 2459   1.303   4.004  13.023 -0.1248  0.2065  0.2080
  158TMC2     C 2460   1.273   3.662  13.275  0.6462 -0.6471  0.3738
  158TMC2     O 2461   1.319   3.556  13.230 -0.3334  0.1197  0.7138
  158TMC2     H 2462   1.456   3.701  13.088  0.6032  0.8812 -1.5567
  158TMC2    H1 2463   1.122   3.876  13.287 -0.1514  0.4578 -0.8016
  158TMC2    H2 2464   1.311   4.085  12.952  2.4135 -0.3497 -0.1561
  158TMC2    C7 2465   1.068   4.065  13.084 -0.1558 -0.0085 -0.1394
  158TMC2    C8 2466   1.488   3.876  12.911 -0.2795 -0.0015 -0.0843
  158TMC2    O1 2467   1.055   4.113  12.974  0.0372  0.0761  0.1324
  158TMC2    O2 2468   1.505   3.770  12.850  0.5495  0.2280  0.3521
  158TMC2    O5 2469   1.563   3.988  12.894  0.2513  0.2317 -0.4363
  158TMC2    H5 2470   1.535   4.060  12.954  0.4017  0.9401 -1.2139
  159MPD2     C 2471   1.266   3.430  13.721 -0.5261  0.7778 -0.7323
  159MPD2    C1 2472   1.264   3.564  13.747 -0.2304  0.2656 -0.0133
  159MPD2    C2 2473   1.265   3.649  13.642  0.6368  0.5886  0.4743
  159MPD2    C3 2474   1.247   3.604  13.509  0.0424 -0.0252 -0.2985
  159MPD2    C4 2475   1.241   3.465  13.490 -0.6620 -0.4224  0.1437
  159MPD2    C5 2476   1.256   3.380  13.595 -0.8119 -0.7422 -0.1467
  159MPD2     H 2477   1.283   3.754  13.660 -3.5393  0.9662  2.4187
  159MPD2    H1 2478   1.233   3.422  13.391 -1.4638  0.2764 -0.0917
  159MPD2    H2 2479   1.256   3.351  13.795  2.1528  1.5234  0.4158
  159MPD2    H3 2480   1.250   3.272  13.582 -1.2705 -0.8560  1.0084
  159MPD2     N 2481   1.250   3.697  13.408 -0.2340 -0.2708 -0.5030
  159MPD2    H5 2482   1.230   3.793  13.436  0.1276 -0.4206  0.2559
  159MPD2    N1 2483   1.284   3.602  13.880  0.2688 -0.4337 -0.3506
  159MPD2    H7 2484   1.259   3.526  13.943 -1.3235 -1.5235 -2.2973
  160TMC2    C1 2485   0.654   2.019   1.767 -0.6992  0.6148  0.3885
  160TMC2    C2 2486   0.596   1.931   1.847  0.1911  0.9382  1.1592
  160TMC2    C3 2487   0.653   1.804   1.851  0.1628  0.3044  0.4619
  160TMC2    C4 2488   0.760   1.986   1.683 -0.0945 -0.2773  0.1241
  160TMC2    C5 2489   0.810   1.859   1.681 -0.9098  0.0970  0.2777
  160TMC2    C6 2490   0.769   1.777   1.784  0.0023  0.4609  0.1479
  160TMC2     C 2491   0.625   2.153   1.809  0.3387  0.3915  0.1241
  160TMC2     O 2492   0.583   2.173   1.921  0.4902 -0.2780  0.5462
  160TMC2     H 2493   0.506   1.952   1.905 -0.9895 -0.4842 -0.1637
  160TMC2    H1 2494   0.802   2.067   1.625 -2.2759 -0.0016 -1.0831
  160TMC2    H2 2495   0.828   1.690   1.810 -1.7822 -0.2728  1.6829
  160TMC2    C7 2496   0.940   1.833   1.631  0.1055  0.1626  0.3039
  160TMC2    C8 2497   0.593   1.709   1.946  0.4339  0.3712  0.3956
  160TMC2    O1 2498   1.004   1.743   1.691 -0.4308  0.5222 -0.2956
  160TMC2    O2 2499   0.516   1.748   2.034 -0.2394 -0.2792  0.2041
  160TMC2    O5 2500   0.603   1.588   1.897  0.1504  0.3962 -0.5130
  160TMC2    H5 2501   0.641   1.580   1.807 -1.5372 -0.2002 -1.1674
  161MPD2     C 2502   0.592   2.444   1.839  0.3394 -0.7340 -0.1627
  161MPD2    C1 2503   0.600   2.374   1.721  0.6145 -0.2752 -0.0815
  161MPD2    C2 2504   0.576   2.446   1.604  0.2034 -0.5174 -0.0398
  161MPD2    C3 2505   0.557   2.584   1.602  0.4832  0.1139 -0.4203
  161MPD2    C4 2506   0.567   2.652   1.718  0.0397  0.4840  0.6587
  161MPD2    C5 2507   0.584   2.585   1.839  0.5599 -0.2802  0.6991
  161MPD2     H 2508   0.569   2.385   1.515  1.4006 -0.3476 -0.2581
  161MPD2    H1 2509   0.559   2.759   1.711  0.9531  0.5411  0.4376
  161MPD2    H2 2510   0.602   2.398   1.936  0.7666 -0.0296  0.1284
  161MPD2    H3 2511   0.575   2.651   1.924  2.2411 -0.8739  1.3491
  161MPD2     N 2512   0.532   2.648   1.480 -0.0788 -0.0377  0.2321
  161MPD2    H5 2513   0.523   2.749   1.489 -1.3375  0.3068 -4.4752
  161MPD2    N1 2514   0.616   2.239   1.703  0.0915 -0.5826  0.6076
  161MPD2    H7 2515   0.608   2.203   1.608 -0.7882 -0.0583  0.4844
  162TMC2    C1 2516   2.708   3.636   0.356 -0.5895  0.3181 -0.1892
  162TMC2    C2 2517   2.688   3.500   0.360 -0.1307  0.0151  0.2570
  162TMC2    C3 2518   2.675   3.440   0.485 -0.6717 -0.1285  0.4643
  162TMC2    C4 2519   2.688   3.706   0.468  0.4351 -0.6936  0.8289
  162TMC2    C5 2520   2.668   3.642   0.590  0.6035  0.0781  0.3817
  162TMC2    C6 2521   2.672   3.507   0.602 -0.4996 -0.2830 -0.1858
  162TMC2     C 2522   2.807   3.686   0.264 -0.4621  0.2916 -0.0592
  162TMC2     O 2523   2.854   3.610   0.184  0.5125  0.0482 -0.1151
  162TMC2     H 2524   2.747   3.447   0.286 -0.1838 -1.3132  1.1624
  162TMC2    H1 2525   2.702   3.813   0.469  0.9361 -0.7463 -0.8393
  162TMC2    H2 2526   2.645   3.453   0.692  3.3887 -2.6358 -0.4358
  162TMC2    C7 2527   2.654   3.727   0.703  0.0489  0.1145  0.3125
  162TMC2    C8 2528   2.692   3.297   0.483  0.2826 -0.0886  0.0117
  162TMC2    O1 2529   2.611   3.839   0.681  0.3349  0.1674 -0.4600
  162TMC2    O2 2530   2.787   3.251   0.544 -0.0131 -0.2731  0.3965
  162TMC2    O5 2531   2.631   3.245   0.371  0.0568 -0.3369 -0.2175
  162TMC2    H5 2532   2.551   3.295   0.345 -0.2095 -1.0362 -0.7697
  163MPD2     C 2533   3.169   4.032   0.201 -0.1077  0.2948 -0.0606
  163MPD2    C1 2534   3.172   3.899   0.197  1.1639  0.1579 -0.0706
  163MPD2    C2 2535   3.055   3.827   0.219  0.0883 -1.1391 -0.2373
  163MPD2    C3 2536   2.941   3.896   0.245 -0.1923  0.0440 -0.2556
  163MPD2    C4 2537   2.941   4.031   0.259 -0.1980 -0.2761 -0.5386
  163MPD2    C5 2538   3.055   4.096   0.230  0.3310 -0.7110 -0.6573
  163MPD2     H 2539   3.066   3.720   0.235  0.7747 -1.2135 -1.2231
  163MPD2    H1 2540   2.852   4.076   0.301  0.0617 -1.7632  1.5822
  163MPD2    H2 2541   3.255   4.097   0.188  0.5390 -0.6761 -0.5914
  163MPD2    H3 2542   3.059   4.204   0.220 -1.5522 -0.4801  1.1385
  163MPD2     N 2543   2.825   3.823   0.273  0.5163 -0.1511 -0.5996
  163MPD2    H5 2544   2.743   3.874   0.305  0.8541 -1.0593  1.7115
  163MPD2    N1 2545   3.295   3.838   0.182 -0.0307 -0.2162  0.2122
  163MPD2    H7 2546   3.379   3.895   0.177  0.0673 -0.2883  0.9955
  164TMC2    C1 2547   3.791   3.613  11.484 -0.5407 -0.5122 -0.1391
  164TMC2    C2 2548   3.907   3.642  11.536  0.4734 -0.2608 -0.3912
  164TMC2    C3 2549   3.938   3.770  11.559 -0.6827 -0.0881 -0.3561
  164TMC2    C4 2550   3.696   3.712  11.471  0.2391 -0.7762  0.6697
  164TMC2    C5 2551   3.728   3.844  11.500  0.2545 -0.1150 -0.2979
  164TMC2    C6 2552   3.858   3.878  11.534  0.2022  0.2153  0.3790
  164TMC2     C 2553   3.728   3.484  11.516 -0.4736 -0.2337  0.2096
  164TMC2     O 2554   3.629   3.490  11.589  0.2086  0.5224  0.0805
  164TMC2     H 2555   3.979   3.563  11.554  0.9080 -0.1059 -1.4561
  164TMC2    H1 2556   3.602   3.693  11.420  1.6926  1.1059 -2.7093
  164TMC2    H2 2557   3.894   3.978  11.553 -1.2208  0.5336  1.3938
  164TMC2    C7 2558   3.637   3.938  11.446 -0.2508  0.2577  0.3027
  164TMC2    C8 2559   4.081   3.803  11.588 -0.3894 -0.8180 -0.1528
  164TMC2    O1 2560   3.561   3.905  11.354 -0.1944  0.1965 -0.1997
  164TMC2    O2 2561   4.148   3.862  11.512  0.6764 -0.3453  0.4955
  164TMC2    O5 2562   4.125   3.710  11.679 -0.0414 -0.6141 -0.1873
  164TMC2    H5 2563   4.053   3.656  11.717  2.2699 -2.4256  1.6565
  165TMC2    C1 2564   4.589   0.949   1.303  0.9490  0.3446  0.4807
  165TMC2    C2 2565   4.571   0.906   1.175 -0.6470 -0.1243 -0.6620
  165TMC2    C3 2566   4.652   0.959   1.081  0.2405  0.4684  0.2269
  165TMC2    C4 2567   4.689   1.035   1.342  0.7646 -0.3037  0.2993
  165TMC2    C5 2568   0.046   1.068   1.243 -0.5029  0.5587 -0.1697
  165TMC2    C6 2569   0.024   1.039   1.110 -0.0414  0.1966 -0.2228
  165TMC2     C 2570   4.491   0.912   1.402  0.2281 -0.3579 -0.0741
  165TMC2     O 2571   4.438   0.804   1.382 -0.1438 -0.2721 -0.3693
  165TMC2     H 2572   4.481   0.851   1.152  1.0167 -2.7840 -0.7731
  165TMC2    H1 2573   4.719   1.050   1.446  2.1235 -0.4390 -0.0668
  165TMC2    H2 2574   0.089   1.069   1.029  0.7665 -0.8805  0.0190
  165TMC2    C7 2575   0.166   1.143   1.281  0.2430 -0.0130  0.6959
  165TMC2    C8 2576   4.630   0.935   0.944  0.4765 -0.1201  0.2440
  165TMC2    O1 2577   0.260   1.139   1.203 -0.4148  0.5729 -0.5672
  165TMC2    O2 2578   4.626   1.025   0.861  0.1629 -0.0825  0.3904
  165TMC2    O5 2579   4.581   0.810   0.943  0.5349 -0.6038  0.1867
  165TMC2    H5 2580   4.622   0.752   1.011 -0.8289 -1.6519  0.0981
  166MPD2     C 2581   4.183   1.026   1.798  0.1067 -0.2916  0.1469
  166MPD2    C1 2582   4.166   0.945   1.690  0.4585 -0.0559 -0.4465
  166MPD2    C2 2583   4.267   0.933   1.596  0.3245  0.0719 -0.0962
  166MPD2    C3 2584   4.384   1.004   1.608  0.2372  0.3971  0.5247
  166MPD2    C4 2585   4.398   1.093   1.719  0.4932 -0.5992  0.7954
  166MPD2    C5 2586   4.290   1.106   1.805  0.7145 -0.0041 -0.3218
  166MPD2     H 2587   4.255   0.869   1.509 -0.4574 -2.7368  2.0667
  166MPD2    H1 2588   4.488   1.151   1.737  1.0356 -0.3753 -2.6436
  166MPD2    H2 2589   4.099   1.047   1.863 -0.5924  3.1157 -1.8910
  166MPD2    H3 2590   4.282   1.177   1.886 -3.3074  2.0494 -2.5053
  166MPD2     N 2591   4.480   1.004   1.504 -0.0554 -0.2792 -0.4580
  166MPD2    H5 2592   4.527   1.093   1.490  1.4308 -1.2351 -1.5460
  166MPD2    N1 2593   4.047   0.868   1.677 -0.3870 -0.6182 -0.2802
  166MPD2    H7 2594   3.972   0.878   1.744  0.0243 -1.2757  0.2792
  167TMC2    C1 2595   3.886   3.882  13.486 -0.1772  0.3248  0.3625
  167TMC2    C2 2596   3.931   3.864  13.613  0.0737  0.3564 -0.0265
  167TMC2    C3 2597   3.913   3.739  13.672 -0.4453  0.0331  0.5698
  167TMC2    C4 2598   3.817   3.785  13.420 -0.7337 -0.6288  0.3456
  167TMC2    C5 2599   3.797   3.663  13.483  0.2580 -0.4379  0.6024
  167TMC2    C6 2600   3.845   3.642  13.613 -0.0395  0.1612 -0.6328
  167TMC2     C 2601   3.976   3.961  13.397 -0.1444  0.0987 -0.6512
  167TMC2     O 2602   4.096   3.964  13.424  0.4266  0.1172  0.4802
  167TMC2     H 2603   4.014   3.920  13.652  0.9904 -0.8847 -0.1816
  167TMC2    H1 2604   3.796   3.801  13.315  2.1838 -4.1058 -0.7879
  167TMC2    H2 2605   3.860   3.548  13.663 -1.9111 -0.6524 -1.5940
  167TMC2    C7 2606   3.711   3.555  13.420 -0.1254 -0.0529  0.0630
  167TMC2    C8 2607   4.000   3.710  13.780 -0.6395  0.3139 -1.0210
  167TMC2    O1 2608   3.646   3.492  13.502 -0.2213  0.5803 -0.0180
  167TMC2    O2 2609   4.035   3.599  13.801 -0.4656  0.4967 -0.1846
  167TMC2    O5 2610   3.953   3.788  13.870  0.4212  0.5969  0.2734
  167TMC2    H5 2611   3.908   3.859  13.820 -2.2838 -0.2803  1.4127
  168MPD2     C 2612   4.108   4.075  13.158 -0.0478  0.1004  0.5314
  168MPD2    C1 2613   3.975   4.067  13.174 -0.7415  0.4036  0.3014
  168MPD2    C2 2614   3.896   4.121  13.073 -0.1952 -0.2591  0.3961
  168MPD2    C3 2615   3.947   4.184  12.956 -0.5960  0.6096  0.0772
  168MPD2    C4 2616   4.084   4.184  12.943  0.3477  0.1590 -0.0009
  168MPD2    C5 2617   4.165   4.131  13.041  0.1072  0.3203 -0.6521
  168MPD2     H 2618   3.789   4.115  13.090 -0.3617 -0.9371 -0.9233
  168MPD2    H1 2619   4.117   4.223  12.847  2.4665 -1.2264  0.1501
  168MPD2    H2 2620   4.182   4.043  13.231 -1.0634 -1.4418  0.8829
  168MPD2    H3 2621   4.271   4.112  13.033 -0.0257 -0.6721  0.0249
  168MPD2     N 2622   3.853   4.225  12.863  0.1200 -0.6243  0.5778
  168MPD2    H5 2623   3.762   4.181  12.864  0.1575 -0.7421 -1.1839
  168MPD2    N1 2624   3.910   4.006  13.282 -0.0103  0.4427 -0.1820
  168MPD2    H7 2625   3.809   4.000  13.284  0.0529 -0.9510 -0.7958
  169MPD1     C 2626   2.259   2.237   9.263 -0.6439 -0.5003  0.6494
  169MPD1    C1 2627   2.128   2.199   9.251 -0.2952  0.1981 -0.3855
  169MPD1    C2 2628   2.029   2.288   9.294  0.1693 -0.7649 -0.0451
  169MPD1    C3 2629   2.060   2.407   9.353 -0.3529  0.2141 -0.4225
  169MPD1    C4 2630   2.191   2.454   9.353 -0.5209 -0.6610  1.0183
  169MPD1    C5 2631   2.290   2.361   9.311  0.3538  0.0444  0.8876
  169MPD1     H 2632   1.926   2.255   9.295  0.4122 -1.4600  3.0689
  169MPD1    H1 2633   2.229   2.547   9.394  0.5228 -0.4798 -0.3919
  169MPD1    H2 2634   2.341   2.171   9.236 -0.8511 -1.3077  1.9803
  169MPD1    H3 2635   2.395   2.386   9.304  0.3887 -1.7403 -4.7859
  169MPD1     N 2636   1.948   2.475   9.394 -0.1545  0.2468 -0.4385
  169MPD1    H5 2637   1.856   2.438   9.373  0.0438 -0.7242  0.4403
  169MPD1    N1 2638   2.094   2.096   9.167  0.1883 -0.5831 -0.6099
  169MPD1    H6 2639   2.001   2.062   9.188  1.2473 -3.1926 -0.1278
  169MPD1    H7 2640   2.163   2.022   9.180  3.5330  2.4535 -1.1816
  170MPD1     C 2641   4.567   1.070  12.843 -0.6869  0.5271 -0.2707
  170MPD1    C1 2642   4.436   1.025  12.857 -0.6500  0.0502 -0.5845
  170MPD1    C2 2643   4.389   1.004  12.984 -0.2704  0.3874 -1.2077
  170MPD1    C3 2644   4.459   1.037  13.090 -0.1950  0.0903 -0.6792
  170MPD1    C4 2645   4.588   1.074  13.073  1.6692  0.3403 -0.8918
  170MPD1    C5 2646   4.644   1.098  12.956  0.8167  0.1837  0.6663
  170MPD1     H 2647   4.286   0.973  12.998 -0.2685  0.3633 -1.2469
  170MPD1    H1 2648   4.665   1.080  13.149 -0.7262 -1.5602  1.6874
  170MPD1    H2 2649   4.603   1.091  12.743  0.7994 -0.9403 -0.0444
  170MPD1    H3 2650   0.011   1.136  12.957  1.5620 -1.7769 -0.2919
  170MPD1     N 2651   4.411   1.015  13.221 -0.0544 -0.0716 -0.0614
  170MPD1    H5 2652   4.314   0.986  13.231  0.2769 -0.0840  3.1334
  170MPD1    N1 2653   4.353   1.000  12.748 -0.2325 -0.2916  0.3436
  170MPD1    H6 2654   4.389   0.969  12.658 -0.9623  1.0756 -0.4179
  170MPD1    H7 2655   4.262   0.967  12.781  0.2853 -0.2175  1.8299
  171MPD1     C 2656   3.153   2.299  15.150 -0.0662 -0.0202  0.2219
  171MPD1    C1 2657   3.093   2.175  15.151 -0.8192  0.5553 -0.0036
  171MPD1    C2 2658   3.117   2.105  15.265  0.0272 -0.9486  0.2015
  171MPD1    C3 2659   3.194   2.151  15.373 -0.8149 -0.1989 -0.4008
  171MPD1    C4 2660   3.241   2.277  15.367 -0.0693  0.0709 -0.0039
  171MPD1    C5 2661   3.224   2.352  15.255  0.2505  0.1581 -0.7725
  171MPD1     H 2662   3.072   2.008  15.279  1.0238 -1.2885  1.0815
  171MPD1    H1 2663   3.313   2.307  15.442  0.6084 -3.0334  0.5962
  171MPD1    H2 2664   3.126   2.371  15.074  1.8906  0.0113 -0.4499
  171MPD1    H3 2665   3.249   2.456  15.243 -0.8805  0.2652 -2.1988
  171MPD1     N 2666   3.232   2.065  15.479 -0.0161  0.0717 -0.2730
  171MPD1    H5 2667   3.296   2.105  15.547  0.1707 -2.1634  0.8691
  171MPD1    N1 2668   2.992   2.145  15.063  0.3523 -0.0061  0.1555
  171MPD1    H6 2669   3.009   2.182  14.970 -1.4792 -0.0030 -0.1773
  171MPD1    H7 2670   2.960   2.048  15.060  0.1789  0.1032 -1.7060
  172MPD1     C 2671   2.052   1.670   0.002  0.5400 -0.5107  0.5134
  172MPD1    C1 2672   2.181   1.616  17.727 -0.1629  0.1010  0.7320
  172MPD1    C2 2673   2.273   1.653   0.087  0.9448  0.3147  0.0010
  172MPD1    C3 2674   2.242   1.738   0.185  0.4814 -0.2433  0.5289
  172MPD1    C4 2675   2.115   1.785   0.197  0.1571 -0.9477 -0.6593
  172MPD1    C5 2676   2.017   1.750   0.106  0.1894 -0.5620  0.0794
  172MPD1     H 2677   2.379   1.632   0.072  0.6349  0.2630 -2.1346
  172MPD1    H1 2678   2.082   1.862   0.266  0.2077 -1.5320  0.0178
  172MPD1    H2 2679   1.981   1.648  17.660  1.7121 -0.2768 -0.6076
  172MPD1    H3 2680   1.921   1.800   0.103 -0.7411 -2.4034 -0.7569
  172MPD1     N 2681   2.334   1.796   0.273  0.4442  0.5829 -0.3622
  172MPD1    H5 2682   2.298   1.868   0.335  2.3950  1.7599 -0.5942
  172MPD1    N1 2683   2.225   1.581  17.597  0.0614  0.0987 -0.8483
  172MPD1    H6 2684   2.151   1.533  17.546  0.1602 -0.9518 -0.0166
  172MPD1    H7 2685   2.302   1.514  17.608 -0.9495 -0.5925  1.8367
  173MPD1     C 2686   3.350   0.484  14.301 -0.3504  0.5259 -1.0390
  173MPD1    C1 2687   3.297   0.607  14.325 -1.1139  0.1217 -0.1678
  173MPD1    C2 2688   3.385   0.715  14.342 -0.1603 -0.6381 -0.3069
  173MPD1    C3 2689   3.510   0.692  14.389 -0.8440 -0.0917 -0.3619
  173MPD1    C4 2690   3.559   0.559  14.380  0.0735 -0.7299 -0.1542
  173MPD1    C5 2691   3.480   0.454  14.331  0.5926  1.2206  0.4454
  173MPD1     H 2692   3.346   0.816  14.344  0.3021 -0.4769  0.9970
  173MPD1    H1 2693   3.661   0.535  14.406 -0.5245 -0.0780  2.7312
  173MPD1    H2 2694   3.292   0.396  14.273  0.2015 -0.6517  1.5171
  173MPD1    H3 2695   3.519   0.354  14.345 -0.7252  0.7498  0.7579
  173MPD1     N 2696   3.577   0.795  14.455  0.0111  0.4667  0.2658
  173MPD1    H5 2697   3.530   0.884  14.465  0.9161  0.7856  1.6968
  173MPD1    N1 2698   3.168   0.631  14.278  0.0087  0.7748 -0.3340
  173MPD1    H6 2699   3.132   0.719  14.313  0.2541  0.7701 -0.0748
  173MPD1    H7 2700   3.114   0.546  14.296  1.0563 -0.4895 -3.1773
  174MPD1     C 2701   4.492   1.117  14.411 -0.2706 -1.2001 -0.2642
  174MPD1    C1 2702   4.471   1.103  14.546  0.7008  0.4095 -0.0350
  174MPD1    C2 2703   4.348   1.074  14.590  0.3531 -0.0173  0.5775
  174MPD1    C3 2704   4.241   1.064  14.511 -1.2083  0.1899 -0.2391
  174MPD1    C4 2705   4.259   1.085  14.379 -0.0918 -0.5122  0.3564
  174MPD1    C5 2706   4.380   1.116  14.331 -0.6481 -0.5640 -0.1146
  174MPD1     H 2707   4.338   1.061  14.697 -1.8019 -2.6888  0.0172
  174MPD1    H1 2708   4.178   1.069  14.309  1.9370 -0.7587 -1.9423
  174MPD1    H2 2709   4.587   1.138  14.364 -1.3561  1.8939 -1.0952
  174MPD1    H3 2710   4.390   1.141  14.226  1.2495 -0.9693 -0.0359
  174MPD1     N 2711   4.112   1.044  14.560 -0.4095 -0.2791 -0.0393
  174MPD1    H5 2712   4.047   1.030  14.484 -2.5061 -0.4113  1.7613
  174MPD1    N1 2713   4.584   1.132  14.630  0.8542  0.2497  0.6408
  174MPD1    H6 2714   4.568   1.104  14.726 -1.3600 -2.4693 -0.5334
  174MPD1    H7 2715   4.598   1.233  14.637  1.5763  0.1739  0.2461
  175MPD1     C 2716   1.636   2.413  15.303  0.2637  0.0587  0.3701
  175MPD1    C1 2717   1.765   2.424  15.348  0.1207  0.2353 -0.1874
  175MPD1    C2 2718   1.800   2.365  15.464 -0.2255  0.0621  0.8694
  175MPD1    C3 2719   1.708   2.288  15.535 -0.1199 -0.6007  0.0793
  175MPD1    C4 2720   1.570   2.292  15.493 -0.2131  0.9762 -0.0578
  175MPD1    C5 2721   1.540   2.351  15.372 -0.0679  0.5177  0.0643
  175MPD1     H 2722   1.895   2.383  15.513  0.3648  2.7884 -1.2725
  175MPD1    H1 2723   1.493   2.245  15.554  1.0582  1.4230  1.8730
  175MPD1    H2 2724   1.603   2.463  15.213  0.9692 -0.2444 -0.0596
  175MPD1    H3 2725   1.437   2.354  15.338 -0.5416 -0.4145  1.4127
  175MPD1     N 2726   1.724   2.235  15.664  0.5710  0.5150 -0.0394
  175MPD1    H5 2727   1.640   2.197  15.706  0.3282 -2.2620 -3.0096
  175MPD1    N1 2728   1.844   2.523  15.293 -0.4646 -0.4600  0.2763
  175MPD1    H6 2729   1.943   2.504  15.309 -0.2978 -1.7761 -2.3209
  175MPD1    H7 2730   1.834   2.538  15.193  2.4973  2.8328  0.4718
  176MPD1     C 2731   3.135   3.935  17.152 -0.0217  0.6725  0.1175
  176MPD1    C1 2732   3.085   4.049  17.211 -1.0232  0.4652 -0.2138
  176MPD1    C2 2733   3.185   4.128  17.254  0.6127 -0.2047  0.0197
  176MPD1    C3 2734   3.322   4.100  17.249  0.2127  0.0560 -0.4986
  176MPD1    C4 2735   3.366   3.985  17.191 -0.5183 -0.0326 -0.3105
  176MPD1    C5 2736   3.267   3.902  17.152 -0.5090  0.2540  0.1846
  176MPD1     H 2737   3.157   4.225  17.295  1.3807 -0.1123  0.3356
  176MPD1    H1 2738   3.468   3.949  17.188 -1.5511 -3.0313  0.8517
  176MPD1    H2 2739   3.074   3.860  17.104  2.1224  0.0004 -1.5580
  176MPD1    H3 2740   3.296   3.801  17.124 -0.0607  0.4484 -0.0592
  176MPD1     N 2741   3.411   4.194  17.308  0.6517 -0.3001  0.6682
  176MPD1    H5 2742   3.361   4.274  17.347 -1.2626 -0.7599 -0.8453
  176MPD1    N1 2743   2.950   4.075  17.203  0.1365  0.2743  0.2508
  176MPD1    H6 2744   2.885   3.998  17.194  0.6032  0.1860 -2.4086
  176MPD1    H7 2745   2.912   4.148  17.264  2.4572  1.0884  0.7343
  177MPD1     C 2746   1.987   4.415  10.100 -0.1679  0.1493 -0.3174
  177MPD1    C1 2747   1.950   4.288  10.094 -0.6559  1.1294 -0.2351
  177MPD1    C2 2748   1.904   4.247   9.971 -0.0540 -0.5869  0.0412
  177MPD1    C3 2749   1.883   4.336   9.867  0.0609 -0.4291  0.2342
  177MPD1    C4 2750   1.921   4.469   9.881 -0.1568  0.5652  0.6726
  177MPD1    C5 2751   1.970   4.510  10.003 -0.5183  0.1252 -0.1206
  177MPD1     H 2752   1.888   4.142   9.950  2.4158 -1.2473  1.4809
  177MPD1    H1 2753   1.922   4.537   9.797 -0.2178 -1.1751 -0.7130
  177MPD1    H2 2754   2.037   4.452  10.189  0.6536  0.7555 -1.0283
  177MPD1    H3 2755   2.016   4.607  10.014 -0.5247  0.1494 -0.2996
  177MPD1     N 2756   1.843   4.275   9.743  0.0227 -0.5315 -0.1588
  177MPD1    H5 2757   1.810   4.179   9.749  1.0643 -0.9219 -0.7295
  177MPD1    N1 2758   2.002   4.190  10.189 -0.2751 -0.1953  0.0196
  177MPD1    H6 2759   2.007   4.228  10.283  0.4277  0.4612 -0.2840
  177MPD1    H7 2760   1.954   4.101  10.187 -0.5388 -0.0886  1.6596
  178MPD1     C 2761   4.551   0.476   0.566 -0.1381  0.0035  0.2487
  178MPD1    C1 2762   4.528   0.348   0.517  0.4812 -0.6953 -0.6498
  178MPD1    C2 2763   4.573   0.319   0.386 -0.2096 -0.8400 -0.5304
  178MPD1    C3 2764   4.642   0.419   0.313  0.8921  0.0253  0.1033
  178MPD1    C4 2765   4.661   0.550   0.368 -0.5456  0.7823 -0.3248
  178MPD1    C5 2766   4.621   0.569   0.495 -0.0430 -0.5917 -0.0398
  178MPD1     H 2767   4.556   0.219   0.346 -0.8564 -0.4949 -1.1075
  178MPD1    H1 2768   4.721   0.625   0.318 -2.0891  1.0780 -1.7358
  178MPD1    H2 2769   4.528   0.490   0.671  0.0521  0.6950  0.1994
  178MPD1    H3 2770   4.644   0.662   0.547 -0.5198 -0.2346 -0.4716
  178MPD1     N 2771   4.689   0.401   0.179  0.2311 -0.2975  0.4976
  178MPD1    H5 2772   0.006   0.481   0.142 -3.1970  0.7929 -1.9759
  178MPD1    N1 2773   4.463   0.265   0.603 -0.3439 -0.4751  0.0167
  178MPD1    H6 2774   4.474   0.290   0.701  0.0835  0.6350 -0.3070
  178MPD1    H7 2775   4.474   0.168   0.576  1.0439  0.2955 -2.1803
  179MPD1     C 2776   0.030   3.120  15.362 -0.1012 -0.5290  0.1758
  179MPD1    C1 2777   0.083   3.040  15.461  0.2122  0.6410 -0.3752
  179MPD1    C2 2778   0.001   2.996  15.560  0.3781  0.2041 -0.4794
  179MPD1    C3 2779   4.601   3.030  15.564  0.6737 -0.1562  0.4004
  179MPD1    C4 2780   4.548   3.117  15.466  0.1581 -0.4589  0.0494
  179MPD1    C5 2781   4.632   3.161  15.364  0.1581 -0.0207  0.1956
  179MPD1     H 2782   0.037   2.927  15.635 -1.1236  0.1555  0.2004
  179MPD1    H1 2783   4.441   3.127  15.459  0.3160  1.6804  0.3929
  179MPD1    H2 2784   0.083   3.160  15.276  0.6034 -0.3377  0.6945
  179MPD1    H3 2785   4.588   3.214  15.280 -2.2820 -2.2240  0.0721
  179MPD1     N 2786   4.510   2.982  15.664 -0.0886  0.1335 -0.0112
  179MPD1    H5 2787   4.427   3.040  15.675  0.1615  0.3116  0.9237
  179MPD1    N1 2788   0.229   3.031  15.469 -0.0394  0.5670 -0.7981
  179MPD1    H6 2789   0.267   3.025  15.374  2.4010  2.5043  0.0633
  179MPD1    H7 2790   0.267   2.951  15.519  1.7038  1.6931 -0.3337
  180MPD1     C 2791   3.866   4.302  15.327  0.4149  0.0628 -0.1631
  180MPD1    C1 2792   3.985   4.352  15.274  0.4564  0.1950  0.1037
  180MPD1    C2 2793   3.988   4.396  15.143  0.3876 -0.6187 -0.1700
  180MPD1    C3 2794   3.876   4.402  15.064  0.1815 -0.2516  0.0470
  180MPD1    C4 2795   3.755   4.364  15.120 -0.2861 -0.4518  0.8435
  180MPD1    C5 2796   3.752   4.308  15.251  1.2270  0.1409 -0.4126
  180MPD1     H 2797   4.082   4.417  15.094  1.6791 -0.1586  2.5108
  180MPD1    H1 2798   3.663   4.353  15.063 -1.0154  1.3800  1.6685
  180MPD1    H2 2799   3.869   4.276  15.432  1.4567 -0.3106 -0.2872
  180MPD1    H3 2800   3.655   4.294  15.296  0.3050  1.1344 -2.0574
  180MPD1     N 2801   3.892   4.453  14.931 -0.6671  0.7434  0.3770
  180MPD1    H5 2802   3.986   4.481  14.904 -1.2007 -0.0806 -2.3123
  180MPD1    N1 2803   4.097   4.320  15.344  0.5378 -0.6164  0.1335
  180MPD1    H6 2804   4.081   4.336  15.443 -2.4108 -2.6698 -0.0101
  180MPD1    H7 2805   4.177   4.378  15.318  0.0537  0.2072  0.5200
  181MPD1     C 2806   0.803   1.936   9.467  0.3411 -0.2411  0.3180
  181MPD1    C1 2807   0.790   2.062   9.523  0.2600 -0.3116  0.3075
  181MPD1    C2 2808   0.865   2.098   9.630  0.5372  0.0772 -0.3895
  181MPD1    C3 2809   0.960   2.012   9.682 -0.2652 -0.2047 -0.5825
  181MPD1    C4 2810   0.974   1.888   9.618  0.6619  0.0407  0.0645
  181MPD1    C5 2811   0.891   1.844   9.517 -0.2918 -0.3711 -0.3273
  181MPD1     H 2812   0.855   2.195   9.677  0.5773  0.6305 -1.5296
  181MPD1    H1 2813   1.046   1.822   9.667  0.0332 -0.7474 -0.0671
  181MPD1    H2 2814   0.747   1.904   9.380 -0.2616  1.0625  0.2212
  181MPD1    H3 2815   0.895   1.742   9.480 -2.3604 -1.1502  1.5663
  181MPD1     N 2816   1.041   2.051   9.792  0.4273 -0.3304  0.2071
  181MPD1    H5 2817   1.099   1.974   9.824 -1.0638 -1.5607 -0.0387
  181MPD1    N1 2818   0.679   2.142   9.486 -0.2666  0.1297 -0.5670
  181MPD1    H6 2819   0.682   2.243   9.500  2.2917 -0.1623  0.9914
  181MPD1    H7 2820   0.651   2.130   9.389 -1.5127  0.1216 -0.1985
  182MPD1     C 2821   0.676   1.520   2.354 -0.6093 -0.5812 -0.7457
  182MPD1    C1 2822   0.778   1.515   2.259  0.0943 -0.3235 -0.4270
  182MPD1    C2 2823   0.761   1.442   2.141 -0.6553  0.0644  0.7616
  182MPD1    C3 2824   0.647   1.354   2.127 -0.2108  0.1858 -0.0281
  182MPD1    C4 2825   0.554   1.346   2.232  0.9401 -0.1799 -0.0204
  182MPD1    C5 2826   0.570   1.440   2.332 -0.1142  0.1530 -0.1795
  182MPD1     H 2827   0.836   1.466   2.066 -0.4969 -1.4991  0.4290
  182MPD1    H1 2828   0.466   1.284   2.239  1.9969 -1.7046 -0.3695
  182MPD1    H2 2829   0.683   1.588   2.437  0.8538 -0.1930 -1.1781
  182MPD1    H3 2830   0.484   1.448   2.398 -0.6807  0.2925 -0.9267
  182MPD1     N 2831   0.625   1.285   2.006  0.0045  0.4263 -0.2062
  182MPD1    H5 2832   0.545   1.223   2.011  1.4110 -1.2916  1.2123
  182MPD1    N1 2833   0.878   1.609   2.271  0.7067  0.3599 -0.3447
  182MPD1    H6 2834   0.898   1.630   2.368  2.7187  0.4546 -0.7772
  182MPD1    H7 2835   0.965   1.574   2.230  0.1224  1.6187 -2.6677
  183MPD1     C 2836   1.324   1.727   8.984  0.0258 -1.1292 -0.1424
  183MPD1    C1 2837   1.327   1.864   9.036 -0.8018  0.0302  1.3631
  183MPD1    C2 2838   1.414   1.880   9.142 -0.1595  0.0160  0.2267
  183MPD1    C3 2839   1.504   1.783   9.193 -0.0209  0.1525 -0.0754
  183MPD1    C4 2840   1.495   1.649   9.142 -0.3598  0.7035 -0.3892
  183MPD1    C5 2841   1.407   1.631   9.040  0.1569 -0.6516 -0.2206
  183MPD1     H 2842   1.425   1.977   9.190 -0.2588 -0.2210  0.7308
  183MPD1    H1 2843   1.550   1.565   9.184 -1.1113  1.3805  1.9632
  183MPD1    H2 2844   1.257   1.692   8.906  1.3152  0.0167 -1.7863
  183MPD1    H3 2845   1.387   1.533   8.998  0.9384 -1.9395  2.4242
  183MPD1     N 2846   1.600   1.819   9.284  0.5976 -0.5346 -0.4307
  183MPD1    H5 2847   1.600   1.918   9.307 -0.1285  0.2348 -3.7496
  183MPD1    N1 2848   1.219   1.959   9.019  0.2718  0.3120 -0.6063
  183MPD1    H6 2849   1.163   1.944   8.935 -2.3500 -0.3904  1.2635
  183MPD1    H7 2850   1.240   2.057   9.036 -0.9211  0.5046 -0.1927
  184MPD1     C 2851   0.942   3.553  10.066 -0.3897 -0.0650 -0.2765
  184MPD1    C1 2852   0.939   3.468   9.949 -0.1046  0.6092 -0.5381
  184MPD1    C2 2853   1.007   3.508   9.840 -0.1080  0.0133 -0.2634
  184MPD1    C3 2854   1.095   3.611   9.849  0.1093  0.0648  0.2688
  184MPD1    C4 2855   1.114   3.685   9.965  0.5475  0.3576  0.5772
  184MPD1    C5 2856   1.032   3.655  10.070 -0.6598 -0.8871  0.2091
  184MPD1     H 2857   0.999   3.449   9.749  1.8143  1.3935 -1.3375
  184MPD1    H1 2858   1.185   3.767   9.970  1.8055 -0.7347  0.6341
  184MPD1    H2 2859   0.880   3.537  10.154 -3.2516 -0.4689 -2.3429
  184MPD1    H3 2860   1.056   3.708  10.161 -0.3399  0.2938 -0.5617
  184MPD1     N 2861   1.175   3.658   9.744  0.2347 -0.0253 -0.1290
  184MPD1    H5 2862   1.226   3.744   9.760  0.4289  0.0327 -1.0570
  184MPD1    N1 2863   0.833   3.379   9.949 -0.2094 -1.1750 -0.2069
  184MPD1    H6 2864   0.820   3.343  10.043 -3.8591  1.4340  0.2898
  184MPD1    H7 2865   0.827   3.302   9.883  0.5790 -1.7806  0.4290
  185MPD1     C 2866   1.729   3.590   8.818 -0.1077  0.0052  0.8443
  185MPD1    C1 2867   1.622   3.518   8.863  0.0293  0.5355  0.9581
  185MPD1    C2 2868   1.555   3.548   8.972  0.0540 -0.3519  0.1173
  185MPD1    C3 2869   1.594   3.656   9.046  0.0812  0.3997 -0.4535
  185MPD1    C4 2870   1.703   3.734   9.009  0.1425 -0.0166  0.1630
  185MPD1    C5 2871   1.771   3.699   8.890  0.4157  0.8543  0.2918
  185MPD1     H 2872   1.472   3.484   8.998 -3.3635  3.4972 -1.2112
  185MPD1    H1 2873   1.730   3.824   9.062 -0.3403  1.0254 -1.3449
  185MPD1    H2 2874   1.796   3.558   8.739 -1.9473 -2.1737  0.1606
  185MPD1    H3 2875   1.858   3.757   8.862 -1.3105  3.3355  0.0064
  185MPD1     N 2876   1.532   3.700   9.163  1.2567  0.1106  0.1442
  185MPD1    H5 2877   1.575   3.777   9.215  1.6309 -0.3135  0.4686
  185MPD1    N1 2878   1.567   3.414   8.779 -0.1761  0.1098 -0.2175
  185MPD1    H6 2879   1.511   3.346   8.829  1.6512  1.2369  3.3743
  185MPD1    H7 2880   1.631   3.349   8.734 -1.4403 -0.6586 -0.8730
  186MPD1     C 2881   4.716   3.046  16.009 -0.3888 -0.4763 -0.3033
  186MPD1    C1 2882   0.060   3.028  16.118 -0.1068 -0.2757 -0.0371
  186MPD1    C2 2883   0.034   3.098  16.235 -0.3723 -0.3503  0.1744
  186MPD1    C3 2884   4.670   3.193  16.238  0.3904  0.6733 -0.5449
  186MPD1    C4 2885   4.580   3.205  16.139  0.1658 -0.5119  0.5292
  186MPD1    C5 2886   4.609   3.135  16.021 -0.7314 -0.6010 -0.2388
  186MPD1     H 2887   0.104   3.101  16.317 -0.7721  1.6000  0.4339
  186MPD1    H1 2888   4.497   3.275  16.137  1.1271  0.5929 -0.9229
  186MPD1    H2 2889   0.004   3.004  15.912 -0.4868 -0.4775 -0.3253
  186MPD1    H3 2890   4.541   3.146  15.937 -1.4381  1.3023  0.5791
  186MPD1     N 2891   4.665   3.299  16.335 -0.7571  0.1284  0.5869
  186MPD1    H5 2892   4.594   3.371  16.324 -1.9950 -1.2047 -0.2325
  186MPD1    N1 2893   0.169   2.935  16.103  0.2457  0.0348 -0.8240
  186MPD1    H6 2894   0.255   2.958  16.153  1.5169  0.1542 -3.0367
  186MPD1    H7 2895   0.193   2.913  16.006 -1.7894  0.5370 -1.4495
  187MPD1     C 2896   3.933   0.613  17.725 -0.5904 -0.8969 -0.3245
  187MPD1    C1 2897   3.851   0.510  17.711 -1.3932  0.1504  0.1531
  187MPD1    C2 2898   3.839   0.444  17.594 -0.1555 -0.3883 -0.6596
  187MPD1    C3 2899   3.920   0.470  17.489  0.7357  0.5264 -0.2278
  187MPD1    C4 2900   4.019   0.561  17.507 -0.0728  0.1764 -0.3992
  187MPD1    C5 2901   4.017   0.636  17.622  0.1926  0.4195 -0.3988
  187MPD1     H 2902   3.753   0.383  17.571 -0.7247  0.6331 -1.2381
  187MPD1    H1 2903   4.091   0.587  17.430 -0.0148  1.9014  0.2287
  187MPD1    H2 2904   3.941   0.669   0.080 -0.8458  0.7312 -1.3093
  187MPD1    H3 2905   4.099   0.706  17.636 -1.0749  1.4988  1.5458
  187MPD1     N 2906   3.905   0.422  17.357  0.1674 -0.4505 -0.0714
  187MPD1    H5 2907   3.972   0.460  17.291 -1.9953  1.2620 -1.3121
  187MPD1    N1 2908   3.772   0.476   0.083  0.5044 -0.1329  0.6470
  187MPD1    H6 2909   3.742   0.379   0.071  0.8479 -0.0333 -0.9154
  187MPD1    H7 2910   3.814   0.495   0.174 -2.0978  1.4501  1.4804
  188MPD1     C 2911   3.567   1.213  10.699 -0.2955  0.7781  0.7765
  188MPD1    C1 2912   3.561   1.188  10.565 -0.8026 -0.6611 -1.1315
  188MPD1    C2 2913   3.544   1.055  10.528  0.0333  0.1973 -0.5183
  188MPD1    C3 2914   3.524   0.957  10.624 -0.4763 -0.3900 -0.6515
  188MPD1    C4 2915   3.554   0.983  10.763  0.0810  0.0580  0.1249
  188MPD1    C5 2916   3.560   1.116  10.795 -0.0626  0.4580 -0.0986
  188MPD1     H 2917   3.545   1.029  10.423  1.2860  2.2929 -1.0360
  188MPD1    H1 2918   3.533   0.906  10.836 -0.2377 -0.6314 -0.6990
  188MPD1    H2 2919   3.577   1.310  10.747 -0.7300  1.7631 -1.1467
  188MPD1    H3 2920   3.555   1.146  10.899  1.5317  3.5380 -0.8867
  188MPD1     N 2921   3.484   0.831  10.581 -0.1012 -0.3902  0.5363
  188MPD1    H5 2922   3.488   0.753  10.647 -0.4409  0.3781  1.4691
  188MPD1    N1 2923   3.595   1.290  10.472  0.0702  0.2017 -0.4415
  188MPD1    H6 2924   3.563   1.378  10.511 -0.4000 -0.3139  0.3333
  188MPD1    H7 2925   3.554   1.265  10.382  1.4387  0.8634 -1.2470
  189MPD1     C 2926   0.050   1.389   0.828  0.5678  0.0984  0.9316
  189MPD1    C1 2927   4.730   1.375   0.702  0.2779  0.3571  0.7660
  189MPD1    C2 2928   0.002   1.484   0.620  0.7702  0.2773  0.9698
  189MPD1    C3 2929   0.082   1.597   0.645 -0.0059 -0.1099  1.0198
  189MPD1    C4 2930   0.153   1.592   0.761 -0.1734  0.2853  0.2674
  189MPD1    C5 2931   0.137   1.491   0.853 -0.3269 -0.5129 -0.5745
  189MPD1     H 2932   4.688   1.470   0.524  0.1847  4.5721  0.6548
  189MPD1    H1 2933   0.210   1.677   0.796  1.8173 -0.1564 -1.8620
  189MPD1    H2 2934   0.030   1.331   0.918 -2.3595  0.8243  0.7588
  189MPD1    H3 2935   0.174   1.502   0.955 -0.5715  2.0714 -0.7789
  189MPD1     N 2936   0.086   1.704   0.548  0.3376  0.1145  0.4523
  189MPD1    H5 2937   0.028   1.696   0.466 -1.6536 -0.4974  1.9169
  189MPD1    N1 2938   4.634   1.278   0.671  0.3803 -0.2976 -0.7193
  189MPD1    H6 2939   4.627   1.187   0.715  0.5082 -0.6669 -1.4669
  189MPD1    H7 2940   4.633   1.264   0.570  1.3052 -1.8084 -0.5232
  190MPD1     C 2941   4.346   4.473  14.662  0.0331 -0.3095  0.3356
  190MPD1    C1 2942   4.418   4.540  14.753  0.1395  0.3567 -0.0796
  190MPD1    C2 2943   4.458   4.471  14.864  0.8971  0.0245  0.2761
  190MPD1    C3 2944   4.425   4.339  14.883 -0.4187 -0.0214 -0.3087
  190MPD1    C4 2945   4.336   4.280  14.798  0.6927 -0.4583  0.0228
  190MPD1    C5 2946   4.299   4.344  14.686  0.2861 -0.1397  0.0719
  190MPD1     H 2947   4.533   4.518  14.926 -0.1094 -0.6493  2.0004
  190MPD1    H1 2948   4.304   4.180  14.824  0.1044  0.4332  2.7352
  190MPD1    H2 2949   4.308   4.514  14.569 -2.4674  2.0709  2.4140
  190MPD1    H3 2950   4.228   4.298  14.618 -0.1360 -2.7303  2.2269
  190MPD1     N 2951   4.473   4.269  14.998  0.2463 -0.2014  0.2474
  190MPD1    H5 2952   4.541   4.321  15.052 -1.0191 -0.7962  2.4007
  190MPD1    N1 2953   4.440   4.677  14.749  0.1453 -0.1300  0.1535
  190MPD1    H6 2954   4.503   4.722  14.815  0.3902  1.9519 -1.5079
  190MPD1    H7 2955   4.461   4.718  14.659 -2.6129  1.4321  0.2104
  191MPD1     C 2956   3.098   1.937  13.057  0.0085 -0.4315 -0.5120
  191MPD1    C1 2957   3.029   2.038  13.006 -0.0491  0.2442 -0.2516
  191MPD1    C2 2958   3.098   2.118  12.917  0.3638 -0.4598  0.2722
  191MPD1    C3 2959   3.228   2.092  12.874  0.1477 -0.8024 -0.7434
  191MPD1    C4 2960   3.293   1.979  12.915 -0.4972 -0.5971  0.0244
  191MPD1    C5 2961   3.227   1.908  13.012 -0.0200  0.7475 -0.1778
  191MPD1     H 2962   3.054   2.210  12.880 -1.0086 -0.6342  1.4516
  191MPD1    H1 2963   3.390   1.947  12.879  0.5160 -0.7032  2.8941
  191MPD1    H2 2964   3.063   1.867  13.131 -1.8066  1.6638  0.6025
  191MPD1    H3 2965   3.274   1.819  13.053 -0.7386 -0.1473 -1.2838
  191MPD1     N 2966   3.280   2.185  12.786  0.6549  0.5133 -0.1816
  191MPD1    H5 2967   3.216   2.252  12.744  1.1509  0.6706 -0.6933
  191MPD1    N1 2968   2.899   2.058  13.044  0.3642 -0.1321  0.5861
  191MPD1    H6 2969   2.879   2.060  13.143 -1.4084  1.9397  0.1957
  191MPD1    H7 2970   2.855   2.144  13.012  0.4438 -0.4434 -0.3654
  192MPD1     C 2971   3.126   2.653  11.899 -0.1718 -0.4576  0.0412
  192MPD1    C1 2972   3.057   2.598  12.007 -0.5419 -0.3968  0.1436
  192MPD1    C2 2973   3.123   2.567  12.120 -0.7141  0.2215 -0.6802
  192MPD1    C3 2974   3.263   2.570  12.131 -0.1264 -0.0246 -0.0856
  192MPD1    C4 2975   3.334   2.622  12.021 -0.5559 -0.3158  0.3320
  192MPD1    C5 2976   3.263   2.663  11.908  0.4848  0.0836  1.1293
  192MPD1     H 2977   3.063   2.540  12.206  0.0977  1.2718  0.2178
  192MPD1    H1 2978   3.442   2.624  12.027 -0.5325 -1.4339  0.2034
  192MPD1    H2 2979   3.077   2.683  11.806  3.6678 -1.5588 -2.3289
  192MPD1    H3 2980   3.323   2.687  11.822  0.1627 -0.9773  0.6063
  192MPD1     N 2981   3.332   2.524  12.247 -0.3829 -0.3098 -0.8015
  192MPD1    H5 2982   3.433   2.532  12.246 -0.5080  1.4825  0.2878
  192MPD1    N1 2983   2.915   2.586  12.007 -0.4793  0.8174  0.2186
  192MPD1    H6 2984   2.873   2.635  11.928 -1.4110 -0.6788 -0.2181
  192MPD1    H7 2985   2.891   2.489  11.990  1.6231  0.3221  0.1383
  193MPD1     C 2986   2.621   2.310  16.349 -0.3051  0.3895 -0.0574
  193MPD1    C1 2987   2.691   2.191  16.375  0.2595  0.0368 -0.1408
  193MPD1    C2 2988   2.827   2.188  16.360  0.4200 -0.5162  0.7734
  193MPD1    C3 2989   2.902   2.300  16.317  0.3184 -0.2944 -0.7708
  193MPD1    C4 2990   2.833   2.409  16.274 -0.1109  0.3002  0.0131
  193MPD1    C5 2991   2.693   2.409  16.288 -0.3556 -0.5372 -0.5801
  193MPD1     H 2992   2.877   2.097  16.393 -0.2414 -0.8884  0.7377
  193MPD1    H1 2993   2.878   2.495  16.226 -0.4934  0.0132 -0.8656
  193MPD1    H2 2994   2.513   2.319  16.344 -0.3899 -0.2309  0.7366
  193MPD1    H3 2995   2.646   2.504  16.264  1.8383  0.1936 -1.9512
  193MPD1     N 2996   3.042   2.304  16.324  0.8058 -0.2331 -0.5933
  193MPD1    H5 2997   3.087   2.390  16.297  0.0147  1.1152  2.3470
  193MPD1    N1 2998   2.625   2.089  16.448  0.4090 -0.0039  0.6614
  193MPD1    H6 2999   2.524   2.091  16.445  0.3982  1.2928  1.9354
  193MPD1    H7 3000   2.671   1.998  16.445 -0.5369 -0.4939  1.1161
  194MPD1     C 3001   0.518   4.295  17.331  0.5506  0.0126  0.0178
  194MPD1    C1 3002   0.523   4.179  17.406  0.3287 -0.0874  0.5439
  194MPD1    C2 3003   0.592   4.071  17.363 -0.8341 -1.0741  0.0807
  194MPD1    C3 3004   0.673   4.077  17.248  0.0771 -0.1863  0.0099
  194MPD1    C4 3005   0.672   4.190  17.171 -0.3305 -0.2179  0.3750
  194MPD1    C5 3006   0.596   4.294  17.219 -0.1268  0.2827 -0.2831
  194MPD1     H 3007   0.595   3.981  17.424  1.1922 -1.2866 -0.3071
  194MPD1    H1 3008   0.723   4.189  17.076  2.7745  1.5668  1.9928
  194MPD1    H2 3009   0.452   4.379  17.352  2.2209  1.2676  0.2432
  194MPD1    H3 3010   0.594   4.380  17.153 -1.7938 -0.6290 -1.3902
  194MPD1     N 3011   0.762   3.977  17.209 -0.4082 -0.1219 -0.0624
  194MPD1    H5 3012   0.829   3.997  17.136  0.5056 -1.1537  0.4816
  194MPD1    N1 3013   0.460   4.167  17.531 -0.1828 -0.5661 -0.1072
  194MPD1    H6 3014   0.433   4.074  17.559  1.1909 -1.0904 -0.5113
  194MPD1    H7 3015   0.381   4.231  17.535  0.1036  0.0178 -3.3325
  195MPD1     C 3016   2.844   1.442  17.359 -0.0830 -0.1977 -0.3629
  195MPD1    C1 3017   2.869   1.353  17.264 -0.2617  0.2164 -0.4924
  195MPD1    C2 3018   2.920   1.230  17.295  0.3640  0.1986 -1.1058
  195MPD1    C3 3019   2.950   1.198  17.427 -0.4070 -0.1816  0.1125
  195MPD1    C4 3020   2.917   1.296  17.521  0.4898  0.3509  0.1136
  195MPD1    C5 3021   2.859   1.412  17.488 -0.0235  0.2494  0.7775
  195MPD1     H 3022   2.947   1.158  17.219 -0.4045 -1.1390 -0.1082
  195MPD1    H1 3023   2.928   1.286  17.629  2.0089 -0.5556 -0.1202
  195MPD1    H2 3024   2.798   1.533  17.323  0.2132  0.4438  0.8825
  195MPD1    H3 3025   2.825   1.485  17.561  0.6586  1.1359  0.2120
  195MPD1     N 3026   3.020   1.083  17.471  0.5157 -0.1894 -0.0236
  195MPD1    H5 3027   3.018   1.057  17.569 -0.8731 -1.8241 -0.4799
  195MPD1    N1 3028   2.857   1.393  17.131  0.4130 -0.5837 -0.4172
  195MPD1    H6 3029   2.845   1.310  17.073  0.3357 -0.1025 -1.0965
  195MPD1    H7 3030   2.776   1.453  17.114 -0.3034 -2.0349 -2.2870
  196MPD1     C 3031   1.802   0.212   0.558  0.4212  0.6776 -0.3144
  196MPD1    C1 3032   1.933   0.200   0.582 -0.4384  0.4070  0.2509
  196MPD1    C2 3033   1.985   0.275   0.683  0.7425  0.3711  0.0106
  196MPD1    C3 3034   1.912   0.350   0.767 -1.1955 -0.6339 -0.4690
  196MPD1    C4 3035   1.780   0.343   0.750  0.1074 -0.5054  0.2851
  196MPD1    C5 3036   1.723   0.287   0.640  0.8306  0.5672  0.3439
  196MPD1     H 3037   2.093   0.274   0.697  0.9386  0.5620 -1.4823
  196MPD1    H1 3038   1.713   0.387   0.823  0.8982 -1.9338  1.8755
  196MPD1    H2 3039   1.758   0.158   0.475  1.4141 -2.3875  1.1344
  196MPD1    H3 3040   1.616   0.290   0.624  1.0315  0.0930 -1.0740
  196MPD1     N 3041   1.959   0.412   0.884  0.2393  0.4131 -0.0005
  196MPD1    H5 3042   1.885   0.454   0.940 -0.7549  0.6521 -1.4856
  196MPD1    N1 3043   2.014   0.118   0.502 -0.3588 -0.0618  0.2149
  196MPD1    H6 3044   1.964   0.033   0.476  2.4286 -1.4568 -0.5658
  196MPD1    H7 3045   2.097   0.079   0.546  0.4789 -0.1668 -1.4919
  197MPD1     C 3046   2.001   2.000  17.646 -0.0775 -0.8309  0.5660
  197MPD1    C1 3047   2.130   2.038  17.649 -0.2580  0.3514 -0.0610
  197MPD1    C2 3048   2.184   2.106  17.544 -0.3030 -0.9337  0.3656
  197MPD1    C3 3049   2.116   2.123  17.426  0.8534 -0.5860 -0.4356
  197MPD1    C4 3050   1.987   2.080  17.422 -0.3498  0.1216 -0.5580
  197MPD1    C5 3051   1.930   2.018  17.528  0.5342  0.7202 -0.1953
  197MPD1     H 3052   2.287   2.135  17.560 -0.8578 -0.0704  2.3654
  197MPD1    H1 3053   1.929   2.085  17.331  0.3907  0.2164 -1.0276
  197MPD1    H2 3054   1.958   1.979   0.006  0.2877  3.3074  1.6220
  197MPD1    H3 3055   1.834   1.975  17.502  2.7943 -2.0475 -4.0208
  197MPD1     N 3056   2.180   2.169  17.311 -0.0397  0.2592 -0.5959
  197MPD1    H5 3057   2.123   2.212  17.239  0.2747  1.5202 -0.0921
  197MPD1    N1 3058   2.215   2.030   0.026  0.3401 -0.4371 -0.5686
  197MPD1    H6 3059   2.203   1.934   0.059  0.7312  0.4349  2.1171
  197MPD1    H7 3060   2.314   2.054   0.028  0.5663 -1.3398 -0.7975
  198MPD1     C 3061   4.120   0.002  15.198 -0.3533 -0.3216 -0.1698
  198MPD1    C1 3062   4.253   0.015  15.170 -0.5399 -0.3482 -0.7055
  198MPD1    C2 3063   4.325   0.098  15.246  0.7977  0.5954 -0.1721
  198MPD1    C3 3064   4.265   0.188  15.331 -0.1325 -0.2612  0.0775
  198MPD1    C4 3065   4.127   0.173  15.356 -0.3843  0.1185 -0.5221
  198MPD1    C5 3066   4.060   0.079  15.285  0.1600 -0.5049  0.3872
  198MPD1     H 3067   4.433   0.088  15.252  1.0167  2.9308 -0.1442
  198MPD1    H1 3068   4.072   0.233  15.428  0.5182  0.2627  0.0397
  198MPD1    H2 3069   4.064   4.655  15.153 -1.9589  0.8514 -0.2736
  198MPD1    H3 3070   3.952   0.069  15.287 -0.0859  2.0141 -0.4456
  198MPD1     N 3071   4.347   0.271  15.407 -0.0052  0.0437  0.3677
  198MPD1    H5 3072   4.446   0.259  15.393  0.3006  1.7080  1.0928
  198MPD1    N1 3073   4.322   4.653  15.091 -0.1662  0.1406 -0.4920
  198MPD1    H6 3074   4.261   4.633  15.012  0.1650 -1.6736 -0.2839
  198MPD1    H7 3075   4.407   4.694  15.053 -0.4576  2.5004  1.3944
  199MPD1     C 3076   1.574   1.216  10.078  0.3312  0.1404  0.1341
  199MPD1    C1 3077   1.651   1.321  10.024  0.6667  0.2219 -0.0821
  199MPD1    C2 3078   1.596   1.405   9.931 -0.8766 -0.5117 -0.1297
  199MPD1    C3 3079   1.469   1.382   9.884 -0.1164 -0.2935  0.2871
  199MPD1    C4 3080   1.403   1.271   9.935  0.3789  0.6262 -0.7674
  199MPD1    C5 3081   1.450   1.187  10.028  0.2933  0.4024  0.5589
  199MPD1     H 3082   1.659   1.483   9.890 -2.5795  0.5071 -0.7976
  199MPD1    H1 3083   1.305   1.253   9.894 -0.3129  0.9115  0.7477
  199MPD1    H2 3084   1.614   1.146  10.151 -1.8867 -0.3106  0.9044
  199MPD1    H3 3085   1.383   1.106  10.056  0.4834  0.7930  2.1674
  199MPD1     N 3086   1.403   1.455   9.785  0.3301  0.1604  0.3558
  199MPD1    H5 3087   1.307   1.433   9.759  0.9339 -1.4653 -0.5101
  199MPD1    N1 3088   1.788   1.344  10.063 -0.0391  0.6406 -0.7221
  199MPD1    H6 3089   1.821   1.439  10.079  1.3531  0.3172 -1.6601
  199MPD1    H7 3090   1.822   1.283  10.136  1.2774  0.4942 -1.4547
  200MPD1     C 3091   0.141   1.395  14.603 -0.4014  0.4000  0.2229
  200MPD1    C1 3092   0.088   1.523  14.601 -0.1042  0.5906  0.2302
  200MPD1    C2 3093   0.148   1.612  14.512 -0.0580 -0.1306  0.2513
  200MPD1    C3 3094   0.245   1.579  14.426  0.9655 -0.9793 -0.1007
  200MPD1    C4 3095   0.288   1.449  14.422  0.1454  0.4623  0.1040
  200MPD1    C5 3096   0.239   1.361  14.512 -0.1200  0.1183  0.3246
  200MPD1     H 3097   0.104   1.711  14.506 -0.9470 -0.6083 -1.0506
  200MPD1    H1 3098   0.367   1.415  14.355 -0.0273  0.7655 -0.2559
  200MPD1    H2 3099   0.113   1.315  14.671 -0.5902 -1.9162 -2.5824
  200MPD1    H3 3100   0.271   1.258  14.505  0.3314  0.3562 -1.0681
  200MPD1     N 3101   0.300   1.686  14.349  0.3357 -0.4835  0.0925
  200MPD1    H5 3102   0.266   1.778  14.375 -2.6627 -1.4396 -0.4580
  200MPD1    N1 3103   4.729   1.567  14.694 -0.2064 -0.1420  0.4608
  200MPD1    H6 3104   4.658   1.495  14.685 -0.5029  0.0585  1.2056
  200MPD1    H7 3105   4.684   1.656  14.676 -0.1322 -0.1562  0.2156
  201MPD1     C 3106   2.070   1.428  13.560  0.1965  0.2843  0.2482
  201MPD1    C1 3107   1.981   1.326  13.549 -0.2769  0.6826  0.3233
  201MPD1    C2 3108   2.010   1.197  13.604 -0.2387  0.0215 -0.3515
  201MPD1    C3 3109   2.143   1.168  13.641 -0.7396  0.4652 -0.5061
  201MPD1    C4 3110   2.228   1.277  13.656 -0.2742 -0.4309 -0.3807
  201MPD1    C5 3111   2.194   1.403  13.613 -0.4903 -0.4996  0.5566
  201MPD1     H 3112   1.930   1.124  13.603 -0.5518  0.3927 -1.9427
  201MPD1    H1 3113   2.333   1.259  13.674 -0.3555 -0.0568  0.4766
  201MPD1    H2 3114   2.054   1.522  13.509 -0.5783 -1.4682 -2.7295
  201MPD1    H3 3115   2.268   1.482  13.615 -0.0705 -0.9123  1.1038
  201MPD1     N 3116   2.176   1.033  13.664  0.0436  0.3567  0.0769
  201MPD1    H5 3117   2.102   0.965  13.647 -0.9040  1.4339 -0.1315
  201MPD1    N1 3118   1.849   1.362  13.514 -0.0773  0.3314  0.4621
  201MPD1    H6 3119   1.802   1.280  13.476  0.3933  0.4182 -0.2979
  201MPD1    H7 3120   1.847   1.426  13.435  0.9923 -0.4712 -0.2038
  202MPD1     C 3121   1.541   0.891   9.432 -0.0602  0.2884 -0.3058
  202MPD1    C1 3122   1.592   0.788   9.512  0.0242  0.1372 -0.0162
  202MPD1    C2 3123   1.731   0.798   9.530  0.1508  0.5110  0.0455
  202MPD1    C3 3124   1.813   0.863   9.442 -0.0129  0.3881 -0.2371
  202MPD1    C4 3125   1.760   0.943   9.344  0.1065  0.4709 -0.4203
  202MPD1    C5 3126   1.629   0.963   9.346 -0.2063  0.2356 -0.0429
  202MPD1     H 3127   1.768   0.738   9.612  1.4235  1.8997  0.4939
  202MPD1    H1 3128   1.813   1.006   9.274  2.5799  1.4872  2.3567
  202MPD1    H2 3129   1.436   0.917   9.421  0.1953  0.0306 -3.3597
  202MPD1    H3 3130   1.596   1.038   9.275 -0.3002 -0.0232 -0.2764
  202MPD1     N 3131   1.953   0.858   9.452 -0.4721 -0.2845 -0.4742
  202MPD1    H5 3132   1.998   0.936   9.405 -0.2805  0.3301  0.7100
  202MPD1    N1 3133   1.516   0.731   9.618  0.3702  0.2287 -0.4130
  202MPD1    H6 3134   1.554   0.648   9.664 -0.2531 -1.5179 -3.0666
  202MPD1    H7 3135   1.415   0.731   9.606  0.3879  0.6577 -0.5546
  203MPD1     C 3136   0.827   1.448  12.531  0.7967 -0.2915  0.6087
  203MPD1    C1 3137   0.836   1.350  12.434  0.3195 -0.1458  0.2738
  203MPD1    C2 3138   0.921   1.243  12.463 -0.9438  0.6144  0.1432
  203MPD1    C3 3139   0.960   1.224  12.596 -0.8007 -0.3777 -0.2549
  203MPD1    C4 3140   0.940   1.319  12.692  0.1528  0.3450 -0.0780
  203MPD1    C5 3141   0.874   1.432  12.656 -0.3921 -0.8256 -0.5216
  203MPD1     H 3142   0.942   1.169  12.387 -3.3734  0.1204 -0.0667
  203MPD1    H1 3143   0.982   1.323  12.792  0.7325 -0.1882 -0.2919
  203MPD1    H2 3144   0.796   1.547  12.501 -0.1196 -0.8206 -0.2140
  203MPD1    H3 3145   0.872   1.510  12.731 -1.8806 -1.2599 -0.1265
  203MPD1     N 3146   1.032   1.106  12.626  0.3178  0.5422 -0.0617
  203MPD1    H5 3147   1.056   1.041  12.551 -2.0065  1.0952 -1.3217
  203MPD1    N1 3148   0.797   1.378  12.307 -0.3797  0.2142 -0.3111
  203MPD1    H6 3149   0.710   1.430  12.317 -1.2797 -1.4116  0.3421
  203MPD1    H7 3150   0.776   1.293  12.255  0.6950 -0.4528  0.3362
  204MPD1     C 3151   0.801   3.246   0.152 -0.3887  0.1133  0.3781
  204MPD1    C1 3152   0.870   3.225   0.038  0.5265  0.1784  0.5560
  204MPD1    C2 3153   0.923   3.097   0.002  0.5497 -0.4066  0.4779
  204MPD1    C3 3154   0.897   2.990   0.083 -0.1233  0.2374  0.2909
  204MPD1    C4 3155   0.842   3.014   0.206 -0.5547 -0.5130  0.4975
  204MPD1    C5 3156   0.795   3.141   0.233 -0.0789 -0.8714  0.6512
  204MPD1     H 3157   0.973   3.080  17.644 -1.4457  1.1198 -0.8809
  204MPD1    H1 3158   0.822   2.934   0.276 -1.8593 -0.4998  0.1279
  204MPD1    H2 3159   0.762   3.344   0.173 -2.0356 -0.7687  1.4627
  204MPD1    H3 3160   0.741   3.155   0.327 -0.7386  0.7373  0.0295
  204MPD1     N 3161   0.939   2.860   0.037 -0.6318 -0.0574 -0.2519
  204MPD1    H5 3162   0.992   2.858  17.688  0.8432  0.2205  0.6427
  204MPD1    N1 3163   0.895   3.336  17.691 -0.1626  0.3371 -0.0271
  204MPD1    H6 3164   0.815   3.398  17.689 -0.3273  0.1531  1.0822
  204MPD1    H7 3165   0.938   3.325  17.599 -2.6706 -1.4131 -0.9945
  205MPD1     C 3166   0.560   1.857  16.822  0.2213  0.4837  0.8042
  205MPD1    C1 3167   0.515   1.728  16.839 -0.7658  0.5777  0.6024
  205MPD1    C2 3168   0.535   1.678  16.968 -0.0706  0.0728 -0.3474
  205MPD1    C3 3169   0.576   1.753  17.077 -1.0546 -1.0776  0.2184
  205MPD1    C4 3170   0.601   1.879  17.056 -0.3110  0.7716 -0.3175
  205MPD1    C5 3171   0.594   1.929  16.931  0.2454  0.0431  0.3530
  205MPD1     H 3172   0.504   1.575  16.981  1.9819 -0.4511  0.4293
  205MPD1    H1 3173   0.626   1.955  17.130 -2.4808 -1.3413  2.6110
  205MPD1    H2 3174   0.552   1.911  16.729  0.3123 -1.3172 -0.2340
  205MPD1    H3 3175   0.629   2.031  16.918 -0.7851  0.1780 -1.4455
  205MPD1     N 3176   0.584   1.709  17.211  0.4148  0.0956 -0.3877
  205MPD1    H5 3177   0.615   1.776  17.280  2.0851 -1.5718  0.4621
  205MPD1    N1 3178   0.490   1.649  16.725  0.6246  0.2005 -0.3626
  205MPD1    H6 3179   0.460   1.712  16.651  1.2055  1.4055  0.4246
  205MPD1    H7 3180   0.427   1.570  16.734  0.9859 -0.1545 -0.9326
  206MPD1     C 3181   1.392   3.165  16.479  0.8353 -0.4226  0.3496
  206MPD1    C1 3182   1.429   3.295  16.495 -0.0056  0.4627  0.0295
  206MPD1    C2 3183   1.390   3.373  16.386  0.2267  0.1939 -0.6048
  206MPD1    C3 3184   1.310   3.328  16.279  1.0367  0.5289 -0.2038
  206MPD1    C4 3185   1.281   3.195  16.275  0.1296 -0.0494  0.2133
  206MPD1    C5 3186   1.322   3.115  16.374  0.0519  0.2751  0.1938
  206MPD1     H 3187   1.434   3.471  16.370 -2.4685  1.6496  0.7944
  206MPD1    H1 3188   1.217   3.159  16.195 -0.1678  0.5729  0.1724
  206MPD1    H2 3189   1.430   3.095  16.553 -0.3700 -0.3210  1.0773
  206MPD1    H3 3190   1.296   3.009  16.376  1.5702 -0.1543 -2.5517
  206MPD1     N 3191   1.282   3.406  16.164  0.2405  0.2022 -0.6212
  206MPD1    H5 3192   1.246   3.360  16.081  0.8941 -2.6048  0.6429
  206MPD1    N1 3193   1.525   3.342  16.585  0.3931 -0.6022 -0.9074
  206MPD1    H6 3194   1.510   3.443  16.594  0.3049 -0.8120  1.2983
  206MPD1    H7 3195   1.521   3.295  16.675 -0.6643  1.0990 -0.0746
  207MPD1     C 3196   4.263   1.907   9.584  0.6381 -0.1085  0.0322
  207MPD1    C1 3197   4.147   1.836   9.605 -0.0041 -0.1078 -0.1875
  207MPD1    C2 3198   4.087   1.851   9.731 -0.0508  0.2899  0.5109
  207MPD1    C3 3199   4.135   1.939   9.825 -0.0831 -0.2334 -0.4587
  207MPD1    C4 3200   4.246   2.011   9.802  0.3245  0.0156  0.7122
  207MPD1    C5 3201   4.313   1.991   9.682 -0.2862 -0.5439 -0.0717
  207MPD1     H 3202   3.996   1.793   9.742 -0.3104  0.5515 -0.2203
  207MPD1    H1 3203   4.279   2.091   9.867  1.8480 -0.2660  0.2753
  207MPD1    H2 3204   4.327   1.906   9.497  0.6045 -0.5715  0.0142
  207MPD1    H3 3205   4.410   2.036   9.670 -0.8263  0.6884  0.1690
  207MPD1     N 3206   4.058   1.960   9.937 -0.1770  0.1285 -0.7277
  207MPD1    H5 3207   4.099   2.030   9.997 -0.9903  1.5131 -1.7866
  207MPD1    N1 3208   4.116   1.737   9.508 -0.6665  0.4965 -0.2289
  207MPD1    H6 3209   4.019   1.708   9.505  0.0108 -1.8695  0.2855
  207MPD1    H7 3210   4.142   1.760   9.412 -2.0185 -1.0492 -0.9627
  208MPD1     C 3211   1.745   1.022   0.503 -0.4098 -0.6710 -0.3035
  208MPD1    C1 3212   1.717   1.047   0.639  0.2970  0.3917  0.5616
  208MPD1    C2 3213   1.587   1.039   0.682  0.9780  0.1145  0.2960
  208MPD1    C3 3214   1.487   1.014   0.594  0.1655 -1.0483 -0.1949
  208MPD1    C4 3215   1.520   0.984   0.460  0.3250 -0.1784  0.0216
  208MPD1    C5 3216   1.645   0.980   0.419  0.3750 -0.3185  0.2679
  208MPD1     H 3217   1.571   1.076   0.783 -0.0016  1.4312 -0.3437
  208MPD1    H1 3218   1.447   0.959   0.384  0.3165  0.1290 -0.0740
  208MPD1    H2 3219   1.846   1.021   0.464 -0.7609  0.8671 -1.2153
  208MPD1    H3 3220   1.667   0.956   0.316  0.1845 -0.0121  0.1546
  208MPD1     N 3221   1.353   1.025   0.645 -0.4411 -0.2317  0.6035
  208MPD1    H5 3222   1.342   1.047   0.743  0.4113 -3.3715  1.4067
  208MPD1    N1 3223   1.822   1.109   0.706  0.2612  0.3912  0.0626
  208MPD1    H6 3224   1.808   1.119   0.807 -1.7275 -1.9722  0.0129
  208MPD1    H7 3225   1.916   1.074   0.686  0.9378  2.3088 -0.1871
  209MPD1     C 3226   3.780   0.882  11.272 -0.8731 -0.0896  0.5808
  209MPD1    C1 3227   3.853   0.977  11.348  0.0715  0.2440  0.2509
  209MPD1    C2 3228   3.805   1.112  11.352 -0.6706  0.1690 -0.1356
  209MPD1    C3 3229   3.688   1.142  11.283  0.4213  0.1484  0.0082
  209MPD1    C4 3230   3.607   1.036  11.231  0.5335  1.1430  0.1183
  209MPD1    C5 3231   3.659   0.908  11.215 -0.0175  0.0896  0.7653
  209MPD1     H 3232   3.859   1.186  11.411 -0.3570 -2.0893  2.3856
  209MPD1    H1 3233   3.507   1.049  11.189  0.6760  1.2253 -0.1959
  209MPD1    H2 3234   3.831   0.787  11.262 -2.0767 -0.6757  0.0854
  209MPD1    H3 3235   3.596   0.829  11.175 -0.9399  0.3976  1.5896
  209MPD1     N 3236   3.646   1.273  11.276  1.1947 -0.2199 -0.0501
  209MPD1    H5 3237   3.705   1.347  11.314 -0.5450  0.5915  1.0520
  209MPD1    N1 3238   3.971   0.942  11.406  0.1647  0.0085 -0.5611
  209MPD1    H6 3239   3.982   0.995  11.493  2.4655  0.8810 -1.3805
  209MPD1    H7 3240   3.980   0.842  11.421 -2.4673  0.0960  1.5316
  210MPD1     C 3241   3.897   2.104  11.645 -0.4399 -0.1156 -0.6841
  210MPD1    C1 3242   3.963   1.980  11.619  0.3257  0.6233  0.2361
  210MPD1    C2 3243   3.912   1.897  11.522  0.5402  0.2359  1.2280
  210MPD1    C3 3244   3.779   1.918  11.476  0.8908  0.7316  0.4112
  210MPD1    C4 3245   3.718   2.037  11.510 -1.0488 -0.1449  0.4883
  210MPD1    C5 3246   3.771   2.129  11.600 -0.0928  0.0479 -0.1195
  210MPD1     H 3247   3.965   1.805  11.500  1.8971  0.9829  1.3645
  210MPD1    H1 3248   3.618   2.057  11.475 -1.0894  0.5582  1.0178
  210MPD1    H2 3249   3.950   2.183  11.698  0.2135 -1.4979  0.7404
  210MPD1    H3 3250   3.720   2.221  11.626  2.6822  1.8725 -1.1774
  210MPD1     N 3251   3.715   1.838  11.376 -0.3543 -0.1563 -0.2202
  210MPD1    H5 3252   3.616   1.856  11.358 -0.6946 -1.5515  0.2529
  210MPD1    N1 3253   4.099   1.963  11.643 -0.3476  0.2728 -0.0572
  210MPD1    H6 3254   4.118   1.999  11.736  0.1782  1.8400 -0.7748
  210MPD1    H7 3255   4.115   1.863  11.657  1.3221  0.6132  0.4838
  211MPD1     C 3256   1.876   1.253  16.162 -0.2240 -0.6709  0.2942
  211MPD1    C1 3257   1.885   1.305  16.290 -0.0034  0.0801  0.8346
  211MPD1    C2 3258   1.767   1.351  16.354  0.1835  0.6536  0.6625
  211MPD1    C3 3259   1.656   1.375  16.275  0.1402  0.0464 -0.0411
  211MPD1    C4 3260   1.650   1.331  16.144 -0.0768 -0.0416  0.0518
  211MPD1    C5 3261   1.763   1.272  16.089  0.5626  0.1256 -0.0604
  211MPD1     H 3262   1.768   1.385  16.457  1.9041  1.9523  0.2157
  211MPD1    H1 3263   1.575   1.352  16.070  1.2261 -0.5850 -1.4145
  211MPD1    H2 3264   1.968   1.216  16.120  0.0936  2.3217 -1.6362
  211MPD1    H3 3265   1.761   1.248  15.984  0.8163 -0.2189  0.0128
  211MPD1     N 3266   1.552   1.454  16.332  0.2104 -0.4142  0.8461
  211MPD1    H5 3267   1.569   1.496  16.423 -2.3448  0.2589  1.0092
  211MPD1    N1 3268   1.995   1.270  16.371 -0.3071 -0.1322 -0.4443
  211MPD1    H6 3269   2.084   1.273  16.321  0.2706 -2.0481  0.4800
  211MPD1    H7 3270   2.010   1.338  16.446  0.5165  0.7316 -1.3828
  212MPD1     C 3271   0.674   4.388  16.696  0.4020 -0.1315 -0.0913
  212MPD1    C1 3272   0.564   4.454  16.757  0.1154  0.6203  0.3824
  212MPD1    C2 3273   0.477   4.380  16.835  0.2322 -0.0684 -1.4436
  212MPD1    C3 3274   0.498   4.240  16.852  0.1063  0.2316 -0.3472
  212MPD1    C4 3275   0.608   4.187  16.797 -0.4857  0.6081  0.7834
  212MPD1    C5 3276   0.697   4.257  16.721 -0.4581 -0.1239  0.1231
  212MPD1     H 3277   0.388   4.426  16.876  2.6203  0.1852  3.4341
  212MPD1    H1 3278   0.636   4.086  16.825 -2.9734  0.0817  1.3431
  212MPD1    H2 3279   0.739   4.447  16.631  0.4831 -0.9199 -0.7272
  212MPD1    H3 3280   0.779   4.204  16.674  0.7376  1.7269  0.1251
  212MPD1     N 3281   0.406   4.146  16.911  0.2614 -0.3017 -0.2839
  212MPD1    H5 3282   0.441   4.052  16.927 -0.3231 -0.3129  0.9514
  212MPD1    N1 3283   0.538   4.588  16.739  0.3859 -1.0432 -0.0260
  212MPD1    H6 3284   0.628   4.635  16.730 -0.6200  0.0199 -4.3795
  212MPD1    H7 3285   0.490   4.620  16.823  1.5468 -0.9743  0.6183
  213MPD1     C 3286   3.384   4.307  15.789 -0.3130 -0.2798 -0.3959
  213MPD1    C1 3287   3.293   4.260  15.699 -1.0004 -0.3076  0.4624
  213MPD1    C2 3288   3.230   4.358  15.625 -0.2789 -0.2890  0.5530
  213MPD1    C3 3289   3.274   4.492  15.620  0.4377 -0.4199 -0.0248
  213MPD1    C4 3290   3.373   4.525  15.700  0.3579  0.0983 -0.2356
  213MPD1    C5 3291   3.418   4.433  15.791 -0.4394 -0.5639 -0.3512
  213MPD1     H 3292   3.145   4.325  15.566 -0.8549 -0.3704  1.4210
  213MPD1    H1 3293   3.403   4.629  15.712 -0.8667  0.2664  1.4542
  213MPD1    H2 3294   3.423   4.230  15.855 -0.9223  0.5286  0.8993
  213MPD1    H3 3295   3.497   4.454  15.862  0.3040 -1.7016 -0.8331
  213MPD1     N 3296   3.203   4.590  15.545 -0.2469  0.3708 -0.7231
  213MPD1    H5 3297   3.134   4.542  15.487  0.5034 -1.6911  0.1128
  213MPD1    N1 3298   3.227   4.134  15.725 -0.3151 -0.5305  0.4368
  213MPD1    H6 3299   3.298   4.069  15.756 -1.1000 -1.6163 -0.0621
  213MPD1    H7 3300   3.184   4.085  15.647  0.4316 -0.2948 -0.1175
  214MPD1     C 3301   3.114   4.539  14.645 -0.6740 -0.1356  1.0371
  214MPD1    C1 3302   2.998   4.513  14.709 -0.5644 -0.5028  0.7735
  214MPD1    C2 3303   2.991   4.581  14.830 -0.1392 -0.2626  0.6819
  214MPD1    C3 3304   3.091   4.656  14.883 -0.2755 -1.0068 -0.6025
  214MPD1    C4 3305   3.199   4.690  14.815  0.3891  0.4125  1.0602
  214MPD1    C5 3306   3.211   4.620  14.697  0.4213  0.2712 -0.5009
  214MPD1     H 3307   2.910   4.561  14.898 -0.5978 -1.9866 -0.3751
  214MPD1    H1 3308   3.284   0.014  14.848  0.8418  1.1824 -1.5346
  214MPD1    H2 3309   3.126   4.509  14.541 -0.1278 -2.3496  1.7448
  214MPD1    H3 3310   3.304   4.612  14.642  1.0710 -1.3131  0.8080
  214MPD1     N 3311   3.096   4.700  15.018  0.1831  0.6332 -0.2055
  214MPD1    H5 3312   3.173   0.027  15.043  1.1908 -0.9174  0.5386
  214MPD1    N1 3313   2.886   4.449  14.640  0.2398  0.6213  0.1913
  214MPD1    H6 3314   2.828   4.404  14.710  1.1290  0.5962  0.9177
  214MPD1    H7 3315   2.926   4.386  14.571 -0.0665  0.0244  0.5610
  215MPD1     C 3316   2.726   1.299  10.490 -0.5547 -0.4279 -0.0903
  215MPD1    C1 3317   2.732   1.436  10.509 -0.5219 -0.3479 -0.8026
  215MPD1    C2 3318   2.815   1.492  10.599 -0.5504  0.2498 -0.0773
  215MPD1    C3 3319   2.870   1.412  10.703  0.2185  0.3942  0.2901
  215MPD1    C4 3320   2.863   1.273  10.689 -0.4472 -0.8151 -0.2464
  215MPD1    C5 3321   2.802   1.222  10.581 -0.6033 -0.7968 -0.1493
  215MPD1     H 3322   2.831   1.599  10.598  2.5599 -0.2387 -1.5306
  215MPD1    H1 3323   2.924   1.204  10.745  0.5345 -1.5487 -2.2269
  215MPD1    H2 3324   2.664   1.247  10.418 -0.1835 -0.0972 -0.6530
  215MPD1    H3 3325   2.800   1.115  10.564  0.3970 -0.7759 -0.3950
  215MPD1     N 3326   2.935   1.483  10.806  0.7331 -0.8207  0.5220
  215MPD1    H5 3327   2.908   1.581  10.811  1.3354 -0.5040 -2.8758
  215MPD1    N1 3328   2.690   1.520  10.405  0.7794  0.2753  0.5002
  215MPD1    H6 3329   2.679   1.615  10.440  0.3551  0.8518 -1.2023
  215MPD1    H7 3330   2.601   1.494  10.362  1.0694 -1.9910  1.2667
  216MPD1     C 3331   0.042   4.515   0.654  0.4801  0.1348  0.0600
  216MPD1    C1 3332   4.687   4.412   0.677 -0.1361  0.3057 -0.0103
  216MPD1    C2 3333   4.700   4.293   0.604  0.2067 -0.4724  0.5168
  216MPD1    C3 3334   0.071   4.275   0.512  0.1056  0.3767  0.4346
  216MPD1    C4 3335   0.154   4.381   0.483 -0.4388  0.1665 -0.2849
  216MPD1    C5 3336   0.144   4.498   0.563  0.0950 -0.8057  0.4924
  216MPD1     H 3337   4.624   4.216   0.612 -1.0871  0.6192 -1.3917
  216MPD1    H1 3338   0.238   4.380   0.415 -2.2395  1.7939 -2.5260
  216MPD1    H2 3339   0.040   4.609   0.708 -0.6555 -0.2334  0.6664
  216MPD1    H3 3340   0.202   4.584   0.534 -1.2100 -0.4530 -1.0858
  216MPD1     N 3341   0.090   4.156   0.441  0.1220 -0.5478  0.2862
  216MPD1    H5 3342   0.023   4.081   0.454  1.7465 -2.0046  0.1317
  216MPD1    N1 3343   4.571   4.433   0.748 -0.0477 -0.2493  0.3560
  216MPD1    H6 3344   4.536   4.347   0.788  2.2277 -0.3796  2.1089
  216MPD1    H7 3345   4.581   4.503   0.822 -1.3107 -2.0302  2.1904
  217MPD1     C 3346   0.927   0.509   8.640  0.1127 -0.3595 -0.2935
  217MPD1    C1 3347   0.974   0.392   8.686  0.2701  0.5137  0.0384
  217MPD1    C2 3348   1.055   0.401   8.801  0.5351  0.1140 -0.8444
  217MPD1    C3 3349   1.072   0.514   8.871 -0.3793 -0.3366 -0.4007
  217MPD1    C4 3350   1.007   0.622   8.828  0.2161  0.1779  0.2313
  217MPD1    C5 3351   0.940   0.623   8.709  1.0310  0.7771  0.6121
  217MPD1     H 3352   1.101   0.308   8.833 -1.3483 -0.3888  0.3998
  217MPD1    H1 3353   1.012   0.713   8.887 -0.9046 -0.4452  1.2693
  217MPD1    H2 3354   0.891   0.511   8.537 -0.2134  0.7438 -0.1552
  217MPD1    H3 3355   0.905   0.715   8.664  1.1743  0.3823 -0.3122
  217MPD1     N 3356   1.129   0.517   9.000  0.0030  0.6538 -0.2233
  217MPD1    H5 3357   1.116   0.601   9.056 -1.6274 -1.5866  2.7930
  217MPD1    N1 3358   0.968   0.276   8.604 -0.4652  0.1577  0.0754
  217MPD1    H6 3359   0.881   0.264   8.553  0.2461 -1.5730 -0.7266
  217MPD1    H7 3360   0.995   0.188   8.647 -1.5034  0.3550  1.1404
  218MPD1     C 3361   2.520   2.415  12.919 -0.0589 -1.0721  0.1033
  218MPD1    C1 3362   2.633   2.441  12.849 -0.0335 -0.1601 -0.2878
  218MPD1    C2 3363   2.709   2.347  12.784 -0.5903 -0.6209 -0.3282
  218MPD1    C3 3364   2.679   2.213  12.801  0.0732  0.5707 -0.0032
  218MPD1    C4 3365   2.571   2.178  12.886  0.0050 -0.0534  0.0500
  218MPD1    C5 3366   2.491   2.282  12.937  0.5729 -0.3723  0.5232
  218MPD1     H 3367   2.789   2.369  12.714 -0.3923 -0.0652  0.0817
  218MPD1    H1 3368   2.558   2.074  12.913  0.8190 -0.4091 -0.8861
  218MPD1    H2 3369   2.460   2.489  12.970 -1.6667 -0.5975 -2.4883
  218MPD1    H3 3370   2.405   2.262  13.000  0.4486  1.6301  1.0002
  218MPD1     N 3371   2.761   2.117  12.741  0.2932  0.0575  0.5811
  218MPD1    H5 3372   2.838   2.153  12.684 -0.9091  2.3240  0.3707
  218MPD1    N1 3373   2.668   2.567  12.816  0.8074 -0.3219  0.3469
  218MPD1    H6 3374   2.769   2.575  12.810  1.0102 -2.6906  0.5320
  218MPD1    H7 3375   2.628   2.639  12.877  2.5938 -1.7558  3.1983
  219MPD1     C 3376   3.537   2.153  12.222 -0.0712 -0.1653 -0.1660
  219MPD1    C1 3377   3.404   2.173  12.189  0.4659  0.7630  0.5784
  219MPD1    C2 3378   3.310   2.113  12.269  0.5761  0.2755  0.5824
  219MPD1    C3 3379   3.346   2.043  12.379 -0.0871 -0.2506 -0.0784
  219MPD1    C4 3380   3.480   2.032  12.418  0.2836 -0.0260 -0.0218
  219MPD1    C5 3381   3.572   2.082  12.335 -0.7106  0.3992  0.6879
  219MPD1     H 3382   3.209   2.107  12.231  0.5739 -0.1157  0.6528
  219MPD1    H1 3383   3.523   1.979  12.502  0.9884 -0.8421 -0.8906
  219MPD1    H2 3384   3.617   2.197  12.164 -0.5698 -0.6315 -1.2075
  219MPD1    H3 3385   3.674   2.079  12.373 -0.6461  1.2307  0.5756
  219MPD1     N 3386   3.250   1.992  12.465 -0.4826  0.2549  0.3463
  219MPD1    H5 3387   3.288   1.960  12.554  0.1469  0.7954  0.2731
  219MPD1    N1 3388   3.373   2.214  12.058 -0.1903 -0.1563 -0.0367
  219MPD1    H6 3389   3.445   2.272  12.017  0.2737 -0.7919 -0.1223
  219MPD1    H7 3390   3.282   2.261  12.053 -0.2725 -0.2374  0.6506
  220MPD1     C 3391   2.815   3.150  10.189 -0.5513 -0.0155  0.5896
  220MPD1    C1 3392   2.907   3.104  10.283  0.1973  0.3297 -0.7521
  220MPD1    C2 3393   2.927   2.963  10.292 -0.1488  0.3749  0.3797
  220MPD1    C3 3394   2.848   2.874  10.216 -0.1977  0.0932  0.2538
  220MPD1    C4 3395   2.753   2.919  10.127 -0.8582 -0.0306  0.1286
  220MPD1    C5 3396   2.734   3.057  10.121  0.0121 -0.3496 -0.1296
  220MPD1     H 3397   3.004   2.924  10.357 -0.6349  0.9812  1.3271
  220MPD1    H1 3398   2.691   2.852  10.068 -1.6114 -0.7795  1.7677
  220MPD1    H2 3399   2.790   3.256  10.180  0.5650  0.2052  0.0673
  220MPD1    H3 3400   2.658   3.093  10.052  0.3444  0.6960  0.0485
  220MPD1     N 3401   2.863   2.739  10.246  0.8850  0.4744 -0.0897
  220MPD1    H5 3402   2.925   2.720  10.325  2.3935 -1.0184 -1.6195
  220MPD1    N1 3403   2.979   3.191  10.364  0.4029 -0.1728 -0.3014
  220MPD1    H6 3404   3.064   3.145  10.395 -0.6307 -1.9565 -0.1401
  220MPD1    H7 3405   3.010   3.276  10.316  1.5600 -1.1557 -1.2927
  221MPD1     C 3406   0.920   1.697  17.103  0.0812  0.8986  0.5981
  221MPD1    C1 3407   0.934   1.632  17.228 -0.0295  0.3243 -0.5894
  221MPD1    C2 3408   0.973   1.497  17.228 -0.4398 -0.7648 -0.2325
  221MPD1    C3 3409   0.982   1.426  17.108 -0.2170 -0.6050 -0.0547
  221MPD1    C4 3410   0.954   1.496  16.989  0.0394 -0.7331  0.8929
  221MPD1    C5 3411   0.924   1.630  16.984  0.3729  0.0185 -0.9159
  221MPD1     H 3412   1.006   1.451  17.321 -0.3978 -0.3997 -0.0627
  221MPD1    H1 3413   0.980   1.451  16.893 -1.4424  0.0158  0.1507
  221MPD1    H2 3414   0.901   1.803  17.111 -2.7606  0.4968 -0.7843
  221MPD1    H3 3415   0.908   1.684  16.891 -1.7542 -0.7541 -0.9905
  221MPD1     N 3416   1.032   1.290  17.092  0.0912 -0.4814  1.1713
  221MPD1    H5 3417   1.040   1.263  16.995 -0.3091 -0.8406  1.2416
  221MPD1    N1 3418   0.945   1.705  17.346  0.2093  0.4621 -0.2903
  221MPD1    H6 3419   0.891   1.792  17.342  2.0184  1.4626 -3.6039
  221MPD1    H7 3420   0.926   1.650  17.429 -1.8768  0.7663 -0.5811
  222MPD1     C 3421   4.597   3.697   0.014  0.1284  0.2952  0.0339
  222MPD1    C1 3422   4.644   3.803  17.677 -0.1014 -0.7121  0.0066
  222MPD1    C2 3423   4.634   3.925  17.736  0.4286 -0.0890 -0.5078
  222MPD1    C3 3424   4.580   3.943   0.128  0.1206 -0.6069  0.5631
  222MPD1    C4 3425   4.544   3.832   0.197 -0.1252  0.0555 -0.1585
  222MPD1    C5 3426   4.536   3.714   0.134  0.0578 -0.2031  0.0635
  222MPD1     H 3427   4.678   4.014  17.692 -1.8292  1.3404  0.0992
  222MPD1    H1 3428   4.511   3.828   0.300 -0.3997 -1.2889 -0.3054
  222MPD1    H2 3429   4.589   3.598  17.708  1.1374 -0.1686  0.9423
  222MPD1    H3 3430   4.488   3.625   0.174  0.0517 -0.1647  0.1395
  222MPD1     N 3431   4.572   4.065   0.200  0.2137 -0.5481 -0.1968
  222MPD1    H5 3432   4.550   4.057   0.299 -3.2972 -2.0504 -1.1128
  222MPD1    N1 3433   4.721   3.780  17.559  1.0642 -0.3285  0.1629
  222MPD1    H6 3434   4.725   3.858  17.494 -0.7788 -0.8409 -0.5518
  222MPD1    H7 3435   4.678   3.701  17.511  3.4693 -1.4971 -0.0605
  223MPD1     C 3436   3.999   4.555   0.852  0.4354 -0.1901  0.2980
  223MPD1    C1 3437   4.130   4.590   0.869  0.5134 -0.4122  0.4428
  223MPD1    C2 3438   4.225   4.544   0.785 -0.7100 -0.8416  0.4046
  223MPD1    C3 3439   4.185   4.457   0.684  0.1606 -0.3400  0.2884
  223MPD1    C4 3440   4.056   4.430   0.661  0.4541 -0.2655 -0.2574
  223MPD1    C5 3441   3.968   4.471   0.752 -0.7739  0.2230 -0.1182
  223MPD1     H 3442   4.330   4.570   0.793 -1.3167  1.3092  1.4484
  223MPD1    H1 3443   4.030   4.360   0.583  0.1710  1.2783 -1.5623
  223MPD1    H2 3444   3.923   4.581   0.924  0.4613  1.0742 -0.1277
  223MPD1    H3 3445   3.863   4.444   0.752 -0.4905 -0.8916 -0.6719
  223MPD1     N 3446   4.288   4.421   0.602 -0.3379 -0.1074 -0.6581
  223MPD1    H5 3447   4.382   4.446   0.631 -0.4527 -3.6709  2.8403
  223MPD1    N1 3448   4.175   4.655   0.987 -0.1881  0.6234  0.0912
  223MPD1    H6 3449   4.103   4.710   1.034  1.9870  2.2629  1.5000
  223MPD1    H7 3450   4.258   4.712   0.969 -0.5695  1.0757 -0.2431
  224MPD1     C 3451   1.178   1.201   9.367  0.3842 -0.1371  0.0639
  224MPD1    C1 3452   1.281   1.269   9.306  0.0779  0.4080 -0.1567
  224MPD1    C2 3453   1.406   1.262   9.368  0.5187 -0.4966 -0.3809
  224MPD1    C3 3454   1.429   1.202   9.491  0.5027  0.6068 -0.1089
  224MPD1    C4 3455   1.320   1.149   9.555  0.0960 -0.3366  0.6280
  224MPD1    C5 3456   1.202   1.142   9.487  0.3978 -0.7528  0.1142
  224MPD1     H 3457   1.489   1.301   9.310 -0.0765 -0.4457 -1.1916
  224MPD1    H1 3458   1.330   1.098   9.650 -0.1480 -1.8176 -0.1574
  224MPD1    H2 3459   1.076   1.199   9.331 -0.0237  2.6821  1.0264
  224MPD1    H3 3460   1.116   1.092   9.529 -0.6545  0.1977 -0.9216
  224MPD1     N 3461   1.556   1.210   9.563 -0.1444  1.2833 -0.3415
  224MPD1    H5 3462   1.562   1.149   9.643 -1.2301  0.5049 -0.8453
  224MPD1    N1 3463   1.272   1.313   9.167 -0.4589 -0.8009 -0.2479
  224MPD1    H6 3464   1.336   1.391   9.155  1.5260 -2.2845  0.8126
  224MPD1    H7 3465   1.175   1.340   9.153  0.4131  2.1582 -0.6751
  225MPD1     C 3466   3.035   2.209  11.742 -0.1846 -0.4114  0.2349
  225MPD1    C1 3467   2.959   2.096  11.733  0.2314 -0.2183  0.0020
  225MPD1    C2 3468   2.913   2.038  11.854  0.0555  0.1796  0.0887
  225MPD1    C3 3469   2.939   2.105  11.976 -0.5405 -0.1581  0.4693
  225MPD1    C4 3470   3.027   2.211  11.983  0.1049 -0.3948 -0.3991
  225MPD1    C5 3471   3.068   2.261  11.862  0.3794 -0.1939  0.1508
  225MPD1     H 3472   2.859   1.945  11.844  0.1380  0.1479 -0.0666
  225MPD1    H1 3473   3.046   2.268  12.073  0.1662 -1.4856  0.2844
  225MPD1    H2 3474   3.082   2.248  11.652 -2.2730 -2.2138 -1.6267
  225MPD1    H3 3475   3.127   2.352  11.866  2.1041 -1.3831  1.6767
  225MPD1     N 3476   2.883   2.060  12.098 -0.4349  1.2356 -0.8391
  225MPD1    H5 3477   2.901   2.125  12.174  1.4209  2.2327 -2.1253
  225MPD1    N1 3478   2.931   2.043  11.613  0.0742 -0.6923  0.9332
  225MPD1    H6 3479   2.964   2.092  11.529  0.5490 -1.4573  0.6675
  225MPD1    H7 3480   2.972   1.950  11.601  0.7831 -0.1205 -1.0417
  226MPD1     C 3481   2.089   3.488   9.924 -0.1239 -0.5054 -0.0102
  226MPD1    C1 3482   2.072   3.479  10.057 -0.0682 -0.0089  0.6536
  226MPD1    C2 3483   2.025   3.352  10.098 -0.1948  0.8233 -0.7920
  226MPD1    C3 3484   2.019   3.246  10.010  1.0188 -0.1496  0.2087
  226MPD1    C4 3485   2.043   3.266   9.875  0.2972 -0.1288 -0.4819
  226MPD1    C5 3486   2.071   3.388   9.832 -0.3305 -0.2173 -0.0225
  226MPD1     H 3487   1.999   3.342  10.203 -1.0974  1.2283 -0.9752
  226MPD1    H1 3488   2.020   3.189   9.802  0.6723  0.2402 -0.9841
  226MPD1    H2 3489   2.122   3.584   9.887 -1.0527 -0.0828  0.2753
  226MPD1    H3 3490   2.085   3.401   9.726  1.2172 -3.5551 -0.2315
  226MPD1     N 3491   1.983   3.121  10.058 -0.3311 -0.1493  0.2508
  226MPD1    H5 3492   1.947   3.104  10.152 -0.2206 -1.0267  0.1332
  226MPD1    N1 3493   2.066   3.594  10.140 -0.8741  0.0713  0.5040
  226MPD1    H6 3494   2.086   3.571  10.237 -3.5116  0.7279  1.1924
  226MPD1    H7 3495   2.128   3.670  10.112 -0.9878  0.0166  0.1061
  227MPD1     C 3496   1.661   2.643  10.868 -0.4477 -0.8389  0.2306
  227MPD1    C1 3497   1.589   2.573  10.770  0.3185  0.1317 -0.4775
  227MPD1    C2 3498   1.600   2.609  10.637  0.7816  0.3596  0.6779
  227MPD1    C3 3499   1.695   2.709  10.598  0.8157 -0.1734 -0.1749
  227MPD1    C4 3500   1.776   2.769  10.696  0.2641  1.2009 -0.0686
  227MPD1    C5 3501   1.752   2.741  10.826  0.0904  0.5613  0.4591
  227MPD1     H 3502   1.551   2.560  10.554 -0.9136  0.1671  1.8067
  227MPD1    H1 3503   1.864   2.828  10.674  1.8506 -1.3677 -0.5604
  227MPD1    H2 3504   1.639   2.629  10.973 -0.2695 -0.9466  0.2529
  227MPD1    H3 3505   1.816   2.780  10.904  0.4746  2.1721 -0.6598
  227MPD1     N 3506   1.720   2.734  10.460  0.0450  0.6773 -0.0506
  227MPD1    H5 3507   1.668   2.666  10.405  1.2586  0.6498 -1.1684
  227MPD1    N1 3508   1.485   2.489  10.811  0.9003 -0.1691  0.6435
  227MPD1    H6 3509   1.454   2.419  10.744  0.8042 -1.5183  2.0952
  227MPD1    H7 3510   1.484   2.460  10.908 -0.2816  0.2859  0.7674
  228MPD1     C 3511   0.082   4.386  12.508  0.3183 -0.3521  0.2377
  228MPD1    C1 3512   0.026   4.513  12.489 -0.3937  0.9394  0.1248
  228MPD1    C2 3513   4.640   4.546  12.554 -0.2850  0.1893  0.2474
  228MPD1    C3 3514   4.596   4.471  12.664 -0.3726  0.2287 -0.5370
  228MPD1    C4 3515   4.661   4.352  12.692 -0.1067  0.1019 -0.1902
  228MPD1    C5 3516   0.028   4.310  12.609 -0.1146 -0.0774  0.3254
  228MPD1     H 3517   4.587   4.636  12.524  1.1666  1.0337  0.1849
  228MPD1    H1 3518   4.637   4.288  12.776 -0.1504  1.2192  0.6518
  228MPD1    H2 3519   0.158   4.352  12.439 -1.7987 -0.6277 -1.9388
  228MPD1    H3 3520   0.072   4.213  12.630  2.3427  1.0587  0.4881
  228MPD1     N 3521   4.476   4.522  12.726  0.2540 -0.1052  0.6948
  228MPD1    H5 3522   4.430   4.599  12.679 -0.6999 -1.0159  0.1483
  228MPD1    N1 3523   0.071   4.584  12.378  0.1034  0.4747  0.1318
  228MPD1    H6 3524   0.057   4.683  12.396  0.9273  0.1021  2.8897
  228MPD1    H7 3525   0.172   4.579  12.363 -0.1153 -0.0398 -1.1812
  229MPD1     C 3526   3.990   3.513  15.166  0.0519  0.0136 -0.0108
  229MPD1    C1 3527   4.068   3.465  15.064 -0.6222 -0.0414 -0.2245
  229MPD1    C2 3528   4.122   3.337  15.075 -0.0271 -0.1212 -0.0151
  229MPD1    C3 3529   4.114   3.269  15.191  0.5246  0.1906  0.1906
  229MPD1    C4 3530   4.047   3.330  15.298 -0.3002 -0.9163 -0.3098
  229MPD1    C5 3531   3.983   3.447  15.286 -0.3548  0.1978  0.6719
  229MPD1     H 3532   4.172   3.287  14.993 -0.2903  2.0741 -1.5378
  229MPD1    H1 3533   4.034   3.266  15.385 -1.6473 -1.9550 -1.2764
  229MPD1    H2 3534   3.937   3.607  15.175  1.2715  0.5499  1.5862
  229MPD1    H3 3535   3.921   3.492  15.362 -0.5305  0.3638  0.4280
  229MPD1     N 3536   4.165   3.137  15.224  0.1258 -0.1019  0.0595
  229MPD1    H5 3537   4.149   3.106  15.320  0.2679  1.1765  0.4928
  229MPD1    N1 3538   4.070   3.535  14.943  0.0867  0.2403  0.5004
  229MPD1    H6 3539   4.045   3.633  14.953  4.8365  1.0921  3.8459
  229MPD1    H7 3540   4.160   3.533  14.896 -0.2254 -0.7661 -0.0547
  230MPD1     C 3541   4.224   2.444  15.905  0.1506  0.6139 -0.1437
  230MPD1    C1 3542   4.324   2.399  15.825  0.4031 -0.5439  0.7581
  230MPD1    C2 3543   4.359   2.479  15.714  0.2571 -0.6160  0.0511
  230MPD1    C3 3544   4.288   2.599  15.694 -0.9522 -0.5945  0.2122
  230MPD1    C4 3545   4.191   2.643  15.783  0.4483  0.1616 -0.1252
  230MPD1    C5 3546   4.169   2.568  15.890  0.1090  0.0609 -0.3949
  230MPD1     H 3547   4.438   2.452  15.645 -0.1285 -1.9447  0.1235
  230MPD1    H1 3548   4.122   2.725  15.770 -1.6496 -1.6483 -0.3481
  230MPD1    H2 3549   4.200   2.395  15.998  2.7739  1.4293  0.9578
  230MPD1    H3 3550   4.098   2.597  15.967 -0.2030 -0.2669 -0.5591
  230MPD1     N 3551   4.325   2.671  15.576 -0.4899  0.3543  0.1219
  230MPD1    H5 3552   4.396   2.628  15.517  0.4216  1.3834  0.4822
  230MPD1    N1 3553   4.374   2.269  15.829 -0.1652 -0.4095  0.4315
  230MPD1    H6 3554   4.381   2.235  15.925 -1.2390 -3.1030 -0.4719
  230MPD1    H7 3555   4.452   2.250  15.766 -0.2428  0.8435 -0.0380
  231MPD1     C 3556   2.373   0.450  15.874 -0.2257 -0.5575 -0.8492
  231MPD1    C1 3557   2.347   0.416  15.742 -0.0399 -0.2282 -0.0326
  231MPD1    C2 3558   2.451   0.405  15.648  0.8099 -0.2586  0.0811
  231MPD1    C3 3559   2.585   0.434  15.681 -0.2331  0.1168 -0.3631
  231MPD1    C4 3560   2.610   0.477  15.808 -0.1272 -0.5109  0.2453
  231MPD1    C5 3561   2.500   0.485  15.900  0.4484  0.3446  0.0483
  231MPD1     H 3562   2.425   0.374  15.548 -2.3500  0.4362  0.6920
  231MPD1    H1 3563   2.709   0.510  15.839  0.2055 -0.6152 -0.6953
  231MPD1    H2 3564   2.296   0.464  15.950  0.2485 -1.0930 -0.2680
  231MPD1    H3 3565   2.517   0.515  16.003 -1.2224  2.5096 -0.2890
  231MPD1     N 3566   2.674   0.444  15.571  0.1101 -0.6732 -0.4699
  231MPD1    H5 3567   2.632   0.441  15.478  0.2958 -0.1508 -0.5681
  231MPD1    N1 3568   2.219   0.366  15.712 -0.1883 -0.5165  0.6387
  231MPD1    H6 3569   2.137   0.412  15.751 -1.2345 -1.8764  0.0449
  231MPD1    H7 3570   2.202   0.350  15.613  1.6250 -2.5172  0.6746
  232MPD1     C 3571   4.500   3.305   0.347  0.0747  0.2302 -0.0671
  232MPD1    C1 3572   4.381   3.262   0.305  0.4787 -0.6848  0.2701
  232MPD1    C2 3573   4.373   3.127   0.269  0.1541  1.3975  0.1653
  232MPD1    C3 3574   4.480   3.043   0.266  0.1098 -0.9335 -0.7824
  232MPD1    C4 3575   4.607   3.088   0.303  0.5016 -0.1862  0.3793
  232MPD1    C5 3576   4.603   3.221   0.343 -0.7524  0.9024  0.6787
  232MPD1     H 3577   4.277   3.086   0.243  0.8772 -0.1124 -0.1284
  232MPD1    H1 3578   4.702   3.036   0.295 -0.3526 -1.6964  0.1463
  232MPD1    H2 3579   4.511   3.407   0.383 -4.0676  0.7033 -0.0541
  232MPD1    H3 3580   4.695   3.266   0.380  0.6968 -1.9851  0.5991
  232MPD1     N 3581   4.453   2.909   0.230 -0.1045 -0.3455  0.1985
  232MPD1    H5 3582   4.361   2.874   0.205  0.6301 -0.5232 -2.2364
  232MPD1    N1 3583   4.264   3.339   0.304  0.0016  0.0546 -0.0182
  232MPD1    H6 3584   4.193   3.310   0.236  0.3527 -1.0604  0.0988
  232MPD1    H7 3585   4.286   3.431   0.265 -1.2143  0.4359  0.1916
  233MPD1     C 3586   4.022   0.172   1.805  0.0456 -0.0611 -0.6921
  233MPD1    C1 3587   4.130   0.086   1.813  0.4815  0.8559  0.9533
  233MPD1    C2 3588   4.254   0.140   1.779  0.3516 -0.0139  0.0980
  233MPD1    C3 3589   4.269   0.265   1.715  0.5042 -1.1065 -0.0183
  233MPD1    C4 3590   4.155   0.337   1.700  0.1701 -0.8876 -0.5359
  233MPD1    C5 3591   4.033   0.292   1.740 -0.1617  0.4122  0.5793
  233MPD1     H 3592   4.348   0.090   1.797  0.5759  0.8439  1.3164
  233MPD1    H1 3593   4.155   0.438   1.661 -2.9882 -0.1072  1.4732
  233MPD1    H2 3594   3.925   0.139   1.838 -0.5072 -0.4123 -2.6756
  233MPD1    H3 3595   3.945   0.354   1.732 -0.7343 -0.4565  0.0816
  233MPD1     N 3596   4.394   0.319   1.672 -0.6835 -0.2704  0.0578
  233MPD1    H5 3597   4.400   0.412   1.630 -0.9426 -0.0304  0.5534
  233MPD1    N1 3598   4.112   4.694   1.872  0.4767  0.1397 -0.5770
  233MPD1    H6 3599   4.019   4.654   1.861 -0.1962  1.2575  1.0761
  233MPD1    H7 3600   4.180   4.630   1.833  2.4536  0.0878  2.9733
  234MPD1     C 3601   2.317   4.414  10.361  0.2989  0.7998 -0.0134
  234MPD1    C1 3602   2.257   4.523  10.417 -0.5164 -0.5901 -0.4450
  234MPD1    C2 3603   2.248   4.640  10.338  0.3756 -0.5394 -0.1335
  234MPD1    C3 3604   2.288   4.649  10.204  0.0458 -0.0377  0.3258
  234MPD1    C4 3605   2.336   4.534  10.143 -0.4529 -0.0017  0.6688
  234MPD1    C5 3606   2.344   4.417  10.225 -0.2277  0.3748 -0.3621
  234MPD1     H 3607   2.201   4.723  10.389 -2.0723 -1.3035 -1.1272
  234MPD1    H1 3608   2.366   4.523  10.040 -2.0139 -0.4570  0.2545
  234MPD1    H2 3609   2.333   4.324  10.419 -0.4765  0.3561 -0.4802
  234MPD1    H3 3610   2.380   4.326  10.178 -1.0229  0.7280 -1.6607
  234MPD1     N 3611   2.263   0.035  10.135  0.0961  0.5054  0.4247
  234MPD1    H5 3612   2.239   0.121  10.182 -0.1102 -0.2164  1.6565
  234MPD1    N1 3613   2.232   4.532  10.560 -0.3240  0.2237  0.3313
  234MPD1    H6 3614   2.308   4.584  10.604 -1.0573  1.9426 -0.4212
  234MPD1    H7 3615   2.232   4.437  10.597  0.1201 -0.6469 -1.9054
  235MPD1     C 3616   3.444   1.958  10.269  0.0969  0.4890  0.3913
  235MPD1    C1 3617   3.519   1.990  10.157 -0.4773  0.2818 -0.3320
  235MPD1    C2 3618   3.594   2.111  10.160 -0.6106  0.3005 -0.2044
  235MPD1    C3 3619   3.605   2.195  10.271  0.3298  0.7822 -0.6509
  235MPD1    C4 3620   3.537   2.158  10.384  0.0663  0.0774 -0.5652
  235MPD1    C5 3621   3.471   2.035  10.386  0.5513 -0.7141  0.4972
  235MPD1     H 3622   3.656   2.132  10.073  1.3596  0.2110  1.1659
  235MPD1    H1 3623   3.544   2.210  10.478  0.8732 -1.5488  0.2836
  235MPD1    H2 3624   3.383   1.869  10.271 -0.6144  0.9663  0.1789
  235MPD1    H3 3625   3.412   2.003  10.471 -1.4999  0.6374 -0.4175
  235MPD1     N 3626   3.679   2.315  10.260  0.6896 -0.1726 -0.2158
  235MPD1    H5 3627   3.728   2.323  10.171 -1.0903  0.1296 -1.1505
  235MPD1    N1 3628   3.541   1.900  10.055 -0.1976 -0.3796 -0.3548
  235MPD1    H6 3629   3.467   1.830  10.053  0.5212 -1.1920  1.5691
  235MPD1    H7 3630   3.550   1.951   9.967  0.3716 -1.3832 -0.8704
  236MPD1     C 3631   2.557   3.987  10.343 -0.7322 -0.0269  0.4411
  236MPD1    C1 3632   2.651   4.089  10.349 -0.6571 -0.0656  0.6204
  236MPD1    C2 3633   2.760   4.071  10.434 -0.5380  0.9107  0.0440
  236MPD1    C3 3634   2.780   3.944  10.490 -0.5625  0.2381  0.2480
  236MPD1    C4 3635   2.685   3.841  10.477 -0.6476  0.3270  0.1307
  236MPD1    C5 3636   2.575   3.861  10.392  0.1076 -0.7218  0.2610
  236MPD1     H 3637   2.831   4.153  10.436 -0.7529  1.1168 -0.6672
  236MPD1    H1 3638   2.695   3.742  10.519  1.0399 -0.0399 -1.1612
  236MPD1    H2 3639   2.459   4.013  10.305 -0.5200 -1.1865 -0.8938
  236MPD1    H3 3640   2.489   3.795  10.393  0.3694 -1.0458  1.9202
  236MPD1     N 3641   2.898   3.914  10.564  0.4827  0.7242 -0.3471
  236MPD1    H5 3642   2.908   3.819  10.597 -1.4670 -0.1079 -2.1234
  236MPD1    N1 3643   2.614   4.218  10.308 -0.3555 -0.6710  0.1645
  236MPD1    H6 3644   2.541   4.225  10.237 -0.3285  2.2980  0.3932
  236MPD1    H7 3645   2.696   4.268  10.275 -1.0187 -2.4149 -4.0627
  237MPD1     C 3646   3.101   1.336  15.340 -0.2072 -0.4442 -0.4615
  237MPD1    C1 3647   3.053   1.374  15.211  0.3408  1.0162  0.3786
  237MPD1    C2 3648   2.951   1.472  15.213  0.4452  0.1557 -0.0847
  237MPD1    C3 3649   2.922   1.543  15.326  0.2483  0.2076  0.0139
  237MPD1    C4 3650   2.975   1.519  15.446 -0.2655 -0.4564  0.1381
  237MPD1    C5 3651   3.071   1.416  15.450  0.2553  0.8577 -0.7291
  237MPD1     H 3652   2.888   1.476  15.125  0.8663  1.0538 -0.3348
  237MPD1    H1 3653   2.950   1.557  15.544  1.5188  1.0692  0.0042
  237MPD1    H2 3654   3.157   1.244  15.351  0.0059 -0.1429  1.0260
  237MPD1    H3 3655   3.106   1.369  15.541  0.8568  0.4714 -1.1681
  237MPD1     N 3656   2.815   1.641  15.331  0.0125  0.0580  0.4257
  237MPD1    H5 3657   2.811   1.685  15.423 -0.2172  0.4667  0.2158
  237MPD1    N1 3658   3.069   1.285  15.103  0.3156  0.0029 -0.0338
  237MPD1    H6 3659   3.059   1.333  15.014  0.6882 -0.3735 -0.2796
  237MPD1    H7 3660   3.160   1.241  15.109  0.2872  0.0775  0.9484
  238MPD1     C 3661   4.540   0.810  15.239 -0.3453  1.3800  0.1183
  238MPD1    C1 3662   4.628   0.738  15.156  0.1443  0.1898  0.0139
  238MPD1    C2 3663   4.576   0.626  15.097 -0.5391 -0.6830  0.1966
  238MPD1    C3 3664   4.449   0.578  15.130  0.3184  0.3751  0.1133
  238MPD1    C4 3665   4.371   0.644  15.221  0.3587  0.4817  0.1320
  238MPD1    C5 3666   4.418   0.758  15.275  0.3999 -0.5622  0.2165
  238MPD1     H 3667   4.639   0.583  15.020  0.5476  0.7411  0.3051
  238MPD1    H1 3668   4.272   0.603  15.237  1.4818 -2.8284 -1.3193
  238MPD1    H2 3669   4.578   0.906  15.270 -2.1891  1.3551  2.4512
  238MPD1    H3 3670   4.351   0.824  15.330  0.6715 -0.1957  0.1064
  238MPD1     N 3671   4.389   0.468  15.066 -0.3350  0.5770  0.3058
  238MPD1    H5 3672   4.289   0.456  15.080 -1.1234  0.8610 -4.9344
  238MPD1    N1 3673   0.005   0.795  15.110  0.3258  0.6130 -0.0308
  238MPD1    H6 3674   0.047   0.867  15.167 -0.7742  0.2168  1.2749
  238MPD1    H7 3675   0.078   0.728  15.085 -0.1402 -0.7464  2.2721
  239MPD1     C 3676   4.340   2.210  15.041  0.8481  0.1651  0.7226
  239MPD1    C1 3677   4.447   2.185  14.949 -0.0470  0.1196  0.2850
  239MPD1    C2 3678   4.427   2.103  14.843  0.2564  0.2544 -0.1881
  239MPD1    C3 3679   4.313   2.029  14.838 -0.6822  0.0041 -0.0658
  239MPD1    C4 3680   4.202   2.055  14.919 -0.3485  0.5275 -0.2273
  239MPD1    C5 3681   4.221   2.147  15.023 -0.3986 -0.5957 -0.3008
  239MPD1     H 3682   4.505   2.098  14.767  1.6940  0.0487  1.2982
  239MPD1    H1 3683   4.104   2.010  14.906 -0.2821  0.1457  0.5776
  239MPD1    H2 3684   4.355   2.277  15.125 -2.3558 -1.1792  2.3753
  239MPD1    H3 3685   4.145   2.163  15.099  2.3038 -2.2156  2.7280
  239MPD1     N 3686   4.283   1.937  14.728 -0.3399  0.1016 -0.1835
  239MPD1    H5 3687   4.191   1.896  14.721  0.3570 -1.4498 -0.1095
  239MPD1    N1 3688   4.569   2.258  14.965  0.2597  0.0408 -0.1809
  239MPD1    H6 3689   4.645   2.206  14.923 -1.2051 -2.1472 -0.0863
  239MPD1    H7 3690   4.597   2.267  15.063 -0.0214 -1.6698  0.0558
  240MPD1     C 3691   3.438   1.391  14.128 -0.1186 -0.2438  0.4475
  240MPD1    C1 3692   3.377   1.295  14.047 -0.3592  0.4284  0.2103
  240MPD1    C2 3693   3.440   1.174  14.028  0.2797  1.2016 -0.4114
  240MPD1    C3 3694   3.554   1.148  14.098  0.1453  0.0734 -0.3489
  240MPD1    C4 3695   3.608   1.245  14.180  0.1246 -0.1319  0.5592
  240MPD1    C5 3696   3.535   1.355  14.213  0.2891 -1.2294  0.8821
  240MPD1     H 3697   3.392   1.104  13.962  3.1313  0.8067 -2.0713
  240MPD1    H1 3698   3.687   1.226  14.251  0.1463 -1.1781  0.2472
  240MPD1    H2 3699   3.398   1.492  14.134 -0.6970 -0.4847  0.7117
  240MPD1    H3 3700   3.588   1.429  14.272  2.1545 -0.7782 -1.3975
  240MPD1     N 3701   3.611   1.019  14.089  0.6501 -0.2066 -0.2114
  240MPD1    H5 3702   3.552   0.951  14.043  0.4979  0.3266 -0.8099
  240MPD1    N1 3703   3.265   1.337  13.970  0.2996  0.0313 -0.3718
  240MPD1    H6 3704   3.203   1.256  13.968 -0.0120  0.2399  1.0348
  240MPD1    H7 3705   3.210   1.411  14.014  2.0753  0.5480  0.9664
  241MPD1     C 3706   4.352   0.687  14.628  0.5318 -1.0031  0.4174
  241MPD1    C1 3707   4.237   0.622  14.651 -0.7600 -0.6605 -1.3665
  241MPD1    C2 3708   4.150   0.600  14.547  0.1838 -0.5623 -0.4219
  241MPD1    C3 3709   4.172   0.665  14.422 -0.1322  0.3546  0.1354
  241MPD1    C4 3710   4.286   0.729  14.402  0.4159  0.0387 -1.0101
  241MPD1    C5 3711   4.380   0.735  14.502  0.3090  0.4164 -0.3421
  241MPD1     H 3712   4.058   0.550  14.577  0.8496 -0.5186  1.6834
  241MPD1    H1 3713   4.313   0.773  14.306  1.0105  1.0555 -0.3812
  241MPD1    H2 3714   4.434   0.685  14.699 -0.2896 -0.3822  1.3740
  241MPD1    H3 3715   4.473   0.788  14.490  0.7872 -0.5577 -0.8877
  241MPD1     N 3716   4.077   0.671  14.316 -0.4050 -0.5104  0.5419
  241MPD1    H5 3717   4.101   0.732  14.239  0.7788 -1.3333  0.2499
  241MPD1    N1 3718   4.209   0.570  14.779 -0.1438 -0.9096 -0.3918
  241MPD1    H6 3719   4.262   0.622  14.849  1.1523 -1.1374 -1.2036
  241MPD1    H7 3720   4.110   0.577  14.802 -0.4893 -2.2219 -1.4718
  242MPD1     C 3721   3.231   3.803  16.106  0.5463 -0.8163 -0.2715
  242MPD1    C1 3722   3.195   3.771  15.979 -0.3775  0.1020 -0.3700
  242MPD1    C2 3723   3.285   3.788  15.878 -0.8477  0.1441  0.2829
  242MPD1    C3 3724   3.406   3.854  15.888  0.1029 -0.0531 -0.2449
  242MPD1    C4 3725   3.447   3.880  16.018 -0.5979  0.6235  0.0184
  242MPD1    C5 3726   3.360   3.858  16.124 -0.5964 -0.8536 -0.0688
  242MPD1     H 3727   3.255   3.754  15.780 -0.3010  2.9535 -0.8617
  242MPD1    H1 3728   3.536   3.938  16.040  0.2037 -0.2765 -0.8382
  242MPD1    H2 3729   3.178   3.783  16.198 -0.7053 -0.8076 -1.0040
  242MPD1    H3 3730   3.391   3.874  16.227 -0.3458  4.0491 -0.9279
  242MPD1     N 3731   3.490   3.875  15.785  0.3951  0.1271  0.1314
  242MPD1    H5 3732   3.586   3.896  15.811  0.3856  0.5841 -0.1941
  242MPD1    N1 3733   3.079   3.691  15.962  0.7054  0.0356 -0.1490
  242MPD1    H6 3734   3.037   3.674  15.871  2.3351 -1.1142 -0.6953
  242MPD1    H7 3735   3.008   3.719  16.030  3.6682  1.4309  2.3670
  243MPD1     C 3736   0.249   3.224   0.400  0.4367  0.0882 -0.8784
  243MPD1    C1 3737   0.283   3.093   0.414  0.0029 -0.1222 -0.3780
  243MPD1    C2 3738   0.366   3.045   0.315  0.7135 -0.2464 -0.8548
  243MPD1    C3 3739   0.402   3.129   0.202 -0.0634  0.0105  0.6495
  243MPD1    C4 3740   0.353   3.254   0.191 -0.6141 -0.4806  0.2842
  243MPD1    C5 3741   0.277   3.304   0.294  0.3276  0.3154 -0.9561
  243MPD1     H 3742   0.408   2.946   0.326 -0.5784 -0.7130 -0.1481
  243MPD1    H1 3743   0.376   3.331   0.118 -0.6263 -0.9228 -0.1839
  243MPD1    H2 3744   0.193   3.271   0.480  2.0094  0.4333  0.0207
  243MPD1    H3 3745   0.240   3.405   0.289 -1.0695 -0.0849  1.1877
  243MPD1     N 3746   0.481   3.078   0.089  0.6798  0.3761  0.2732
  243MPD1    H5 3747   0.504   2.980   0.095 -1.3132 -0.1306 -0.4835
  243MPD1    N1 3748   0.252   3.015   0.528  0.1710  0.0786 -0.2305
  243MPD1    H6 3749   0.159   3.052   0.548  0.6819  1.9724 -1.3536
  243MPD1    H7 3750   0.253   2.914   0.515 -0.9426  0.0923 -0.3857
  244MPD1     C 3751   0.572   2.247  17.671 -0.5308  0.6772 -0.7012
  244MPD1    C1 3752   0.535   2.341   0.034 -0.3988  0.4696  0.0316
  244MPD1    C2 3753   0.559   2.474   0.004 -0.5595  0.5541 -0.1408
  244MPD1    C3 3754   0.632   2.520  17.638  0.1097 -0.7856 -0.4778
  244MPD1    C4 3755   0.683   2.422  17.552 -0.1429  0.3532 -0.5056
  244MPD1    C5 3756   0.652   2.287  17.570 -0.7688 -0.1520  0.2933
  244MPD1     H 3757   0.519   2.552   0.069 -1.8276 -0.6875  0.5730
  244MPD1    H1 3758   0.736   2.448  17.461  0.5143  1.3545  0.1564
  244MPD1    H2 3759   0.556   2.140  17.670 -1.8755  0.8808  0.3007
  244MPD1    H3 3760   0.692   2.212  17.504  2.2701 -0.4445  2.4722
  244MPD1     N 3761   0.633   2.659  17.616  0.2345 -0.9328  0.4364
  244MPD1    H5 3762   0.568   2.710  17.675  2.2850  1.5609  0.5645
  244MPD1    N1 3763   0.455   2.305   0.144 -0.2918  0.1622  0.8465
  244MPD1    H6 3764   0.470   2.372   0.219 -1.8230  0.6974  0.6781
  244MPD1    H7 3765   0.464   2.213   0.186 -0.1244 -0.6461 -0.9351
  245MPD1     C 3766   3.127   2.776  12.897 -1.1881 -0.3247 -1.2140
  245MPD1    C1 3767   3.209   2.800  13.004 -0.1005 -0.0250 -0.7982
  245MPD1    C2 3768   3.154   2.833  13.127 -0.1070  0.5912  0.7576
  245MPD1    C3 3769   3.019   2.822  13.146  0.5475 -0.0665 -0.8296
  245MPD1    C4 3770   2.934   2.773  13.049 -0.3446 -0.0935 -0.0984
  245MPD1    C5 3771   2.994   2.748  12.924 -0.0142 -0.0274  0.4447
  245MPD1     H 3772   3.216   2.851  13.214 -0.6215  0.0193  1.2366
  245MPD1    H1 3773   2.828   2.756  13.060 -0.3902  0.0066 -0.3965
  245MPD1    H2 3774   3.156   2.764  12.793 -0.7064 -0.5853 -1.0496
  245MPD1    H3 3775   2.930   2.730  12.839 -1.0989  1.7701  0.8831
  245MPD1     N 3776   2.960   2.875  13.267  0.1686 -0.4834  0.0523
  245MPD1    H5 3777   3.025   2.906  13.338 -0.5786 -0.8650  0.8997
  245MPD1    N1 3778   3.343   2.829  12.978 -0.2352 -0.4518  0.0129
  245MPD1    H6 3779   3.381   2.770  12.904  0.8639 -0.5311  0.6490
  245MPD1    H7 3780   3.401   2.842  13.060 -1.7847  0.6319  0.9293
  246MPD1     C 3781   3.947   3.029  10.126  0.0902 -0.5033 -0.2995
  246MPD1    C1 3782   3.865   3.072  10.226 -0.2564  0.4083  0.2915
  246MPD1    C2 3783   3.737   3.023  10.233  0.3038 -0.4264 -0.2101
  246MPD1    C3 3784   3.702   2.910  10.158 -0.8989  0.2826  0.2090
  246MPD1    C4 3785   3.796   2.848  10.079  0.1322  0.3470  0.0166
  246MPD1    C5 3786   3.919   2.911  10.056 -0.3593  0.0823 -0.2268
  246MPD1     H 3787   3.675   3.069  10.309  0.5216  0.6492 -0.6928
  246MPD1    H1 3788   3.767   2.768  10.011  0.7957  0.1084  0.0050
  246MPD1    H2 3789   4.042   3.079  10.112  0.6406 -1.8600 -1.4559
  246MPD1    H3 3790   3.974   2.903   9.964 -1.0359  4.2554 -1.0137
  246MPD1     N 3791   3.570   2.865  10.163  0.6894 -0.4483 -0.4267
  246MPD1    H5 3792   3.500   2.927  10.203  1.2973  0.0835 -0.2001
  246MPD1    N1 3793   3.896   3.187  10.297  0.2846 -0.3766 -0.5294
  246MPD1    H6 3794   3.994   3.185  10.324  0.0534  0.4650  0.4014
  246MPD1    H7 3795   3.838   3.197  10.380  1.1077 -0.6478  0.0785
  247MPD1     C 3796   2.155   3.372  16.032  0.5266  0.5436  0.0513
  247MPD1    C1 3797   2.138   3.246  16.082 -0.1738  1.1654  0.4071
  247MPD1    C2 3798   2.165   3.139  15.999  0.6360 -0.9215 -0.6869
  247MPD1    C3 3799   2.234   3.150  15.883 -0.1784  0.3847  0.1253
  247MPD1    C4 3800   2.270   3.273  15.842 -0.6710  0.2915 -0.1882
  247MPD1    C5 3801   2.231   3.384  15.915 -0.0326  0.3940  0.0193
  247MPD1     H 3802   2.131   3.043  16.035  2.5613 -1.6623 -0.8210
  247MPD1    H1 3803   2.331   3.286  15.754 -0.1366 -1.9107 -0.1484
  247MPD1    H2 3804   2.132   3.469  16.076 -0.4779  1.4397 -2.4295
  247MPD1    H3 3805   2.263   3.482  15.882 -1.6885  0.7605 -0.5098
  247MPD1     N 3806   2.266   3.041  15.796 -0.3776 -0.2284  0.1989
  247MPD1    H5 3807   2.328   3.055  15.718 -1.2360  0.6094 -0.3419
  247MPD1    N1 3808   2.071   3.227  16.203 -0.3945  0.4574  0.0029
  247MPD1    H6 3809   2.080   3.132  16.240 -0.0157  0.1752 -0.8087
  247MPD1    H7 3810   2.111   3.290  16.272  0.5704 -0.8523  0.6330
  248MPD1     C 3811   2.705   1.950   0.093 -0.1774  0.4441 -0.1690
  248MPD1    C1 3812   2.619   1.949  17.718 -0.9045  0.0643 -0.2056
  248MPD1    C2 3813   2.578   2.074  17.673 -0.1836 -0.0666 -0.3743
  248MPD1    C3 3814   2.598   2.193   0.009  0.6145 -0.4964 -0.8299
  248MPD1    C4 3815   2.676   2.187   0.123  0.2232 -0.5212 -0.1411
  248MPD1    C5 3816   2.739   2.066   0.163 -0.9241 -0.6132 -0.0799
  248MPD1     H 3817   2.518   2.086  17.584 -0.2671  0.6417 -0.2210
  248MPD1    H1 3818   2.687   2.273   0.188 -0.1948 -0.8256  0.3290
  248MPD1    H2 3819   2.745   1.859   0.139  1.1926  2.3631  2.4447
  248MPD1    H3 3820   2.789   2.070   0.259  0.3084  0.4296 -0.7643
  248MPD1     N 3821   2.539   2.309  17.694 -0.1627 -0.4341 -0.1341
  248MPD1    H5 3822   2.482   2.296  17.612  0.8795 -0.9710 -0.7750
  248MPD1    N1 3823   2.607   1.832  17.642  0.0951  0.1985  0.2732
  248MPD1    H6 3824   2.602   1.749  17.700  0.2895 -0.6493 -0.9240
  248MPD1    H7 3825   2.521   1.836  17.588 -0.4561 -1.6362  1.0140
  249MPD1     C 3826   4.062   1.547  10.495 -0.2210 -0.3588 -0.0411
  249MPD1    C1 3827   4.061   1.577  10.360  0.1799  0.9571 -0.6836
  249MPD1    C2 3828   4.140   1.681  10.313  0.5476  0.1944  0.0557
  249MPD1    C3 3829   4.229   1.750  10.396 -0.9263  0.1062  0.0723
  249MPD1    C4 3830   4.230   1.708  10.534 -0.3712  0.5890 -0.0704
  249MPD1    C5 3831   4.151   1.603  10.582  0.5707  0.1751  0.1399
  249MPD1     H 3832   4.122   1.706  10.209 -0.7271 -0.2627  0.1686
  249MPD1    H1 3833   4.297   1.761  10.601  2.0710 -0.8617 -1.4004
  249MPD1    H2 3834   4.029   1.451  10.534  1.0321 -1.0286 -0.6369
  249MPD1    H3 3835   4.164   1.557  10.680 -1.1480 -2.1759 -0.7448
  249MPD1     N 3836   4.313   1.855  10.348  0.3298 -0.0424 -0.4158
  249MPD1    H5 3837   4.369   1.894  10.423 -1.2159 -1.2851  1.4036
  249MPD1    N1 3838   3.957   1.530  10.280 -0.1071  0.5499 -0.4003
  249MPD1    H6 3839   3.988   1.521  10.184 -0.7500  1.1459 -0.6712
  249MPD1    H7 3840   3.920   1.438  10.302  2.0889 -0.5865 -1.4998
  250MPD2     C 3841   0.952   1.856  13.090 -0.5084 -0.4670 -0.2808
  250MPD2    C1 3842   0.858   1.910  13.006 -0.1142  0.2364  0.0386
  250MPD2    C2 3843   0.762   1.823  12.959 -0.0422  0.3280 -0.6591
  250MPD2    C3 3844   0.770   1.685  12.974  0.0306 -0.1016 -0.8279
  250MPD2    C4 3845   0.863   1.633  13.058  0.1661 -0.0279 -0.2325
  250MPD2    C5 3846   0.952   1.720  13.122  0.5744 -0.8224  0.1601
  250MPD2     H 3847   0.697   1.872  12.888  0.2269  0.7388 -0.6223
  250MPD2    H1 3848   0.857   1.528  13.083  1.4226 -0.0851 -0.1440
  250MPD2    H2 3849   1.028   1.918  13.135  0.8494 -1.5664 -1.0735
  250MPD2    H3 3850   1.032   1.675  13.179  1.2956  2.8799  2.1311
  250MPD2     N 3851   0.673   1.601  12.913  0.3474 -0.9395  1.2406
  250MPD2    H5 3852   0.712   1.508  12.903  3.0795  0.3529 -0.3047
  250MPD2    N1 3853   0.856   2.053  12.993 -0.2390 -0.5925  0.1078
  250MPD2    H7 3854   0.934   2.095  13.043 -0.7029  1.1632 -0.6091
  251TMC3    C1 3855   0.786   2.269  12.960 -0.3669 -0.2035 -0.9167
  251TMC3    C2 3856   0.675   2.333  12.997  0.3562  0.2792  0.3142
  251TMC3    C3 3857   0.699   2.452  13.071  0.1993 -0.4542  0.8060
  251TMC3    C4 3858   0.908   2.318  12.978  0.5636 -0.6821  0.5886
  251TMC3    C5 3859   0.923   2.439  13.037  0.2294  0.7927  0.0156
  251TMC3    C6 3860   0.821   2.503  13.093  0.0130 -0.5277 -0.2738
  251TMC3     C 3861   0.771   2.129  12.924 -0.1857  0.3650  0.2017
  251TMC3     O 3862   0.668   2.100  12.861  0.0494  0.5421  0.0381
  251TMC3     H 3863   0.577   2.289  12.986  0.3255  0.9059 -1.9172
  251TMC3    H1 3864   0.989   2.263  12.930  2.2975  2.6830 -0.3185
  251TMC3    H2 3865   0.841   2.584  13.162  2.3393 -0.6505 -0.7705
  251TMC3    C7 3866   1.050   2.499  13.056  0.4644 -0.1822 -0.4039
  251TMC3    C8 3867   0.601   2.511  13.156  0.1728 -0.0819 -0.3571
  251TMC3    O1 3868   1.138   2.418  13.083  0.1102 -0.4827 -0.3175
  251TMC3    O2 3869   0.635   2.542  13.270  0.2357  0.3228 -0.0249
  252TMC3    C1 3870   1.822   2.668   9.455 -0.3850  0.8832  0.0791
  252TMC3    C2 3871   1.823   2.799   9.494 -0.2731  0.1807  0.3877
  252TMC3    C3 3872   1.710   2.861   9.543 -0.6457 -0.1361  0.3210
  252TMC3    C4 3873   1.709   2.593   9.463 -0.1113  0.0470 -0.2926
  252TMC3    C5 3874   1.595   2.660   9.502  0.3916 -0.6297 -0.4581
  252TMC3    C6 3875   1.594   2.789   9.548 -0.0926 -0.0571  0.7310
  252TMC3     C 3876   1.954   2.607   9.436 -0.3424 -0.0242  0.2546
  252TMC3     O 3877   2.049   2.675   9.467  0.1683  0.2055  0.1878
  252TMC3     H 3878   1.919   2.850   9.490  0.2265 -0.6330  1.8571
  252TMC3    H1 3879   1.711   2.488   9.440  3.2660  0.2336 -0.8570
  252TMC3    H2 3880   1.497   2.838   9.549 -0.4527 -0.6339 -2.9982
  252TMC3    C7 3881   1.471   2.597   9.471  0.0532  0.7191 -0.0285
  252TMC3    C8 3882   1.732   2.968   9.634  0.2677 -0.1333 -0.0602
  252TMC3    O1 3883   1.374   2.666   9.480  0.3066  0.1605  0.2653
  252TMC3    O2 3884   1.834   3.032   9.610  0.1698 -0.0677  0.2930
  253MPD2     C 3885   2.401   2.056  15.534  0.4755  0.0880  0.4792
  253MPD2    C1 3886   2.273   2.027  15.561  0.0635 -0.0709  1.0865
  253MPD2    C2 3887   2.237   1.944  15.665  1.1439 -0.4751  0.8320
  253MPD2    C3 3888   2.330   1.896  15.760  0.0688 -0.2587  0.1114
  253MPD2    C4 3889   2.457   1.940  15.736 -0.1472 -0.1890  0.2370
  253MPD2    C5 3890   2.498   2.002  15.618 -0.2815  0.1032  0.3369
  253MPD2     H 3891   2.133   1.921  15.683  1.0693  1.0776  2.3665
  253MPD2    H1 3892   2.534   1.911  15.806 -0.7816 -2.8856 -0.1944
  253MPD2    H2 3893   2.452   2.094  15.446  2.1131  0.5964  1.6371
  253MPD2    H3 3894   2.602   2.024  15.599  0.1102 -2.0409 -0.0477
  253MPD2     N 3895   2.292   1.832  15.884  0.0707  0.3576  0.1589
  253MPD2    H5 3896   2.367   1.787  15.936 -0.6772 -0.1856  0.7690
  253MPD2    N1 3897   2.171   2.060  15.471  0.4575  0.5087  0.0969
  253MPD2    H7 3898   2.078   2.025  15.493  0.4323 -0.6573 -1.8557
  254TMC3    C1 3899   2.147   1.725  16.043 -0.0422 -0.1746 -0.4261
  254TMC3    C2 3900   2.014   1.693  16.081  0.2873  0.0857  0.2010
  254TMC3    C3 3901   1.998   1.641  16.207 -0.5985  0.6821  0.4998
  254TMC3    C4 3902   2.260   1.696  16.120  0.3233  1.0812  0.4129
  254TMC3    C5 3903   2.232   1.664  16.252  0.3501 -0.2761 -0.0187
  254TMC3    C6 3904   2.104   1.638  16.296 -0.2063 -0.1631  0.5796
  254TMC3     C 3905   2.161   1.808  15.925  0.8176  0.0107  0.4177
  254TMC3     O 3906   2.055   1.818  15.860 -0.4280  0.2177  0.0046
  254TMC3     H 3907   1.929   1.684  16.014  3.8079 -0.0929 -4.2095
  254TMC3    H1 3908   2.365   1.718  16.100 -0.0749  1.2279 -1.5893
  254TMC3    H2 3909   2.089   1.616  16.401 -1.1757  2.4905  0.9901
  254TMC3    C7 3910   2.345   1.639  16.347  0.0357 -1.2097 -0.0492
  254TMC3    C8 3911   1.871   1.685  16.269  0.0544 -0.1103  0.1665
  254TMC3    O1 3912   2.449   1.693  16.311 -0.0848 -0.4201 -0.2139
  254TMC3    O2 3913   1.882   1.722  16.383 -0.1761  0.1240  0.2205
  255MPD2     C 3914   4.716   4.230  10.505 -0.2604 -0.5147  0.0350
  255MPD2    C1 3915   0.077   4.326  10.497  0.6948  0.6698 -0.6337
  255MPD2    C2 3916   0.206   4.290  10.482 -0.7078 -0.1302 -0.5539
  255MPD2    C3 3917   0.250   4.158  10.471 -0.3106 -0.8380 -0.3817
  255MPD2    C4 3918   0.155   4.057  10.482 -0.2018  0.3059  0.1361
  255MPD2    C5 3919   0.024   4.096  10.506 -1.0399 -0.0537 -0.1968
  255MPD2     H 3920   0.292   4.355  10.469 -0.2977 -0.1286  2.1102
  255MPD2    H1 3921   0.165   3.949  10.482 -2.6662  0.0640  0.2139
  255MPD2    H2 3922   4.615   4.252  10.538 -0.0084 -1.6164  1.5030
  255MPD2    H3 3923   4.682   4.019  10.513  0.0407 -0.9834  1.3184
  255MPD2     N 3924   0.387   4.132  10.442  0.2226  0.2672 -0.4373
  255MPD2    H5 3925   0.453   4.209  10.435  1.5397 -0.7049  1.4411
  255MPD2    N1 3926   0.035   4.456  10.527 -0.0744  0.6891 -0.4897
  255MPD2    H7 3927   4.670   4.479  10.525 -0.2307  0.0824  1.0060
  256TMC3    C1 3928   0.042   4.685  10.549  0.2630 -0.2446  0.1657
  256TMC3    C2 3929   0.120   0.066  10.552  0.0148 -0.8461  0.0179
  256TMC3    C3 3930   0.072   0.183  10.497 -0.2315 -0.1858  0.0395
  256TMC3    C4 3931   4.644   4.687  10.502 -0.1873  0.7561  0.2249
  256TMC3    C5 3932   4.599   0.076  10.435  0.3852 -0.0042  0.6280
  256TMC3    C6 3933   4.683   0.188  10.440  0.3803 -0.4098  0.6824
  256TMC3     C 3934   0.119   4.563  10.535  0.4907 -1.0461  0.1631
  256TMC3     O 3935   0.241   4.571  10.536 -0.0571  0.1131 -0.1616
  256TMC3     H 3936   0.222   0.057  10.589 -0.0154  0.0463  0.3204
  256TMC3    H1 3937   4.582   4.598  10.504 -0.3453  0.8602  0.0099
  256TMC3    H2 3938   4.646   0.277  10.390 -0.8756  1.3815  4.7571
  256TMC3    C7 3939   4.549   0.052  10.306 -0.1439  0.1782 -0.0792
  256TMC3    C8 3940   0.166   0.295  10.486 -0.2314 -0.3479  0.2386
  256TMC3    O1 3941   4.576   4.667  10.275 -0.0286 -0.0144 -0.0949
  256TMC3    O2 3942   0.283   0.267  10.464  0.2321  0.0105  0.4773
  257MPD2     C 3943   3.936   1.703  13.287  0.4549  0.4118  0.3935
  257MPD2    C1 3944   4.064   1.667  13.247  0.1565  0.4760 -0.1725
  257MPD2    C2 3945   4.123   1.546  13.286  0.1411  0.1850 -1.1164
  257MPD2    C3 3946   4.069   1.470  13.380 -0.2656 -0.2988  0.4560
  257MPD2    C4 3947   3.937   1.503  13.406  0.4569  0.2342  0.4986
  257MPD2    C5 3948   3.872   1.621  13.374  0.3636  0.6520  0.5648
  257MPD2     H 3949   4.212   1.506  13.239 -0.1306  0.3359 -1.7688
  257MPD2    H1 3950   3.887   1.436  13.474 -2.0072  1.3922 -0.1391
  257MPD2    H2 3951   3.888   1.792  13.249  1.5019  1.2936  1.1175
  257MPD2    H3 3952   3.769   1.642  13.400  0.4840  1.8188  0.1203
  257MPD2     N 3953   4.134   1.349  13.412  0.1308 -0.2448  0.2518
  257MPD2    H5 3954   4.225   1.326  13.375  1.1106  0.9461  1.9160
  257MPD2    N1 3955   4.139   1.758  13.163  0.4615 -0.0897 -0.1931
  257MPD2    H7 3956   4.080   1.828  13.120  0.9650  0.9614  0.8200
  258TMC3    C1 3957   4.196   1.168  13.538  0.1061  1.0812  0.7694
  258TMC3    C2 3958   4.253   1.112  13.426 -0.1097 -0.2989  1.0748
  258TMC3    C3 3959   4.376   1.055  13.458 -0.3072  0.0983 -0.6966
  258TMC3    C4 3960   4.252   1.165  13.666  0.0256 -1.0727 -0.1724
  258TMC3    C5 3961   4.375   1.103  13.686  0.4090  0.3791 -0.2074
  258TMC3    C6 3962   4.435   1.053  13.578  0.6357 -0.9945  0.3415
  258TMC3     C 3963   4.093   1.264  13.510  0.6560  0.4025 -0.2941
  258TMC3     O 3964   4.025   1.293  13.610  0.1366  0.1073  0.1058
  258TMC3     H 3965   4.205   1.125  13.330  0.2396 -0.6604  0.8470
  258TMC3    H1 3966   4.204   1.210  13.751  0.0586 -2.7876  0.7622
  258TMC3    H2 3967   4.536   1.015  13.583  0.8091 -0.6430 -0.4553
  258TMC3    C7 3968   4.415   1.072  13.824 -1.2597  1.1607  0.9388
  258TMC3    C8 3969   4.471   1.052  13.343  0.3687 -0.0886  0.8209
  258TMC3    O1 3970   4.328   1.068  13.912 -0.0456 -0.2540  0.1694
  258TMC3    O2 3971   4.590   1.047  13.373  0.7540 -0.0798  0.6603
  259MPD2     C 3972   3.033   3.029   0.603  0.0680  0.7199  0.2663
  259MPD2    C1 3973   3.059   2.892   0.603 -0.7705 -0.8778  0.4881
  259MPD2    C2 3974   3.139   2.842   0.498 -0.0876 -0.1185  0.5671
  259MPD2    C3 3975   3.189   2.920   0.401 -0.2077 -0.4589 -0.0425
  259MPD2    C4 3976   3.165   3.054   0.410 -0.0460  0.1962  0.5426
  259MPD2    C5 3977   3.089   3.108   0.509  0.4956 -0.3863  0.0829
  259MPD2     H 3978   3.164   2.737   0.504  0.2064 -0.0093  1.1887
  259MPD2    H1 3979   3.211   3.119   0.336  3.1972 -1.2783  1.2467
  259MPD2    H2 3980   2.970   3.087   0.668 -1.2880 -0.7223  0.2278
  259MPD2    H3 3981   3.086   3.216   0.515 -0.8797 -0.4345  0.2375
  259MPD2     N 3982   3.262   2.857   0.294  1.0603  0.2148  0.3512
  259MPD2    H5 3983   3.289   2.760   0.305 -1.8257 -0.2830  3.2495
  259MPD2    N1 3984   3.006   2.813   0.702 -0.5465  0.1840  0.2542
  259MPD2    H7 3985   2.970   2.865   0.781 -0.6512 -0.8818  0.9029
  260TMC3    C1 3986   3.353   2.825   0.083  0.2266 -0.2605  0.4080
  260TMC3    C2 3987   3.455   2.872   0.010 -1.0328  0.0585 -0.6256
  260TMC3    C3 3988   3.524   2.780  17.661 -0.1055  0.6092  0.0564
  260TMC3    C4 3989   3.321   2.694   0.086  0.4671 -0.3683 -0.1600
  260TMC3    C5 3990   3.394   2.608   0.012  0.9685 -0.6554  0.1768
  260TMC3    C6 3991   3.498   2.645  17.668 -0.0345 -0.2202 -0.2637
  260TMC3     C 3992   3.296   2.919   0.178  1.0927  0.4419 -0.0249
  260TMC3     O 3993   3.289   3.036   0.138 -0.7913  0.0072 -0.5164
  260TMC3     H 3994   3.481   2.977   0.004 -0.5242  0.1232  2.4330
  260TMC3    H1 3995   3.235   2.661   0.144  1.6412  0.0147  1.8014
  260TMC3    H2 3996   3.550   2.586  17.593 -0.6916 -2.2383  0.8824
  260TMC3    C7 3997   3.340   2.472  17.717  0.0250 -0.3474 -0.2309
  260TMC3    C8 3998   3.620   2.825  17.565  0.7275 -0.7621  0.0551
  260TMC3    O1 3999   3.407   2.380  17.681 -0.5190 -0.0595  0.0195
  260TMC3    O2 4000   3.607   2.944  17.523  0.1685  0.1493  0.0731
  261MPD2     C 4001   0.687   1.719  12.221  0.3149 -0.4748 -0.2933
  261MPD2    C1 4002   0.558   1.763  12.243  0.2182  0.5327  1.0205
  261MPD2    C2 4003   0.511   1.867  12.160  0.4931  0.7319  0.5324
  261MPD2    C3 4004   0.588   1.917  12.053  0.5940 -0.3104 -0.7454
  261MPD2    C4 4005   0.719   1.877  12.055 -0.1255  0.9311 -1.2125
  261MPD2    C5 4006   0.772   1.783  12.136  0.1900 -0.6321  0.4115
  261MPD2     H 4007   0.412   1.909  12.172 -0.7616 -1.6715 -1.3800
  261MPD2    H1 4008   0.794   1.910  11.983  3.7303 -1.3822  1.6981
  261MPD2    H2 4009   0.726   1.639  12.282 -1.8441 -0.3010  1.3094
  261MPD2    H3 4010   0.873   1.744  12.124  0.4263  0.0424  0.1965
  261MPD2     N 4011   0.530   2.019  11.968 -0.3531  0.3951 -0.2965
  261MPD2    H5 4012   0.447   2.066  12.002 -0.0340  0.8395 -0.1357
  261MPD2    N1 4013   0.474   1.713  12.350  0.4328 -0.4625 -0.4349
  261MPD2    H7 4014   0.378   1.746  12.361  0.4123 -1.0350  1.0663
  262TMC3    C1 4015   0.546   2.170  11.775 -0.3805 -0.3076  0.1033
  262TMC3    C2 4016   0.476   2.266  11.850 -0.2395  0.6049 -0.4573
  262TMC3    C3 4017   0.483   2.398  11.809 -0.1635 -0.0697  0.3597
  262TMC3    C4 4018   0.607   2.209  11.657 -0.2791 -0.5060 -0.0037
  262TMC3    C5 4019   0.624   2.341  11.631 -0.4928  0.8430  0.0813
  262TMC3    C6 4020   0.557   2.437  11.707 -0.4279  0.3841  0.0709
  262TMC3     C 4021   0.594   2.049  11.851  0.3453 -0.1367 -0.7466
  262TMC3     O 4022   0.681   1.984  11.794 -0.3283 -0.7596 -0.3822
  262TMC3     H 4023   0.418   2.249  11.940 -0.1667  4.1449  0.2550
  262TMC3    H1 4024   0.643   2.131  11.590 -1.1501 -1.2990  0.4562
  262TMC3    H2 4025   0.559   2.543  11.683  0.4350  0.5014  0.6652
  262TMC3    C7 4026   0.697   2.357  11.506 -0.2764  0.2525 -0.6183
  262TMC3    C8 4027   0.431   2.507  11.892 -0.0450  0.6003 -0.0970
  262TMC3    O1 4028   0.723   2.266  11.433  0.3036 -0.3383  0.0173
  262TMC3    O2 4029   0.414   2.610  11.830 -0.2179 -0.1178 -0.0221
  263MPD2     C 4030   1.431   1.140  11.725 -0.0544 -1.0752 -0.4901
  263MPD2    C1 4031   1.500   1.046  11.645  0.4404 -0.3122  0.4074
  263MPD2    C2 4032   1.500   1.072  11.507  0.1627  0.0935 -0.0380
  263MPD2    C3 4033   1.469   1.196  11.460  0.3216  0.6250 -0.8029
  263MPD2    C4 4034   1.423   1.296  11.544 -0.3577 -0.1801 -0.3825
  263MPD2    C5 4035   1.395   1.264  11.671  0.9592 -0.5559 -0.5340
  263MPD2     H 4036   1.512   0.992  11.435 -2.6866 -0.5678  0.2075
  263MPD2    H1 4037   1.389   1.390  11.501 -0.6202 -0.2557 -0.3437
  263MPD2    H2 4038   1.395   1.115  11.824 -0.8713 -0.4431 -0.6220
  263MPD2    H3 4039   1.341   1.333  11.734  3.1051 -0.5096  1.2236
  263MPD2     N 4040   1.477   1.213  11.320 -0.2275 -1.0141  0.2148
  263MPD2    H5 4041   1.506   1.131  11.268  0.1689 -0.7078 -0.0462
  263MPD2    N1 4042   1.516   0.915  11.698  0.3266 -0.1052 -0.6104
  263MPD2    H7 4043   1.500   0.908  11.798 -1.6727 -1.5873 -1.0454
  264TMC3    C1 4044   1.462   1.301  11.110  0.1467 -0.0940 -0.0718
  264TMC3    C2 4045   1.367   1.357  11.029  0.4539 -0.4651  0.4292
  264TMC3    C3 4046   1.412   1.417  10.915 -0.2806  0.1026  0.1693
  264TMC3    C4 4047   1.594   1.288  11.073 -0.5981  0.0078  0.0666
  264TMC3    C5 4048   1.627   1.330  10.954  0.0981 -0.1650  0.0135
  264TMC3    C6 4049   1.539   1.395  10.878 -0.1145  0.2085  0.2160
  264TMC3     C 4050   1.442   1.326  11.247  0.8111 -0.0680  0.1467
  264TMC3     O 4051   1.391   1.433  11.282  0.1901  0.2533  0.1613
  264TMC3     H 4052   1.270   1.379  11.071  0.1804  1.0612 -0.9913
  264TMC3    H1 4053   1.665   1.247  11.143 -1.7524  0.8933  1.7862
  264TMC3    H2 4054   1.569   1.428  10.779  1.2711  1.6892  1.1297
  264TMC3    C7 4055   1.768   1.350  10.931  0.9092  0.8105 -0.0638
  264TMC3    C8 4056   1.391   1.564  10.914 -0.1217  0.3164  0.2517
  264TMC3    O1 4057   1.794   1.357  10.811  0.8573 -0.3124  0.7629
  264TMC3    O2 4058   1.435   1.622  10.817 -0.3464 -0.5978  0.2765
  265MPD2     C 4059   3.273   1.258  15.793 -0.5284 -0.1295  0.3440
  265MPD2    C1 4060   3.330   1.350  15.705  0.3231  0.2853 -1.2035
  265MPD2    C2 4061   3.425   1.316  15.616 -0.2083 -0.4261 -0.3963
  265MPD2    C3 4062   3.459   1.181  15.605 -0.5608 -0.2957 -1.0095
  265MPD2    C4 4063   3.391   1.087  15.671  0.7387  0.0790 -0.7040
  265MPD2    C5 4064   3.304   1.126  15.769  0.3155 -0.9028 -0.1237
  265MPD2     H 4065   3.462   1.401  15.560 -1.5263 -0.0110 -0.6547
  265MPD2    H1 4066   3.420   0.983  15.664 -1.9863 -0.7502  0.3942
  265MPD2    H2 4067   3.202   1.265  15.875  1.2800 -0.2116  1.8989
  265MPD2    H3 4068   3.247   1.052  15.825  0.2698 -0.7873 -0.0189
  265MPD2     N 4069   3.554   1.130  15.513 -0.0401  0.1273 -0.1937
  265MPD2    H5 4070   3.571   1.030  15.520 -0.0104  0.2342  1.2623
  265MPD2    N1 4071   3.292   1.483  15.701  0.4245 -0.1426 -0.2328
  265MPD2    H7 4072   3.346   1.546  15.643  1.2677 -0.5520  0.1224
  266TMC3    C1 4073   3.219   1.696  15.778 -0.1069 -0.6810  0.1615
  266TMC3    C2 4074   3.212   1.785  15.882  0.0206  0.6501  0.3797
  266TMC3    C3 4075   3.225   1.918  15.856 -0.1027 -0.1693 -0.1486
  266TMC3    C4 4076   3.226   1.741  15.646  0.4074 -0.4090 -0.2623
  266TMC3    C5 4077   3.237   1.879  15.622  0.7398  0.5279 -1.0074
  266TMC3    C6 4078   3.240   1.968  15.727  0.0686 -0.5591  0.1907
  266TMC3     C 4079   3.211   1.548  15.792  0.5972  0.0464 -0.1479
  266TMC3     O 4080   3.150   1.503  15.888  0.2471 -0.1254 -0.2207
  266TMC3     H 4081   3.217   1.747  15.983  2.3607  1.4206  0.5593
  266TMC3    H1 4082   3.199   1.667  15.571 -1.5361  1.3909 -1.3730
  266TMC3    H2 4083   3.260   2.074  15.717  1.4793 -0.9256 -0.7798
  266TMC3    C7 4084   3.213   1.923  15.487 -1.3258  0.1833 -0.1017
  266TMC3    C8 4085   3.291   1.992  15.967  1.0508  0.3186 -0.9014
  266TMC3    O1 4086   3.183   1.829  15.410 -0.2917  0.2324 -0.0129
  266TMC3    O2 4087   3.315   1.930  16.068 -0.2752  0.2148  0.1778
  267MPD2     C 4088   0.562   3.396   0.701  0.2153  0.6801 -0.5447
  267MPD2    C1 4089   0.627   3.425   0.582  0.0872  0.1390  0.0102
  267MPD2    C2 4090   0.553   3.484   0.482  0.6153  0.5651  0.0020
  267MPD2    C3 4091   0.424   3.523   0.508  0.1105 -0.1669  0.1885
  267MPD2    C4 4092   0.363   3.488   0.626 -0.3774 -0.4390 -0.1957
  267MPD2    C5 4093   0.428   3.420   0.726  1.0450  0.1191  0.6386
  267MPD2     H 4094   0.594   3.511   0.385 -0.3702  0.3531 -0.4759
  267MPD2    H1 4095   0.260   3.509   0.650 -0.7415 -3.2309  0.7279
  267MPD2    H2 4096   0.607   3.338   0.781  0.3798  0.6149 -0.6842
  267MPD2    H3 4097   0.385   3.397   0.823  1.9927  1.5415  1.4011
  267MPD2     N 4098   0.361   3.606   0.412 -0.8224  0.3445  0.5287
  267MPD2    H5 4099   0.415   3.625   0.328 -0.5986 -2.3635  0.0828
  267MPD2    N1 4100   0.761   3.385   0.566  0.3226 -0.6299 -0.1809
  267MPD2    H7 4101   0.797   3.332   0.645 -3.6632 -0.8893  1.5013
  268TMC3    C1 4102   0.964   3.319   0.472  0.0141 -0.3163 -0.3010
  268TMC3    C2 4103   1.049   3.334   0.365  0.0584  0.3053 -0.0693
  268TMC3    C3 4104   1.160   3.254   0.367 -0.5287  0.2151 -0.2390
  268TMC3    C4 4105   0.991   3.230   0.568 -0.4145  0.3171 -0.6506
  268TMC3    C5 4106   1.096   3.149   0.563  0.2379  0.0238  0.7080
  268TMC3    C6 4107   1.179   3.152   0.457  0.1818  0.0201 -0.4985
  268TMC3     C 4108   0.852   3.407   0.467  0.6210  0.8427 -0.2220
  268TMC3     O 4109   0.831   3.486   0.376 -0.1624 -0.3529  0.4146
  268TMC3     H 4110   1.042   3.424   0.305  0.7315 -0.1840 -0.8912
  268TMC3    H1 4111   0.934   3.214   0.659 -0.2484  0.3490 -0.5410
  268TMC3    H2 4112   1.266   3.087   0.450  0.7670  0.5303  2.0810
  268TMC3    C7 4113   1.148   3.062   0.673  0.1311  0.2250  0.2894
  268TMC3    C8 4114   1.262   3.288   0.264 -0.3583  0.2440  0.5583
  268TMC3    O1 4115   1.252   2.990   0.657 -0.2765 -0.4556 -0.4515
  268TMC3    O2 4116   1.376   3.242   0.281  0.2373 -0.0516 -0.3214
  269MPD2     C 4117   0.943   1.963  15.530 -0.3175 -0.1444 -0.2138
  269MPD2    C1 4118   0.815   2.004  15.509  0.5189 -0.2335  0.7891
  269MPD2    C2 4119   0.797   2.143  15.487 -0.7989  0.6742  0.8227
  269MPD2    C3 4120   0.908   2.229  15.479  0.1870  0.0957  0.0372
  269MPD2    C4 4121   1.033   2.187  15.518 -0.7186  0.4897  0.4732
  269MPD2    C5 4122   1.049   2.054  15.551 -0.9387  0.1589 -1.0695
  269MPD2     H 4123   0.697   2.180  15.468  0.1259  2.0887 -1.3075
  269MPD2    H1 4124   1.116   2.256  15.522 -0.4770  0.2737 -0.7477
  269MPD2    H2 4125   0.960   1.860  15.557  0.5367  0.1067  0.1830
  269MPD2    H3 4126   1.148   2.027  15.586 -1.3562 -1.0383 -0.8171
  269MPD2     N 4127   0.882   2.368  15.447  0.6928 -0.3971  0.2224
  269MPD2    H5 4128   0.783   2.390  15.450  0.7560  0.1706 -2.6427
  269MPD2    N1 4129   0.719   1.901  15.510  0.2363 -0.5839 -0.3634
  269MPD2    H7 4130   0.752   1.812  15.548 -3.3607 -1.4192  0.8242
  270TMC3    C1 4131   0.507   1.799  15.520 -0.4359  0.3120  0.6412
  270TMC3    C2 4132   0.491   1.677  15.450 -0.2014 -1.0055  0.2354
  270TMC3    C3 4133   0.497   1.563  15.518  0.1894  0.3480  0.0639
  270TMC3    C4 4134   0.545   1.787  15.651  0.1654  0.2243  0.3496
  270TMC3    C5 4135   0.559   1.664  15.716  0.1882  0.0079  0.2967
  270TMC3    C6 4136   0.529   1.550  15.647  0.1891 -0.1510 -0.0697
  270TMC3     C 4137   0.590   1.898  15.457 -0.5576  0.1135  0.7873
  270TMC3     O 4138   0.550   1.963  15.362  0.3382 -0.2176  0.5223
  270TMC3     H 4139   0.466   1.686  15.345  0.5268 -0.2889  0.1288
  270TMC3    H1 4140   0.559   1.881  15.703 -2.2647 -0.1148  1.6520
  270TMC3    H2 4141   0.546   1.451  15.687  1.8594  0.4596  0.7278
  270TMC3    C7 4142   0.691   1.652  15.762 -0.5658  0.2037  0.6841
  270TMC3    C8 4143   0.498   1.438  15.438  0.0431  0.0437 -0.1205
  270TMC3    O1 4144   0.740   1.546  15.729 -0.2190 -0.5324  0.1159
  270TMC3    O2 4145   0.397   1.374  15.442 -0.5359  0.3000  0.0937
  271MPD2     C 4146   0.466   1.380  13.736  0.4475 -1.1880 -0.0334
  271MPD2    C1 4147   0.450   1.425  13.864 -0.1369 -0.8483 -0.5285
  271MPD2    C2 4148   0.347   1.514  13.886  0.0378  0.3725  0.2223
  271MPD2    C3 4149   0.276   1.582  13.783 -0.4662 -0.3133  0.3235
  271MPD2    C4 4150   0.299   1.537  13.654 -0.9289 -0.3273 -0.0983
  271MPD2    C5 4151   0.402   1.443  13.634 -0.1975 -0.0671 -0.3107
  271MPD2     H 4152   0.332   1.540  13.990  0.2984  1.0832  0.0775
  271MPD2    H1 4153   0.244   1.581  13.572 -1.2117  1.4642  1.0554
  271MPD2    H2 4154   0.542   1.312  13.700  0.3071 -0.5299 -1.5616
  271MPD2    H3 4155   0.432   1.433  13.531 -1.1175 -0.9044 -0.4963
  271MPD2     N 4156   0.179   1.687  13.805  0.5270  0.8896  0.3968
  271MPD2    H5 4157   0.129   1.721  13.724 -1.4465  0.5009  1.4515
  271MPD2    N1 4158   0.534   1.387  13.966  0.4899  0.4038  0.1402
  271MPD2    H7 4159   0.518   1.413  14.063 -1.5378  0.8542 -0.3192
  272TMC3    C1 4160   0.714   1.299  14.091 -0.5339 -0.0938  0.1070
  272TMC3    C2 4161   0.851   1.296  14.098 -0.3782 -0.3169  0.2337
  272TMC3    C3 4162   0.908   1.304  14.223  0.7578 -0.0891  0.5311
  272TMC3    C4 4163   0.624   1.311  14.197  0.4696  0.2692 -0.9081
  272TMC3    C5 4164   0.694   1.333  14.317 -0.0678 -0.4506  0.0308
  272TMC3    C6 4165   0.830   1.322  14.329  0.1372 -0.5555  0.1522
  272TMC3     C 4166   0.651   1.321  13.961  0.4911  0.6943  0.2042
  272TMC3     O 4167   0.720   1.298  13.861  0.1563  0.3572 -0.6909
  272TMC3     H 4168   0.907   1.306  14.006 -1.2938  2.4993 -0.0310
  272TMC3    H1 4169   0.516   1.310  14.192  0.4088  0.1000  0.2407
  272TMC3    H2 4170   0.864   1.314  14.432  0.0545 -1.8164  0.0898
  272TMC3    C7 4171   0.613   1.340  14.435 -0.1383 -0.4686 -0.1946
  272TMC3    C8 4172   1.051   1.293  14.234  0.0429  0.3061  0.1367
  272TMC3    O1 4173   0.539   1.245  14.458  0.2352 -0.3109  0.1222
  272TMC3    O2 4174   1.120   1.235  14.147  0.4303  0.7529  0.1326
  273MPD2     C 4175   1.299   0.039  11.966  0.5402  0.4439 -0.5571
  273MPD2    C1 4176   1.386   4.725  11.871 -0.5678  0.6847  0.0975
  273MPD2    C2 4177   1.337   4.659  11.759  0.3716 -0.1197 -0.0959
  273MPD2    C3 4178   1.201   4.633  11.739 -0.5301  0.2551  0.1802
  273MPD2    C4 4179   1.116   4.695  11.825 -0.3003 -0.5519  0.4869
  273MPD2    C5 4180   1.167   0.023  11.940  0.5452 -0.3620 -0.2689
  273MPD2     H 4181   1.408   4.614  11.690  0.1663 -2.9731  1.5417
  273MPD2    H1 4182   1.008   4.696  11.812 -0.0733 -1.0658 -1.4617
  273MPD2    H2 4183   1.345   0.105  12.039  2.6206 -1.9811  0.2933
  273MPD2    H3 4184   1.096   0.071  12.007  1.8854  0.1431  0.7786
  273MPD2     N 4185   1.172   4.564  11.621 -0.3103 -0.0034  0.2284
  273MPD2    H5 4186   1.235   4.498  11.577  0.1358 -0.4432  1.5261
  273MPD2    N1 4187   1.520   0.032  11.888 -0.4236 -0.2846  0.2584
  273MPD2    H7 4188   1.532   0.093  11.968 -0.5640  0.8910 -0.6093
  274TMC3    C1 4189   1.046   4.530  11.423  0.2495 -0.2573 -0.2922
  274TMC3    C2 4190   0.923   4.543  11.363  0.2964  0.0498 -0.1636
  274TMC3    C3 4191   0.906   4.567  11.233  0.3775  0.0836  0.4693
  274TMC3    C4 4192   1.157   4.559  11.350  0.2580 -1.0732  0.2832
  274TMC3    C5 4193   1.133   4.591  11.217 -0.2063 -0.1561  0.4608
  274TMC3    C6 4194   1.014   4.590  11.154 -1.3835 -0.6963 -1.3218
  274TMC3     C 4195   1.047   4.576  11.565 -0.9163  0.1853  0.0828
  274TMC3     O 4196   0.956   4.642  11.591  0.2850  0.1971  0.3387
  274TMC3     H 4197   0.829   4.541  11.417 -0.4020  1.0566 -1.3579
  274TMC3    H1 4198   1.259   4.562  11.387  0.2060  1.6397  0.2257
  274TMC3    H2 4199   1.007   4.652  11.065 -1.5918  1.1772  0.0304
  274TMC3    C7 4200   1.235   4.681  11.159 -0.3682  0.1879 -0.4062
  274TMC3    C8 4201   0.795   4.652  11.193  0.3826  0.5265 -0.6556
  274TMC3    O1 4202   1.251   4.677  11.036 -0.0498 -0.2996  0.1827
  274TMC3    O2 4203   0.753   4.733  11.271  0.1717 -0.0039  0.2978
  275MPD2     C 4204   1.584   2.750  13.817  0.2947 -0.0217  0.2216
  275MPD2    C1 4205   1.568   2.648  13.908 -0.0697  0.2373  0.0323
  275MPD2    C2 4206   1.451   2.577  13.915 -0.5392  0.1533  0.2709
  275MPD2    C3 4207   1.334   2.630  13.850 -0.4383 -0.2877 -0.1850
  275MPD2    C4 4208   1.350   2.731  13.759  0.3422  0.1815 -0.3935
  275MPD2    C5 4209   1.476   2.787  13.742 -0.2874  0.5362  0.3976
  275MPD2     H 4210   1.433   2.496  13.985  2.6218 -1.4813 -0.8340
  275MPD2    H1 4211   1.272   2.772  13.697  2.2349  1.2644 -2.0703
  275MPD2    H2 4212   1.676   2.802  13.793 -0.2822  0.3051 -1.2905
  275MPD2    H3 4213   1.494   2.860  13.663 -2.0672 -1.1354 -1.5362
  275MPD2     N 4214   1.198   2.583  13.872  0.1098 -0.3334 -0.1347
  275MPD2    H5 4215   1.129   2.651  13.843  2.6310  1.1859 -2.5264
  275MPD2    N1 4216   1.678   2.601  13.989 -0.4852  0.3877  0.5247
  275MPD2    H7 4217   1.649   2.550  14.072  1.8574 -3.5747 -1.0840
  276TMC3    C1 4218   1.878   2.602  14.088 -0.3095  0.9199 -0.3550
  276TMC3    C2 4219   1.846   2.492  14.157  1.2530 -0.1484  1.2702
  276TMC3    C3 4220   1.903   2.471  14.276 -0.2348  0.0807  0.3078
  276TMC3    C4 4221   1.948   2.710  14.146 -0.3434  0.1829  0.2028
  276TMC3    C5 4222   2.006   2.685  14.267  0.3307  0.1678  0.4200
  276TMC3    C6 4223   1.991   2.565  14.330 -0.0105  0.4291 -0.6510
  276TMC3     C 4224   1.804   2.636  13.974  0.3169 -0.1659 -0.3444
  276TMC3     O 4225   1.860   2.718  13.899  0.3723 -0.4765  0.0577
  276TMC3     H 4226   1.799   2.406  14.111  0.2143  2.5410 -2.7526
  276TMC3    H1 4227   1.965   2.798  14.085 -1.1354 -0.0957 -0.4139
  276TMC3    H2 4228   2.038   2.545  14.426  0.4952  2.6488 -0.4489
  276TMC3    C7 4229   2.044   2.796  14.348 -0.2995  0.1520  0.5270
  276TMC3    C8 4230   1.841   2.358  14.344 -0.6954  0.0517 -0.4047
  276TMC3    O1 4231   2.114   2.770  14.451  0.3563  0.1173 -0.3403
  276TMC3    O2 4232   1.762   2.287  14.286 -0.3361  0.1959  0.1418
  277MPD2     C 4233   3.575   1.779  13.081 -0.1555  0.0864 -0.0547
  277MPD2    C1 4234   3.504   1.849  13.181 -0.0572  0.0498 -0.0454
  277MPD2    C2 4235   3.435   1.779  13.281  0.0813 -0.3388 -0.0369
  277MPD2    C3 4236   3.440   1.636  13.287 -0.0370 -0.4638 -0.7627
  277MPD2    C4 4237   3.499   1.570  13.181  0.1276  0.3246 -0.5000
  277MPD2    C5 4238   3.568   1.643  13.088 -0.5633  0.1010  0.2109
  277MPD2     H 4239   3.375   1.832  13.353  2.0085 -0.9055  1.9926
  277MPD2    H1 4240   3.506   1.464  13.164 -1.7958  0.3400 -1.3406
  277MPD2    H2 4241   3.629   1.830  13.002  0.6828  0.3962  0.7195
  277MPD2    H3 4242   3.631   1.594  13.015 -1.6782  2.2477 -2.1960
  277MPD2     N 4243   3.369   1.570  13.389 -0.2052 -0.2749  0.0625
  277MPD2    H5 4244   3.316   1.626  13.454  0.5169  1.5740 -0.9506
  277MPD2    N1 4245   3.492   1.992  13.200 -0.7836  0.3772 -0.1966
  277MPD2    H7 4246   3.420   2.017  13.266 -0.3506  1.5283 -0.1597
  278TMC3    C1 4247   3.271   1.398  13.520 -0.1035 -0.1613  0.3573
  278TMC3    C2 4248   3.287   1.272  13.581 -0.1287 -0.6487  0.8648
  278TMC3    C3 4249   3.188   1.240  13.669  0.1755 -0.5669  0.3717
  278TMC3    C4 4250   3.174   1.490  13.557 -0.0712  0.4281  0.3370
  278TMC3    C5 4251   3.076   1.449  13.643  0.4460  0.2879 -0.0816
  278TMC3    C6 4252   3.087   1.329  13.704  0.3757  0.1767  0.0266
  278TMC3     C 4253   3.366   1.435  13.408  0.0859  0.1788  0.3098
  278TMC3     O 4254   3.442   1.352  13.362  0.1611  0.2386 -0.2277
  278TMC3     H 4255   3.358   1.203  13.535  2.2053  0.3918  2.9256
  278TMC3    H1 4256   3.159   1.588  13.512 -1.8671 -0.1684 -0.3468
  278TMC3    H2 4257   3.016   1.299  13.781  0.9248 -2.5788 -0.5226
  278TMC3    C7 4258   2.951   1.522  13.646 -0.0087 -0.0076 -0.0461
  278TMC3    C8 4259   3.176   1.099  13.696  0.4868 -0.2035  0.3908
  278TMC3    O1 4260   2.918   1.575  13.540  0.6133 -0.4879  0.5459
  278TMC3    O2 4261   3.280   1.038  13.712 -0.6047 -0.3536  0.4149
  279MPD2     C 4262   3.050   1.678   0.702  0.5813 -0.6941 -0.1214
  279MPD2    C1 4263   2.975   1.650   0.593  0.7641  0.4294  0.0384
  279MPD2    C2 4264   2.994   1.526   0.537  0.2856 -0.8995  0.8330
  279MPD2    C3 4265   3.096   1.447   0.570  0.2828 -0.0368  0.5755
  279MPD2    C4 4266   3.178   1.482   0.676  0.9341 -0.0904 -0.6776
  279MPD2    C5 4267   3.144   1.596   0.751  0.1590 -0.3224 -0.3404
  279MPD2     H 4268   2.920   1.493   0.464  0.7910 -0.7050  0.2321
  279MPD2    H1 4269   3.244   1.404   0.711  1.0140  0.1454 -0.2953
  279MPD2    H2 4270   3.032   1.771   0.756 -0.7660  0.2983 -2.2967
  279MPD2    H3 4271   3.199   1.622   0.841  0.4242  0.2295 -0.6605
  279MPD2     N 4272   3.116   1.314   0.520  0.8884  0.5349 -0.4545
  279MPD2    H5 4273   3.198   1.262   0.552  0.2891 -0.2653 -0.2227
  279MPD2    N1 4274   2.873   1.729   0.538  0.5416 -0.1472  0.2395
  279MPD2    H7 4275   2.836   1.702   0.447  0.9790 -0.5137  0.1677
  280TMC3    C1 4276   2.726   1.895   0.505  1.0795 -0.4498 -0.5097
  280TMC3    C2 4277   2.647   1.807   0.438  0.2763  0.0604  0.1633
  280TMC3    C3 4278   2.537   1.849   0.367 -1.0658  0.5276  0.5391
  280TMC3    C4 4279   2.689   2.026   0.511 -0.0465 -0.4264  0.4027
  280TMC3    C5 4280   2.572   2.063   0.447 -0.6194 -0.0038 -0.0997
  280TMC3    C6 4281   2.495   1.980   0.370  0.1830  0.0746  0.0581
  280TMC3     C 4282   2.820   1.836   0.593 -0.4324  1.0114  0.7193
  280TMC3     O 4283   2.848   1.901   0.691 -0.0496 -0.4123  0.3244
  280TMC3     H 4284   2.668   1.701   0.441  1.2363  0.2272 -0.7377
  280TMC3    H1 4285   2.753   2.091   0.570 -0.6041 -0.1362  0.6982
  280TMC3    H2 4286   2.424   2.021   0.298  0.5769  0.1902 -0.2649
  280TMC3    C7 4287   2.535   2.203   0.456 -0.0068  0.1797 -0.4586
  280TMC3    C8 4288   2.467   1.758   0.278  0.2349 -0.5484 -0.4360
  280TMC3    O1 4289   2.626   2.280   0.481 -0.2918 -0.4871 -0.2693
  280TMC3    O2 4290   2.534   1.671   0.221  0.8508  0.6664  0.4161
  281TMC3    C1 4291   1.364   2.413  13.422  0.5341 -0.7018 -0.7874
  281TMC3    C2 4292   1.409   2.512  13.342 -0.2981 -0.0505 -0.9560
  281TMC3    C3 4293   1.501   2.489  13.248 -0.3680  0.7875  0.1818
  281TMC3    C4 4294   1.408   2.287  13.408  0.2036  0.0642  0.3148
  281TMC3    C5 4295   1.502   2.269  13.313 -0.4828 -0.6090  0.2351
  281TMC3    C6 4296   1.551   2.365  13.232 -0.1574  0.4143  0.2403
  281TMC3     C 4297   1.241   2.437  13.497 -0.2556 -0.7471 -0.4776
  281TMC3     O 4298   1.230   2.359  13.593  0.0714  0.0186 -0.4407
  281TMC3     H 4299   1.375   2.613  13.364  1.2081  0.3364 -0.3575
  281TMC3    H1 4300   1.384   2.207  13.477  0.4269 -0.5181 -0.2810
  281TMC3    H2 4301   1.640   2.349  13.172  2.1786 -0.7367  3.9557
  281TMC3    C7 4302   1.612   2.171  13.340 -0.2173  0.0466 -0.1982
  281TMC3    C8 4303   1.580   2.595  13.188 -0.6321  0.1025 -0.3130
  281TMC3    O1 4304   1.724   2.201  13.296  0.0982  0.5988  0.2345
  281TMC3    O2 4305   1.696   2.566  13.188 -0.0015 -0.4519  0.3490
  282MPD2     C 4306   3.305   3.360  14.932  0.3334  0.0196  0.4253
  282MPD2    C1 4307   3.183   3.422  14.926 -0.2005 -0.1311 -0.7787
  282MPD2    C2 4308   3.130   3.472  14.807  0.2460  0.4306  0.1387
  282MPD2    C3 4309   3.184   3.429  14.686  0.5289  0.2486  0.2530
  282MPD2    C4 4310   3.308   3.366  14.691 -0.0307  0.5479 -0.0616
  282MPD2    C5 4311   3.359   3.327  14.811  0.3234 -1.1575  0.7061
  282MPD2     H 4312   3.034   3.522  14.808 -1.0670 -2.0710 -1.2418
  282MPD2    H1 4313   3.362   3.335  14.602 -0.7512 -1.6226  0.2404
  282MPD2    H2 4314   3.343   3.310  15.021 -0.3643  1.0545  1.2960
  282MPD2    H3 4315   3.447   3.264  14.810  1.3018  0.2219  0.1033
  282MPD2     N 4316   3.119   3.454  14.562  0.3615 -1.4204 -0.4720
  282MPD2    H5 4317   3.035   3.506  14.582  1.9301  1.1854 -0.5673
  282MPD2    N1 4318   3.103   3.441  15.041 -0.3971  0.0191 -0.8305
  282MPD2    H7 4319   3.024   3.504  15.043  0.9882  1.7361 -0.3618
  283TMC3    C1 4320   3.002   3.390  15.245  0.1990 -0.1280  0.6490
  283TMC3    C2 4321   2.951   3.516  15.246 -0.0628  0.3548  1.1552
  283TMC3    C3 4322   2.840   3.544  15.324 -0.0521  0.6502  0.2789
  283TMC3    C4 4323   2.935   3.281  15.298  0.4815 -0.4400  0.2372
  283TMC3    C5 4324   2.826   3.315  15.371 -0.2003  0.5427  0.7649
  283TMC3    C6 4325   2.778   3.444  15.392 -0.6127 -0.4476  0.0223
  283TMC3     C 4326   3.106   3.366  15.154 -0.0637 -0.2668  0.5567
  283TMC3     O 4327   3.167   3.265  15.181 -0.4840  0.5323  0.3367
  283TMC3     H 4328   3.022   3.594  15.222  1.0099 -0.9366  0.0388
  283TMC3    H1 4329   2.982   3.183  15.299 -0.0537 -0.7428 -3.2190
  283TMC3    H2 4330   2.698   3.466  15.461  1.8969 -1.7039  3.2946
  283TMC3    C7 4331   2.761   3.214  15.454  0.0524 -0.6095  0.0030
  283TMC3    C8 4332   2.814   3.684  15.363 -0.0580 -0.2587  0.2217
  283TMC3    O1 4333   2.682   3.262  15.532  0.6094  0.4350 -0.3874
  283TMC3    O2 4334   2.756   3.692  15.475 -0.6493 -0.2657 -0.7984
  284MPD2     C 4335   1.954   2.055  12.160 -0.1099 -0.1770  0.4465
  284MPD2    C1 4336   1.880   2.092  12.046 -0.4463  0.0032 -0.5285
  284MPD2    C2 4337   1.826   2.001  11.960 -0.3766  0.0339 -1.1013
  284MPD2    C3 4338   1.827   1.869  11.988 -0.2060  0.3618  0.1471
  284MPD2    C4 4339   1.889   1.834  12.105 -0.5249  0.3805  0.0925
  284MPD2    C5 4340   1.956   1.926  12.183  0.2168 -0.3380  0.1192
  284MPD2     H 4341   1.762   2.033  11.880  0.2786  1.1406 -1.1881
  284MPD2    H1 4342   1.904   1.729  12.129 -0.2399  0.5239  0.5375
  284MPD2    H2 4343   2.008   2.116  12.231 -0.5529 -0.4567  1.0257
  284MPD2    H3 4344   2.006   1.885  12.270 -0.6248 -1.2070  0.1998
  284MPD2     N 4345   1.773   1.772  11.897 -0.3312  0.0355  0.2675
  284MPD2    H5 4346   1.779   1.675  11.927  1.3399 -0.1880 -0.7896
  284MPD2    N1 4347   1.864   2.230  12.006 -0.4791 -0.1597 -0.2459
  284MPD2    H7 4348   1.828   2.252  11.914 -0.7675 -1.2274 -0.3873
  285TMC3    C1 4349   1.862   2.454  11.993 -0.0716 -0.2528 -0.3622
  285TMC3    C2 4350   1.911   2.459  11.870  0.0905  0.5247 -0.3771
  285TMC3    C3 4351   1.877   2.562  11.784 -0.1509 -0.4271  1.1899
  285TMC3    C4 4352   1.762   2.532  12.036  0.1309  0.0761  0.7280
  285TMC3    C5 4353   1.725   2.637  11.950 -0.2566 -0.1412 -0.2043
  285TMC3    C6 4354   1.777   2.653  11.821  0.0986  0.3833 -0.0015
  285TMC3     C 4355   1.898   2.340  12.074  0.2330  0.4260 -0.6794
  285TMC3     O 4356   1.913   2.347  12.196 -0.2480  0.4605  0.4510
  285TMC3     H 4357   1.993   2.397  11.832  0.4339 -0.1191  1.4226
  285TMC3    H1 4358   1.730   2.521  12.139 -0.8000  3.6310  0.8262
  285TMC3    H2 4359   1.733   2.717  11.745  0.0128  0.9079  0.4883
  285TMC3    C7 4360   1.632   2.740  11.994  0.1763 -0.1090 -0.0720
  285TMC3    C8 4361   1.904   2.535  11.644 -0.5714 -0.1998 -0.2362
  285TMC3    O1 4362   1.627   2.828  11.909 -0.3342 -0.7864  0.0870
  285TMC3    O2 4363   1.960   2.433  11.601  0.1580 -0.0021 -0.1327
  286MPD2     C 4364   1.427   1.456   1.745 -1.1359 -0.1175  0.1436
  286MPD2    C1 4365   1.403   1.387   1.627 -0.4427  0.0523 -0.4235
  286MPD2    C2 4366   1.507   1.325   1.560  0.2186 -0.5910  0.4541
  286MPD2    C3 4367   1.638   1.342   1.612 -0.1144  0.1469  0.3930
  286MPD2    C4 4368   1.655   1.406   1.734  0.0010  0.3368  0.2060
  286MPD2    C5 4369   1.550   1.462   1.798 -0.0036 -0.1927  0.3965
  286MPD2     H 4370   1.494   1.291   1.458 -0.5544  1.8629 -0.2662
  286MPD2    H1 4371   1.751   1.408   1.784  0.1905 -1.2354 -0.0722
  286MPD2    H2 4372   1.353   1.514   1.798 -1.1333  0.3261 -0.3383
  286MPD2    H3 4373   1.573   1.518   1.888  2.6106  0.8909 -0.9412
  286MPD2     N 4374   1.753   1.280   1.555 -0.4269 -0.0869  0.3340
  286MPD2    H5 4375   1.838   1.295   1.609 -1.4225  0.9792  1.6229
  286MPD2    N1 4376   1.274   1.382   1.565 -0.4599 -0.1810  0.6847
  286MPD2    H7 4377   1.269   1.344   1.470  1.0698  0.5654  0.3130
  287TMC3    C1 4378   1.879   1.120   1.423  0.4626 -0.6607 -0.0796
  287TMC3    C2 4379   1.879   1.041   1.312  0.7474 -0.4334 -0.5307
  287TMC3    C3 4380   1.996   0.993   1.260 -0.1206 -0.9251 -0.2917
  287TMC3    C4 4381   1.996   1.170   1.472 -0.0022 -0.3273 -0.1389
  287TMC3    C5 4382   2.115   1.117   1.412  0.3235 -0.4473 -0.9449
  287TMC3    C6 4383   2.120   1.023   1.310 -0.4133  0.9247  0.0258
  287TMC3     C 4384   1.757   1.186   1.454 -0.4174 -0.1805 -0.1854
  287TMC3     O 4385   1.658   1.162   1.388  0.2655 -0.0753  0.2143
  287TMC3     H 4386   1.786   1.022   1.259  0.4365 -0.9411  0.2000
  287TMC3    H1 4387   2.007   1.228   1.563 -2.0224  1.4687 -1.0582
  287TMC3    H2 4388   2.209   0.971   1.276  0.2473  1.6041  0.7265
  287TMC3    C7 4389   2.240   1.169   1.465  0.0161 -0.0141 -0.1423
  287TMC3    C8 4390   1.984   0.914   1.145  0.4665  1.1354  0.9701
  287TMC3    O1 4391   2.232   1.274   1.530  0.0591 -0.1676 -0.7492
  287TMC3    O2 4392   1.876   0.859   1.130 -0.7053 -0.1930  0.1145
  288TMC3    C1 4393   3.920   1.004  14.691 -0.1397 -1.2904 -0.0900
  288TMC3    C2 4394   3.848   1.042  14.802 -0.4680  0.1760  0.1376
  288TMC3    C3 4395   3.724   0.986  14.820  0.2200 -0.2933  0.4153
  288TMC3    C4 4396   3.856   0.932  14.590 -0.7126  0.0921  0.1732
  288TMC3    C5 4397   3.718   0.902  14.597 -0.3875  0.2769 -0.1710
  288TMC3    C6 4398   3.660   0.912  14.721 -0.4222 -0.1859  0.1567
  288TMC3     C 4399   4.063   1.037  14.687  0.7999 -1.0550 -0.4682
  288TMC3     O 4400   4.124   1.063  14.794 -0.1515  0.0425 -0.3938
  288TMC3     H 4401   3.895   1.087  14.889 -1.1426 -0.2147  0.7128
  288TMC3    H1 4402   3.912   0.897  14.503  0.4422  0.8567  0.6097
  288TMC3    H2 4403   3.556   0.886  14.735 -0.7304  0.9390 -0.1311
  288TMC3    C7 4404   3.692   0.783  14.528 -0.4944 -0.8093 -0.6153
  288TMC3    C8 4405   3.654   1.021  14.940 -1.1715  0.0854  0.3259
  288TMC3    O1 4406   3.761   0.686  14.548  0.4211  0.4830  0.0985
  288TMC3    O2 4407   3.695   1.122  14.997  0.5947  0.0027 -0.2939
  289MPD2     C 4408   3.590   0.174  13.987  0.0718  0.6255  0.2837
  289MPD2    C1 4409   3.531   0.296  14.001  0.2765 -0.1920  0.5324
  289MPD2    C2 4410   3.392   0.316  13.988  1.5234  0.2587 -0.0796
  289MPD2    C3 4411   3.308   0.202  13.982 -0.3512 -0.3953  0.1260
  289MPD2    C4 4412   3.367   0.078  13.973 -0.9787 -0.2192  0.3092
  289MPD2    C5 4413   3.505   0.065  13.975 -0.3009 -0.2059 -0.0492
  289MPD2     H 4414   3.348   0.415  13.987  1.1754  0.0827 -2.7195
  289MPD2    H1 4415   3.310   4.721  13.973 -1.3493  0.0063 -0.6449
  289MPD2    H2 4416   3.697   0.169  14.000  0.3424  0.4581 -2.0463
  289MPD2    H3 4417   3.551   4.701  13.975 -0.2039 -0.1681  1.7777
  289MPD2     N 4418   3.168   0.214  13.997 -0.0396 -0.7229  0.1859
  289MPD2    H5 4419   3.109   0.138  13.964 -1.2813 -0.3753  1.5617
  289MPD2    N1 4420   3.623   0.402  14.025  0.3768 -0.3412  0.0021
  289MPD2    H7 4421   3.715   0.370  14.053 -0.2809 -2.2434 -0.0327
  290TMC3    C1 4422   2.956   0.306  14.006 -0.2041  0.7231 -0.3252
  290TMC3    C2 4423   2.881   0.401  14.069 -1.2615  0.4606  0.2668
  290TMC3    C3 4424   2.745   0.390  14.071  0.3969  0.3764  0.5363
  290TMC3    C4 4425   2.904   0.199  13.935 -0.2164  0.1551  0.6429
  290TMC3    C5 4426   2.766   0.196  13.938 -0.1976 -0.0485  0.1325
  290TMC3    C6 4427   2.682   0.283  14.010 -0.0459  0.1002  0.1216
  290TMC3     C 4428   3.098   0.334  14.009 -0.1268  0.1437 -0.5331
  290TMC3     O 4429   3.128   0.451  14.002 -0.0694 -0.0807  0.2000
  290TMC3     H 4430   2.934   0.486  14.110  1.5515  0.4120 -3.1660
  290TMC3    H1 4431   2.960   0.114  13.898 -1.5889 -0.6489  0.4161
  290TMC3    H2 4432   2.575   0.269  14.014  0.0309 -0.2840  0.8330
  290TMC3    C7 4433   2.700   0.068  13.903 -0.0336 -0.1512 -0.4275
  290TMC3    C8 4434   2.665   0.484  14.154 -0.3625 -0.5373 -0.5903
  290TMC3    O1 4435   2.581   0.063  13.896  0.1988 -0.5728 -0.3613
  290TMC3    O2 4436   2.545   0.482  14.146  0.1293  0.1776  0.1460
  291MPD2     C 4437   2.615   0.536   0.230 -0.1597 -0.2075 -0.3135
  291MPD2    C1 4438   2.707   0.443   0.190 -0.4121  0.7025  1.2025
  291MPD2    C2 4439   2.810   0.484   0.098 -0.0112  0.4098 -0.6299
  291MPD2    C3 4440   2.800   0.608   0.037 -0.5428 -0.6410  0.4203
  291MPD2    C4 4441   2.703   0.700   0.071 -0.2374  0.1906  0.6156
  291MPD2    C5 4442   2.621   0.667   0.174  0.6720  0.2194 -0.2709
  291MPD2     H 4443   2.878   0.406   0.066 -0.9395 -0.9845  0.8607
  291MPD2    H1 4444   2.704   0.798   0.024  0.4936 -1.1282 -2.1250
  291MPD2    H2 4445   2.544   0.521   0.310  0.7587  0.0164  0.5427
  291MPD2    H3 4446   2.552   0.742   0.210  0.4693  0.6766 -1.6075
  291MPD2     N 4447   2.896   0.664  17.686  0.0048 -1.0291  1.0306
  291MPD2    H5 4448   2.878   0.763  17.669 -0.5602 -1.5290 -1.1913
  291MPD2    N1 4449   2.689   0.309   0.237  0.0559  0.3146  0.4801
  291MPD2    H7 4450   2.624   0.304   0.314  0.0614  2.4194  0.6048
  292TMC3    C1 4451   2.717   0.088   0.283  0.6504 -0.4268  0.2168
  292TMC3    C2 4452   2.651   0.094   0.403 -0.0692 -0.6698  0.6103
  292TMC3    C3 4453   2.605   4.718   0.466 -0.0806  0.2194  0.5584
  292TMC3    C4 4454   2.730   4.703   0.221 -0.0064  0.0040  0.2064
  292TMC3    C5 4455   2.672   4.596   0.283 -0.7487 -0.5097  0.8516
  292TMC3    C6 4456   2.607   4.596   0.402  0.4967  0.5976 -0.0612
  292TMC3     C 4457   2.775   0.206   0.219  0.6987 -0.1206  0.3122
  292TMC3     O 4458   2.868   0.194   0.139  0.0550 -0.0031  0.0420
  292TMC3     H 4459   2.657   0.182   0.465 -1.5561  1.0251 -1.6464
  292TMC3    H1 4460   2.780   4.698   0.124  0.3620 -0.7253  0.4298
  292TMC3    H2 4461   2.568   4.506   0.450  0.5062 -0.5160 -2.1631
  292TMC3    C7 4462   2.697   4.471   0.215 -0.0638 -0.3778  0.2566
  292TMC3    C8 4463   2.495   0.022   0.560 -0.0473 -0.4499 -0.1480
  292TMC3    O1 4464   2.793   4.477   0.138 -0.1463  0.2901  0.1375
  292TMC3    O2 4465   2.446   0.134   0.558 -0.4330 -0.0927 -0.2151
  293MPD2     C 4466   4.230   1.406  12.775  0.3902  0.5052  0.0999
  293MPD2    C1 4467   4.332   1.503  12.771  0.4258  0.4811 -0.1472
  293MPD2    C2 4468   4.422   1.513  12.873 -0.3155  0.5082 -0.4925
  293MPD2    C3 4469   4.416   1.429  12.981  0.1797 -0.0589 -0.4936
  293MPD2    C4 4470   4.320   1.330  12.987  0.2928  0.1390 -0.1819
  293MPD2    C5 4471   4.227   1.321  12.886 -0.5276  0.4044 -0.1668
  293MPD2     H 4472   4.500   1.588  12.881 -0.7188  1.0119 -1.2614
  293MPD2    H1 4473   4.322   1.259  13.069  2.7067 -1.2924 -1.5048
  293MPD2    H2 4474   4.157   1.388  12.697  2.5904 -1.2793 -1.5681
  293MPD2    H3 4475   4.153   1.241  12.886  2.3675 -2.3058  0.9206
  293MPD2     N 4476   4.508   1.447  13.088  0.2885 -0.2531 -0.3293
  293MPD2    H5 4477   4.575   1.522  13.076  2.1415 -1.7431  0.8121
  293MPD2    N1 4478   4.327   1.591  12.658  0.0690 -0.0731 -0.4018
  293MPD2    H7 4479   4.250   1.577  12.594  0.6660 -2.1018 -0.6980
  294TMC3    C1 4480   4.376   1.793  12.546 -0.0450  0.0049  0.1599
  294TMC3    C2 4481   4.283   1.749  12.453  0.5642  0.2360 -0.2349
  294TMC3    C3 4482   4.247   1.843  12.352  0.1470 -0.1247  0.1475
  294TMC3    C4 4483   4.437   1.915  12.538  0.5022 -0.8115  0.0775
  294TMC3    C5 4484   4.403   1.997  12.429  0.6225  0.4489 -0.7206
  294TMC3    C6 4485   4.312   1.958  12.336  0.0135 -0.5216  0.0892
  294TMC3     C 4486   4.410   1.702  12.649 -0.5079  0.4123 -0.2653
  294TMC3     O 4487   4.494   1.741  12.727  0.5943  0.8579 -0.0246
  294TMC3     H 4488   4.243   1.648  12.446 -0.2996  0.6368 -1.0582
  294TMC3    H1 4489   4.513   1.944  12.609 -1.0565  1.5693  0.7895
  294TMC3    H2 4490   4.289   2.025  12.254 -0.0146 -1.2843 -0.5224
  294TMC3    C7 4491   4.475   2.127  12.418 -0.4150 -0.5322  0.0658
  294TMC3    C8 4492   4.146   1.801  12.258  0.1739 -0.0208 -0.4537
  294TMC3    O1 4493   4.517   2.177  12.523  0.4462  0.3384 -0.4206
  294TMC3    O2 4494   4.126   1.681  12.256  0.4902  0.0642 -0.1190
  295MPD2     C 4495   4.475   0.489   1.210  0.0352 -0.0555  0.1700
  295MPD2    C1 4496   4.542   0.371   1.174 -0.2368  0.3055 -0.2527
  295MPD2    C2 4497   4.490   0.247   1.209 -0.6915  0.3937  0.6537
  295MPD2    C3 4498   4.372   0.238   1.285 -0.4697 -0.4378  0.5259
  295MPD2    C4 4499   4.312   0.356   1.317  0.5988  0.0622 -0.5331
  295MPD2    C5 4500   4.360   0.477   1.270 -0.2581 -0.4322  0.4706
  295MPD2     H 4501   4.553   0.163   1.181 -0.3775  0.0310  2.3993
  295MPD2    H1 4502   4.220   0.354   1.374 -0.0625 -1.1493 -1.6214
  295MPD2    H2 4503   4.497   0.593   1.188 -1.4474  0.3486  0.5697
  295MPD2    H3 4504   4.308   0.571   1.280  1.3276  0.2783  1.9509
  295MPD2     N 4505   4.318   0.115   1.340 -0.2149 -0.4560  0.2574
  295MPD2    H5 4506   4.234   0.120   1.396 -1.2579 -0.3019 -1.3423
  295MPD2    N1 4507   4.658   0.371   1.093  0.4553 -0.5013  0.9358
  295MPD2    H7 4508   4.692   0.287   1.049  0.6020  0.5358 -0.9293
  296TMC3    C1 4509   4.326   4.622   1.410 -0.0847 -0.0833 -0.4035
  296TMC3    C2 4510   4.205   4.632   1.465  0.3963  0.9594  0.1911
  296TMC3    C3 4511   4.131   4.517   1.504 -0.4805 -0.1356 -0.7162
  296TMC3    C4 4512   4.383   4.499   1.392  0.1974 -0.3903 -0.1790
  296TMC3    C5 4513   4.312   4.385   1.428 -0.0106  0.3268 -0.5300
  296TMC3    C6 4514   4.190   4.394   1.481 -0.2812  0.0160 -0.3027
  296TMC3     C 4515   4.393   4.731   1.334 -0.6154  0.4072 -0.4030
  296TMC3     O 4516   4.502   4.712   1.281 -0.4687 -0.3851 -0.0765
  296TMC3     H 4517   4.171   4.730   1.495  1.7174  1.3453  0.4396
  296TMC3    H1 4518   4.481   4.490   1.347  0.5335 -2.6590  1.0410
  296TMC3    H2 4519   4.133   4.303   1.496  0.5229 -0.6251 -1.1355
  296TMC3    C7 4520   4.398   4.266   1.449  0.1468  0.0704  0.5789
  296TMC3    C8 4521   3.993   4.516   1.544  0.0145 -0.7138 -0.0276
  296TMC3    O1 4522   4.515   4.262   1.413  0.4928 -0.4857  0.3133
  296TMC3    O2 4523   3.946   4.422   1.598  0.4247 -0.3520  0.3023
  297MPD2     C 4524   2.354   2.018  16.149  0.0839  0.6393 -0.1126
  297MPD2    C1 4525   2.310   2.135  16.091  0.2376  0.0562 -0.4963
  297MPD2    C2 4526   2.398   2.225  16.028  0.5663  0.1921  0.0327
  297MPD2    C3 4527   2.534   2.200  16.038 -0.2893  0.4378  1.0015
  297MPD2    C4 4528   2.583   2.077  16.092  0.0791 -0.1755 -0.2222
  297MPD2    C5 4529   2.486   1.995  16.140 -0.2661  0.0816 -0.3668
  297MPD2     H 4530   2.359   2.310  15.974  1.2019 -0.3695 -1.3022
  297MPD2    H1 4531   2.689   2.057  16.104 -0.6152 -3.4244  0.3590
  297MPD2    H2 4532   2.284   1.947  16.193 -0.7790 -0.0273 -2.5552
  297MPD2    H3 4533   2.524   1.910  16.196 -0.8177 -0.3421 -0.6400
  297MPD2     N 4534   2.625   2.292  15.974 -0.4383  0.0377  0.0175
  297MPD2    H5 4535   2.594   2.379  15.934 -1.0155  1.0759  2.6992
  297MPD2    N1 4536   2.170   2.141  16.067  0.4991 -0.0611 -0.2932
  297MPD2    H7 4537   2.150   2.212  15.997 -1.0458  0.0612  0.2636
  298TMC3    C1 4538   1.943   2.087  16.061  0.6236  0.1993 -0.7854
  298TMC3    C2 4539   1.946   2.144  15.936  0.2332  0.1991  0.3802
  298TMC3    C3 4540   1.828   2.190  15.878  0.2441 -0.4740  0.0810
  298TMC3    C4 4541   1.821   2.079  16.131 -0.2398  0.2876  0.1097
  298TMC3    C5 4542   1.712   2.148  16.074  0.5788 -0.5942 -0.2263
  298TMC3    C6 4543   1.708   2.204  15.947  0.7101  0.1512  0.5560
  298TMC3     C 4544   2.071   2.074  16.131  0.6884 -0.0159 -0.4191
  298TMC3     O 4545   2.076   2.009  16.235 -0.1681  0.0731 -0.5531
  298TMC3     H 4546   2.034   2.158  15.875 -0.0570 -0.5879 -0.2199
  298TMC3    H1 4547   1.824   2.051  16.235 -3.7962 -0.7930 -0.0841
  298TMC3    H2 4548   1.621   2.248  15.899 -0.1466 -1.3593  0.7138
  298TMC3    C7 4549   1.618   2.198  16.167  0.2683 -0.2502  0.0906
  298TMC3    C8 4550   1.843   2.231  15.731 -0.3547  0.3832 -0.3154
  298TMC3    O1 4551   1.661   2.243  16.272  0.3248  0.3280 -0.3631
  298TMC3    O2 4552   1.954   2.252  15.684 -0.1283  0.3708 -0.3596
  299MPD2     C 4553   2.722   2.085  10.758  0.2157  0.1607 -0.1596
  299MPD2    C1 4554   2.754   2.214  10.748  0.2359  0.2992  0.6979
  299MPD2    C2 4555   2.692   2.290  10.653  0.1358 -0.0082  0.5189
  299MPD2    C3 4556   2.605   2.226  10.562  0.4347  0.1514  0.0082
  299MPD2    C4 4557   2.572   2.092  10.577  0.7638 -0.5199  0.3338
  299MPD2    C5 4558   2.635   2.023  10.675 -0.0906  0.4994 -0.0197
  299MPD2     H 4559   2.715   2.395  10.642 -2.1712  0.3265 -0.9261
  299MPD2    H1 4560   2.505   2.040  10.509  1.0194 -2.1265  1.3207
  299MPD2    H2 4561   2.781   2.025  10.827 -0.5082  0.5212  0.7831
  299MPD2    H3 4562   2.622   1.916  10.680  1.3846  0.2235 -1.7347
  299MPD2     N 4563   2.533   2.291  10.467 -0.4385 -0.3923  0.7347
  299MPD2    H5 4564   2.457   2.239  10.426  0.5297 -0.5656 -0.8296
  299MPD2    N1 4565   2.856   2.267  10.839  0.4169  0.1056  0.5364
  299MPD2    H7 4566   2.883   2.206  10.915  1.8073 -1.0929 -0.9183
  300TMC3    C1 4567   2.484   2.457  10.296  0.2118  0.0493  0.2647
  300TMC3    C2 4568   2.512   2.579  10.242 -0.1241  0.1257 -0.3637
  300TMC3    C3 4569   2.466   2.619  10.121  0.3177  0.6367  0.0685
  300TMC3    C4 4570   2.404   2.376  10.233  0.2089 -0.1382 -0.5554
  300TMC3    C5 4571   2.360   2.412  10.108 -0.7178  0.2636  0.9168
  300TMC3    C6 4572   2.407   2.528  10.044 -0.3519  0.1182  0.0532
  300TMC3     C 4573   2.563   2.414  10.415  0.3243  0.3448 -0.1778
  300TMC3     O 4574   2.631   2.503  10.466  0.0912  0.0516  0.6150
  300TMC3     H 4575   2.570   2.651  10.298  1.8534 -1.1196 -0.7815
  300TMC3    H1 4576   2.388   2.271  10.253  0.5825  0.1539  1.2715
  300TMC3    H2 4577   2.359   2.554   9.950 -1.0503 -0.0241  0.3698
  300TMC3    C7 4578   2.221   2.374  10.088  0.7060 -0.0037  0.2193
  300TMC3    C8 4579   2.426   2.759  10.112 -0.5559  0.4741  0.2337
  300TMC3    O1 4580   2.176   2.384   9.970  0.1340 -0.3006  0.1292
  300TMC3    O2 4581   2.432   2.808   9.998 -0.5332 -0.2288 -0.4169
  301MPD2     C 4582   0.078   3.325   1.607 -0.6353 -0.0241  0.8786
  301MPD2    C1 4583   0.069   3.335   1.469 -0.4689  0.7057  0.1083
  301MPD2    C2 4584   0.133   3.242   1.387 -0.6950 -0.7698  0.0244
  301MPD2    C3 4585   0.210   3.146   1.449  0.3005 -0.3058  0.6939
  301MPD2    C4 4586   0.221   3.135   1.583 -0.1115  0.1941 -0.3377
  301MPD2    C5 4587   0.146   3.224   1.659 -0.3412  0.1896  0.2002
  301MPD2     H 4588   0.122   3.241   1.279 -1.0770  0.7214  0.0438
  301MPD2    H1 4589   0.277   3.059   1.636 -0.5176 -0.6944 -1.1760
  301MPD2    H2 4590   0.015   3.375   1.680  1.0734  2.4833  0.6404
  301MPD2    H3 4591   0.160   3.219   1.767  0.7717  0.3397  0.0625
  301MPD2     N 4592   0.282   3.052   1.373  0.1684 -0.4183  0.1998
  301MPD2    H5 4593   0.346   2.998   1.430  0.7267  1.0910  1.0087
  301MPD2    N1 4594   4.723   3.425   1.403 -0.2018  0.2048  0.1458
  301MPD2    H7 4595   4.711   3.429   1.302 -2.2022 -0.6324  0.3544
  302TMC3    C1 4596   0.373   2.917   1.209  0.2975 -0.3630 -1.1017
  302TMC3    C2 4597   0.401   2.821   1.310  0.4752  0.5262 -0.0864
  302TMC3    C3 4598   0.461   2.705   1.263  0.6852 -0.8118 -0.1115
  302TMC3    C4 4599   0.410   2.902   1.073 -0.0798  0.7011 -0.0463
  302TMC3    C5 4600   0.458   2.775   1.045 -0.4486  0.5252  0.4003
  302TMC3    C6 4601   0.494   2.681   1.133  0.0614 -0.0623 -0.2475
  302TMC3     C 4602   0.288   3.028   1.237  0.4977  0.0729 -0.0282
  302TMC3     O 4603   0.228   3.086   1.146  0.0385 -0.4613 -0.2527
  302TMC3     H 4604   0.359   2.822   1.410 -1.5241  0.5162 -0.9368
  302TMC3    H1 4605   0.389   2.988   1.010 -1.6120 -0.0171 -0.5331
  302TMC3    H2 4606   0.527   2.582   1.105 -0.4475 -0.3258  0.0933
  302TMC3    C7 4607   0.429   2.712   0.920  0.1123  0.1204 -0.4184
  302TMC3    C8 4608   0.503   2.596   1.356  0.8399  0.5355 -0.4744
  302TMC3    O1 4609   0.470   2.602   0.895  0.0423  0.1030  0.0083
  302TMC3    O2 4610   0.512   2.486   1.310 -0.6425  0.1781  0.3247
  303MPD2     C 4611   0.504   1.835  10.309 -0.6786  0.0566 -0.5835
  303MPD2    C1 4612   0.460   1.721  10.374 -0.0134  0.4647 -0.9042
  303MPD2    C2 4613   0.473   1.599  10.312  0.0605 -0.5313 -0.4488
  303MPD2    C3 4614   0.514   1.589  10.179  0.1497 -0.9636 -0.1250
  303MPD2    C4 4615   0.570   1.703  10.123 -0.2484  0.0657  0.4013
  303MPD2    C5 4616   0.564   1.822  10.183  0.1066 -0.2746  0.1040
  303MPD2     H 4617   0.415   1.518  10.355  0.5725 -0.0916  1.0857
  303MPD2    H1 4618   0.610   1.714  10.022 -0.7670  2.0628  0.4111
  303MPD2    H2 4619   0.494   1.936  10.347  0.3404 -0.9825  2.3993
  303MPD2    H3 4620   0.592   1.917  10.139 -0.9257  1.0967  2.4522
  303MPD2     N 4621   0.506   1.477  10.098 -0.9557  0.0916  0.0339
  303MPD2    H5 4622   0.540   1.494  10.004 -0.0155  1.2472  0.5781
  303MPD2    N1 4623   0.406   1.737  10.509 -0.7350  0.1250  0.3315
  303MPD2    H7 4624   0.383   1.826  10.552  2.6106  0.9534  0.4669
  304TMC3    C1 4625   0.308   1.658  10.707  0.4460 -0.5361  0.0702
  304TMC3    C2 4626   0.183   1.708  10.683 -0.4608 -0.5050 -0.1300
  304TMC3    C3 4627   0.085   1.691  10.776 -0.3047 -0.0146 -0.0922
  304TMC3    C4 4628   0.329   1.580  10.820 -0.2566  0.2498  0.3035
  304TMC3    C5 4629   0.232   1.570  10.912  0.9828  0.6566  0.3172
  304TMC3    C6 4630   0.113   1.639  10.903 -0.2889  0.3714 -0.3108
  304TMC3     C 4631   0.398   1.635  10.596  0.6967  0.8159 -0.5581
  304TMC3     O 4632   0.469   1.538  10.615 -0.0914 -0.4235 -0.0413
  304TMC3     H 4633   0.168   1.766  10.593  1.4408 -0.8213 -0.6306
  304TMC3    H1 4634   0.423   1.527  10.832 -1.9250 -2.9171 -0.6838
  304TMC3    H2 4635   0.041   1.622  10.982  0.4695 -2.3212 -0.1921
  304TMC3    C7 4636   0.218   1.434  10.975  0.3609 -0.1183 -0.6218
  304TMC3    C8 4637   4.697   1.627  10.729  0.4593 -0.4713  0.2263
  304TMC3    O1 4638   0.320   1.375  11.016 -0.2140  0.4842 -0.6253
  304TMC3    O2 4639   4.662   1.532  10.797  0.0091  0.4201 -0.0200
  305MPD2     C 4640   3.624   3.715  14.036  0.1160 -0.6076  0.4190
  305MPD2    C1 4641   3.637   3.582  14.084 -0.0922 -0.1056 -0.6936
  305MPD2    C2 4642   3.625   3.476  13.991 -0.3300 -1.0160 -0.1884
  305MPD2    C3 4643   3.614   3.512  13.859 -0.1734  0.0800  0.0039
  305MPD2    C4 4644   3.609   3.643  13.819  0.5137  0.8900 -0.1647
  305MPD2    C5 4645   3.609   3.747  13.908 -0.0608  0.5560 -0.2001
  305MPD2     H 4646   3.628   3.372  14.019  0.7950 -0.8124  0.4466
  305MPD2    H1 4647   3.603   3.667  13.714  0.3279 -1.4808 -0.6885
  305MPD2    H2 4648   3.656   3.789  14.109  0.0272  0.2137 -0.3679
  305MPD2    H3 4649   3.614   3.850  13.876 -0.3680  1.1605  1.7022
  305MPD2     N 4650   3.582   3.421  13.756  0.0218  0.0138 -0.1544
  305MPD2    H5 4651   3.582   3.455  13.661  0.9175  0.5342  0.0278
  305MPD2    N1 4652   3.662   3.560  14.221  0.0971 -0.2999 -0.4564
  305MPD2    H7 4653   3.677   3.632  14.291 -1.7220 -0.2324 -0.1241
  306TMC3    C1 4654   3.753   3.452  14.409 -0.3031  0.4260 -0.5442
  306TMC3    C2 4655   3.739   3.337  14.489  0.8276 -0.2627  0.1971
  306TMC3    C3 4656   3.791   3.352  14.614  0.0801 -0.2242  0.0283
  306TMC3    C4 4657   3.803   3.574  14.448  0.0444 -0.1124 -0.7276
  306TMC3    C5 4658   3.848   3.576  14.570  0.2903  0.7769 -0.1758
  306TMC3    C6 4659   3.851   3.469  14.647 -0.1125 -0.1862  0.1896
  306TMC3     C 4660   3.688   3.440  14.277  0.2513 -0.6732  0.3423
  306TMC3     O 4661   3.676   3.323  14.239 -0.1907  0.3969  0.1182
  306TMC3     H 4662   3.678   3.254  14.457  0.5477 -0.2095  0.5871
  306TMC3    H1 4663   3.808   3.654  14.376 -2.8923 -0.1319 -0.9865
  306TMC3    H2 4664   3.895   3.471  14.746  0.7201  1.3157 -0.2111
  306TMC3    C7 4665   3.889   3.708  14.625  0.1851 -0.4478  0.0654
  306TMC3    C8 4666   3.753   3.248  14.711  0.5004 -0.2988  0.2741
  306TMC3    O1 4667   3.922   3.793  14.548  0.2632 -0.2488  0.1700
  306TMC3    O2 4668   3.759   3.130  14.675  0.2173 -0.3236  0.2605
  307MPD2     C 4669   0.792   1.612   0.277  0.1417 -0.2834 -0.3370
  307MPD2    C1 4670   0.875   1.709   0.332 -0.0108  0.1681 -0.6971
  307MPD2    C2 4671   0.864   1.739   0.465 -0.0746 -0.4651  0.0747
  307MPD2    C3 4672   0.776   1.679   0.548  0.4063  0.1120  0.4765
  307MPD2    C4 4673   0.691   1.587   0.493  0.7674  0.0928  0.0208
  307MPD2    C5 4674   0.696   1.552   0.358 -0.0697 -0.0123 -0.6625
  307MPD2     H 4675   0.934   1.811   0.505  0.0747 -0.4153 -0.2743
  307MPD2    H1 4676   0.624   1.533   0.558  1.1488  1.7122  1.7487
  307MPD2    H2 4677   0.801   1.571   0.177  1.7126 -0.4806 -0.1116
  307MPD2    H3 4678   0.633   1.476   0.314  0.2114  0.2000 -1.4269
  307MPD2     N 4679   0.757   1.706   0.691  0.0272 -0.2216  0.1076
  307MPD2    H5 4680   0.686   1.651   0.738  0.4384  0.2531  1.2624
  307MPD2    N1 4681   0.977   1.778   0.263 -0.4210 -0.3351  0.3655
  307MPD2    H7 4682   1.024   1.856   0.306 -0.1874 -1.2846  1.8214
  308TMC3    C1 4683   0.716   1.652   1.094 -0.2447 -0.2189  0.4640
  308TMC3    C2 4684   0.775   1.745   1.175  0.1247  0.4625  0.6666
  308TMC3    C3 4685   0.861   1.841   1.125 -0.5019  0.1287  0.4764
  308TMC3    C4 4686   0.741   1.653   0.962 -0.1689 -0.1454  0.1864
  308TMC3    C5 4687   0.820   1.748   0.910 -0.1087  0.4557  0.1200
  308TMC3    C6 4688   0.881   1.844   0.993  0.3837  0.4781 -0.2440
  308TMC3     C 4689   0.584   1.610   1.130 -0.2059 -0.3158  0.2510
  308TMC3     O 4690   0.579   1.573   1.248 -0.2148 -0.3588 -0.0736
  308TMC3     H 4691   0.749   1.752   1.280 -2.2071  0.3605  0.0958
  308TMC3    H1 4692   0.682   1.583   0.903  0.0076  0.5528 -0.8335
  308TMC3    H2 4693   0.952   1.917   0.955 -1.0076  0.8167 -2.2246
  308TMC3    C7 4694   0.843   1.768   0.769 -0.6517  0.5211 -0.8071
  308TMC3    C8 4695   0.852   1.963   1.201  0.2460  0.5610  0.1089
  308TMC3    O1 4696   0.940   1.830   0.736  0.1926 -0.4071 -0.6249
  308TMC3    O2 4697   0.766   1.971   1.288 -0.1538  0.7019  0.0048
  309MPD2     C 4698   0.411   2.526  17.398  0.6014  0.8075  0.0306
  309MPD2    C1 4699   0.358   2.438  17.306  0.4322 -0.0872  0.3524
  309MPD2    C2 4700   0.233   2.386  17.332  0.0948 -0.5125  0.1473
  309MPD2    C3 4701   0.159   2.428  17.446 -0.2126  0.6824  0.1725
  309MPD2    C4 4702   0.215   2.510  17.539 -0.6057  0.0637  0.3986
  309MPD2    C5 4703   0.338   2.553  17.506  0.1555  0.1074 -0.7997
  309MPD2     H 4704   0.190   2.316  17.261 -0.4742 -0.4743  0.4529
  309MPD2    H1 4705   0.169   2.541  17.632  0.2218 -2.1670  1.5677
  309MPD2    H2 4706   0.508   2.575  17.387  0.3349  1.7787  1.9936
  309MPD2    H3 4707   0.374   2.632  17.571  1.1717  0.0819 -1.3393
  309MPD2     N 4708   0.034   2.380  17.483  0.1465 -0.0766  0.1720
  309MPD2    H5 4709   4.729   2.413  17.570 -0.1277 -1.7449  0.6741
  309MPD2    N1 4710   0.426   2.384  17.189  0.0715  0.1137 -0.6250
  309MPD2    H7 4711   0.373   2.314  17.138 -0.0653  0.3858 -0.8540
  310TMC3    C1 4712   0.598   2.352  17.028  0.1481  0.4451 -0.2725
  310TMC3    C2 4713   0.515   2.355  16.923  0.6331 -0.4582  0.7899
  310TMC3    C3 4714   0.563   2.332  16.799 -0.2506 -0.0666 -0.8495
  310TMC3    C4 4715   0.728   2.321  17.011  0.6931  0.1896 -0.0834
  310TMC3    C5 4716   0.774   2.305  16.883 -0.4422  0.3342 -0.0243
  310TMC3    C6 4717   0.693   2.320  16.780 -0.1800  0.0391 -0.3528
  310TMC3     C 4718   0.560   2.416  17.149  1.1119  0.4000 -0.7511
  310TMC3     O 4719   0.647   2.482  17.199  0.2698 -0.7118  0.4628
  310TMC3     H 4720   0.409   2.370  16.940  0.3723 -1.8584  0.4328
  310TMC3    H1 4721   0.792   2.313  17.098  1.0171  0.1731 -0.3269
  310TMC3    H2 4722   0.732   2.313  16.679  1.1956 -2.1128  0.3246
  310TMC3    C7 4723   0.868   2.192  16.858  0.9282 -0.3402 -0.1371
  310TMC3    C8 4724   0.488   2.240  16.713  1.1544 -0.7510 -0.3811
  310TMC3    O1 4725   0.863   2.149  16.744 -0.4567  0.7204 -0.4475
  310TMC3    O2 4726   0.523   2.231  16.596 -0.6636  0.1723 -0.0282
  311MPD2     C 4727   2.848   3.409  12.610 -0.3905 -0.0196 -0.7412
  311MPD2    C1 4728   2.790   3.458  12.726 -0.1171 -0.4885  0.3137
  311MPD2    C2 4729   2.655   3.474  12.735  0.0647 -0.1996  0.0576
  311MPD2    C3 4730   2.571   3.447  12.627  0.0099 -0.6410  0.0373
  311MPD2    C4 4731   2.620   3.398  12.511  0.3702  0.5007 -1.1831
  311MPD2    C5 4732   2.758   3.387  12.504 -1.1713 -1.2394 -0.3374
  311MPD2     H 4733   2.613   3.518  12.825  0.5650  1.9512 -0.7803
  311MPD2    H1 4734   2.558   3.373  12.425 -0.4707  0.2799 -0.5162
  311MPD2    H2 4735   2.955   3.397  12.597 -0.4914 -3.5135  1.5650
  311MPD2    H3 4736   2.798   3.380  12.404 -0.6184  2.1264 -0.3642
  311MPD2     N 4737   2.437   3.469  12.642 -0.1665  0.1623  0.4601
  311MPD2    H5 4738   2.407   3.506  12.732 -0.7170  1.4435 -0.2435
  311MPD2    N1 4739   2.860   3.480  12.847 -0.2243 -0.1093  0.2088
  311MPD2    H7 4740   2.811   3.532  12.919 -0.1105 -0.1914  0.3445
  312TMC3    C1 4741   2.226   3.536  12.593  0.2115  0.5088 -0.4116
  312TMC3    C2 4742   2.100   3.488  12.563  0.4649  0.4220  0.1029
  312TMC3    C3 4743   1.991   3.557  12.611 -0.2585 -0.2879 -0.3146
  312TMC3    C4 4744   2.250   3.645  12.679 -0.0449 -0.7756 -0.5985
  312TMC3    C5 4745   2.138   3.689  12.744 -0.0140 -0.4611  0.0364
  312TMC3    C6 4746   2.006   3.655  12.708 -0.6256  0.3933 -0.0179
  312TMC3     C 4747   2.341   3.463  12.546 -0.3344 -0.1097  0.4763
  312TMC3     O 4748   2.331   3.387  12.451  0.9302 -0.4714 -0.0164
  312TMC3     H 4749   2.084   3.402  12.498  0.0536  1.2184 -0.8390
  312TMC3    H1 4750   2.345   3.695  12.690 -1.4316  1.6392  0.3629
  312TMC3    H2 4751   1.917   3.691  12.757 -1.8133  2.3330 -3.6139
  312TMC3    C7 4752   2.160   3.793  12.839 -0.5033 -0.4337  0.3777
  312TMC3    C8 4753   1.865   3.484  12.614  0.0524 -0.1240 -0.0969
  312TMC3    O1 4754   2.259   3.862  12.828 -0.1368 -0.1763 -0.2416
  312TMC3    O2 4755   1.867   3.362  12.601 -0.4090  0.1583  0.6822
  313MPD2     C 4756   0.758   3.119  11.415 -0.0281  0.2311  0.1139
  313MPD2    C1 4757   0.780   3.161  11.290  1.1298  0.3480  0.2967
  313MPD2    C2 4758   0.756   3.071  11.184  0.6961  0.0700  0.6332
  313MPD2    C3 4759   0.713   2.946  11.205  0.0497 -0.5375  0.0241
  313MPD2    C4 4760   0.690   2.906  11.334  0.2519 -0.0649  0.0847
  313MPD2    C5 4761   0.719   2.989  11.440  0.2637 -0.1785 -0.0438
  313MPD2     H 4762   0.779   3.101  11.082  2.6007 -0.3057  0.9506
  313MPD2    H1 4763   0.662   2.807  11.368 -0.8810 -0.8512 -3.1602
  313MPD2    H2 4764   0.781   3.187  11.497 -0.2357  1.1654 -0.5978
  313MPD2    H3 4765   0.724   2.953  11.542  1.0866 -1.8493 -0.6824
  313MPD2     N 4766   0.688   2.862  11.092 -0.6316 -0.4090 -0.1162
  313MPD2    H5 4767   0.692   2.903  11.000  0.3236 -0.1864  0.0166
  313MPD2    N1 4768   0.833   3.292  11.255  0.0728  0.1349  0.3297
  313MPD2    H7 4769   0.837   3.315  11.156 -1.1792 -0.5353  0.1277
  314TMC3    C1 4770   0.928   3.505  11.275 -0.3117  0.2729 -0.2527
  314TMC3    C2 4771   1.067   3.547  11.287  0.4369 -0.4865 -0.2884
  314TMC3    C3 4772   1.117   3.624  11.191  0.7014  0.5992 -0.3250
  314TMC3    C4 4773   0.862   3.547  11.166  0.3088 -0.1585 -0.8350
  314TMC3    C5 4774   0.921   3.613  11.064  0.5168 -0.8136 -0.6621
  314TMC3    C6 4775   1.051   3.646  11.074  0.2459 -0.2025  0.0590
  314TMC3     C 4776   0.882   3.381  11.346  0.4328  0.4671  0.6339
  314TMC3     O 4777   0.916   3.370  11.467 -0.1331  0.1280  0.1657
  314TMC3     H 4778   1.126   3.519  11.374  0.1934 -1.1132 -0.3245
  314TMC3    H1 4779   0.763   3.504  11.153  0.0781 -0.3094  1.3933
  314TMC3    H2 4780   1.096   3.704  10.994  0.2049  2.8565  2.2481
  314TMC3    C7 4781   0.868   3.558  10.942 -0.1818  0.1416 -0.1409
  314TMC3    C8 4782   1.262   3.641  11.181 -0.2786  0.4874  0.3311
  314TMC3    O1 4783   0.748   3.547  10.923 -0.0875 -0.2402  0.0419
  314TMC3    O2 4784   1.304   3.657  11.067  0.1629 -0.3003 -0.1450
  315MPD2     C 4785   1.514   1.665   0.019  0.1164 -0.2638  0.4314
  315MPD2    C1 4786   1.619   1.696   0.098  0.2577 -0.3265 -1.3166
  315MPD2    C2 4787   1.664   1.834   0.116 -0.2214  0.8182  0.4693
  315MPD2    C3 4788   1.614   1.937   0.040 -0.0202  0.2672  0.4274
  315MPD2    C4 4789   1.512   1.894  17.689  0.7185  0.1653 -0.4423
  315MPD2    C5 4790   1.454   1.768  17.685  0.1152  0.1539  0.5793
  315MPD2     H 4791   1.738   1.852   0.193  0.9047  1.5590 -0.7684
  315MPD2    H1 4792   1.481   1.953  17.603  3.0906  1.9510 -0.0763
  315MPD2    H2 4793   1.471   1.567   0.004 -0.1760  0.3239 -2.4661
  315MPD2    H3 4794   1.377   1.746  17.612  2.0420 -0.4208 -1.2926
  315MPD2     N 4795   1.670   2.066   0.035 -0.6534 -0.4994  0.1618
  315MPD2    H5 4796   1.765   2.068   0.069 -0.9000 -1.3902  0.9220
  315MPD2    N1 4797   1.697   1.593   0.157 -0.3872 -0.0700  0.2060
  315MPD2    H7 4798   1.752   1.620   0.237  0.2875 -0.2207 -0.2117
  316TMC3    C1 4799   1.715   2.272  17.661  0.1787 -0.4223  0.8482
  316TMC3    C2 4800   1.817   2.314   0.008 -0.3153 -0.3670  0.6126
  316TMC3    C3 4801   1.916   2.393  17.685  0.2355  0.1263  0.5196
  316TMC3    C4 4802   1.714   2.305  17.528  0.0996 -0.0598  0.0335
  316TMC3    C5 4803   1.814   2.385  17.482 -0.1700  0.4904  0.3850
  316TMC3    C6 4804   1.916   2.434  17.556  0.1134  0.4974 -0.2307
  316TMC3     C 4805   1.615   2.176  17.709  0.0585 -0.1735  0.3692
  316TMC3     O 4806   1.506   2.186  17.654 -0.3895  0.2610  0.5978
  316TMC3     H 4807   1.813   2.283   0.112 -1.2261  1.9926  1.2657
  316TMC3    H1 4808   1.637   2.257  17.468 -0.7203 -2.3911  2.9200
  316TMC3    H2 4809   1.986   2.508  17.519  0.1328  0.0461 -1.0996
  316TMC3    C7 4810   1.842   2.383  17.342  0.0701  1.0361  0.4990
  316TMC3    C8 4811   2.002   2.467   0.041  0.8357 -0.4818 -0.5860
  316TMC3    O1 4812   1.957   2.386  17.301 -0.1103  0.0492  0.5082
  316TMC3    O2 4813   2.050   2.573  17.737 -0.2547 -0.2288 -0.0677
  317MPD2     C 4814   3.636   0.831  12.989 -0.0052 -0.0945 -0.3331
  317MPD2    C1 4815   3.651   0.712  12.922  0.7932  0.3030 -0.1446
  317MPD2    C2 4816   3.682   0.594  12.989 -0.3617 -0.3350 -0.2122
  317MPD2    C3 4817   3.711   0.597  13.124 -0.3243 -0.1825  0.2083
  317MPD2    C4 4818   3.689   0.714  13.198 -0.2422  0.2856 -0.0816
  317MPD2    C5 4819   3.652   0.827  13.123 -0.8351 -0.5634 -0.0331
  317MPD2     H 4820   3.691   0.499  12.937 -0.1062 -1.0812  1.2062
  317MPD2    H1 4821   3.729   0.728  13.298  0.0944 -1.0643 -0.0176
  317MPD2    H2 4822   3.584   0.919  12.954  0.5950  1.3077  2.2702
  317MPD2    H3 4823   3.627   0.912  13.185  0.5648 -0.6732  0.6939
  317MPD2     N 4824   3.784   0.485  13.179 -0.9235  0.0280  0.4115
  317MPD2    H5 4825   3.794   0.396  13.130 -0.9012 -0.3555  1.1012
  317MPD2    N1 4826   3.650   0.703  12.782 -0.0776  0.2405 -0.8846
  317MPD2    H7 4827   3.674   0.614  12.741  1.2458 -0.5898  1.7518
  318TMC3    C1 4828   3.855   0.344  13.350  0.3099  0.1708 -0.8835
  318TMC3    C2 4829   3.767   0.242  13.319  0.2060 -0.9189 -0.0426
  318TMC3    C3 4830   3.819   0.115  13.335  0.7020  0.2663 -0.3628
  318TMC3    C4 4831   3.979   0.323  13.395 -0.7532  0.8423 -0.5885
  318TMC3    C5 4832   4.024   0.195  13.413  0.1562  0.2222 -0.3609
  318TMC3    C6 4833   3.944   0.088  13.384 -0.1023  0.3177 -0.0972
  318TMC3     C 4834   3.827   0.480  13.311  0.0983  0.7488 -0.4937
  318TMC3     O 4835   3.857   0.563  13.396 -0.3411 -0.1692 -0.3871
  318TMC3     H 4836   3.673   0.261  13.269 -0.3858 -1.3682  0.9063
  318TMC3    H1 4837   4.055   0.398  13.413  0.2911 -0.1382 -0.8532
  318TMC3    H2 4838   3.982   4.721  13.386  2.5334  1.2849 -0.3721
  318TMC3    C7 4839   4.154   0.167  13.355  0.5214 -0.3366 -0.6224
  318TMC3    C8 4840   3.734   4.732  13.332  0.1258  0.0321  0.9165
  318TMC3    O1 4841   4.193   0.233  13.258 -0.5825 -0.1013 -0.0715
  318TMC3    O2 4842   3.771   4.641  13.408  0.3374 -0.1574 -0.1830
  319MPD2     C 4843   0.152   1.515  16.564  0.2561  0.5259  0.2157
  319MPD2    C1 4844   0.069   1.427  16.630 -0.2607  0.0100  0.1063
  319MPD2    C2 4845   4.705   1.355  16.561  1.3543  0.0660  0.5781
  319MPD2    C3 4846   4.698   1.360  16.421  0.3619  0.0948  0.8331
  319MPD2    C4 4847   0.044   1.453  16.356  0.6008 -0.4205 -0.0645
  319MPD2    C5 4848   0.134   1.525  16.426 -0.4796 -0.2826  0.7606
  319MPD2     H 4849   4.631   1.296  16.615  1.8947 -1.1464 -0.0104
  319MPD2    H1 4850   0.036   1.473  16.250 -1.3035  0.3348  0.2208
  319MPD2    H2 4851   0.231   1.574  16.608 -0.4456  0.7057  1.2375
  319MPD2    H3 4852   0.201   1.593  16.374 -1.4410  0.5429  0.6014
  319MPD2     N 4853   4.613   1.275  16.342 -0.8945 -0.2735 -0.0648
  319MPD2    H5 4854   4.609   1.304  16.245 -0.4192  0.5974  0.1810
  319MPD2    N1 4855   0.071   1.414  16.770  0.2953  0.2797 -0.4347
  319MPD2    H7 4856   4.724   1.361  16.800  1.5907 -1.5488 -0.1415
  320TMC3    C1 4857   4.433   1.123  16.302 -0.4787 -0.1238 -0.3593
  320TMC3    C2 4858   4.371   1.214  16.222  0.4804 -0.0105  0.3980
  320TMC3    C3 4859   4.261   1.185  16.150 -0.1693  0.4358 -0.1369
  320TMC3    C4 4860   4.391   0.993  16.310 -0.5624 -1.0273 -0.9274
  320TMC3    C5 4861   4.277   0.969  16.235  0.1969  0.6020  0.1917
  320TMC3    C6 4862   4.211   1.061  16.159 -0.5378  0.1437  0.2715
  320TMC3     C 4863   4.540   1.163  16.390  0.6138 -0.1542 -0.2810
  320TMC3     O 4864   4.585   1.088  16.478  0.4253  0.0067 -0.4641
  320TMC3     H 4865   4.399   1.319  16.220 -0.1968  0.1973  2.1059
  320TMC3    H1 4866   4.450   0.922  16.367 -3.7432 -0.0316  3.6198
  320TMC3    H2 4867   4.131   1.025  16.095 -1.8202  1.8871  0.8885
  320TMC3    C7 4868   4.249   0.831  16.209 -0.6381 -0.1654 -0.2922
  320TMC3    C8 4869   4.178   1.292  16.113  0.4312  0.4327  0.5285
  320TMC3    O1 4870   4.207   0.795  16.099 -0.6344 -0.5488  0.2200
  320TMC3    O2 4871   4.227   1.398  16.073 -0.0346 -0.3241 -0.2033
  321TMC3    C1 4872   0.129   1.513  16.973  0.1336 -0.3140 -0.0358
  321TMC3    C2 4873   0.031   1.446  17.046  0.3792 -0.3744  0.1687
  321TMC3    C3 4874   4.691   1.517  17.141  0.8707  0.3836 -0.0060
  321TMC3    C4 4875   0.161   1.642  17.001  0.6508  0.0922 -0.1507
  321TMC3    C5 4876   0.089   1.716  17.091  0.1782  0.1433 -0.4225
  321TMC3    C6 4877   4.715   1.654  17.158  0.0382  0.5968  0.5822
  321TMC3     C 4878   0.172   1.464  16.848 -0.6281 -0.0671  0.2251
  321TMC3     O 4879   0.283   1.498  16.816  0.2967 -0.2889 -0.3941
  321TMC3     H 4880   0.031   1.338  17.039 -0.7405 -0.3174 -0.7972
  321TMC3    H1 4881   0.257   1.683  16.970 -0.2622  1.6922 -0.8761
  321TMC3    H2 4882   4.667   1.707  17.239 -0.2016  0.3399  0.6085
  321TMC3    C7 4883   0.181   1.790  17.177 -0.0058 -0.2084  0.6756
  321TMC3    C8 4884   4.659   1.443  17.263 -0.9378  0.2984  0.0267
  321TMC3    O1 4885   0.264   1.866  17.133  0.4971 -0.4683  0.2843
  321TMC3    O2 4886   4.660   1.516  17.358 -0.3803  0.0402 -0.5669
  322MPD2     C 4887   3.039   2.036  13.912  0.2036 -0.4768  0.2142
  322MPD2    C1 4888   3.123   1.996  14.010  1.1943 -0.2826  0.7108
  322MPD2    C2 4889   3.199   1.882  13.983  0.7224 -0.2448  0.0606
  322MPD2    C3 4890   3.188   1.809  13.868 -0.7637  0.7328  0.1187
  322MPD2    C4 4891   3.103   1.852  13.770  0.5176 -0.3928  0.2553
  322MPD2    C5 4892   3.034   1.968  13.793  0.2254  0.2419  0.6020
  322MPD2     H 4893   3.275   1.846  14.052  2.6114  0.2636 -1.7362
  322MPD2    H1 4894   3.116   1.823  13.667 -0.4268 -0.1063  0.0607
  322MPD2    H2 4895   2.977   2.122  13.934  2.7441  1.4175  0.0105
  322MPD2    H3 4896   2.970   2.010  13.716  1.2362 -0.4510 -0.6078
  322MPD2     N 4897   3.304   1.731  13.842 -0.6809 -0.4154 -0.2738
  322MPD2    H5 4898   3.359   1.711  13.925 -0.6796  2.2189  0.3804
  322MPD2    N1 4899   3.134   2.080  14.130 -0.3348  0.2061  0.5952
  322MPD2    H7 4900   3.102   2.176  14.123  1.0883  0.5790 -0.6980
  323TMC3    C1 4901   3.235   2.155  14.323 -0.4129 -0.6460  0.0689
  323TMC3    C2 4902   3.262   2.280  14.281  0.4828  0.4063  0.4544
  323TMC3    C3 4903   3.304   2.376  14.364 -0.1847  1.2646  0.1347
  323TMC3    C4 4904   3.257   2.113  14.453 -0.4492  0.2229 -0.1866
  323TMC3    C5 4905   3.310   2.214  14.530  1.0135 -0.2761 -1.3479
  323TMC3    C6 4906   3.330   2.349  14.494 -0.2814 -0.4535 -0.1133
  323TMC3     C 4907   3.221   2.046  14.232 -0.3787  0.6326 -0.0444
  323TMC3     O 4908   3.268   1.936  14.251  0.2229  0.1603 -0.2876
  323TMC3     H 4909   3.263   2.302  14.175  0.6079  1.7783  0.7486
  323TMC3    H1 4910   3.255   2.006  14.471  3.5853  0.1002 -0.3659
  323TMC3    H2 4911   3.377   2.428  14.551 -0.4830  1.3407 -2.4346
  323TMC3    C7 4912   3.387   2.156  14.641  0.0121 -0.2568 -0.1827
  323TMC3    C8 4913   3.363   2.495  14.311 -0.3896 -0.0841  0.5067
  323TMC3    O1 4914   3.399   2.030  14.656  0.7531 -0.0072  0.7739
  323TMC3    O2 4915   3.461   2.535  14.375  0.7899  0.7001 -0.8507
  324MPD2     C 4916   0.475   4.617  14.384  0.2057  0.4719 -0.1792
  324MPD2    C1 4917   0.496   4.494  14.320  0.0649  0.3855  0.5418
  324MPD2    C2 4918   0.388   4.419  14.276 -0.5927 -0.0863 -0.4307
  324MPD2    C3 4919   0.259   4.460  14.296 -0.8560 -0.3854  0.7147
  324MPD2    C4 4920   0.242   4.592  14.344  0.5522  0.1063  0.2484
  324MPD2    C5 4921   0.345   4.663  14.400 -0.0987 -0.0376  0.2050
  324MPD2     H 4922   0.412   4.318  14.244 -1.1056 -0.5904  0.7782
  324MPD2    H1 4923   0.142   4.635  14.350  1.7595  3.0405 -0.4937
  324MPD2    H2 4924   0.554   4.691  14.394  0.3027  0.2755  0.5160
  324MPD2    H3 4925   0.331   0.019  14.457 -1.1021  0.1495 -0.3390
  324MPD2     N 4926   0.141   4.386  14.269  0.1477  0.3839 -0.4105
  324MPD2    H5 4927   0.057   4.439  14.287  1.1433  1.8634 -0.1926
  324MPD2    N1 4928   0.626   4.444  14.294  0.5627  0.6773  0.0890
  324MPD2    H7 4929   0.640   4.356  14.244  3.2268 -0.0022  1.9910
  325TMC3    C1 4930   0.006   4.230  14.164  0.1161  0.2291  0.6837
  325TMC3    C2 4931   4.726   4.097  14.141 -0.8145  0.1573  0.3358
  325TMC3    C3 4932   4.599   4.049  14.117 -0.5198  0.4088 -0.4783
  325TMC3    C4 4933   4.642   4.311  14.151 -0.1718 -0.5835  0.8603
  325TMC3    C5 4934   4.524   4.262  14.100  0.2320 -0.2141 -0.1412
  325TMC3    C6 4935   4.497   4.133  14.088  0.1324 -0.8101  0.5812
  325TMC3     C 4936   0.138   4.263  14.209 -0.2639 -0.2776  0.0455
  325TMC3     O 4937   0.232   4.191  14.181 -0.3939 -0.0312 -0.7371
  325TMC3     H 4938   0.076   4.033  14.165 -1.4460 -0.6026  0.5419
  325TMC3    H1 4939   4.636   4.413  14.189  1.9648  0.0155 -0.4154
  325TMC3    H2 4940   4.399   4.096  14.060 -0.5187  1.6744 -0.4681
  325TMC3    C7 4941   4.401   4.342  14.126 -0.3292  0.7183  0.1432
  325TMC3    C8 4942   4.598   3.907  14.086  0.3561 -0.5288 -0.3865
  325TMC3    O1 4943   4.293   4.291  14.161  0.3852 -0.0763 -0.2798
  325TMC3    O2 4944   4.707   3.852  14.078  0.5899  0.3310  0.3485
  326MPD2     C 4945   1.087   0.488  11.160 -0.1355 -0.3312 -0.0434
  326MPD2    C1 4946   1.052   0.584  11.066 -0.1497  0.6081 -0.4706
  326MPD2    C2 4947   1.155   0.642  10.998  1.2432  0.2864 -0.0963
  326MPD2    C3 4948   1.289   0.616  11.021 -0.6936  0.0821  0.3664
  326MPD2    C4 4949   1.327   0.512  11.104  0.2082 -0.2743 -0.1894
  326MPD2    C5 4950   1.221   0.451  11.172 -0.2580  0.0491  0.0584
  326MPD2     H 4951   1.127   0.717  10.926 -2.7712  0.8957  2.1257
  326MPD2    H1 4952   1.430   0.483  11.122  0.1863 -0.3271 -0.1487
  326MPD2    H2 4953   1.014   0.440  11.224  2.2855  0.5788  3.3770
  326MPD2    H3 4954   1.250   0.382  11.251 -1.1769 -1.3918 -0.8702
  326MPD2     N 4955   1.386   0.702  10.965  0.1378 -0.5604  0.0562
  326MPD2    H5 4956   1.479   0.662  10.975  0.3914 -0.1143 -0.5636
  326MPD2    N1 4957   0.921   0.625  11.040  0.0695  0.5963  0.4251
  326MPD2    H7 4958   0.909   0.693  10.965  2.5856 -0.8412 -1.2768
  327TMC3    C1 4959   0.685   0.614  11.056 -0.0577 -0.5775 -0.4177
  327TMC3    C2 4960   0.680   0.727  10.993  0.7936  0.0202  0.4488
  327TMC3    C3 4961   0.559   0.751  10.931 -0.4532  0.3793 -0.1779
  327TMC3    C4 4962   0.582   0.534  11.091 -0.5341 -0.5220  0.0728
  327TMC3    C5 4963   0.469   0.549  11.011 -0.6097  0.1058  0.0706
  327TMC3    C6 4964   0.454   0.656  10.926  0.0757  0.4592 -0.1829
  327TMC3     C 4965   0.811   0.563  11.100  0.7263 -0.3463  0.3148
  327TMC3     O 4966   0.802   0.475  11.184 -0.3571  0.2147  0.2896
  327TMC3     H 4967   0.757   0.802  11.004 -0.2209  0.5143  4.0819
  327TMC3    H1 4968   0.585   0.474  11.182 -1.2647  1.1458  1.1957
  327TMC3    H2 4969   0.369   0.660  10.859  0.1153 -0.1042 -0.2719
  327TMC3    C7 4970   0.414   0.419  10.970 -0.0690 -0.8812  0.3686
  327TMC3    C8 4971   0.553   0.868  10.852 -0.6905 -0.2170  0.2146
  327TMC3    O1 4972   0.325   0.415  10.889  0.4439  0.1854  0.4482
  327TMC3    O2 4973   0.661   0.918  10.817  0.6792  0.3335  0.1553
  328MPD2     C 4974   4.011   0.079  17.105  0.0963 -0.1607 -0.2290
  328MPD2    C1 4975   3.917   4.711  17.092 -0.9206 -0.0292 -0.0267
  328MPD2    C2 4976   3.856   4.686  16.966  0.4876 -0.6740  0.1602
  328MPD2    C3 4977   3.884   0.038  16.862  0.3187 -0.0258  0.4061
  328MPD2    C4 4978   3.962   0.148  16.880  0.1676  0.4361 -0.0163
  328MPD2    C5 4979   4.031   0.160  16.997  0.2634  0.4525  0.3105
  328MPD2     H 4980   3.787   4.606  16.945  1.2140 -1.1776 -0.2990
  328MPD2    H1 4981   4.003   0.199  16.794 -0.3786  2.9781  1.2379
  328MPD2    H2 4982   4.074   0.085  17.194  1.2837 -0.4638 -1.0456
  328MPD2    H3 4983   4.112   0.231  17.010 -0.3109  1.1550  0.0462
  328MPD2     N 4984   3.815   0.033  16.740 -0.7961  0.2921 -0.3829
  328MPD2    H5 4985   3.832   0.113  16.681 -0.6877 -0.3963 -1.2741
  328MPD2    N1 4986   3.885   4.635  17.209 -0.2966 -0.6322  0.0415
  328MPD2    H7 4987   3.920   4.668  17.298  1.7443 -0.0933 -0.9446
  329TMC3    C1 4988   3.771   4.469  17.329  0.2179  0.4767 -0.1998
  329TMC3    C2 4989   3.705   4.560  17.407  0.4193 -0.0679  0.0916
  329TMC3    C3 4990   3.579   4.526  17.444 -0.0421  0.2785 -0.4435
  329TMC3    C4 4991   3.728   4.339  17.318  0.3114  0.2646 -0.1610
  329TMC3    C5 4992   3.610   4.298  17.379  0.5606 -0.1902  0.2924
  329TMC3    C6 4993   3.533   4.392  17.440  0.0297 -0.3823  0.1799
  329TMC3     C 4994   3.821   4.521  17.201  0.0049  0.1231 -0.5662
  329TMC3     O 4995   3.794   4.447  17.109  0.0969  0.0018  0.2659
  329TMC3     H 4996   3.734   4.664  17.399  0.7700 -0.2340 -0.7989
  329TMC3    H1 4997   3.791   4.261  17.278 -1.3152 -0.1615 -1.9020
  329TMC3    H2 4998   3.430   4.381  17.472 -0.4325 -0.8716 -1.4881
  329TMC3    C7 4999   3.547   4.195  17.297 -0.0073 -0.4717 -0.2344
  329TMC3    C8 5000   3.478   4.611  17.377  0.2210 -0.2205  0.5774
  329TMC3    O1 5001   3.624   4.125  17.228  0.4985  0.2297 -0.1791
  329TMC3    O2 5002   3.387   4.550  17.319  0.6247  0.4274  0.2578
  330TMC3    C1 5003   1.717   4.252   9.295  0.0524  0.3284  0.5868
  330TMC3    C2 5004   1.711   4.117   9.300 -0.5750  0.5765 -0.5509
  330TMC3    C3 5005   1.763   4.050   9.412  0.2756 -0.6123 -0.5476
  330TMC3    C4 5006   1.771   4.329   9.397  0.8186 -0.0777 -0.3123
  330TMC3    C5 5007   1.801   4.256   9.505  0.1527 -0.8955 -0.7835
  330TMC3    C6 5008   1.803   4.120   9.521 -0.2298 -0.2886  0.5016
  330TMC3     C 5009   1.629   4.319   9.198 -0.3126 -0.1844 -0.1541
  330TMC3     O 5010   1.658   4.430   9.157  0.1397 -0.1082  0.0786
  330TMC3     H 5011   1.665   4.062   9.220 -2.6565  1.7703 -0.1780
  330TMC3    H1 5012   1.770   4.438   9.393 -0.0660 -0.1074 -0.9367
  330TMC3    H2 5013   1.837   4.074   9.613 -0.6872 -1.0016  0.3176
  330TMC3    C7 5014   1.864   4.333   9.615  0.2901  0.0724  1.0452
  330TMC3    C8 5015   1.735   3.911   9.407  0.2902  0.4632  0.8201
  330TMC3    O1 5016   1.931   4.433   9.585  0.2575  0.3419  0.4642
  330TMC3    O2 5017   1.739   3.856   9.296  0.6994  0.6182  0.3196
  331MPD2     C 5018   0.118   3.616  12.518 -0.5050  0.3845  0.3321
  331MPD2    C1 5019   0.053   3.519  12.442  0.2715  0.9089  0.6533
  331MPD2    C2 5020   0.056   3.381  12.479 -0.7525 -0.6028 -0.0138
  331MPD2    C3 5021   0.146   3.347  12.574  0.3295 -0.4745 -0.5692
  331MPD2    C4 5022   0.216   3.439  12.643  0.1956 -0.1182 -0.2450
  331MPD2    C5 5023   0.190   3.568  12.624 -0.0704 -0.6057  0.4710
  331MPD2     H 5024   4.729   3.312  12.422  0.7330 -2.4892  0.6891
  331MPD2    H1 5025   0.281   3.411  12.726  0.2646 -0.2238 -0.3355
  331MPD2    H2 5026   0.108   3.722  12.501 -1.9098  0.4740  1.7540
  331MPD2    H3 5027   0.244   3.639  12.685 -2.2555  3.5833 -2.4641
  331MPD2     N 5028   0.141   3.212  12.610 -0.5661 -0.0014 -0.6230
  331MPD2    H5 5029   0.068   3.154  12.571 -0.5361  0.1366 -0.8875
  331MPD2    N1 5030   4.713   3.561  12.325 -0.7229  0.0403  0.7991
  331MPD2    H7 5031   4.705   3.659  12.301 -0.0311  0.3438  1.8140
  332TMC3    C1 5032   0.211   3.009  12.710 -0.4592  0.5772  0.2731
  332TMC3    C2 5033   0.078   2.983  12.721  0.7019  0.4043 -0.6186
  332TMC3    C3 5034   0.039   2.856  12.699 -0.3167 -0.5084  0.5861
  332TMC3    C4 5035   0.307   2.920  12.684 -0.2149  0.4188 -0.0862
  332TMC3    C5 5036   0.268   2.789  12.676  0.1330  0.3873 -0.0706
  332TMC3    C6 5037   0.132   2.758  12.667  0.5993  0.5245  0.4665
  332TMC3     C 5038   0.238   3.141  12.678 -0.0028 -0.0692  0.2651
  332TMC3     O 5039   0.350   3.183  12.702 -0.1895 -0.0784  0.1614
  332TMC3     H 5040   0.007   3.060  12.749 -0.0980 -0.5152 -0.1108
  332TMC3    H1 5041   0.406   2.948  12.648 -0.6927  0.1223 -1.6595
  332TMC3    H2 5042   0.097   2.657  12.654 -1.5740  1.2405  0.7001
  332TMC3    C7 5043   0.358   2.684  12.675  0.0644  0.1946 -0.4796
  332TMC3    C8 5044   4.635   2.835  12.654 -0.0132 -0.0478  0.2149
  332TMC3    O1 5045   0.322   2.569  12.668 -0.4094 -0.5721 -0.1861
  332TMC3    O2 5046   4.615   2.746  12.570 -0.4326  0.2607 -0.0782
  333MPD2     C 5047   4.460   3.660  11.352 -0.0197  0.0825 -0.1714
  333MPD2    C1 5048   4.450   3.568  11.252  0.0573 -0.4153  0.7145
  333MPD2    C2 5049   4.388   3.446  11.271 -0.1850 -0.0795 -0.5814
  333MPD2    C3 5050   4.326   3.420  11.394 -0.3065  0.3708  0.0834
  333MPD2    C4 5051   4.331   3.514  11.493 -0.1665  0.0598  0.0487
  333MPD2    C5 5052   4.400   3.633  11.470 -0.4616 -0.1193 -0.8267
  333MPD2     H 5053   4.380   3.369  11.195 -0.5655 -0.0334 -0.5894
  333MPD2    H1 5054   4.313   3.500  11.599  1.6278 -2.2190  0.0645
  333MPD2    H2 5055   4.514   3.754  11.341 -0.3262  0.3003  0.2271
  333MPD2    H3 5056   4.404   3.708  11.548 -0.3225 -0.6474 -0.3241
  333MPD2     N 5057   4.259   3.298  11.420 -0.3072  0.4553 -0.3004
  333MPD2    H5 5058   4.277   3.221  11.356 -1.4341  0.2329 -0.3511
  333MPD2    N1 5059   4.492   3.614  11.127  0.4952  0.1479 -0.4465
  333MPD2    H7 5060   4.522   3.711  11.129  0.7218  0.0650  0.2052
  334TMC3    C1 5061   4.583   3.602  10.915 -0.7957 -0.4653  0.2715
  334TMC3    C2 5062   4.668   3.533  10.841  0.1414 -0.2418  0.2642
  334TMC3    C3 5063   0.005   3.597  10.749  0.1570  0.0981  0.0031
  334TMC3    C4 5064   4.560   3.737  10.894 -0.6482 -0.3563 -0.2393
  334TMC3    C5 5065   4.630   3.802  10.793 -0.0598 -0.0659 -0.0662
  334TMC3    C6 5066   4.732   3.734  10.734  0.4930  0.1564 -0.3665
  334TMC3     C 5067   4.514   3.533  11.016 -0.0232  0.1216  0.4295
  334TMC3     O 5068   4.491   3.415  11.002 -0.1875 -0.5176  0.8259
  334TMC3     H 5069   4.679   3.426  10.857 -0.0556 -0.3830 -0.5105
  334TMC3    H1 5070   4.502   3.803  10.958  0.5348  0.2449  0.2231
  334TMC3    H2 5071   0.064   3.797  10.676 -0.7525  0.3801 -1.5513
  334TMC3    C7 5072   4.649   3.938  10.818  0.5003 -0.0307 -0.0448
  334TMC3    C8 5073   0.114   3.527  10.685 -0.2522 -0.4054 -0.6845
  334TMC3    O1 5074   0.033   3.968  10.829  0.3242  0.4105 -0.1833
  334TMC3    O2 5075   0.132   3.410  10.721  0.0865  0.2326  0.2104
  335TMC3    C1 5076   0.005   0.286  17.720  0.4055 -0.3637 -0.7392
  335TMC3    C2 5077   4.676   0.237  17.608 -0.3833 -0.1267  0.3105
  335TMC3    C3 5078   0.006   0.271  17.493  0.7086  0.8368  0.1916
  335TMC3    C4 5079   0.123   0.346  17.725  0.1105  0.0499  0.7746
  335TMC3    C5 5080   0.173   0.384  17.608  0.6789  0.3023  0.3948
  335TMC3    C6 5081   0.120   0.349  17.491 -0.4198 -0.2689 -0.3796
  335TMC3     C 5082   4.654   0.296   0.101  0.0032 -0.7404  0.1762
  335TMC3     O 5083   4.581   0.200   0.127  0.3326  0.4415  0.6592
  335TMC3     H 5084   4.575   0.198  17.611 -1.4861  2.8891  1.5858
  335TMC3    H1 5085   0.170   0.373   0.082  1.8714 -0.6043  0.0857
  335TMC3    H2 5086   0.167   0.377  17.398  1.8305 -0.7097  0.6364
  335TMC3    C7 5087   0.311   0.427  17.596  0.2135 -0.4527 -0.4014
  335TMC3    C8 5088   4.699   0.216  17.360 -0.3660  0.1445 -0.2828
  335TMC3    O1 5089   0.348   0.471  17.493  0.1824  0.0096  0.0305
  335TMC3    O2 5090   0.013   0.272  17.263  0.0501 -0.4551  0.9703
  336MPD2     C 5091   4.327   2.536  16.392  0.7237 -0.0483  0.4512
  336MPD2    C1 5092   4.350   2.516  16.256  0.3796  0.5136 -0.0827
  336MPD2    C2 5093   4.361   2.385  16.211  0.1651 -0.0874  0.3053
  336MPD2    C3 5094   4.335   2.282  16.298  1.1430  0.5574  0.6586
  336MPD2    C4 5095   4.317   2.312  16.428 -0.1846 -0.1242 -0.0234
  336MPD2    C5 5096   4.302   2.437  16.479  0.6134 -0.4432 -0.2037
  336MPD2     H 5097   4.385   2.366  16.107  3.0112  1.4687  0.6807
  336MPD2    H1 5098   4.308   2.238  16.507 -0.6066 -0.6252 -0.5373
  336MPD2    H2 5099   4.327   2.632  16.441  2.4572  0.3627 -0.3715
  336MPD2    H3 5100   4.291   2.446  16.586 -3.1674 -0.7985 -0.5425
  336MPD2     N 5101   4.345   2.147  16.267  0.1459 -0.6032  0.1771
  336MPD2    H5 5102   4.324   2.091  16.349 -1.2390  0.3078  0.4349
  336MPD2    N1 5103   4.362   2.622  16.163 -0.2640  0.3452 -0.7972
  336MPD2    H7 5104   4.368   2.589  16.067 -0.7770 -2.9340  0.2687
  337TMC3    C1 5105   4.342   2.833  16.063 -0.2342  0.4606  0.6763
  337TMC3    C2 5106   4.228   2.907  16.049  0.1271  0.1294 -0.4205
  337TMC3    C3 5107   4.204   2.969  15.928  0.0927 -0.3453  0.1156
  337TMC3    C4 5108   4.448   2.819  15.977 -0.2193 -0.3114 -1.2911
  337TMC3    C5 5109   4.417   2.884  15.860 -0.6985 -0.3174 -0.5512
  337TMC3    C6 5110   4.294   2.951  15.831  0.1933 -1.3341  0.3403
  337TMC3     C 5111   4.346   2.757  16.185  0.3136  0.3606  0.1514
  337TMC3     O 5112   4.329   2.817  16.291  0.4037  0.0017 -0.1631
  337TMC3     H 5113   4.151   2.912  16.125 -0.3088  1.4637 -0.9598
  337TMC3    H1 5114   4.534   2.752  15.979 -0.7623 -0.9949 -0.7911
  337TMC3    H2 5115   4.279   3.002  15.736 -0.5263 -2.2894 -0.0560
  337TMC3    C7 5116   4.523   2.886  15.758  0.0584  0.0477  0.2293
  337TMC3    C8 5117   4.076   3.027  15.895  0.0959  0.0239  0.5394
  337TMC3    O1 5118   4.624   2.819  15.778  0.4220 -0.1369 -0.2510
  337TMC3    O2 5119   4.026   3.077  15.997  0.2149  0.1789 -0.2378
  338MPD2     C 5120   0.020   2.717   1.057  0.0782 -0.3744 -0.6744
  338MPD2    C1 5121   4.650   2.661   0.988 -0.3311  0.0308  0.0398
  338MPD2    C2 5122   4.539   2.743   0.972  0.0165  0.2195 -0.0115
  338MPD2    C3 5123   4.518   2.868   1.027  0.9251  0.7995  0.2265
  338MPD2    C4 5124   4.624   2.924   1.095  0.0380 -0.5718 -0.3115
  338MPD2    C5 5125   0.004   2.849   1.105 -0.6060  0.7638 -0.1226
  338MPD2     H 5126   4.458   2.695   0.918  0.8819 -1.9855  0.6384
  338MPD2    H1 5127   4.615   3.026   1.132  1.0923 -0.5090 -0.2313
  338MPD2    H2 5128   0.109   2.664   1.090  0.6366  0.3785 -0.9679
  338MPD2    H3 5129   0.088   2.889   1.161 -1.1402  0.4432  0.9186
  338MPD2     N 5130   4.388   2.918   1.013 -0.1345  0.0831  0.5085
  338MPD2    H5 5131   4.330   2.861   0.952  0.5413  1.3458 -1.3254
  338MPD2    N1 5132   4.628   2.527   0.964  0.1446  1.1464 -0.1857
  338MPD2    H7 5133   4.545   2.497   0.915  0.2568  0.4838  0.0355
  339TMC3    C1 5134   4.186   3.001   1.077  0.5735  0.2788  0.1283
  339TMC3    C2 5135   4.143   2.943   1.195  0.0830  0.1912  0.9682
  339TMC3    C3 5136   4.069   2.825   1.185 -0.1430 -0.4421  0.9452
  339TMC3    C4 5137   4.159   2.940   0.952 -0.1508 -0.3873 -0.0505
  339TMC3    C5 5138   4.074   2.834   0.949 -0.5357  0.4110 -0.0859
  339TMC3    C6 5139   4.025   2.777   1.063 -0.3495 -0.0507 -0.6768
  339TMC3     C 5140   4.329   3.011   1.092  0.4068 -0.1144 -0.3798
  339TMC3     O 5141   4.379   3.072   1.184 -0.0608 -0.2471 -0.3044
  339TMC3     H 5142   4.176   2.982   1.290  1.2230 -1.1317  1.1335
  339TMC3    H1 5143   4.204   2.981   0.862  1.7497 -0.9030  0.6790
  339TMC3    H2 5144   3.975   2.681   1.051  0.5089 -0.7648  1.2798
  339TMC3    C7 5145   4.118   2.740   0.848  0.1561 -0.4892  0.1747
  339TMC3    C8 5146   4.047   2.743   1.306  0.4625 -0.0793 -0.3469
  339TMC3    O1 5147   4.231   2.759   0.804 -0.7544  0.2019 -0.1962
  339TMC3    O2 5148   3.959   2.658   1.314  0.2581 -0.3712 -0.0373
  340MPD2     C 5149   4.522   0.198   9.814  0.5406  0.3371  0.1592
  340MPD2    C1 5150   4.559   0.082   9.873 -0.8151  0.2944  0.6900
  340MPD2    C2 5151   4.557   0.069  10.008  0.2723 -0.2996 -0.2063
  340MPD2    C3 5152   4.502   0.162  10.092 -0.3475 -0.3837  0.0607
  340MPD2    C4 5153   4.456   0.277  10.031  0.1042  0.0606 -0.2768
  340MPD2    C5 5154   4.467   0.293   9.898 -0.5905  0.2743  0.3470
  340MPD2     H 5155   4.601   4.714  10.050  0.1281 -0.7513 -1.0340
  340MPD2    H1 5156   4.423   0.354  10.100  0.3845  0.0045 -0.0810
  340MPD2    H2 5157   4.532   0.230   9.711 -0.5072 -1.1357 -0.4137
  340MPD2    H3 5158   4.423   0.381   9.852  0.0385  0.2036 -0.3843
  340MPD2     N 5159   4.504   0.160  10.234  0.2632 -0.0142  0.1205
  340MPD2    H5 5160   4.472   0.239  10.288 -1.6626  0.2142 -1.3383
  340MPD2    N1 5161   4.611   4.713   9.796 -0.3664 -0.1110  0.4586
  340MPD2    H7 5162   4.651   0.001   9.705  0.9402 -1.9466  0.5800
  341TMC3    C1 5163   4.715   4.499   9.761 -0.6924  0.0217  0.2697
  341TMC3    C2 5164   4.698   4.360   9.776  0.6303 -0.3128  0.1244
  341TMC3    C3 5165   0.068   4.272   9.754 -0.0622  0.3743 -0.4266
  341TMC3    C4 5166   0.093   4.557   9.722  0.7456  0.2532 -0.4165
  341TMC3    C5 5167   0.196   4.469   9.707 -0.3184 -0.4113  0.1920
  341TMC3    C6 5168   0.195   4.330   9.719 -0.1222 -0.1639 -0.0197
  341TMC3     C 5169   4.621   4.584   9.841 -0.1929  0.0518  0.0990
  341TMC3     O 5170   4.568   4.527   9.934  0.3140  0.7271 -0.0829
  341TMC3     H 5171   4.603   4.322   9.812 -0.2866  1.4270 -0.4211
  341TMC3    H1 5172   0.112   4.663   9.706  2.2363 -0.3156 -2.5552
  341TMC3    H2 5173   0.288   4.279   9.698  0.5604  1.5589 -1.1127
  341TMC3    C7 5174   0.325   4.531   9.672  0.8831 -0.1245  0.1796
  341TMC3    C8 5175   0.047   4.129   9.783  0.4743  0.9040  0.0263
  341TMC3    O1 5176   0.397   4.482   9.586 -0.0752  0.2488 -0.4605
  341TMC3    O2 5177   4.679   4.107   9.845  0.2872  0.6260 -0.7070
  342MPD2     C 5178   2.645   3.083  17.677  0.1681 -0.1827  0.9829
  342MPD2    C1 5179   2.743   3.097  17.581 -0.1943  0.4476  0.0077
  342MPD2    C2 5180   2.820   3.213  17.571  0.1878 -0.1167  0.3903
  342MPD2    C3 5181   2.793   3.317  17.655  0.6482 -0.3388  0.2163
  342MPD2    C4 5182   2.687   3.310   0.007 -0.3339  0.3872 -0.3738
  342MPD2    C5 5183   2.614   3.190   0.025 -0.1619 -0.1549 -0.4855
  342MPD2     H 5184   2.893   3.223  17.492  0.6394  1.2472  0.9869
  342MPD2    H1 5185   2.666   3.388   0.079 -0.4577  1.1462 -1.2348
  342MPD2    H2 5186   2.580   2.998  17.696 -0.4320 -0.0023 -0.2670
  342MPD2    H3 5187   2.534   3.175   0.097 -0.8431  0.1098 -1.1885
  342MPD2     N 5188   2.859   3.443  17.659 -0.3592  0.1953  0.5396
  342MPD2    H5 5189   2.822   3.508  17.727  2.1441  1.0231  1.0946
  342MPD2    N1 5190   2.765   2.994  17.487 -0.3844 -0.6657  0.0819
  342MPD2    H7 5191   2.835   3.000  17.413  0.0722  0.6566  0.6276
  343TMC3    C1 5192   2.775   2.790  17.382  0.3262  0.0776  0.8915
  343TMC3    C2 5193   2.874   2.840  17.297 -0.0468 -0.1968 -0.0627
  343TMC3    C3 5194   2.948   2.748  17.221  0.2354  0.5866  0.2565
  343TMC3    C4 5195   2.766   2.656  17.402  0.4207  0.5690  0.1562
  343TMC3    C5 5196   2.859   2.568  17.343 -0.1898 -0.3453 -0.2780
  343TMC3    C6 5197   2.940   2.610  17.241  0.4940  0.2122 -0.4680
  343TMC3     C 5198   2.701   2.879  17.478 -0.3505  0.6245 -0.1441
  343TMC3     O 5199   2.607   2.830  17.543 -0.2010  0.1155  0.4068
  343TMC3     H 5200   2.885   2.942  17.262 -2.6490 -0.1573 -0.8005
  343TMC3    H1 5201   2.698   2.630  17.482 -1.4757 -0.2441 -1.7079
  343TMC3    H2 5202   2.998   2.549  17.173 -0.0696 -1.5892  0.6610
  343TMC3    C7 5203   2.818   2.428  17.353  0.0823 -0.1731 -0.3209
  343TMC3    C8 5204   3.039   2.802  17.116  0.1511 -0.3047 -0.0940
  343TMC3    O1 5205   2.716   2.400  17.412 -0.3695  0.7702 -0.2072
  343TMC3    O2 5206   3.076   2.919  17.140 -0.1065  0.2728 -0.7663
  344MPD2     C 5207   2.985   2.983  11.241  0.0666  0.0108  0.1584
  344MPD2    C1 5208   3.043   2.932  11.125 -0.0385 -0.1319 -0.1745
  344MPD2    C2 5209   3.112   3.025  11.046 -0.0895  0.2528 -0.3906
  344MPD2    C3 5210   3.129   3.155  11.092  0.5538 -0.6735  0.2517
  344MPD2    C4 5211   3.080   3.194  11.212  0.1655 -0.1534 -0.4708
  344MPD2    C5 5212   3.006   3.112  11.286  0.3175 -0.1809 -0.1769
  344MPD2     H 5213   3.164   2.997  10.955 -1.5100 -0.4749 -0.9845
  344MPD2    H1 5214   3.103   3.293  11.249  0.1287 -0.8437  1.3823
  344MPD2    H2 5215   2.930   2.921  11.312  1.9993  0.4805  2.0470
  344MPD2    H3 5216   2.968   3.142  11.383  1.7400 -0.0347  0.3413
  344MPD2     N 5217   3.220   3.245  11.023 -0.7932 -0.1251 -0.3310
  344MPD2    H5 5218   3.233   3.337  11.065 -1.7923 -1.1418  2.1925
  344MPD2    N1 5219   3.041   2.793  11.102  0.1999 -0.0619  0.0703
  344MPD2    H7 5220   3.085   2.766  11.015 -0.8016  0.8103 -0.6935
  345TMC3    C1 5221   3.349   3.345  10.859 -0.1900  0.6131  0.1468
  345TMC3    C2 5222   3.434   3.399  10.949  0.0038 -0.4796  0.3088
  345TMC3    C3 5223   3.486   3.519  10.919 -0.3041 -0.6643 -0.0870
  345TMC3    C4 5224   3.325   3.399  10.737 -0.0206 -0.1680 -0.5610
  345TMC3    C5 5225   3.380   3.523  10.714  0.0614  0.0852 -0.2719
  345TMC3    C6 5226   3.459   3.581  10.802 -0.9252  0.2409 -0.5451
  345TMC3     C 5227   3.268   3.231  10.893 -0.2494  0.1448 -1.0452
  345TMC3     O 5228   3.243   3.154  10.799  0.4895  0.3610  0.9565
  345TMC3     H 5229   3.456   3.358  11.047  0.8273  0.1300  0.3802
  345TMC3    H1 5230   3.263   3.349  10.663 -0.9803 -0.8458  0.7186
  345TMC3    H2 5231   3.503   3.677  10.779 -0.9173  0.1971 -0.7099
  345TMC3    C7 5232   3.341   3.612  10.600 -0.3030  0.2992  0.9311
  345TMC3    C8 5233   3.600   3.565  10.992 -0.6885 -0.0390  0.1778
  345TMC3    O1 5234   3.414   3.705  10.572 -0.6458  0.3119  0.6688
  345TMC3    O2 5235   3.613   3.686  10.997  0.6145 -0.4794  0.2954
  346MPD2     C 5236   3.237   4.498  14.162 -0.2003 -0.2480 -0.2933
  346MPD2    C1 5237   3.363   4.478  14.111 -0.0521 -0.7403 -0.2324
  346MPD2    C2 5238   3.475   4.527  14.189  0.2346  0.2524  0.2794
  346MPD2    C3 5239   3.458   4.600  14.306 -0.1464  0.1145 -0.0959
  346MPD2    C4 5240   3.326   4.627  14.352 -0.0973 -0.2419  0.5993
  346MPD2    C5 5241   3.229   4.574  14.273 -0.1551 -0.2482 -0.3299
  346MPD2     H 5242   3.575   4.504  14.155  0.7335 -2.4097  3.5110
  346MPD2    H1 5243   3.295   4.692  14.434 -2.2540  1.0945 -1.2719
  346MPD2    H2 5244   3.145   4.455  14.124  0.0917 -1.1809  0.0598
  346MPD2    H3 5245   3.128   4.588  14.311  0.0141 -1.5017  0.5670
  346MPD2     N 5246   3.576   4.641  14.375  0.7989  0.0405  0.1944
  346MPD2    H5 5247   3.665   4.608  14.339 -0.1520 -1.8302 -0.4724
  346MPD2    N1 5248   3.394   4.410  13.982  0.0303 -0.2616  0.7805
  346MPD2    H7 5249   3.492   4.400  13.957  0.1852  0.3430  1.1394
  347TMC3    C1 5250   3.717   4.694  14.562  0.0334  0.5588  0.1705
  347TMC3    C2 5251   3.818   4.677  14.478  0.3812 -0.3791  0.6963
  347TMC3    C3 5252   3.929   4.621  14.541  0.1540  0.4181 -0.1663
  347TMC3    C4 5253   3.711   4.645  14.688 -0.7283  0.4276  0.5618
  347TMC3    C5 5254   3.814   4.562  14.732  0.6089 -0.0252 -0.0834
  347TMC3    C6 5255   3.924   4.555  14.657  0.5388 -0.4205 -0.8305
  347TMC3     C 5256   3.585   4.697  14.503  0.2595 -0.3340  0.5415
  347TMC3     O 5257   3.492   4.733  14.579 -0.3969 -0.0464 -0.2567
  347TMC3     H 5258   3.816   4.726  14.381 -1.9760 -2.9896 -0.5727
  347TMC3    H1 5259   3.629   4.661  14.757 -0.8547 -0.8610  0.7028
  347TMC3    H2 5260   4.012   4.493  14.675  0.4602  0.2520  1.8700
  347TMC3    C7 5261   3.785   4.481  14.845  0.1952  0.5410 -0.3407
  347TMC3    C8 5262   4.042   4.579  14.455  0.5052 -0.2217 -0.3209
  347TMC3    O1 5263   3.666   4.455  14.851 -0.2254  0.0904 -0.5087
  347TMC3    O2 5264   4.088   4.472  14.465 -0.2725  0.1414  0.4426
  348MPD2     C 5265   2.587   4.057  11.792 -0.5162  0.0503 -0.7485
  348MPD2    C1 5266   2.447   4.048  11.801 -0.1309  0.5729  0.2768
  348MPD2    C2 5267   2.373   4.131  11.718 -0.1399  0.7901 -0.3168
  348MPD2    C3 5268   2.442   4.226  11.640  0.4676 -0.5358  0.3718
  348MPD2    C4 5269   2.577   4.228  11.630 -0.6990  0.2549 -0.4869
  348MPD2    C5 5270   2.654   4.148  11.713  0.6270  0.2800 -0.3669
  348MPD2     H 5271   2.265   4.128  11.726 -0.0012 -1.8611  0.4863
  348MPD2    H1 5272   2.625   4.290  11.556  0.8459 -1.0443 -0.5988
  348MPD2    H2 5273   2.646   3.992  11.855 -1.7265 -1.3954 -1.1087
  348MPD2    H3 5274   2.761   4.147  11.700  0.5353  1.7380 -1.2539
  348MPD2     N 5275   2.361   4.295  11.545 -0.4454 -0.4228 -0.1598
  348MPD2    H5 5276   2.262   4.270  11.548 -1.1157  2.2062 -0.5193
  348MPD2    N1 5277   2.378   3.944  11.870 -0.4075  0.1045  0.5236
  348MPD2    H7 5278   2.277   3.947  11.871 -0.4528 -0.8267 -1.8808
  349TMC3    C1 5279   2.344   3.724  11.959 -0.5510 -0.6407 -0.3329
  349TMC3    C2 5280   2.401   3.613  12.014 -0.3412  0.2731  0.1532
  349TMC3    C3 5281   2.342   3.493  12.008 -0.1178  0.5661 -0.0940
  349TMC3    C4 5282   2.217   3.724  11.901  0.1455 -0.2219 -0.1993
  349TMC3    C5 5283   2.155   3.598  11.900 -0.0554  0.3698  0.4075
  349TMC3    C6 5284   2.214   3.486  11.953 -0.0490  0.9511  0.0645
  349TMC3     C 5285   2.439   3.836  11.932  0.6391 -0.2349  0.3083
  349TMC3     O 5286   2.559   3.818  11.956 -0.2160 -0.5050  0.8024
  349TMC3     H 5287   2.498   3.612  12.062  0.3015  0.3973 -1.1360
  349TMC3    H1 5288   2.172   3.816  11.867  0.2044 -1.0392 -2.4571
  349TMC3    H2 5289   2.158   3.393  11.959 -1.0924  1.5717 -0.0613
  349TMC3    C7 5290   2.013   3.584  11.863  0.4862 -0.6919  0.5313
  349TMC3    C8 5291   2.400   3.383  12.074  0.8991 -0.5121 -0.2518
  349TMC3    O1 5292   1.965   3.474  11.857 -0.1531  0.0528 -0.0369
  349TMC3    O2 5293   2.521   3.374  12.065 -0.6019  0.4465  0.2093
  350MPD2     C 5294   1.303   2.577  10.398 -0.2890  1.0793  0.4371
  350MPD2    C1 5295   1.200   2.489  10.378 -0.0104 -0.7367  0.1833
  350MPD2    C2 5296   1.083   2.498  10.456  0.2822  0.1298 -0.4351
  350MPD2    C3 5297   1.067   2.609  10.541  1.0675 -0.0355  0.2783
  350MPD2    C4 5298   1.172   2.695  10.556 -0.4487  0.3992  0.4100
  350MPD2    C5 5299   1.290   2.681  10.485 -0.0460 -0.0989 -0.8267
  350MPD2     H 5300   1.002   2.428  10.435  0.5588 -0.0431 -0.9433
  350MPD2    H1 5301   1.173   2.775  10.628  3.3072  0.1546  0.6106
  350MPD2    H2 5302   1.402   2.576  10.355 -0.1745  2.2110  0.6523
  350MPD2    H3 5303   1.382   2.736  10.499  0.7356 -1.3900 -0.8428
  350MPD2     N 5304   0.956   2.612  10.631  1.0694  0.0871  0.2999
  350MPD2    H5 5305   0.901   2.527  10.634 -0.7647  1.2428 -0.9171
  350MPD2    N1 5306   1.210   2.387  10.281 -0.1903 -0.2375 -0.2223
  350MPD2    H7 5307   1.135   2.322  10.262  0.0969 -0.5498 -0.2818
  351TMC3    C1 5308   1.312   2.249  10.121 -0.0798 -0.3915  0.2530
  351TMC3    C2 5309   1.420   2.170  10.081 -0.9226 -0.3663  0.4204
  351TMC3    C3 5310   1.394   2.080   9.976  0.3364  0.1574 -0.1284
  351TMC3    C4 5311   1.192   2.248  10.052  0.4300 -0.0705 -0.5758
  351TMC3    C5 5312   1.176   2.159   9.949  0.2859  0.0316  0.2227
  351TMC3    C6 5313   1.277   2.071   9.918  0.0291 -0.1008  0.7165
  351TMC3     C 5314   1.328   2.355  10.221 -0.0179  0.4291 -0.2976
  351TMC3     O 5315   1.443   2.396  10.242  0.0900  0.3318  0.0671
  351TMC3     H 5316   1.512   2.178  10.138 -0.0270 -1.9404 -0.8117
  351TMC3    H1 5317   1.113   2.319  10.074  0.9365  0.7526 -1.4471
  351TMC3    H2 5318   1.262   2.002   9.836 -1.6255  2.2272 -0.9746
  351TMC3    C7 5319   1.069   2.170   9.848 -0.2019  0.3391 -0.1433
  351TMC3    C8 5320   1.492   1.976   9.947  0.1925  0.7945  0.2177
  351TMC3    O1 5321   1.001   2.271   9.861 -0.1661  0.0821  0.5080
  351TMC3    O2 5322   1.450   1.872   9.899  0.2108 -0.2380  0.0526
  352MPD2     C 5323   3.774   3.516   1.470  0.1987  0.6454 -0.0747
  352MPD2    C1 5324   3.800   3.634   1.402  0.4283 -0.7816 -0.3051
  352MPD2    C2 5325   3.935   3.668   1.407 -0.3147 -0.0823  0.0465
  352MPD2    C3 5326   4.028   3.577   1.445  0.7467  0.3550  0.1722
  352MPD2    C4 5327   3.999   3.453   1.495 -1.2392  0.6088 -0.0453
  352MPD2    C5 5328   3.869   3.426   1.517 -0.1751 -0.1507 -0.0852
  352MPD2     H 5329   3.954   3.765   1.362 -1.6804 -0.0970 -0.5722
  352MPD2    H1 5330   4.074   3.387   1.534  0.5064  0.9620 -2.8016
  352MPD2    H2 5331   3.670   3.488   1.478  1.1844 -2.6807  1.0156
  352MPD2    H3 5332   3.835   3.331   1.558 -3.7739  0.6898 -1.1231
  352MPD2     N 5333   4.165   3.608   1.429  0.6497  0.1756  0.1060
  352MPD2    H5 5334   4.233   3.543   1.466 -0.1862 -0.0912  1.2014
  352MPD2    N1 5335   3.703   3.703   1.324 -0.1137  0.3533  0.0551
  352MPD2    H7 5336   3.613   3.669   1.293  0.2600 -1.9803  1.6007
  353TMC3    C1 5337   4.354   3.712   1.335 -0.5463  0.2563 -0.0690
  353TMC3    C2 5338   4.430   3.621   1.411  0.2638 -0.0467 -0.0272
  353TMC3    C3 5339   4.556   3.586   1.368  0.1671  0.0493 -0.4854
  353TMC3    C4 5340   4.403   3.758   1.210  0.0655 -0.4211  0.3565
  353TMC3    C5 5341   4.517   3.700   1.165 -0.4342  0.1200  0.2843
  353TMC3    C6 5342   4.599   3.625   1.246  0.3282  1.0282 -0.3637
  353TMC3     C 5343   4.211   3.718   1.360  0.3511  0.1299  0.5657
  353TMC3     O 5344   4.158   3.803   1.287 -0.2677  0.2178 -0.4797
  353TMC3     H 5345   4.399   3.588   1.509 -3.3087  0.3418 -0.9988
  353TMC3    H1 5346   4.349   3.830   1.150  1.7786  1.1833  0.7378
  353TMC3    H2 5347   4.699   3.597   1.212 -0.0207 -0.0848 -0.4601
  353TMC3    C7 5348   4.518   3.647   1.030 -0.1674 -0.2121 -0.2613
  353TMC3    C8 5349   4.638   3.516   1.462 -0.0067 -0.0372  0.7344
  353TMC3    O1 5350   4.587   3.548   1.005  0.5288 -0.5198  0.4185
  353TMC3    O2 5351   4.608   3.525   1.576  0.6898  0.3295  0.1453
  354TMC3    C1 5352   1.273   0.021  13.632 -0.1795 -0.0171  0.5583
  354TMC3    C2 5353   1.183   0.116  13.587  0.4089  0.2452 -0.2606
  354TMC3    C3 5354   1.139   0.107  13.459  0.2703  0.0367 -0.1947
  354TMC3    C4 5355   1.343   4.674  13.551 -0.5550  0.7563  0.5106
  354TMC3    C5 5356   1.298   4.676  13.419 -1.1460 -0.7320 -0.4477
  354TMC3    C6 5357   1.194   0.023  13.374 -0.2997 -0.1109 -0.0080
  354TMC3     C 5358   1.326   0.033  13.771  0.3771  0.4392  0.4225
  354TMC3     O 5359   1.252   0.097  13.846 -0.0344  0.1813  0.1518
  354TMC3     H 5360   1.139   0.190  13.653 -0.2545 -0.7805  0.4357
  354TMC3    H1 5361   1.434   4.625  13.584  0.3653  1.6469 -0.6997
  354TMC3    H2 5362   1.185   0.031  13.266 -1.1420 -0.1976  0.0581
  354TMC3    C7 5363   1.406   4.675  13.320  0.5949 -0.4173  0.9742
  354TMC3    C8 5364   1.104   0.238  13.391 -0.3168  0.7239 -0.0438
  354TMC3    O1 5365   1.419   0.030  13.236  0.1210 -0.5300 -0.2961
  354TMC3    O2 5366   1.061   0.235  13.275 -0.1332  0.0861 -0.2058
  355MPD2     C 5367   2.077   0.716  11.667  0.4908  0.2240 -0.1206
  355MPD2    C1 5368   2.086   0.811  11.769  0.1735  0.2548 -0.3603
  355MPD2    C2 5369   2.149   0.780  11.888 -0.4771  0.7058  0.3103
  355MPD2    C3 5370   2.203   0.656  11.904 -0.1633  0.1339  0.3152
  355MPD2    C4 5371   2.175   0.557  11.807 -0.5479 -0.3536 -0.2082
  355MPD2    C5 5372   2.118   0.590  11.686 -0.0615  0.0550  0.1910
  355MPD2     H 5373   2.160   0.858  11.963 -1.8688  1.3332 -0.1395
  355MPD2    H1 5374   2.209   0.454  11.818  1.4066  0.3958  0.9625
  355MPD2    H2 5375   2.042   0.744  11.568 -1.3012 -2.5904 -0.2718
  355MPD2    H3 5376   2.114   0.517  11.606  1.0618  0.1857  0.0139
  355MPD2     N 5377   2.283   0.612  12.013 -0.4565 -0.8249  0.2343
  355MPD2    H5 5378   2.289   0.511  12.021  0.8089 -0.8167 -0.6627
  355MPD2    N1 5379   2.068   0.946  11.725  0.3578  0.4968 -0.8424
  355MPD2    H7 5380   2.028   0.953  11.633 -0.8860 -2.1926 -0.5006
  356TMC3    C1 5381   2.348   0.826  12.098  0.5075  0.0246  0.0249
  356TMC3    C2 5382   2.410   0.888  11.993 -0.3779  0.2146 -0.6052
  356TMC3    C3 5383   2.419   1.026  11.997 -0.4159  0.1447  0.3544
  356TMC3    C4 5384   2.318   0.897  12.216 -0.0649 -0.0470 -0.7566
  356TMC3    C5 5385   2.333   1.032  12.218 -0.7226 -0.6032  0.9157
  356TMC3    C6 5386   2.378   1.100  12.108  0.1953 -0.0587  0.1303
  356TMC3     C 5387   2.335   0.684  12.112 -0.0030  0.6923  0.1808
  356TMC3     O 5388   2.368   0.630  12.215  0.0177  0.6829  0.4040
  356TMC3     H 5389   2.438   0.834  11.903  2.0608 -0.4145  0.5066
  356TMC3    H1 5390   2.273   0.851  12.302 -1.1630  0.1167 -1.2503
  356TMC3    H2 5391   2.372   1.208  12.106 -0.7652 -0.1091  0.4042
  356TMC3    C7 5392   2.286   1.108  12.336 -0.0891  0.0761  0.9299
  356TMC3    C8 5393   2.437   1.087  11.864  0.4829 -0.5107  0.2613
  356TMC3    O1 5394   2.197   1.067  12.409 -0.2373  0.8315 -0.0575
  356TMC3    O2 5395   2.428   1.013  11.767 -0.3301  0.0107  0.0632
  357MPD2     C 5396   0.083   1.008   1.887  0.5237 -0.2111 -0.7671
  357MPD2    C1 5397   0.158   0.983   1.772  0.0409  0.2159 -0.0700
  357MPD2    C2 5398   0.107   0.900   1.672 -0.2466 -0.3592  0.1879
  357MPD2    C3 5399   4.720   0.833   1.692 -0.1129  0.3254  0.5630
  357MPD2    C4 5400   4.635   0.874   1.791 -0.0168 -0.1423  0.3281
  357MPD2    C5 5401   4.686   0.965   1.885  0.1729 -0.1779 -0.4621
  357MPD2     H 5402   0.168   0.875   1.586 -0.1836  1.1796 -0.2108
  357MPD2    H1 5403   4.538   0.827   1.806 -0.8725  1.2646 -0.7904
  357MPD2    H2 5404   0.112   1.077   1.965 -1.0725 -1.3138  0.8117
  357MPD2    H3 5405   4.625   0.987   1.972  0.7589  1.8804 -0.5799
  357MPD2     N 5406   4.669   0.723   1.620 -0.1531  0.2434 -0.5092
  357MPD2    H5 5407   4.602   0.674   1.678  2.7823 -2.7541  0.3456
  357MPD2    N1 5408   0.292   1.028   1.766 -0.4027 -0.3560 -0.2764
  357MPD2    H7 5409   0.332   1.070   1.849 -0.7515 -2.7696  1.1057
  358TMC3    C1 5410   0.512   1.056   1.690  0.1164  0.1097  0.0071
  358TMC3    C2 5411   0.605   0.991   1.615  0.1926  0.5556 -0.1761
  358TMC3    C3 5412   0.734   1.040   1.621  0.3706  0.1761 -0.3532
  358TMC3    C4 5413   0.542   1.137   1.797 -0.1527 -0.3250 -0.3578
  358TMC3    C5 5414   0.676   1.174   1.806 -0.6493 -0.0438 -0.0475
  358TMC3    C6 5415   0.772   1.123   1.726  0.1984  0.9977 -0.2730
  358TMC3     C 5416   0.374   1.013   1.660 -0.6217 -0.0636 -0.0561
  358TMC3     O 5417   0.358   0.986   1.543  0.0566  0.6723 -0.6074
  358TMC3     H 5418   0.581   0.914   1.543 -0.8725  2.0104 -1.3702
  358TMC3    H1 5419   0.462   1.198   1.839  0.9894  0.2611  0.9442
  358TMC3    H2 5420   0.872   1.164   1.726  0.9781 -0.8861 -0.5944
  358TMC3    C7 5421   0.714   1.270   1.902 -0.6563  0.0499  0.4551
  358TMC3    C8 5422   0.810   1.028   1.506 -0.2724  0.0024 -0.3490
  358TMC3    O1 5423   0.826   1.313   1.891  0.0715 -0.1102  0.4542
  358TMC3    O2 5424   0.754   0.966   1.420 -0.3415  0.3666 -0.2815
  359MPD2     C 5425   1.633   0.558  12.258 -0.1057 -0.0271  0.1650
  359MPD2    C1 5426   1.674   0.431  12.252 -0.3734 -0.2681  0.2383
  359MPD2    C2 5427   1.678   0.368  12.374 -0.2652  0.5258 -0.1190
  359MPD2    C3 5428   1.634   0.427  12.493  0.7247  0.3495 -0.0325
  359MPD2    C4 5429   1.584   0.558  12.487  0.1504 -0.1613  0.1228
  359MPD2    C5 5430   1.582   0.623  12.370  0.7114  0.2277 -0.3672
  359MPD2     H 5431   1.715   0.267  12.367 -2.5570 -0.3107 -0.4111
  359MPD2    H1 5432   1.536   0.610  12.569 -1.5811 -0.3918 -0.7632
  359MPD2    H2 5433   1.636   0.620  12.169  0.6299 -0.3441 -0.0295
  359MPD2    H3 5434   1.548   0.726  12.371  0.6831  0.2160  0.1688
  359MPD2     N 5435   1.633   0.338  12.609 -0.4610 -0.1111  0.7533
  359MPD2    H5 5436   1.668   0.243  12.598 -0.5093 -0.0544  0.0958
  359MPD2    N1 5437   1.720   0.364  12.135 -0.0030 -0.1685 -0.6632
  359MPD2    H7 5438   1.729   0.263  12.148  0.9144  0.3161  2.4371
  360TMC3    C1 5439   1.798   0.316  11.919  0.1627  0.1437 -0.0828
  360TMC3    C2 5440   1.869   0.356  11.811 -0.1664 -0.3593  0.2398
  360TMC3    C3 5441   1.875   0.267  11.703 -0.7304 -0.4807  0.7742
  360TMC3    C4 5442   1.739   0.193  11.927  0.0483  0.3710  0.2230
  360TMC3    C5 5443   1.733   0.115  11.812  0.4975  0.0151 -0.0533
  360TMC3    C6 5444   1.801   0.153  11.695  0.8959 -0.6534 -0.3988
  360TMC3     C 5445   1.763   0.417  12.015  0.1253  0.1326  0.6926
  360TMC3     O 5446   1.798   0.532  11.989 -0.2715 -0.3101 -0.4160
  360TMC3     H 5447   1.887   0.462  11.793 -0.5136 -0.5132 -1.0231
  360TMC3    H1 5448   1.691   0.163  12.019  1.3482 -3.0655 -0.2343
  360TMC3    H2 5449   1.793   0.093  11.605  1.1818  0.2908 -1.0438
  360TMC3    C7 5450   1.619   0.026  11.791 -0.6950 -0.6086 -0.2759
  360TMC3    C8 5451   1.892   0.319  11.573 -0.5648 -0.4504 -0.4953
  360TMC3    O1 5452   1.626   4.684  11.694  0.5372 -0.0490  0.4681
  360TMC3    O2 5453   1.830   0.417  11.535  0.0414 -0.6117  0.0070
  361MPD2     C 5454   3.658   3.482  16.481 -0.1947  0.3045  0.2061
  361MPD2    C1 5455   3.611   3.493  16.608  0.2898  0.4616  0.7800
  361MPD2    C2 5456   3.701   3.485  16.715  0.6113 -0.5927  0.3901
  361MPD2    C3 5457   3.826   3.448  16.689 -0.5993  0.2951 -0.2889
  361MPD2    C4 5458   3.867   3.433  16.562  0.0297  0.4681 -0.1536
  361MPD2    C5 5459   3.785   3.443  16.454 -0.1729  0.2043 -0.3545
  361MPD2     H 5460   3.657   3.498  16.813  1.5908 -2.4130  1.0875
  361MPD2    H1 5461   3.973   3.415  16.544  0.4683  1.0659  1.8147
  361MPD2    H2 5462   3.598   3.486  16.391  1.1714  0.2529 -0.7073
  361MPD2    H3 5463   3.826   3.445  16.354  0.6130 -0.2778 -0.0361
  361MPD2     N 5464   3.928   3.405  16.783  0.2065 -0.5509  0.5874
  361MPD2    H5 5465   4.005   3.360  16.735  1.3749 -0.4578  2.3630
  361MPD2    N1 5466   3.473   3.531  16.623  0.1950  0.4677  0.3370
  361MPD2    H7 5467   3.455   3.579  16.711  1.4766  0.4771  0.5955
  362TMC3    C1 5468   3.250   3.590  16.585 -0.0680  0.1929  0.7962
  362TMC3    C2 5469   3.213   3.584  16.715 -1.3849 -0.4515  0.8616
  362TMC3    C3 5470   3.082   3.603  16.751 -0.6711 -0.1621 -0.0457
  362TMC3    C4 5471   3.156   3.592  16.483 -0.0469  0.0844  0.0510
  362TMC3    C5 5472   3.027   3.614  16.525 -0.0573 -0.0131  0.3639
  362TMC3    C6 5473   2.991   3.625  16.657 -0.9682 -0.5348  0.0163
  362TMC3     C 5474   3.366   3.507  16.541 -0.0347 -0.2368  0.4804
  362TMC3     O 5475   3.361   3.460  16.427 -0.0498 -0.5821  0.6448
  362TMC3     H 5476   3.294   3.565  16.785 -1.5959  0.8225  1.4716
  362TMC3    H1 5477   3.178   3.597  16.377 -0.2548  2.6511  0.1122
  362TMC3    H2 5478   2.886   3.646  16.675 -0.4772 -0.6533  3.0177
  362TMC3    C7 5479   2.927   3.650  16.428  0.2395 -0.5534 -0.1185
  362TMC3    C8 5480   3.055   3.579  16.892  0.8248  0.0715 -1.1718
  362TMC3    O1 5481   2.840   3.725  16.463 -0.2074  0.5095  0.5116
  362TMC3    O2 5482   3.114   3.489  16.945 -0.5793 -0.1221  0.1922
  363TMC3    C1 5483   1.798   1.809   9.415 -0.0597  0.8377 -0.0031
  363TMC3    C2 5484   1.927   1.758   9.416 -0.0933  0.6980 -0.2984
  363TMC3    C3 5485   2.020   1.832   9.483  0.1210  0.2701  0.8245
  363TMC3    C4 5486   1.769   1.931   9.476 -0.5923 -0.9837  0.0852
  363TMC3    C5 5487   1.871   2.001   9.521 -0.1034 -0.2311  0.6867
  363TMC3    C6 5488   1.996   1.952   9.537 -1.3935  0.2125 -0.5970
  363TMC3     C 5489   1.707   1.738   9.327 -0.1873 -0.5011 -0.6128
  363TMC3     O 5490   1.746   1.627   9.287  1.0144  0.1522  0.4370
  363TMC3     H 5491   1.958   1.675   9.353  1.7339  1.7059 -0.7252
  363TMC3    H1 5492   1.675   1.981   9.456  0.5433 -0.0604 -2.9671
  363TMC3    H2 5493   2.072   2.003   9.594 -0.0506 -0.1869 -2.0181
  363TMC3    C7 5494   1.848   2.122   9.598 -0.7324  0.7837  1.0321
  363TMC3    C8 5495   2.149   1.772   9.504  0.2180  0.0485 -0.1045
  363TMC3    O1 5496   1.938   2.199   9.619 -0.3183 -0.2251 -0.2304
  363TMC3    O2 5497   2.239   1.847   9.542 -0.3781  0.1165  0.4435
  364MPD2     C 5498   0.345   1.256  10.606 -0.5863 -1.2841 -0.0806
  364MPD2    C1 5499   0.462   1.192  10.581  0.4950  0.2673  0.5348
  364MPD2    C2 5500   0.490   1.075  10.653 -0.5148  0.1282 -0.2859
  364MPD2    C3 5501   0.397   1.018  10.734  0.3227  0.4198  0.1758
  364MPD2    C4 5502   0.274   1.078  10.749 -0.7047  0.2227  0.3425
  364MPD2    C5 5503   0.249   1.195  10.684  1.1752  0.1824  0.0028
  364MPD2     H 5504   0.584   1.025  10.633 -0.6607 -1.2385  2.4148
  364MPD2    H1 5505   0.196   1.033  10.809 -0.3328  1.4698  1.7547
  364MPD2    H2 5506   0.319   1.349  10.556 -1.2937 -1.6438 -0.3807
  364MPD2    H3 5507   0.160   1.250  10.713  1.0505  1.2707 -2.4726
  364MPD2     N 5508   0.426   0.906  10.818  1.1409  0.5813  0.2333
  364MPD2    H5 5509   0.348   0.859  10.864  0.3024  2.3909  0.6583
  364MPD2    N1 5510   0.562   1.249  10.499  0.1638 -0.6457 -0.0010
  364MPD2    H7 5511   0.544   1.341  10.460  0.9827  0.4344  2.1826
  365TMC3    C1 5512   0.753   1.266  10.367  0.0135  0.2659 -0.5527
  365TMC3    C2 5513   0.858   1.205  10.300  0.3270 -0.1812  0.8918
  365TMC3    C3 5514   0.953   1.288  10.237 -0.2173 -0.2193  0.1155
  365TMC3    C4 5515   0.743   1.401  10.373  0.5954 -0.1511 -0.3100
  365TMC3    C5 5516   0.833   1.479  10.301  0.4143 -0.0675  0.3364
  365TMC3    C6 5517   0.937   1.426  10.232 -0.7228  0.1949 -0.4498
  365TMC3     C 5518   0.676   1.181  10.459  0.0619 -0.0575 -0.7338
  365TMC3     O 5519   0.715   1.066  10.467 -0.1586 -0.0960 -0.3768
  365TMC3     H 5520   0.870   1.097  10.296 -1.6709 -0.4532  2.2601
  365TMC3    H1 5521   0.667   1.460  10.422  0.3485 -2.3376  1.9109
  365TMC3    H2 5522   1.005   1.486  10.172  1.3497 -3.6470 -1.9807
  365TMC3    C7 5523   0.841   1.619  10.336 -0.0490  0.3233  1.3203
  365TMC3    C8 5524   1.022   1.228  10.129 -0.5579  0.2335  0.9770
  365TMC3    O1 5525   0.898   1.691  10.257  0.5135  0.3944 -0.2938
  365TMC3    O2 5526   1.044   1.295  10.030  0.0448  0.3868  0.2578
  366MPD2     C 5527   3.815   1.271  15.718 -0.8116 -0.5332 -0.2366
  366MPD2    C1 5528   3.945   1.308  15.720 -0.7333 -0.5404  0.5101
  366MPD2    C2 5529   4.044   1.214  15.748  0.3369 -0.1602  0.3265
  366MPD2    C3 5530   4.015   1.090  15.791 -0.3738 -0.8367  0.1412
  366MPD2    C4 5531   3.885   1.060  15.806 -0.3428 -0.0965 -0.4868
  366MPD2    C5 5532   3.782   1.146  15.774 -0.5307  0.7926  0.1026
  366MPD2     H 5533   4.148   1.242  15.736 -0.0311  1.8579  1.9115
  366MPD2    H1 5534   3.854   0.962  15.840  0.7843 -0.3589 -0.2320
  366MPD2    H2 5535   3.738   1.336  15.678  0.1521  0.2703 -0.7897
  366MPD2    H3 5536   3.682   1.110  15.797 -1.4531  1.7934 -2.3884
  366MPD2     N 5537   4.124   0.999  15.809  0.2382 -0.1654 -0.5498
  366MPD2    H5 5538   4.217   1.034  15.828 -1.0632  4.1343 -2.2450
  366MPD2    N1 5539   3.986   1.433  15.659  0.2239 -0.0101  0.2829
  366MPD2    H7 5540   4.082   1.450  15.631  0.9911 -1.7805  1.8332
  367TMC3    C1 5541   3.984   1.656  15.576 -0.3248 -0.1073  0.1819
  367TMC3    C2 5542   4.103   1.686  15.629 -0.6367 -0.3224  0.1667
  367TMC3    C3 5543   4.141   1.815  15.640 -0.0857 -0.5585  0.0796
  367TMC3    C4 5544   3.908   1.748  15.512  1.2870  0.7249  0.5398
  367TMC3    C5 5545   3.951   1.881  15.516  0.0200  0.8080 -0.1704
  367TMC3    C6 5546   4.070   1.910  15.575  0.3362  0.3791 -0.2459
  367TMC3     C 5547   3.906   1.537  15.617  0.6206 -0.2579 -1.7695
  367TMC3     O 5548   3.784   1.548  15.607 -0.3027  0.1310 -0.4549
  367TMC3     H 5549   4.162   1.611  15.681  0.2530  0.3032  0.0503
  367TMC3    H1 5550   3.815   1.714  15.468  1.1502  2.2122 -0.3275
  367TMC3    H2 5551   4.097   2.013  15.595  1.0706 -0.1374  1.3884
  367TMC3    C7 5552   3.870   1.985  15.458  0.4121  0.4243  0.1678
  367TMC3    C8 5553   4.278   1.845  15.662 -0.0082  0.1807  0.7458
  367TMC3    O1 5554   3.917   2.099  15.448 -0.5092 -0.5139 -0.2029
  367TMC3    O2 5555   4.333   1.769  15.749 -0.0330 -0.7704 -0.4166
  368MPD2     C 5556   1.012   3.657  13.019  0.4786 -0.0196 -0.0124
  368MPD2    C1 5557   0.938   3.754  12.954  0.1316 -0.8099 -1.0898
  368MPD2    C2 5558   0.990   3.805  12.838  0.3785 -0.0316  0.8033
  368MPD2    C3 5559   1.109   3.757  12.790 -0.3760 -0.5533  0.7889
  368MPD2    C4 5560   1.176   3.660  12.854  0.2512 -0.4267 -0.6313
  368MPD2    C5 5561   1.125   3.602  12.969  0.3105  0.0606 -1.2036
  368MPD2     H 5562   0.939   3.885  12.785  2.2123  0.5603 -0.0821
  368MPD2    H1 5563   1.273   3.624  12.821  1.4161  1.2803  0.8636
  368MPD2    H2 5564   0.973   3.625  13.115 -1.1433 -1.2947 -1.1094
  368MPD2    H3 5565   1.172   3.516  13.015  0.7797  0.1922 -1.4294
  368MPD2     N 5566   1.173   3.810  12.677  0.4729  0.1653  0.3131
  368MPD2    H5 5567   1.268   3.785  12.654 -0.0492  0.0844 -1.7722
  368MPD2    N1 5568   0.816   3.794  13.004  0.0772 -0.5699 -0.0167
  368MPD2    H7 5569   0.785   3.759  13.094  2.0819 -0.6347  0.6379
  369TMC3    C1 5570   0.598   3.894  13.001  0.9006 -0.2528  0.8997
  369TMC3    C2 5571   0.526   4.003  12.955 -0.0707  0.0186 -0.3245
  369TMC3    C3 5572   0.409   4.024  13.025  0.7814 -0.2356  0.1640
  369TMC3    C4 5573   0.557   3.804  13.089  0.0354  0.0456  0.5852
  369TMC3    C5 5574   0.430   3.826  13.142 -0.1234 -0.5615  0.4685
  369TMC3    C6 5575   0.353   3.930  13.104 -0.0302 -0.5672  0.1987
  369TMC3     C 5576   0.727   3.878  12.936  0.1271  0.3940 -0.5390
  369TMC3     O 5577   0.730   3.929  12.823  0.4001 -0.4957  0.3394
  369TMC3     H 5578   0.568   4.076  12.887  1.0282 -0.2719  0.0344
  369TMC3    H1 5579   0.602   3.706  13.103  2.8982  1.1607 -0.8232
  369TMC3    H2 5580   0.271   3.958  13.170  1.3941  1.5300  1.0995
  369TMC3    C7 5581   0.361   3.712  13.208 -0.4637  0.0875 -0.1625
  369TMC3    C8 5582   0.347   4.154  12.996  0.6798 -0.4318 -0.0560
  369TMC3    O1 5583   0.274   3.742  13.288  0.1233 -0.2369  0.2323
  369TMC3    O2 5584   0.403   4.211  12.904  0.1686  0.3542 -0.0569
  370TMC3    C1 5585   0.009   4.430  16.382  0.1532  0.0825  0.8049
  370TMC3    C2 5586   4.678   4.367  16.488  0.4534  0.4787  0.0409
  370TMC3    C3 5587   4.635   4.237  16.475 -0.1834 -0.9355 -0.2048
  370TMC3    C4 5588   0.011   4.363  16.265 -0.0138 -0.4856 -0.7561
  370TMC3    C5 5589   4.708   4.232  16.254  0.2019  0.0814 -0.0674
  370TMC3    C6 5590   4.642   4.169  16.358  0.1199  0.2725  0.0678
  370TMC3     C 5591   0.104   4.536  16.413  0.0419 -0.3121 -0.2410
  370TMC3     O 5592   0.121   4.556  16.532 -0.6835 -0.4564  0.1180
  370TMC3     H 5593   4.687   4.411  16.587  1.0389  2.1607 -0.7506
  370TMC3    H1 5594   0.059   4.408  16.179  1.1740 -0.0746  0.1134
  370TMC3    H2 5595   4.597   4.072  16.345  0.3387  0.4443 -1.9739
  370TMC3    C7 5596   4.729   4.158  16.135 -0.9019  0.0797  0.2701
  370TMC3    C8 5597   4.581   4.157  16.588 -0.5314  0.1427 -0.2988
  370TMC3    O1 5598   0.032   4.222  16.037 -0.1167 -0.5437  0.7128
  370TMC3    O2 5599   4.588   4.031  16.577 -0.4394  0.0962  0.0895
  371TMC3    C1 5600   0.913   2.590  15.387 -0.0847 -0.1020 -0.1276
  371TMC3    C2 5601   0.857   2.640  15.504  0.1771 -0.0578  0.4645
  371TMC3    C3 5602   0.870   2.772  15.525 -0.0898  0.4009  0.2166
  371TMC3    C4 5603   0.962   2.667  15.282  0.5037 -0.4973 -0.2708
  371TMC3    C5 5604   0.981   2.798  15.314  0.8900 -0.1177  0.1788
  371TMC3    C6 5605   0.928   2.852  15.427  0.0501  0.4585  0.5152
  371TMC3     C 5606   0.977   2.456  15.400  0.2085 -0.7326 -0.8825
  371TMC3     O 5607   1.086   2.429  15.351  1.0524 -0.2911  0.6223
  371TMC3     H 5608   0.833   2.567  15.580  1.0262 -2.7568 -1.8387
  371TMC3    H1 5609   0.979   2.615  15.188 -0.6021  1.7807 -1.7158
  371TMC3    H2 5610   0.956   2.954  15.451 -1.6979  1.0262  0.1329
  371TMC3    C7 5611   1.028   2.893  15.210 -0.6350 -0.7703  0.0946
  371TMC3    C8 5612   0.910   2.793  15.661  0.0612  0.0577 -0.5116
  371TMC3    O1 5613   0.994   3.011  15.230  0.3795  0.1513  0.3318
  371TMC3    O2 5614   0.961   2.702  15.723  0.3965  0.0757  0.0983
  372MPD2     C 5615   0.802   4.194  13.089 -0.3400  0.0189  0.3489
  372MPD2    C1 5616   0.851   4.129  13.198  0.2396 -0.5164  0.0061
  372MPD2    C2 5617   0.780   4.120  13.315 -0.5972 -1.0235 -0.2966
  372MPD2    C3 5618   0.651   4.163  13.319 -0.4348 -0.0193 -0.2079
  372MPD2    C4 5619   0.601   4.234  13.212  0.3777  0.3921  0.1608
  372MPD2    C5 5620   0.670   4.240  13.095  0.1088  0.2369 -0.6604
  372MPD2     H 5621   0.826   4.072  13.401  1.2348 -0.9009 -1.1984
  372MPD2    H1 5622   0.500   4.272  13.208  0.5277  1.0161  2.2299
  372MPD2    H2 5623   0.854   4.211  12.996  0.5539 -1.1305  0.6378
  372MPD2    H3 5624   0.624   4.283  13.007 -1.5474 -0.0300  0.0784
  372MPD2     N 5625   0.587   4.138  13.440 -0.2818 -0.5363 -0.5283
  372MPD2    H5 5626   0.640   4.117  13.524 -1.9292  1.9796  1.1582
  372MPD2    N1 5627   0.979   4.066  13.197 -0.4927  0.3666 -0.8758
  372MPD2    H7 5628   1.020   4.038  13.285  0.2044  0.0293 -1.3113
  373TMC3    C1 5629   0.406   4.102  13.579 -0.2828  0.1127 -0.2197
  373TMC3    C2 5630   0.471   4.153  13.692  0.1510 -1.0645  0.2817
  373TMC3    C3 5631   0.516   4.070  13.789  0.0713 -0.3277  0.3545
  373TMC3    C4 5632   0.405   3.965  13.563 -0.1840  0.5167  0.1863
  373TMC3    C5 5633   0.454   3.887  13.663  0.2848 -0.1925 -0.0250
  373TMC3    C6 5634   0.509   3.935  13.776 -0.3364  0.2281 -0.3619
  373TMC3     C 5635   0.447   4.152  13.448  0.1094  0.4394 -0.5948
  373TMC3     O 5636   0.363   4.151  13.362 -0.0473  0.1507 -0.2064
  373TMC3     H 5637   0.479   4.261  13.695  0.0236 -1.0482  0.0308
  373TMC3    H1 5638   0.372   3.931  13.466 -0.6765 -1.5860  1.0843
  373TMC3    H2 5639   0.542   3.875  13.861  2.0201  1.9617 -0.0635
  373TMC3    C7 5640   0.487   3.751  13.623 -0.5375 -0.0340  0.0435
  373TMC3    C8 5641   0.542   4.137  13.917 -0.1608 -0.4129  0.5721
  373TMC3    O1 5642   0.485   3.726  13.500  0.4641 -0.1888 -1.2768
  373TMC3    O2 5643   0.456   4.208  13.967  0.2335 -0.3209 -0.4691
  374TMC3    C1 5644   1.259   3.699   9.537  0.2306 -0.1577  0.1243
  374TMC3    C2 5645   1.310   3.817   9.575 -0.2345 -0.5196  0.1526
  374TMC3    C3 5646   1.386   3.884   9.484 -0.2259 -0.2996 -0.4175
  374TMC3    C4 5647   1.291   3.644   9.412 -0.2717 -0.5228  0.0158
  374TMC3    C5 5648   1.374   3.711   9.330 -0.1277  0.6151  0.1194
  374TMC3    C6 5649   1.428   3.833   9.363  0.1960  0.1345  0.0541
  374TMC3     C 5650   1.160   3.635   9.616 -0.5371  0.1234  1.0342
  374TMC3     O 5651   1.082   3.560   9.559 -1.0147  0.0732 -0.0699
  374TMC3     H 5652   1.289   3.870   9.667  1.6635  1.0509 -0.3204
  374TMC3    H1 5653   1.252   3.547   9.382  0.5671 -0.4056 -1.4650
  374TMC3    H2 5654   1.483   3.886   9.286 -0.8366 -1.0823 -1.5284
  374TMC3    C7 5655   1.422   3.643   9.213 -0.1582  0.1699 -0.1036
  374TMC3    C8 5656   1.405   4.026   9.493 -0.4300  0.1694  0.2275
  374TMC3    O1 5657   1.365   3.540   9.184 -0.4363  0.2589  0.5039
  374TMC3    O2 5658   1.424   4.071   9.379  0.8276 -0.2923 -0.1741
  375MPD2     C 5659   1.404   0.402  17.149 -0.1038 -0.0351  0.4242
  375MPD2    C1 5660   1.272   0.379  17.133 -1.0781 -0.5608 -0.2044
  375MPD2    C2 5661   1.231   0.266  17.062  0.3943 -0.5969  0.1366
  375MPD2    C3 5662   1.318   0.167  17.018 -0.6546  0.2676 -0.6812
  375MPD2    C4 5663   1.452   0.190  17.040  0.2908 -0.4575 -0.3621
  375MPD2    C5 5664   1.495   0.306  17.107  0.1871 -0.6416 -0.3880
  375MPD2     H 5665   1.126   0.261  17.037 -0.0787  1.8146  1.6674
  375MPD2    H1 5666   1.537   0.130  17.010  0.4570  0.1311 -1.0621
  375MPD2    H2 5667   1.447   0.495  17.185 -0.9594  0.3775  0.3904
  375MPD2    H3 5668   1.595   0.339  17.130  0.7556 -3.0950  0.5797
  375MPD2     N 5669   1.271   0.050  16.945 -0.5993  0.0350 -0.1374
  375MPD2    H5 5670   1.178   0.051  16.906 -0.1473  2.1446 -1.1857
  375MPD2    N1 5671   1.176   0.467  17.160 -0.2232 -0.0181 -0.7873
  375MPD2    H7 5672   1.080   0.448  17.135 -0.8667  2.0862  0.0911
  376TMC3    C1 5673   1.265   4.590  16.816 -0.3448  0.6078  0.4178
  376TMC3    C2 5674   1.342   4.493  16.753  0.6071 -0.0069 -0.3461
  376TMC3    C3 5675   1.287   4.441  16.639  0.6742  0.0892 -0.1886
  376TMC3    C4 5676   1.144   4.632  16.769  0.7298  1.0909 -0.3315
  376TMC3    C5 5677   1.100   4.580  16.650 -0.1645 -0.8202 -0.0913
  376TMC3    C6 5678   1.175   4.485  16.582 -0.0216 -0.4455 -0.2991
  376TMC3     C 5679   1.344   4.679  16.910  0.3283  0.7926  0.6340
  376TMC3     O 5680   1.462   4.648  16.927  0.1066  0.1922  0.2657
  376TMC3     H 5681   1.428   4.446  16.799 -0.4114 -1.2736  0.2547
  376TMC3    H1 5682   1.080   4.714  16.803  1.6635  1.4934  0.4700
  376TMC3    H2 5683   1.145   4.456  16.482  2.3353  2.2374 -1.7990
  376TMC3    C7 5684   1.009   4.666  16.573 -0.2316 -0.7833  0.3808
  376TMC3    C8 5685   1.384   4.364  16.563 -0.0029 -0.1723 -0.3207
  376TMC3    O1 5686   1.024   0.053  16.576 -0.1831 -0.3274  0.9804
  376TMC3    O2 5687   1.501   4.360  16.603  1.3678  0.1751 -0.2869
  377MPD2     C 5688   0.112   3.912  12.675 -0.7251 -0.2529 -0.4243
  377MPD2    C1 5689   4.718   3.901  12.658 -0.3140 -0.0248 -0.6338
  377MPD2    C2 5690   4.643   3.858  12.765 -0.2472  0.2220  0.3586
  377MPD2    C3 5691   4.693   3.836  12.890 -0.2574 -0.4616 -0.7160
  377MPD2    C4 5692   0.094   3.840  12.900 -0.3854  0.2347 -0.2613
  377MPD2    C5 5693   0.171   3.883  12.799 -0.1950  0.0257 -0.9422
  377MPD2     H 5694   4.536   3.861  12.748  0.1814  0.1508 -2.3485
  377MPD2    H1 5695   0.143   3.829  12.997  0.1236  1.2283 -0.4128
  377MPD2    H2 5696   0.175   3.938  12.591 -1.5485 -0.8883 -1.2411
  377MPD2    H3 5697   0.278   3.885  12.812 -0.3690 -1.1143  0.6259
  377MPD2     N 5698   4.610   3.821  13.004 -0.3054 -0.8058 -0.0345
  377MPD2    H5 5699   4.665   3.813  13.089 -0.6963 -0.5716  0.2413
  377MPD2    N1 5700   4.665   3.940  12.532  0.3023  0.1696 -0.0819
  377MPD2    H7 5701   4.729   3.976  12.462 -0.6323 -1.5407 -1.8216
  378TMC3    C1 5702   4.394   4.208  12.279  0.5217  0.5777 -0.2017
  378TMC3    C2 5703   4.400   4.110  12.380 -0.4404 -0.1920 -0.2766
  378TMC3    C3 5704   4.508   4.028  12.372  0.4719  0.2881 -0.4780
  378TMC3    C4 5705   4.490   4.238  12.192  0.5468 -0.7984 -0.4137
  378TMC3    C5 5706   4.608   4.167  12.205 -0.0848 -0.3358 -0.0212
  378TMC3    C6 5707   4.621   4.060  12.292 -0.0793  0.4220 -1.1185
  378TMC3     C 5708   4.265   4.273  12.270  0.9173  0.1003  0.1422
  378TMC3     O 5709   4.172   4.217  12.327  0.4041 -0.4771  0.0392
  378TMC3     H 5710   4.319   4.100  12.451 -0.8005  0.7581 -0.5513
  378TMC3    H1 5711   4.471   4.302  12.107 -1.7814  1.0597  1.5164
  378TMC3    H2 5712   4.720   4.017  12.285 -1.5179 -3.2610  1.2528
  378TMC3    C7 5713   4.714   4.201  12.111  0.2305 -0.6171 -0.4325
  378TMC3    C8 5714   4.531   3.951  12.496  0.1376  1.0251  0.3799
  378TMC3    O1 5715   0.049   4.105  12.074  0.2227 -0.7979 -0.5951
  378TMC3    O2 5716   4.429   3.909  12.546 -0.5356 -0.5872 -0.4948
  379MPD2     C 5717   0.136   1.888  16.604 -0.5555  0.3721 -0.2186
  379MPD2    C1 5718   0.219   1.964  16.523 -0.7259 -0.7132 -0.0973
  379MPD2    C2 5719   0.297   2.067  16.580  0.0681 -0.7076 -0.4046
  379MPD2    C3 5720   0.292   2.089  16.717  0.1375  0.0763 -0.0121
  379MPD2    C4 5721   0.196   2.015  16.791 -0.1353 -0.0283  0.3045
  379MPD2    C5 5722   0.115   1.924  16.736 -0.1578  1.0206  0.0261
  379MPD2     H 5723   0.351   2.127  16.509 -1.1685  2.0445  1.0005
  379MPD2    H1 5724   0.190   2.028  16.899  1.7660 -1.4850  0.5797
  379MPD2    H2 5725   0.070   1.814  16.560  0.9280 -0.5641 -0.8752
  379MPD2    H3 5726   0.031   1.894  16.797  0.4953 -1.5530 -0.3670
  379MPD2     N 5727   0.378   2.181  16.779 -0.1251 -0.4048 -0.2588
  379MPD2    H5 5728   0.362   2.192  16.878  0.0557  1.8034 -0.4886
  379MPD2    N1 5729   0.227   1.948  16.382 -0.9638 -0.2981  0.0963
  379MPD2    H7 5730   0.302   2.001  16.339 -2.2772  1.4578 -0.0200
  380TMC3    C1 5731   0.204   1.851  16.175  0.1417 -0.6738 -0.1289
  380TMC3    C2 5732   0.343   1.853  16.171  0.4057  0.0100 -0.3839
  380TMC3    C3 5733   0.403   1.902  16.057 -0.1036 -0.2213  0.5691
  380TMC3    C4 5734   0.124   1.900  16.077 -0.2897 -0.0444  0.1073
  380TMC3    C5 5735   0.191   1.943  15.966  0.4917  0.2115 -0.4002
  380TMC3    C6 5736   0.326   1.933  15.947 -0.9870 -0.1292 -0.0571
  380TMC3     C 5737   0.143   1.867  16.309 -0.0754  0.1237 -0.4273
  380TMC3     O 5738   0.037   1.809  16.336  0.3463  0.2699  0.1295
  380TMC3     H 5739   0.402   1.835  16.261 -1.0543 -4.1522 -0.2584
  380TMC3    H1 5740   0.020   1.924  16.092 -0.3509 -0.8666  1.0076
  380TMC3    H2 5741   0.370   1.969  15.854 -0.0913 -0.0874  0.3851
  380TMC3    C7 5742   0.128   2.034  15.874  0.4486 -0.5238 -0.2425
  380TMC3    C8 5743   0.545   1.956  16.059  0.4775  0.0294  0.5394
  380TMC3    O1 5744   0.183   2.132  15.824 -0.0158 -0.4705 -0.5326
  380TMC3    O2 5745   0.582   1.968  15.943  0.6594  0.7530 -0.1831
  381TMC3    C1 5746   4.711   3.438  16.510  1.4960  0.2782 -0.6586
  381TMC3    C2 5747   0.074   3.522  16.555 -0.5041 -0.1133 -0.4557
  381TMC3    C3 5748   0.043   3.655  16.569 -0.0296 -0.4661 -0.5029
  381TMC3    C4 5749   4.574   3.468  16.508 -0.0167 -0.0677  0.1959
  381TMC3    C5 5750   4.548   3.598  16.534  0.3203 -0.3134  0.0855
  381TMC3    C6 5751   4.647   3.688  16.558  0.0974 -0.3245 -0.2512
  381TMC3     C 5752   0.020   3.325  16.433 -0.1814  0.4796  0.5655
  381TMC3     O 5753   0.122   3.269  16.458  0.0028 -0.1582  0.2982
  381TMC3     H 5754   0.178   3.491  16.566 -0.6755 -1.1964 -1.8366
  381TMC3    H1 5755   4.491   3.406  16.475 -1.0895  0.3681  2.0683
  381TMC3    H2 5756   4.625   3.793  16.574 -1.8020 -0.5567 -1.3156
  381TMC3    C7 5757   4.408   3.637  16.530 -0.1679 -0.6005  0.2614
  381TMC3    C8 5758   0.148   3.751  16.548  0.0284  0.1866  0.7711
  381TMC3    O1 5759   4.332   3.539  16.510 -0.0247 -0.3632 -1.2712
  381TMC3    O2 5760   0.246   3.719  16.479 -0.6337  0.2584 -0.0268
  382MPD2     C 5761   4.011   0.807  16.500  0.0582 -0.9645 -0.5639
  382MPD2    C1 5762   3.980   0.855  16.629  0.2717 -0.7626 -0.2855
  382MPD2    C2 5763   3.939   0.761  16.727 -0.7432  0.3160 -0.1005
  382MPD2    C3 5764   3.896   0.637  16.689 -0.3883 -0.1546 -0.1725
  382MPD2    C4 5765   3.914   0.601  16.556  0.3945  0.3643  0.2197
  382MPD2    C5 5766   3.959   0.683  16.464 -0.4020 -0.6445  0.6802
  382MPD2     H 5767   3.942   0.795  16.830  1.4521 -1.1700  0.3318
  382MPD2    H1 5768   3.883   0.501  16.528  0.0637  0.8413 -1.1335
  382MPD2    H2 5769   4.062   0.866  16.424  2.2868  0.3080  1.9161
  382MPD2    H3 5770   3.970   0.655  16.359  0.7739  0.2483  0.5633
  382MPD2     N 5771   3.837   0.538  16.776  0.5816  0.6272  0.1348
  382MPD2    H5 5772   3.820   0.448  16.733  2.7724  0.0201  0.5579
  382MPD2    N1 5773   4.020   0.988  16.674  0.4533 -0.2785 -0.5147
  382MPD2    H7 5774   4.018   1.011  16.773  2.2895  1.2077 -0.8120
  383TMC3    C1 5775   3.772   0.448  16.981 -0.6421 -0.0644 -0.4707
  383TMC3    C2 5776   3.691   0.360  16.919 -0.1296 -0.1548 -0.0861
  383TMC3    C3 5777   3.657   0.255  16.993 -0.7774 -1.4214  0.2015
  383TMC3    C4 5778   3.823   0.446  17.104 -0.7565  0.4685  0.2703
  383TMC3    C5 5779   3.786   0.337  17.171 -0.0882  0.5721 -0.4724
  383TMC3    C6 5780   3.698   0.244  17.125 -0.0668  0.0782  0.0920
  383TMC3     C 5781   3.810   0.566  16.907 -0.1947 -1.1094  0.8983
  383TMC3     O 5782   3.850   0.661  16.972  0.2696  0.5778 -0.1543
  383TMC3     H 5783   3.652   0.382  16.820  0.6723 -0.7109 -0.5305
  383TMC3    H1 5784   3.877   0.530  17.147 -0.3337  1.6733 -2.6233
  383TMC3    H2 5785   3.683   0.156  17.187 -0.1863  2.1807  3.0732
  383TMC3    C7 5786   3.818   0.327  17.314 -0.4435 -0.3875 -0.1597
  383TMC3    C8 5787   3.555   0.169  16.934  0.4349 -0.3665 -0.1029
  383TMC3    O1 5788   3.767   0.235  17.380  0.6970 -0.4609  0.6055
  383TMC3    O2 5789   3.492   0.224  16.841  0.9480  0.6922  0.0799
  384MPD2     C 5790   0.739   2.378  12.044 -0.1238  0.4077  0.3953
  384MPD2    C1 5791   0.794   2.294  12.123 -0.2904  0.1173 -0.1452
  384MPD2    C2 5792   0.919   2.249  12.099 -0.3072  0.0428 -0.2838
  384MPD2    C3 5793   0.984   2.272  11.973 -1.0401  0.4621 -0.0493
  384MPD2    C4 5794   0.926   2.358  11.890 -0.0716  0.2726  0.0565
  384MPD2    C5 5795   0.802   2.416  11.931  0.0293  0.6271  0.2076
  384MPD2     H 5796   0.965   2.174  12.163 -1.9786 -1.2788 -0.6542
  384MPD2    H1 5797   0.973   2.379  11.794 -0.0908  1.2401  0.2597
  384MPD2    H2 5798   0.640   2.417  12.065 -0.0785  0.6875  0.0896
  384MPD2    H3 5799   0.748   2.480  11.862  0.8057  0.6542 -0.3789
  384MPD2     N 5800   1.102   2.200  11.936  0.7006  0.0407 -0.5005
  384MPD2    H5 5801   1.136   2.218  11.842 -2.1661  0.4108 -1.4561
  384MPD2    N1 5802   0.726   2.239  12.235  0.0814  0.0855 -0.0067
  384MPD2    H7 5803   0.779   2.191  12.307 -0.5399 -1.2968 -0.4769
  385TMC3    C1 5804   1.305   2.064  11.963 -0.4642  0.2471 -0.0918
  385TMC3    C2 5805   1.286   1.988  11.851  0.3225 -0.1643  0.2982
  385TMC3    C3 5806   1.336   1.864  11.851  0.0565 -0.1061 -0.3124
  385TMC3    C4 5807   1.375   2.012  12.070  0.3722 -0.4832  0.0683
  385TMC3    C5 5808   1.413   1.878  12.069  0.2465  0.3302 -0.2575
  385TMC3    C6 5809   1.387   1.805  11.960 -0.0884 -0.2519  1.0810
  385TMC3     C 5810   1.189   2.132  12.017  0.0460  0.0478  0.0870
  385TMC3     O 5811   1.192   2.132  12.140 -0.1638  0.1989 -0.0812
  385TMC3     H 5812   1.232   2.028  11.766  1.6315  0.2900 -0.3139
  385TMC3    H1 5813   1.401   2.072  12.156 -0.2329  0.0318 -0.1126
  385TMC3    H2 5814   1.409   1.699  11.963  0.6013 -0.1062  1.1384
  385TMC3    C7 5815   1.379   1.811  12.199 -0.7004 -0.9982  0.4952
  385TMC3    C8 5816   1.303   1.770  11.738  0.1942  0.4367  0.0158
  385TMC3    O1 5817   1.438   1.708  12.226 -0.7237 -0.3765 -0.1400
  385TMC3    O2 5818   1.354   1.658  11.730  0.1656  0.1493  0.2156
  386TMC3    C1 5819   0.990   4.319  11.934 -0.0737 -0.5504 -0.1012
  386TMC3    C2 5820   0.918   4.272  11.829 -0.5822 -0.2202  0.9436
  386TMC3    C3 5821   0.810   4.350  11.791 -0.1974 -0.1127  0.0597
  386TMC3    C4 5822   0.961   4.431  12.001  0.4760  0.2872  0.1843
  386TMC3    C5 5823   0.853   4.509  11.959  0.6135 -0.0472 -0.1493
  386TMC3    C6 5824   0.784   4.474  11.847 -0.0321  0.6306  0.2246
  386TMC3     C 5825   1.109   4.244  11.964  0.1971  0.1484 -0.1202
  386TMC3     O 5826   1.098   4.125  11.980 -0.7093 -0.2340  0.0305
  386TMC3     H 5827   0.935   4.171  11.795  0.2384 -0.2756  1.5226
  386TMC3    H1 5828   1.015   4.458  12.091  0.2271  0.8785  0.1552
  386TMC3    H2 5829   0.706   4.535  11.802 -0.4848  0.1882  0.4149
  386TMC3    C7 5830   0.797   4.603  12.054  0.3983 -0.3678 -0.2159
  386TMC3    C8 5831   0.745   4.338  11.668 -0.2692  0.1868 -0.2298
  386TMC3    O1 5832   0.813   4.577  12.176  0.3402  0.7934 -0.5749
  386TMC3    O2 5833   0.635   4.384  11.659  0.3682  0.2563 -0.5090
  387MPD2     C 5834   3.109   0.291   9.968  0.0512  0.3342 -0.2311
  387MPD2    C1 5835   3.104   0.253  10.101 -0.6529 -0.0624  0.2620
  387MPD2    C2 5836   3.085   0.113  10.134  0.2088 -0.7224  0.5140
  387MPD2    C3 5837   3.082   0.018  10.038  0.1009  0.0536 -0.3163
  387MPD2    C4 5838   3.079   0.054   9.909 -0.8390  0.1354  0.1740
  387MPD2    C5 5839   3.096   0.189   9.873  0.0761 -0.3689  0.3410
  387MPD2     H 5840   3.090   0.084  10.239  2.1710  1.5881  1.0831
  387MPD2    H1 5841   3.067   4.712   9.832  1.9829  0.6070 -0.7024
  387MPD2    H2 5842   3.123   0.393   9.935  1.1004  0.6375  1.1301
  387MPD2    H3 5843   3.090   0.220   9.769  0.5911 -0.2939  0.3367
  387MPD2     N 5844   3.088   4.623  10.092  0.2555 -0.2454  1.0039
  387MPD2    H5 5845   3.105   4.623  10.192 -0.5120  1.6169  1.1433
  387MPD2    N1 5846   3.130   0.339  10.216 -0.1685  0.6272 -0.0158
  387MPD2    H7 5847   3.124   0.296  10.308  2.2058 -1.5573 -0.8864
  388TMC3    C1 5848   3.238   0.499  10.345 -0.5419 -0.4287  0.6410
  388TMC3    C2 5849   3.273   0.631  10.369 -0.0413 -0.4571  0.1265
  388TMC3    C3 5850   3.359   0.665  10.470 -0.0498 -0.0392  1.0445
  388TMC3    C4 5851   3.279   0.401  10.430 -0.6204  0.1308 -0.3745
  388TMC3    C5 5852   3.369   0.436  10.528  0.7659  0.1482  0.6119
  388TMC3    C6 5853   3.412   0.565  10.548  0.4162 -0.0326 -0.2311
  388TMC3     C 5854   3.170   0.467  10.220  0.3679  0.0889 -0.6567
  388TMC3     O 5855   3.187   0.548  10.131  0.2429  0.7164 -0.3773
  388TMC3     H 5856   3.222   0.710  10.315 -0.7276 -0.8690  0.1704
  388TMC3    H1 5857   3.246   0.298  10.417  0.1555  0.0185 -1.4848
  388TMC3    H2 5858   3.482   0.576  10.631  0.1050  4.1366 -0.5269
  388TMC3    C7 5859   3.414   0.333  10.616  0.1377  0.4054  0.1860
  388TMC3    C8 5860   3.399   0.807  10.469  0.0909  0.2490  0.2244
  388TMC3    O1 5861   3.417   0.340  10.735  0.6459  0.2195  0.0232
  388TMC3    O2 5862   3.374   0.880  10.376 -0.4859  0.4268  0.3872
  389MPD2     C 5863   2.248   2.954  11.389 -0.7131 -0.2070  0.1861
  389MPD2    C1 5864   2.267   2.914  11.258  0.1415 -0.6482 -0.0348
  389MPD2    C2 5865   2.269   2.780  11.220  0.5451  0.0548 -0.0050
  389MPD2    C3 5866   2.258   2.680  11.317 -0.4318 -0.4725  0.8056
  389MPD2    C4 5867   2.240   2.723  11.443  0.0206  0.5446 -0.6832
  389MPD2    C5 5868   2.234   2.855  11.482 -0.2107  0.3579 -0.1374
  389MPD2     H 5869   2.295   2.758  11.117 -2.8023 -1.5959 -0.4886
  389MPD2    H1 5870   2.229   2.652  11.525 -0.8062 -0.3040 -1.5300
  389MPD2    H2 5871   2.230   3.058  11.412  0.5667  0.7951 -3.3327
  389MPD2    H3 5872   2.212   2.878  11.586 -0.8215  0.1274 -0.2145
  389MPD2     N 5873   2.252   2.540  11.289  0.4020 -0.3727 -0.0725
  389MPD2    H5 5874   2.221   2.472  11.358 -1.0621 -0.8714 -1.2261
  389MPD2    N1 5875   2.292   3.016  11.157 -0.0389 -0.3504 -0.4870
  389MPD2    H7 5876   2.310   3.111  11.187  0.1350 -0.1865 -1.1136
  390TMC3    C1 5877   2.244   2.338  11.164 -0.0204  0.0293 -0.1945
  390TMC3    C2 5878   2.285   2.262  11.270 -0.5473  0.3348  0.0278
  390TMC3    C3 5879   2.306   2.128  11.240 -0.2191 -0.5173 -0.7230
  390TMC3    C4 5880   2.208   2.289  11.043  0.2901 -0.2422 -0.4185
  390TMC3    C5 5881   2.215   2.152  11.031 -0.5592 -0.0920 -0.0802
  390TMC3    C6 5882   2.272   2.068  11.124 -0.5484  0.6661 -0.1679
  390TMC3     C 5883   2.259   2.484  11.163  0.4845 -0.4283  0.7270
  390TMC3     O 5884   2.282   2.533  11.051  0.1777  0.0429 -0.4719
  390TMC3     H 5885   2.330   2.308  11.358  0.0195 -0.5984  0.2277
  390TMC3    H1 5886   2.169   2.351  10.964  0.7058 -0.6124 -0.9103
  390TMC3    H2 5887   2.268   1.960  11.121  3.2195  0.5505 -0.2572
  390TMC3    C7 5888   2.090   2.102  10.977 -0.2449 -0.1168  0.0517
  390TMC3    C8 5889   2.306   2.037  11.352 -1.0225 -0.5664 -0.0755
  390TMC3    O1 5890   2.066   2.107  10.858  0.1335  0.2224 -0.5675
  390TMC3    O2 5891   2.354   1.930  11.323  0.2576  0.1001 -0.3606
  391MPD2     C 5892   1.775   4.216  11.019  0.3194  0.5248 -0.8512
  391MPD2    C1 5893   1.867   4.311  10.967 -0.2795 -0.6569  0.3493
  391MPD2    C2 5894   1.862   4.342  10.836  0.8536 -0.3126 -0.9361
  391MPD2    C3 5895   1.752   4.290  10.756 -0.1041 -0.6450 -0.2605
  391MPD2    C4 5896   1.658   4.204  10.804 -0.5618  0.1487 -0.1364
  391MPD2    C5 5897   1.670   4.176  10.938 -0.2204  0.6563  0.0246
  391MPD2     H 5898   1.938   4.403  10.789  0.3445  0.5000 -0.7114
  391MPD2    H1 5899   1.576   4.159  10.749 -1.4827 -0.6005  1.8503
  391MPD2    H2 5900   1.769   4.188  11.124 -0.4995  1.0370 -0.7634
  391MPD2    H3 5901   1.586   4.120  10.977 -0.9035  2.4102  1.0998
  391MPD2     N 5902   1.752   4.335  10.623 -0.0107 -0.0652 -0.3939
  391MPD2    H5 5903   1.837   4.374  10.584  0.7134 -2.2215 -0.9662
  391MPD2    N1 5904   1.965   4.370  11.044 -0.7132 -0.0917 -0.0802
  391MPD2    H7 5905   2.019   4.440  10.995 -2.2101  0.0936 -1.4647
  392TMC3    C1 5906   1.674   4.387  10.401  0.3822  0.1875 -0.5107
  392TMC3    C2 5907   1.592   4.349  10.293 -0.5078  0.0317 -0.1792
  392TMC3    C3 5908   1.596   4.416  10.176 -0.4991  0.2207 -0.3115
  392TMC3    C4 5909   1.764   4.490  10.391 -0.4961  0.1412  0.0925
  392TMC3    C5 5910   1.762   4.561  10.273 -0.0496  1.2110  0.2076
  392TMC3    C6 5911   1.686   4.523  10.170 -0.0686 -0.0990 -0.0516
  392TMC3     C 5912   1.648   4.325  10.537  0.9136 -0.4433 -0.4305
  392TMC3     O 5913   1.541   4.264  10.552 -0.5982  0.1720 -0.0684
  392TMC3     H 5914   1.528   4.262  10.305 -0.3782 -0.0313  0.0588
  392TMC3    H1 5915   1.819   4.530  10.475 -0.1554 -0.4336  0.1414
  392TMC3    H2 5916   1.702   4.572  10.074 -0.0659 -1.0956 -0.5611
  392TMC3    C7 5917   1.833   4.690  10.283  0.2140 -0.2372  0.0132
  392TMC3    C8 5918   1.538   4.355  10.055  0.2689  0.3270 -0.7854
  392TMC3    O1 5919   1.918   4.711  10.367 -0.3489 -0.0401 -0.8579
  392TMC3    O2 5920   1.474   4.250  10.068 -0.2933  0.3021  0.7890
  393TMC3    C1 5921   0.237   2.047  10.064 -0.0454 -0.0789  0.1381
  393TMC3    C2 5922   0.230   1.922  10.006 -0.5834  0.5221 -0.3260
  393TMC3    C3 5923   0.190   1.814  10.082 -0.1596 -0.3490 -0.4535
  393TMC3    C4 5924   0.208   2.071  10.190  0.0964 -0.0812 -0.3159
  393TMC3    C5 5925   0.163   1.964  10.264  0.1887 -0.3234  0.2263
  393TMC3    C6 5926   0.156   1.839  10.217 -0.1666 -0.6484 -0.7912
  393TMC3     C 5927   0.269   2.163   9.984  0.5617  0.3069  0.0546
  393TMC3     O 5928   0.327   2.258  10.034  0.1865 -0.4695 -0.2644
  393TMC3     H 5929   0.247   1.912   9.900 -1.5416  1.7912 -0.5968
  393TMC3    H1 5930   0.208   2.172  10.228  2.0692 -0.5279  0.8705
  393TMC3    H2 5931   0.100   1.763  10.270  0.1654  0.5140  1.2591
  393TMC3    C7 5932   0.135   1.983  10.407  0.4533  0.2148  0.4596
  393TMC3    C8 5933   0.176   1.672  10.029 -0.7095  0.6666 -0.6313
  393TMC3    O1 5934   0.054   1.912  10.463  0.2809 -0.0440 -0.0062
  393TMC3    O2 5935   0.139   1.587  10.113  0.4952 -0.1044 -0.1208
  394TMC3    C1 5936   2.317   3.132  10.942  0.4003 -0.4764  0.1252
  394TMC3    C2 5937   2.263   3.147  10.816 -0.5870  0.9502  0.3433
  394TMC3    C3 5938   2.255   3.275  10.759 -0.4991 -0.3318  0.1178
  394TMC3    C4 5939   2.415   3.218  10.990  0.0280 -0.1368 -0.2806
  394TMC3    C5 5940   2.426   3.335  10.921 -0.2942  0.2506  0.3696
  394TMC3    C6 5941   2.337   3.370  10.817  0.0459  0.2722 -0.0636
  394TMC3     C 5942   2.294   2.999  11.019 -0.8752  0.0079 -0.8611
  394TMC3     O 5943   2.271   2.899  10.950  0.1392 -0.4911  0.4885
  394TMC3     H 5944   2.204   3.066  10.775 -0.0196  0.7255 -0.0179
  394TMC3    H1 5945   2.463   3.200  11.086 -0.6386  0.8592  0.2336
  394TMC3    H2 5946   2.369   3.464  10.774  0.5103 -0.4512 -1.2643
  394TMC3    C7 5947   2.555   3.391  10.917 -0.2407  0.3621 -0.2166
  394TMC3    C8 5948   2.269   3.277  10.612 -0.4069  0.2847 -0.9254
  394TMC3    O1 5949   2.590   3.433  10.808 -0.1565  0.2095  0.1802
  394TMC3    O2 5950   2.243   3.384  10.553 -0.0500  0.1130 -0.7332
  395TMC3    C1 5951   2.053   4.504  15.030  0.3838  0.2636 -0.4005
  395TMC3    C2 5952   2.087   4.372  15.016  0.6586  0.5631 -0.0937
  395TMC3    C3 5953   2.211   4.336  14.974 -0.2191  0.2117 -0.7904
  395TMC3    C4 5954   2.148   4.604  15.008 -0.2761 -0.3834 -0.0099
  395TMC3    C5 5955   2.279   4.564  14.971  0.1435  0.4333  0.7234
  395TMC3    C6 5956   2.316   4.429  14.961 -0.5739 -0.5013 -0.3222
  395TMC3     C 5957   1.922   4.546  15.079  0.0112  0.7336 -0.5676
  395TMC3     O 5958   1.918   4.658  15.127 -0.3323 -0.6392 -0.0627
  395TMC3     H 5959   2.021   4.292  15.050 -0.0450  1.6006  0.9838
  395TMC3    H1 5960   2.124   4.708  15.029  2.4488  0.5594 -1.4647
  395TMC3    H2 5961   2.421   4.402  14.960  0.2225  2.5945 -1.8773
  395TMC3    C7 5962   2.385   4.655  15.006 -0.3767  0.2370 -0.1783
  395TMC3    C8 5963   2.243   4.197  14.942 -0.3814  0.4648  0.0750
  395TMC3    O1 5964   2.370   4.719  15.112  0.3103  1.2261  0.2991
  395TMC3    O2 5965   2.364   4.181  14.939 -0.1785 -0.0187 -0.8704
  396MPD2     C 5966   2.573   0.369  17.049 -0.5819 -0.4405  0.3685
  396MPD2    C1 5967   2.499   0.405  17.162  0.7956 -0.4501 -0.1477
  396MPD2    C2 5968   2.442   0.527  17.170  0.5296  0.2019  0.0307
  396MPD2    C3 5969   2.464   0.625  17.078 -0.6553 -0.9230  0.5095
  396MPD2    C4 5970   2.521   0.592  16.955 -0.7299  0.8773 -0.5673
  396MPD2    C5 5971   2.570   0.459  16.948 -0.1895 -0.8515 -0.4718
  396MPD2     H 5972   2.390   0.547  17.264 -1.4320 -0.7751 -0.8451
  396MPD2    H1 5973   2.540   0.658  16.872  0.1387  1.6719  0.2631
  396MPD2    H2 5974   2.609   0.271  17.020 -1.8480 -0.7105 -0.3041
  396MPD2    H3 5975   2.606   0.440  16.847 -0.8251 -1.1269 -0.6399
  396MPD2     N 5976   2.423   0.757  17.108 -0.2709 -0.1961  0.8121
  396MPD2    H5 5977   2.372   0.761  17.195 -1.5388 -3.0112  0.2034
  396MPD2    N1 5978   2.480   0.298  17.255  0.5462 -0.0594 -0.6494
  396MPD2    H7 5979   2.545   0.222  17.236  1.0449 -0.1087  1.2728
  397TMC3    C1 5980   2.369   0.167  17.421  0.2595  0.3137  0.2964
  397TMC3    C2 5981   2.410   0.063  17.338  0.3455  0.9279  0.1360
  397TMC3    C3 5982   2.319   4.705  17.293 -0.1628  0.0961  0.3209
  397TMC3    C4 5983   2.240   0.160  17.470 -0.1335 -0.0491  0.4408
  397TMC3    C5 5984   2.157   0.057  17.445 -0.3682  0.2861  0.4824
  397TMC3    C6 5985   2.190   4.698  17.348 -0.5274 -0.1165  0.4533
  397TMC3     C 5986   2.393   0.299  17.363  0.2196  0.4415  0.4389
  397TMC3     O 5987   2.315   0.387  17.401 -0.2934  0.0424 -0.6518
  397TMC3     H 5988   2.509   0.065  17.294 -0.1515  0.2266 -1.0100
  397TMC3    H1 5989   2.201   0.246  17.523 -0.6630  1.6549 -2.7219
  397TMC3    H2 5990   2.125   4.618  17.315  0.3489 -0.3157 -0.8002
  397TMC3    C7 5991   2.042   0.024  17.525 -0.4680 -0.3087 -0.2935
  397TMC3    C8 5992   2.312   4.688  17.150 -1.3106  0.3941  0.7002
  397TMC3    O1 5993   1.978   4.658  17.492  1.1857  0.1104 -0.6085
  397TMC3    O2 5994   2.201   4.692  17.099 -0.5362  0.5457  0.2560
  398MPD2     C 5995   0.261   2.533   0.369 -0.7137  0.1003  0.1021
  398MPD2    C1 5996   0.322   2.429   0.437 -0.2626  0.1735  0.2062
  398MPD2    C2 5997   0.446   2.456   0.497 -0.1055  0.0965  0.0763
  398MPD2    C3 5998   0.500   2.584   0.501 -0.2755  0.3824 -0.2066
  398MPD2    C4 5999   0.419   2.689   0.461  0.7540 -0.4188  0.2633
  398MPD2    C5 6000   0.307   2.660   0.385 -0.3978  0.5630  0.1131
  398MPD2     H 6001   0.498   2.364   0.519  0.1527 -0.2348 -1.8977
  398MPD2    H1 6002   0.449   2.792   0.476 -0.3068  0.0013 -0.5118
  398MPD2    H2 6003   0.161   2.523   0.329 -0.0147  0.3908 -1.7506
  398MPD2    H3 6004   0.245   2.734   0.336  0.3950  1.2724  0.1932
  398MPD2     N 6005   0.625   2.605   0.570 -0.2520 -0.1292  0.1127
  398MPD2    H5 6006   0.660   2.528   0.628  0.2837  0.9179  1.1842
  398MPD2    N1 6007   0.271   2.294   0.434  0.1401 -0.0983 -0.4131
  398MPD2    H7 6008   0.312   2.224   0.495 -2.3117 -1.0061  0.1919
  399TMC3    C1 6009   0.169   2.112   0.333  0.2577 -0.0459  1.1475
  399TMC3    C2 6010   0.183   2.042   0.448 -0.5367  0.1844  0.2861
  399TMC3    C3 6011   0.162   1.905   0.440 -0.1194  0.3351  1.0699
  399TMC3    C4 6012   0.131   2.055   0.212  0.0248  0.2696  0.1119
  399TMC3    C5 6013   0.114   1.922   0.207  0.4622  0.5031 -0.7438
  399TMC3    C6 6014   0.126   1.848   0.320  0.7060  0.3909  0.7036
  399TMC3     C 6015   0.187   2.255   0.330  0.7220 -0.3684  0.2465
  399TMC3     O 6016   0.138   2.317   0.237  0.3757 -0.0903  0.2258
  399TMC3     H 6017   0.201   2.086   0.546  2.1585 -0.9589  0.2994
  399TMC3    H1 6018   0.094   2.116   0.131  0.6546 -0.6428 -0.8614
  399TMC3    H2 6019   0.102   1.744   0.299  0.0784  0.7482 -0.3388
  399TMC3    C7 6020   0.037   1.865   0.095  0.6591  0.3591 -0.7529
  399TMC3    C8 6021   0.171   1.816   0.556  0.0138  0.2610 -0.5121
  399TMC3    O1 6022   4.701   1.765   0.119 -0.6415  0.0266  0.3288
  399TMC3    O2 6023   0.229   1.859   0.655 -0.0355  0.2552  0.9960
  400TMC3    C1 6024   3.664   4.668  16.575 -0.3003  0.0979 -0.1605
  400TMC3    C2 6025   3.570   4.570  16.559 -0.0598 -0.0117 -0.1744
  400TMC3    C3 6026   3.442   4.609  16.535 -0.2739  0.0652  0.0542
  400TMC3    C4 6027   3.637   0.062  16.537  0.1745 -0.1156  0.1920
  400TMC3    C5 6028   3.508   0.090  16.501 -0.2050 -0.1870 -0.1253
  400TMC3    C6 6029   3.407   0.004  16.506 -0.1283 -0.0465 -0.4696
  400TMC3     C 6030   3.748   4.653  16.695 -0.7011  0.3303 -0.3362
  400TMC3     O 6031   3.764   4.539  16.736  0.3212 -0.2882  0.2041
  400TMC3     H 6032   3.595   4.467  16.578 -0.4072  0.0508  0.6363
  400TMC3    H1 6033   3.718   0.134  16.535  0.8157 -0.8593 -0.3372
  400TMC3    H2 6034   3.305   0.038  16.497 -0.0048  1.0746  2.3669
  400TMC3    C7 6035   3.478   0.230  16.496  0.4661 -0.1249  0.3102
  400TMC3    C8 6036   3.345   4.494  16.541 -0.4494 -0.4852 -0.2177
  400TMC3    O1 6037   3.368   0.266  16.540 -0.0036 -0.2654  0.4541
  400TMC3    O2 6038   3.374   4.391  16.607  0.2812 -0.1378  0.0093
  401MPD2     C 6039   1.679   3.879   0.959 -0.6306  0.1886 -0.2583
  401MPD2    C1 6040   1.797   3.874   0.887 -0.2567  0.6046 -0.2192
  401MPD2    C2 6041   1.803   3.782   0.778  0.3233  0.4610 -0.3289
  401MPD2    C3 6042   1.703   3.692   0.749  0.2921  0.4609  0.2963
  401MPD2    C4 6043   1.581   3.707   0.807 -0.5374 -0.7126  0.1555
  401MPD2    C5 6044   1.578   3.790   0.921 -0.7689 -0.2524  0.4281
  401MPD2     H 6045   1.897   3.764   0.726 -0.7421 -2.2053 -1.3480
  401MPD2    H1 6046   1.497   3.643   0.782 -0.8409 -0.1299 -0.2933
  401MPD2    H2 6047   1.667   3.950   1.039  0.6321 -0.0843  0.1687
  401MPD2    H3 6048   1.488   3.791   0.981 -1.3454 -0.3925 -0.4374
  401MPD2     N 6049   1.728   3.581   0.659 -0.6259 -0.3353  0.1577
  401MPD2    H5 6050   1.822   3.577   0.621 -0.4250 -1.7397  0.7815
  401MPD2    N1 6051   1.913   3.943   0.928  0.1759  0.4496  0.0187
  401MPD2    H7 6052   1.998   3.913   0.881 -0.0476  1.1393 -0.8352
  402TMC3    C1 6053   1.693   3.411   0.507 -0.6906 -0.4607  0.3896
  402TMC3    C2 6054   1.623   3.297   0.469  0.4153  0.1127  0.7746
  402TMC3    C3 6055   1.686   3.207   0.380  0.1429 -0.7201 -0.3802
  402TMC3    C4 6056   1.819   3.432   0.463 -0.2001 -0.2588 -0.5069
  402TMC3    C5 6057   1.875   3.330   0.389 -0.3709 -0.3019 -0.1894
  402TMC3    C6 6058   1.814   3.219   0.342  0.7602  0.1700  0.3486
  402TMC3     C 6059   1.642   3.478   0.627  0.3688 -1.1446  0.1317
  402TMC3     O 6060   1.527   3.454   0.663  0.1335  0.0185  0.5865
  402TMC3     H 6061   1.520   3.294   0.503 -0.7907  1.4494 -2.7388
  402TMC3    H1 6062   1.892   3.506   0.494  0.7996 -1.0954 -0.8784
  402TMC3    H2 6063   1.857   3.126   0.307  0.9019 -0.5079  2.3432
  402TMC3    C7 6064   2.016   3.308   0.420  0.2937 -0.1377 -0.2601
  402TMC3    C8 6065   1.639   3.070   0.374 -0.1958 -0.6811 -0.0428
  402TMC3    O1 6066   2.065   3.371   0.509 -0.4094  0.0286  0.5427
  402TMC3    O2 6067   1.609   3.021   0.483 -0.1703 -0.5185  0.1286
  403MPD2     C 6068   0.315   1.619  13.206  0.4822  0.1193 -0.4938
  403MPD2    C1 6069   0.270   1.687  13.314 -0.1566  0.1768 -0.8352
  403MPD2    C2 6070   0.363   1.757  13.391 -0.0838 -0.6198  0.0482
  403MPD2    C3 6071   0.498   1.737  13.374 -0.0485  0.4735  0.1642
  403MPD2    C4 6072   0.539   1.655  13.266 -0.2737 -0.2239 -0.2924
  403MPD2    C5 6073   0.444   1.592  13.191 -0.5924 -0.3802 -0.1004
  403MPD2     H 6074   0.333   1.824  13.470 -1.9974  0.2430 -1.4204
  403MPD2    H1 6075   0.643   1.629  13.246 -0.2841 -0.1033 -0.5063
  403MPD2    H2 6076   0.248   1.555  13.149  1.5468 -1.3885 -0.0503
  403MPD2    H3 6077   0.470   1.527  13.108  0.8925 -1.3836  1.1485
  403MPD2     N 6078   0.579   1.803  13.465 -0.2758 -0.5632 -0.3174
  403MPD2    H5 6079   0.531   1.839  13.547  0.1285  0.3614 -0.4894
  403MPD2    N1 6080   0.126   1.684  13.316 -0.0661 -0.1085 -0.4098
  403MPD2    H7 6081   0.079   1.644  13.234 -1.4127 -2.0235  1.2752
  404TMC3    C1 6082   4.663   1.629  13.426 -0.1354  0.0153 -0.0926
  404TMC3    C2 6083   4.654   1.573  13.550  0.0722 -0.0408  0.0113
  404TMC3    C3 6084   4.618   1.440  13.548  0.1673  0.2927 -0.5276
  404TMC3    C4 6085   4.621   1.581  13.304  0.0550 -0.0298 -0.3312
  404TMC3    C5 6086   4.584   1.454  13.311  0.0628 -0.3514  0.2337
  404TMC3    C6 6087   4.582   1.379  13.429  0.6181 -0.1276  0.0381
  404TMC3     C 6088   0.045   1.721  13.419  0.0297 -0.3688  0.0362
  404TMC3     O 6089   0.082   1.768  13.526  0.5894  0.0037  0.1738
  404TMC3     H 6090   4.691   1.621  13.639  0.3562  0.7248 -0.5218
  404TMC3    H1 6091   4.601   1.639  13.215 -1.6808 -1.6337 -0.9966
  404TMC3    H2 6092   4.544   1.278  13.443  0.7107  0.2774  3.1530
  404TMC3    C7 6093   4.482   1.406  13.219 -0.7570  0.1482 -0.0106
  404TMC3    C8 6094   4.637   1.363  13.672 -0.0474  0.2531 -0.1730
  404TMC3    O1 6095   4.388   1.337  13.262  0.9122  0.1435 -0.0491
  404TMC3    O2 6096   4.673   1.249  13.658 -0.2858  0.1334  0.2366
  405MPD2     C 6097   0.273   2.250  14.564 -0.9549 -0.0245  0.2482
  405MPD2    C1 6098   0.322   2.246  14.431  0.8957 -0.7794  1.2959
  405MPD2    C2 6099   0.267   2.336  14.337  0.2489 -0.0953 -0.2782
  405MPD2    C3 6100   0.168   2.426  14.382 -0.2447 -0.3700 -0.1268
  405MPD2    C4 6101   0.132   2.432  14.513  0.4608  0.3020  0.4532
  405MPD2    C5 6102   0.183   2.347  14.601  0.2154  0.7115  0.1088
  405MPD2     H 6103   0.288   2.334  14.231  1.0597 -0.8082 -0.1065
  405MPD2    H1 6104   0.060   2.499  14.558 -0.2825 -0.8854  1.0280
  405MPD2    H2 6105   0.304   2.186  14.646 -2.9312  0.7934  1.6159
  405MPD2    H3 6106   0.160   2.366  14.706 -0.6369 -1.6348  0.3534
  405MPD2     N 6107   0.092   2.504  14.289  0.0924 -0.4378 -0.1554
  405MPD2    H5 6108   0.110   2.478  14.192  2.9477 -0.9785  0.5055
  405MPD2    N1 6109   0.419   2.143  14.394  0.0821 -0.4250 -0.3236
  405MPD2    H7 6110   0.425   2.068  14.462 -1.1132 -0.1862  0.0641
  406TMC3    C1 6111   4.418   2.511  14.155 -0.0803  0.4722  0.9607
  406TMC3    C2 6112   4.466   2.451  14.044 -0.0494 -0.3987 -0.8329
  406TMC3    C3 6113   4.597   2.476  14.005  0.0027 -0.5250 -0.0810
  406TMC3    C4 6114   4.506   2.578  14.239 -0.1215 -0.3802  0.1256
  406TMC3    C5 6115   4.636   2.595  14.207 -0.9468  0.4878 -0.2617
  406TMC3    C6 6116   4.684   2.542  14.089  0.5624  0.0731  0.0506
  406TMC3     C 6117   4.271   2.510  14.185 -0.7213  0.0779 -0.6086
  406TMC3     O 6118   4.194   2.469  14.098  0.3880 -0.0150  0.2699
  406TMC3     H 6119   4.395   2.394  13.985  0.2623  1.1246 -2.6592
  406TMC3    H1 6120   4.465   2.640  14.318  2.2333  0.8301  0.4140
  406TMC3    H2 6121   0.047   2.566  14.047 -0.7120  0.8521 -2.4352
  406TMC3    C7 6122   4.719   2.585  14.321  0.0239 -0.4897  0.0165
  406TMC3    C8 6123   4.642   2.363  13.917  0.0349  0.2626 -0.0565
  406TMC3    O1 6124   4.677   2.628  14.425 -0.1870  0.0414 -0.0310
  406TMC3    O2 6125   4.560   2.316  13.840 -0.2135  0.0886 -0.1314
  407MPD2     C 6126   2.629   4.154   9.767 -0.3294 -0.1742  0.4693
  407MPD2    C1 6127   2.706   4.149   9.885 -0.0399  0.5160 -1.1925
  407MPD2    C2 6128   2.712   4.266   9.964 -0.2422 -0.0968 -0.5023
  407MPD2    C3 6129   2.651   4.385   9.928  0.6004 -0.1951 -0.1366
  407MPD2    C4 6130   2.589   4.384   9.805 -0.3519  0.1255 -0.4498
  407MPD2    C5 6131   2.578   4.274   9.726 -0.1051 -0.0710  0.1678
  407MPD2     H 6132   2.760   4.254  10.061 -0.8147 -0.2810 -0.2452
  407MPD2    H1 6133   2.535   4.472   9.772 -0.0994  0.4008 -0.1276
  407MPD2    H2 6134   2.630   4.073   9.695  1.5821  1.5039 -1.4173
  407MPD2    H3 6135   2.543   4.295   9.625 -0.2961 -0.1383  0.2200
  407MPD2     N 6136   2.653   4.507   9.991 -0.4163 -1.1113 -0.7991
  407MPD2    H5 6137   2.612   4.586   9.942 -0.2399 -0.5113  0.0108
  407MPD2    N1 6138   2.784   4.037   9.916  0.1632 -0.1735 -0.0711
  407MPD2    H7 6139   2.848   4.048   9.994 -1.2020  1.8416  0.7306
  408TMC3    C1 6140   2.910   3.842   9.882  0.1140  0.3566 -0.6496
  408TMC3    C2 6141   3.026   3.908   9.898  0.4075  0.9386 -0.9449
  408TMC3    C3 6142   3.139   3.834   9.905 -0.1235  0.5607 -0.4726
  408TMC3    C4 6143   2.894   3.711   9.869  0.1719  0.7931 -0.4501
  408TMC3    C5 6144   3.009   3.637   9.891  0.1403 -0.4883 -0.3093
  408TMC3    C6 6145   3.133   3.697   9.900 -0.3125  0.1646  0.2183
  408TMC3     C 6146   2.791   3.915   9.851 -0.0661 -0.5308 -0.0877
  408TMC3     O 6147   2.703   3.869   9.780 -0.3229  0.4160 -0.3374
  408TMC3     H 6148   3.031   4.016   9.897  0.6524  0.9276 -0.5274
  408TMC3    H1 6149   2.796   3.667   9.856  1.8884 -2.3008 -2.7164
  408TMC3    H2 6150   3.222   3.638   9.922  0.4636  0.3547 -2.4282
  408TMC3    C7 6151   3.010   3.494   9.909  0.0157 -0.2343 -0.0919
  408TMC3    C8 6152   3.257   3.901   9.963 -0.1959 -0.4699 -1.3101
  408TMC3    O1 6153   3.113   3.439   9.946 -0.4739  0.1734 -0.0136
  408TMC3    O2 6154   3.325   3.818  10.025  0.1017 -0.0271  0.2887
  409MPD2     C 6155   2.198   4.414  16.845  0.0190  0.2633  0.2410
  409MPD2    C1 6156   2.325   4.371  16.885  0.6006 -0.1960  0.2420
  409MPD2    C2 6157   2.440   4.402  16.809 -0.3413  0.4328 -0.4081
  409MPD2    C3 6158   2.433   4.479  16.692  0.3065 -0.4305  0.2681
  409MPD2    C4 6159   2.302   4.510  16.650  0.3467 -0.3128 -0.1315
  409MPD2    C5 6160   2.187   4.477  16.720 -0.0353  0.5035  0.2196
  409MPD2     H 6161   2.529   4.357  16.851 -0.8406 -0.5971 -0.4532
  409MPD2    H1 6162   2.287   4.562  16.556  1.7193 -2.2691 -1.4413
  409MPD2    H2 6163   2.104   4.385  16.891 -1.1180  1.3094 -1.4559
  409MPD2    H3 6164   2.087   4.498  16.686  1.1205  1.7992 -2.3778
  409MPD2     N 6165   2.545   4.530  16.619 -0.4895  0.3428  0.1838
  409MPD2    H5 6166   2.531   4.608  16.556  0.4091 -0.9230 -1.5508
  409MPD2    N1 6167   2.343   4.273  16.984 -0.1964 -0.3021  0.0730
  409MPD2    H7 6168   2.441   4.255  17.002 -0.6385  0.2027  3.0526
  410TMC3    C1 6169   2.773   4.598  16.605 -0.7820 -0.7014  1.1249
  410TMC3    C2 6170   2.882   4.615  16.686 -0.2413 -0.1464  0.1685
  410TMC3    C3 6171   2.972   4.713  16.653  0.5516  0.6421 -0.1869
  410TMC3    C4 6172   2.746   4.682  16.500  0.9426  0.2575 -1.0915
  410TMC3    C5 6173   2.825   0.057  16.488  0.9452 -0.0022 -0.3297
  410TMC3    C6 6174   2.940   0.072  16.564 -0.1397 -0.0897  0.0194
  410TMC3     C 6175   2.674   4.505  16.657 -0.0292  0.0524 -0.3211
  410TMC3     O 6176   2.723   4.422  16.735  0.8197  0.4176  0.8365
  410TMC3     H 6177   2.891   4.548  16.771  0.4981 -0.1198  0.1059
  410TMC3    H1 6178   2.654   4.676  16.443  1.8621  1.1002 -2.6822
  410TMC3    H2 6179   3.006   0.156  16.543 -0.2726 -0.2564 -1.0777
  410TMC3    C7 6180   2.834   0.105  16.349 -0.5939  0.8319 -0.3264
  410TMC3    C8 6181   3.091   4.728  16.738 -0.1845  0.2214 -0.4306
  410TMC3    O1 6182   2.789   0.034  16.263  0.9970 -0.2362 -0.5473
  410TMC3    O2 6183   3.150   0.096  16.720  0.2122  0.8200 -0.4997
  411MPD2     C 6184   2.985   0.916  14.973 -0.3662  0.3072 -0.1604
  411MPD2    C1 6185   2.883   0.937  15.068 -0.3686  0.1122 -0.8346
  411MPD2    C2 6186   2.775   0.847  15.068  0.3471  0.1925 -0.3335
  411MPD2    C3 6187   2.767   0.754  14.962 -0.2510 -0.5083  0.0875
  411MPD2    C4 6188   2.865   0.740  14.871 -0.2306  0.0469  0.7863
  411MPD2    C5 6189   2.974   0.815  14.881  0.6032 -0.5320  0.0255
  411MPD2     H 6190   2.700   0.847  15.146  2.3368  0.3737  1.5776
  411MPD2    H1 6191   2.882   0.655  14.805  3.1307  0.1111  1.5801
  411MPD2    H2 6192   3.077   0.974  14.978 -0.7916  0.9544  0.0685
  411MPD2    H3 6193   3.062   0.796  14.820  0.5135  0.3087 -0.3634
  411MPD2     N 6194   2.658   0.655  14.957 -0.2602  0.2876  0.2209
  411MPD2    H5 6195   2.669   0.583  14.887 -2.9745 -0.1644  0.2537
  411MPD2    N1 6196   2.892   1.036  15.166  0.3316 -0.2813 -0.3287
  411MPD2    H7 6197   2.938   1.123  15.140  1.3100 -1.1391 -1.5097
  412TMC3    C1 6198   2.439   0.551  15.021 -0.1481 -0.2279 -0.8719
  412TMC3    C2 6199   2.318   0.569  15.076 -0.7960  0.4459 -0.5466
  412TMC3    C3 6200   2.224   0.474  15.060  0.4511  0.1857 -0.4507
  412TMC3    C4 6201   2.479   0.436  14.956  0.1293  0.5580 -0.9304
  412TMC3    C5 6202   2.383   0.332  14.954 -0.9429 -0.2297 -0.2177
  412TMC3    C6 6203   2.252   0.349  15.006 -0.0970 -0.5040  0.5033
  412TMC3     C 6204   2.534   0.669  15.017  0.3522  0.3320 -0.1295
  412TMC3     O 6205   2.499   0.764  15.080  0.2008  0.0098 -0.6079
  412TMC3     H 6206   2.289   0.670  15.102 -0.2799  0.2134  0.9017
  412TMC3    H1 6207   2.580   0.423  14.919 -0.1502  1.0817 -1.8793
  412TMC3    H2 6208   2.184   0.266  14.996  1.0327 -1.4375  0.4723
  412TMC3    C7 6209   2.373   0.255  14.833 -0.4987  0.0040 -0.2154
  412TMC3    C8 6210   2.104   0.530  14.996 -0.0072  0.5853  0.6009
  412TMC3    O1 6211   2.261   0.217  14.800 -0.1082  0.6704 -0.0370
  412TMC3    O2 6212   2.066   0.641  15.031  0.3873 -0.1421  0.0806
  413MPD2     C 6213   3.978   3.511  15.911  0.4111  0.0010  0.4028
  413MPD2    C1 6214   4.010   3.573  15.795  0.3920 -0.1394  0.4465
  413MPD2    C2 6215   4.146   3.583  15.756  0.6366  0.4922 -0.0924
  413MPD2    C3 6216   4.247   3.525  15.834 -0.4012 -0.2707 -0.3423
  413MPD2    C4 6217   4.218   3.463  15.957 -0.5951 -0.2592 -0.0434
  413MPD2    C5 6218   4.081   3.447  15.985 -0.2383 -0.9990  0.1378
  413MPD2     H 6219   4.184   3.636  15.670 -1.6527  1.4460 -0.5258
  413MPD2    H1 6220   4.288   3.408  16.018  0.2262 -0.5750 -1.2595
  413MPD2    H2 6221   3.873   3.490  15.926  0.5443  0.3997  1.8435
  413MPD2    H3 6222   4.044   3.403  16.077  0.3111 -0.8395  0.4397
  413MPD2     N 6223   4.379   3.531  15.781  0.5622 -0.3676 -1.3842
  413MPD2    H5 6224   4.388   3.576  15.691  1.0080  0.9797 -0.6636
  413MPD2    N1 6225   3.910   3.632  15.721 -0.5866  0.6364 -0.2019
  413MPD2    H7 6226   3.817   3.613  15.758 -0.3142 -0.2438  0.0478
  414TMC3    C1 6227   4.615   3.495  15.778  0.3601 -0.2196  0.3520
  414TMC3    C2 6228   4.728   3.499  15.848 -0.4260 -0.0986 -0.1397
  414TMC3    C3 6229   0.109   3.495  15.774 -0.4857  0.0815  0.4454
  414TMC3    C4 6230   4.606   3.509  15.643 -1.1331 -0.2357  0.2717
  414TMC3    C5 6231   4.722   3.524  15.570 -0.3063 -0.3015  0.5446
  414TMC3    C6 6232   0.108   3.512  15.637  0.1028  0.5809 -0.5171
  414TMC3     C 6233   4.488   3.470  15.851 -0.4991 -0.6812  0.6594
  414TMC3     O 6234   4.503   3.445  15.971  0.2201  0.3804 -0.0396
  414TMC3     H 6235   4.720   3.477  15.954  0.5842  4.2959  0.8578
  414TMC3    H1 6236   4.515   3.520  15.585 -0.9684  0.0030  0.0593
  414TMC3    H2 6237   0.205   3.508  15.588 -0.1868  0.1223 -1.0518
  414TMC3    C7 6238   4.711   3.520  15.423 -0.4880  0.4751 -0.0428
  414TMC3    C8 6239   0.226   3.428  15.835 -0.4904 -0.4125 -0.0750
  414TMC3    O1 6240   4.602   3.543  15.375 -0.8152  0.0585  0.2720
  414TMC3    O2 6241   0.312   3.393  15.756 -0.0995 -0.2599  0.4482
  415TMC3    C1 6242   0.436   1.262  10.019  0.0989 -0.3425 -0.3178
  415TMC3    C2 6243   0.495   1.275   9.897 -0.1320 -0.8801 -0.0029
  415TMC3    C3 6244   0.477   1.176   9.799  0.0707 -0.3095  0.1166
  415TMC3    C4 6245   0.352   1.152  10.042  0.4418  0.5733 -0.2404
  415TMC3    C5 6246   0.337   1.060   9.948 -0.0081 -0.4772 -0.6437
  415TMC3    C6 6247   0.410   1.062   9.833  0.0583 -0.4569 -0.0410
  415TMC3     C 6248   0.465   1.352  10.138  0.6204 -0.2442  0.0956
  415TMC3     O 6249   0.415   1.324  10.246  0.3598  0.3990  0.4933
  415TMC3     H 6250   0.549   1.365   9.871  0.4769 -1.0614  0.6051
  415TMC3    H1 6251   0.289   1.144  10.130 -1.7498 -0.7559 -1.9599
  415TMC3    H2 6252   0.401   0.985   9.757 -1.0039 -0.8716  0.5114
  415TMC3    C7 6253   0.243   0.943   9.961 -0.5709 -0.2748 -0.2259
  415TMC3    C8 6254   0.549   1.182   9.671  0.0776 -1.0371  0.1510
  415TMC3    O1 6255   0.247   0.860   9.872 -0.2739  0.4292 -0.6951
  415TMC3    O2 6256   0.506   1.113   9.578 -0.3748  0.5531  0.2436
  416MPD2     C 6257   1.628   0.257  11.267  0.1441 -0.1316  0.1431
  416MPD2    C1 6258   1.540   0.262  11.380 -0.3932 -0.1562 -0.2316
  416MPD2    C2 6259   1.425   0.182  11.374  0.4013  0.3546  0.7929
  416MPD2    C3 6260   1.386   0.118  11.260  0.1972 -1.0095 -0.0609
  416MPD2    C4 6261   1.465   0.132  11.145  0.5993 -0.2673  0.1102
  416MPD2    C5 6262   1.587   0.199  11.147 -0.0047  0.5536 -0.5651
  416MPD2     H 6263   1.372   0.157  11.465 -0.0730  0.3869  0.5239
  416MPD2    H1 6264   1.432   0.095  11.048 -0.7410  0.0596  0.4382
  416MPD2    H2 6265   1.723   0.309  11.268  0.1655 -0.1848  0.8036
  416MPD2    H3 6266   1.637   0.210  11.052 -0.4630 -1.3095 -1.0216
  416MPD2     N 6267   1.276   0.035  11.258  0.2611 -0.8174  0.1916
  416MPD2    H5 6268   1.214   0.060  11.335  0.1723  0.8616 -0.4273
  416MPD2    N1 6269   1.569   0.336  11.498  0.5724  0.3596 -0.0798
  416MPD2    H7 6270   1.660   0.380  11.503  1.0665 -0.5671 -0.8346
  417TMC3    C1 6271   1.528   0.462  11.697 -0.5238 -0.2655 -0.5104
  417TMC3    C2 6272   1.448   0.466  11.815 -0.0322 -1.1700  0.0611
  417TMC3    C3 6273   1.440   0.582  11.879 -0.4183  0.4613  0.0698
  417TMC3    C4 6274   1.592   0.572  11.644  0.0695  0.5233  0.1738
  417TMC3    C5 6275   1.573   0.687  11.718  0.3674 -0.2962 -1.1141
  417TMC3    C6 6276   1.510   0.696  11.841 -0.2862  0.0497  0.1242
  417TMC3     C 6277   1.479   0.359  11.603  0.4327 -0.4208 -0.4749
  417TMC3     O 6278   1.373   0.311  11.623  0.8606 -0.1824  0.8230
  417TMC3     H 6279   1.403   0.373  11.847 -2.3889 -0.1088 -0.1820
  417TMC3    H1 6280   1.645   0.571  11.549  1.3473  1.8173  0.8651
  417TMC3    H2 6281   1.496   0.782  11.905  0.0647  1.1893 -1.3198
  417TMC3    C7 6282   1.586   0.808  11.642  0.6009  0.5403  0.1029
  417TMC3    C8 6283   1.357   0.583  12.003  0.0888  0.3828  0.4955
  417TMC3    O1 6284   1.651   0.806  11.538 -0.0947 -0.0803  0.4966
  417TMC3    O2 6285   1.367   0.679  12.076  0.3009 -0.1347 -0.3254
  418TMC3    C1 6286   1.052   2.716   0.570 -0.5602  0.2034  0.2875
  418TMC3    C2 6287   0.928   2.763   0.553 -0.3735 -0.1022  0.0197
  418TMC3    C3 6288   0.828   2.726   0.636 -0.4211  0.1354  0.7128
  418TMC3    C4 6289   1.083   2.632   0.672  0.1628  0.1223 -0.4091
  418TMC3    C5 6290   0.980   2.609   0.765 -0.7801  0.1249 -0.3175
  418TMC3    C6 6291   0.850   2.652   0.750 -0.7035  0.3066 -0.0685
  418TMC3     C 6292   1.129   2.710   0.450 -0.6859  0.2389  0.4486
  418TMC3     O 6293   1.113   2.805   0.365  0.0737 -0.2140  0.3420
  418TMC3     H 6294   0.898   2.796   0.454  0.2620  0.5467  0.0485
  418TMC3    H1 6295   1.183   2.590   0.681 -0.2505 -0.4974  1.2234
  418TMC3    H2 6296   0.766   2.603   0.799 -0.3565 -0.1371  0.0788
  418TMC3    C7 6297   1.006   2.511   0.865  0.2458 -0.2484  0.0430
  418TMC3    C8 6298   0.703   2.726   0.564 -0.0197  0.4090  0.5940
  418TMC3    O1 6299   1.095   2.431   0.845  0.3668 -0.4770  0.2699
  418TMC3    O2 6300   0.668   2.827   0.503  0.0376 -0.4171  0.1007
  419MPD2     C 6301   4.093   1.015  12.309  0.1242  0.9791  0.0927
  419MPD2    C1 6302   4.014   1.128  12.318 -1.1865 -0.0484  0.9026
  419MPD2    C2 6303   3.946   1.159  12.439  0.8128  0.2203  0.2307
  419MPD2    C3 6304   3.960   1.080  12.548  0.8480 -0.7438 -0.4951
  419MPD2    C4 6305   4.041   0.969  12.535  0.4978  0.3304 -0.2183
  419MPD2    C5 6306   4.100   0.930  12.423  0.3270  0.3832  0.3263
  419MPD2     H 6307   3.888   1.251  12.447 -2.5482 -2.0602  2.1081
  419MPD2    H1 6308   4.081   0.907  12.615 -1.4277  0.9099  1.1770
  419MPD2    H2 6309   4.136   0.988  12.213  0.0334 -1.8736  0.8569
  419MPD2    H3 6310   4.171   0.848  12.423 -0.0585  0.0489  0.6243
  419MPD2     N 6311   3.899   1.133  12.669  0.2722 -0.1589  0.2759
  419MPD2    H5 6312   3.831   1.208  12.662  1.2208  0.6824  0.0459
  419MPD2    N1 6313   3.998   1.223  12.211  0.0860 -0.4710  1.0062
  419MPD2    H7 6314   3.936   1.298  12.239 -0.9229 -1.4525  1.4059
  420TMC3    C1 6315   3.836   1.147  12.904  0.2490 -0.3133  0.3021
  420TMC3    C2 6316   3.713   1.204  12.880  0.2622  0.5365  0.0001
  420TMC3    C3 6317   3.642   1.251  12.983  0.1174 -0.2038  0.2520
  420TMC3    C4 6318   3.884   1.141  13.030  0.0835 -0.7345  0.0910
  420TMC3    C5 6319   3.800   1.178  13.134 -0.0584  0.0836 -0.0331
  420TMC3    C6 6320   3.683   1.245  13.110  0.4289 -0.1803  0.1089
  420TMC3     C 6321   3.924   1.088  12.800  0.5340  0.4516 -0.0328
  420TMC3     O 6322   4.021   1.015  12.829 -0.1159 -0.5454 -0.5934
  420TMC3     H 6323   3.669   1.204  12.781 -1.0799  4.3107  0.5794
  420TMC3    H1 6324   3.987   1.112  13.048  0.3420  0.4977  0.5874
  420TMC3    H2 6325   3.617   1.269  13.193 -0.2481  1.2021 -0.8289
  420TMC3    C7 6326   3.837   1.135  13.267  0.3949  0.2028 -0.0169
  420TMC3    C8 6327   3.519   1.311  12.936 -0.5448 -0.2648 -1.2321
  420TMC3    O1 6328   3.939   1.060  13.269  0.1417  0.2924 -0.0516
  420TMC3    O2 6329   3.525   1.386  12.839 -0.5902  0.1160  0.1042
  421TMC3    C1 6330   0.783   1.869  13.564  0.0096  0.8210  0.5155
  421TMC3    C2 6331   0.726   1.991  13.592 -0.5731  0.0419 -0.2027
  421TMC3    C3 6332   0.797   2.090  13.650 -0.8803 -0.5262 -0.5095
  421TMC3    C4 6333   0.909   1.836  13.612 -0.2475 -0.2089  0.7728
  421TMC3    C5 6334   0.975   1.933  13.678  0.2377 -0.2299 -0.6170
  421TMC3    C6 6335   0.923   2.063  13.693 -1.2249 -0.4567  0.4699
  421TMC3     C 6336   0.713   1.775  13.481 -0.1122  0.6578 -0.4418
  421TMC3     O 6337   0.781   1.688  13.432 -0.6247  0.0834 -0.7192
  421TMC3     H 6338   0.626   2.025  13.567 -2.3435 -3.9761  1.4298
  421TMC3    H1 6339   0.931   1.731  13.602 -2.1980 -0.2878 -2.6791
  421TMC3    H2 6340   0.974   2.143  13.745  0.4115 -1.5187  0.4825
  421TMC3    C7 6341   1.085   1.903  13.755 -0.3092 -0.1856  0.3867
  421TMC3    C8 6342   0.716   2.164  13.740 -0.5700 -0.1406 -0.0867
  421TMC3    O1 6343   1.150   1.995  13.808  0.2458 -0.4090  0.3694
  421TMC3    O2 6344   0.754   2.170  13.857  0.1911  0.5908 -0.2578
  422TMC3    C1 6345   3.253   3.634  13.042  0.2721  0.3072  0.5351
  422TMC3    C2 6346   3.187   3.736  13.108  0.1963  0.5178 -0.1870
  422TMC3    C3 6347   3.047   3.726  13.114 -0.6639  0.3708  0.1671
  422TMC3    C4 6348   3.189   3.530  12.983 -0.0727  0.3095 -0.3357
  422TMC3    C5 6349   3.053   3.527  12.985  0.0477  0.4904  0.0224
  422TMC3    C6 6350   2.980   3.628  13.042  0.6384  0.4311 -0.2206
  422TMC3     C 6351   3.361   3.688  12.960 -0.3456  0.1464  0.4928
  422TMC3     O 6352   3.430   3.782  13.003 -0.3704  0.0150 -0.1527
  422TMC3     H 6353   3.249   3.814  13.151  0.7092 -1.9590  3.5772
  422TMC3    H1 6354   3.249   3.448  12.946  1.8810  1.5874  0.0031
  422TMC3    H2 6355   2.872   3.617  13.046  0.9286 -2.7191 -1.1307
  422TMC3    C7 6356   2.997   3.462  12.867  0.8338  0.3360  0.0282
  422TMC3    C8 6357   2.981   3.848  13.154 -0.2764 -0.4912 -0.6653
  422TMC3    O1 6358   3.080   3.418  12.792  0.2834 -0.2797  0.3251
  422TMC3    O2 6359   3.052   3.944  13.181  0.1901 -0.0332 -0.0392
  423MPD2     C 6360   3.670   4.249   0.707  0.0575  0.5229  0.2302
  423MPD2    C1 6361   3.708   4.116   0.715  0.0474  0.7850  0.1251
  423MPD2    C2 6362   3.779   4.059   0.610  0.0522 -0.5407  0.5777
  423MPD2    C3 6363   3.810   4.139   0.499 -0.6664  0.0639  0.9296
  423MPD2    C4 6364   3.751   4.265   0.481 -0.7119  0.1610 -1.2348
  423MPD2    C5 6365   3.695   4.325   0.596  1.4563 -0.0271 -0.0152
  423MPD2     H 6366   3.798   3.952   0.616 -2.7640 -1.1200 -0.7052
  423MPD2    H1 6367   3.765   4.315   0.386  1.8395 -1.4217 -1.6878
  423MPD2    H2 6368   3.607   4.297   0.781 -1.7474 -2.0343  0.3646
  423MPD2    H3 6369   3.649   4.423   0.594  3.2809  0.7969 -1.4212
  423MPD2     N 6370   3.888   4.092   0.388  0.3645 -0.2480 -0.9802
  423MPD2    H5 6371   3.903   4.156   0.311  1.8640 -0.8602 -1.1971
  423MPD2    N1 6372   3.658   4.033   0.821 -0.3906  0.4229  0.3413
  423MPD2    H7 6373   3.703   3.943   0.836 -1.6448 -0.3073 -0.2346
  424TMC3    C1 6374   3.516   3.956   1.003 -0.0968 -0.5133  0.0699
  424TMC3    C2 6375   3.630   3.915   1.065  0.8680  0.0648 -0.4020
  424TMC3    C3 6376   3.612   3.864   1.189  0.2302  0.3489 -0.2850
  424TMC3    C4 6377   3.391   3.944   1.050 -0.2092 -0.1729 -0.5049
  424TMC3    C5 6378   3.382   3.889   1.175 -0.3891 -0.0745  0.3091
  424TMC3    C6 6379   3.486   3.845   1.246  0.6246  0.6343 -0.3259
  424TMC3     C 6380   3.543   4.055   0.893 -0.0302  0.1791 -0.5455
  424TMC3     O 6381   3.467   4.145   0.878  0.2729  0.4358  0.1201
  424TMC3     H 6382   3.728   3.934   1.024  1.4214  1.5008  1.5760
  424TMC3    H1 6383   3.306   3.984   0.997  0.0616  0.7141 -0.2765
  424TMC3    H2 6384   3.475   3.802   1.345 -0.5691 -0.9941 -1.1638
  424TMC3    C7 6385   3.254   3.891   1.244  0.0632 -0.2773 -0.3139
  424TMC3    C8 6386   3.727   3.819   1.261  0.3789 -0.1625 -0.3263
  424TMC3    O1 6387   3.230   3.819   1.341  0.5333  0.2929  0.0537
  424TMC3    O2 6388   3.824   3.890   1.256  0.1728  0.4210 -0.2352
  425MPD2     C 6389   3.687   3.701  17.253  0.4256  0.5074 -0.4146
  425MPD2    C1 6390   3.599   3.593  17.274  0.5222  0.0943 -0.2235
  425MPD2    C2 6391   3.485   3.610  17.348  0.2855  0.1375  0.1350
  425MPD2    C3 6392   3.457   3.735  17.403  0.2165  1.5530 -0.1696
  425MPD2    C4 6393   3.550   3.831  17.403  0.2490 -0.4428  0.3333
  425MPD2    C5 6394   3.665   3.818  17.327 -0.0185 -0.1703  0.1706
  425MPD2     H 6395   3.407   3.535  17.356  2.2543 -2.1731 -2.2718
  425MPD2    H1 6396   3.538   3.922  17.461 -1.1593 -0.5994  0.2906
  425MPD2    H2 6397   3.782   3.689  17.201 -1.0587 -2.5688 -2.4148
  425MPD2    H3 6398   3.733   3.902  17.319  0.3980 -0.5229 -0.0109
  425MPD2     N 6399   3.334   3.740  17.469 -0.1862 -0.4343  0.1022
  425MPD2    H5 6400   3.285   3.652  17.452 -0.7493 -0.4376  1.7134
  425MPD2    N1 6401   3.628   3.470  17.209 -0.7963 -0.2388  0.9690
  425MPD2    H7 6402   3.689   3.473  17.127 -2.0387 -2.3334 -0.0351
  426TMC3    C1 6403   3.615   3.236  17.170 -0.5999  0.5000  0.3325
  426TMC3    C2 6404   3.634   3.247  17.040 -0.1676 -0.9585  0.4046
  426TMC3    C3 6405   3.660   3.133  16.966 -0.4639 -0.2830  0.2855
  426TMC3    C4 6406   3.590   3.116  17.226  0.1481  0.4087 -0.0708
  426TMC3    C5 6407   3.615   3.010  17.149 -0.2393 -0.1958 -0.6545
  426TMC3    C6 6408   3.655   3.014  17.025 -0.4941  0.1730  0.3835
  426TMC3     C 6409   3.573   3.351  17.242  0.7726 -0.0061 -0.3670
  426TMC3     O 6410   3.490   3.319  17.329 -0.3806  0.7306  0.2686
  426TMC3     H 6411   3.644   3.340  16.985 -0.5492 -0.6599  0.8397
  426TMC3    H1 6412   3.558   3.113  17.329 -2.2267  0.2691 -0.8229
  426TMC3    H2 6413   3.657   2.924  16.964  1.2904 -0.4624  1.3511
  426TMC3    C7 6414   3.554   2.883  17.171  0.2847  0.2844 -0.4075
  426TMC3    C8 6415   3.610   3.123  16.836 -0.6927  0.0297  0.3263
  426TMC3    O1 6416   3.595   2.782  17.118 -0.0181  0.2541 -0.0577
  426TMC3    O2 6417   3.678   3.052  16.763 -0.7735  0.6036 -0.4078
  427MPD2     C 6418   2.056   1.320  15.268 -0.6909  0.4173 -0.0182
  427MPD2    C1 6419   2.008   1.197  15.227 -0.3284 -0.2674  0.2983
  427MPD2    C2 6420   1.877   1.191  15.191 -0.3471  0.3734 -0.1022
  427MPD2    C3 6421   1.800   1.302  15.180  0.0072 -0.2648  0.6805
  427MPD2    C4 6422   1.852   1.425  15.213 -0.2107  0.0052  0.7629
  427MPD2    C5 6423   1.978   1.432  15.265  0.9979 -0.0700 -0.0186
  427MPD2     H 6424   1.836   1.098  15.154 -0.2415  0.0783  0.5338
  427MPD2    H1 6425   1.797   1.518  15.205  1.4593  0.8859 -0.5550
  427MPD2    H2 6426   2.155   1.335  15.310 -0.2031 -0.5610 -0.8391
  427MPD2    H3 6427   2.018   1.526  15.302 -0.3794  0.9776 -1.2046
  427MPD2     N 6428   1.661   1.287  15.153  0.3400 -0.2991  0.6465
  427MPD2    H5 6429   1.604   1.369  15.136 -0.2819 -0.7550  0.5529
  427MPD2    N1 6430   2.087   1.077  15.224  0.2382  0.7494 -0.0852
  427MPD2    H7 6431   2.039   0.991  15.200  0.3779  0.4956  0.5661
  428TMC3    C1 6432   2.262   0.923  15.284 -0.3528  0.2690  0.0402
  428TMC3    C2 6433   2.171   0.826  15.289 -0.1056 -0.0784  0.1718
  428TMC3    C3 6434   2.206   0.706  15.345 -0.5485  0.4234 -0.5556
  428TMC3    C4 6435   2.388   0.908  15.343 -0.2840 -0.2211 -0.7597
  428TMC3    C5 6436   2.423   0.789  15.405  0.5667  0.0679 -0.2451
  428TMC3    C6 6437   2.332   0.683  15.397 -0.5748  0.6479  0.7273
  428TMC3     C 6438   2.213   1.059  15.273  0.4989  0.3921  0.5304
  428TMC3     O 6439   2.281   1.146  15.323 -0.4335 -0.5738  0.3381
  428TMC3     H 6440   2.068   0.833  15.258 -0.1040 -2.3535 -0.3405
  428TMC3    H1 6441   2.449   0.997  15.360  0.6726 -0.9238 -0.5302
  428TMC3    H2 6442   2.334   0.604  15.472 -0.5515 -1.5553 -1.5886
  428TMC3    C7 6443   2.469   0.806  15.536 -0.0552  0.2411  0.3163
  428TMC3    C8 6444   2.088   0.646  15.404  0.1473 -0.6038 -0.0927
  428TMC3    O1 6445   2.393   0.757  15.620  0.9398 -0.0692 -0.4004
  428TMC3    O2 6446   1.989   0.612  15.341 -0.0340  0.2960  0.0455
  429MPD2     C 6447   2.782   0.692  17.280  0.4041 -0.4817  0.2653
  429MPD2    C1 6448   2.877   0.589  17.276 -0.5434 -0.0085  0.2610
  429MPD2    C2 6449   2.991   0.611  17.199  0.0907 -0.1600 -1.1034
  429MPD2    C3 6450   3.005   0.738  17.138  0.7590 -0.4189  0.5669
  429MPD2    C4 6451   2.904   0.837  17.140 -0.4793  0.1356  0.8305
  429MPD2    C5 6452   2.794   0.814  17.217  0.3456 -0.3592 -0.3949
  429MPD2     H 6453   3.069   0.536  17.189  0.9227  0.4918  0.6581
  429MPD2    H1 6454   2.916   0.933  17.093 -1.0312 -1.5519 -2.7878
  429MPD2    H2 6455   2.693   0.681  17.341  0.9835 -0.4247  1.1189
  429MPD2    H3 6456   2.727   0.897  17.233  2.0453  1.1650 -1.1704
  429MPD2     N 6457   3.126   0.767  17.078 -0.3547 -0.5456  0.3798
  429MPD2    H5 6458   3.205   0.718  17.119 -0.5166  1.0107  2.5757
  429MPD2    N1 6459   2.868   0.467  17.345  0.5906  0.3018 -0.0461
  429MPD2    H7 6460   2.932   0.395  17.313 -0.9912 -1.2216  0.1779
  430TMC3    C1 6461   3.302   0.884  16.980  0.1217  0.4310 -0.9134
  430TMC3    C2 6462   3.347   1.005  16.935 -0.0001  0.8955 -0.9195
  430TMC3    C3 6463   3.471   1.006  16.878  0.6179  1.3177  0.4096
  430TMC3    C4 6464   3.367   0.764  16.956 -0.2578  0.1674 -0.6543
  430TMC3    C5 6465   3.487   0.766  16.882  0.0748 -0.3418  0.1365
  430TMC3    C6 6466   3.543   0.887  16.854  0.5532  0.1328 -0.7330
  430TMC3     C 6467   3.157   0.873  16.997  0.0500 -0.8616  0.4371
  430TMC3     O 6468   3.087   0.955  16.944 -0.2979  0.0206 -0.4483
  430TMC3     H 6469   3.289   1.096  16.935 -0.1222  0.8145 -1.5452
  430TMC3    H1 6470   3.305   0.675  16.960 -0.4734  0.3920  0.8071
  430TMC3    H2 6471   3.634   0.898  16.797 -1.5241  2.3069 -3.6360
  430TMC3    C7 6472   3.490   0.664  16.785  0.2856 -0.4017  0.9118
  430TMC3    C8 6473   3.462   1.059  16.753 -0.3780  0.1358 -0.2949
  430TMC3    O1 6474   3.467   0.549  16.826  0.0198  0.2870  0.1160
  430TMC3    O2 6475   3.498   0.996  16.654 -0.4205  0.2391 -0.1350
  431MPD2     C 6476   3.918   2.009  12.058  0.3973  0.1644 -0.0503
  431MPD2    C1 6477   3.954   1.891  12.120 -0.5875 -0.0171  0.5745
  431MPD2    C2 6478   3.890   1.771  12.083  0.1773  0.2831  0.1374
  431MPD2    C3 6479   3.787   1.775  11.989 -0.7129 -0.9489 -0.1258
  431MPD2    C4 6480   3.744   1.898  11.938  0.7544 -0.1077  0.9322
  431MPD2    C5 6481   3.811   2.007  11.967 -0.5524 -0.9878 -0.4054
  431MPD2     H 6482   3.919   1.681  12.135  1.3453  0.9298  0.6156
  431MPD2    H1 6483   3.660   1.911  11.871  1.4522  0.1318  0.1021
  431MPD2    H2 6484   3.965   2.105  12.078 -0.7002  0.4977  0.9036
  431MPD2    H3 6485   3.779   2.097  11.915  1.3861 -0.8546 -1.3987
  431MPD2     N 6486   3.718   1.657  11.947  0.1291 -0.4174  0.3994
  431MPD2    H5 6487   3.625   1.672  11.910  1.0564 -1.6422 -2.3685
  431MPD2    N1 6488   4.073   1.908  12.198 -0.0944 -0.1362 -0.3407
  431MPD2    H7 6489   4.112   2.002  12.203 -0.0231 -0.1890  0.0638
  432TMC3    C1 6490   3.879   1.487  11.965  0.1869 -0.7131 -0.3081
  432TMC3    C2 6491   3.967   1.546  11.881 -0.3064  0.3058 -0.1075
  432TMC3    C3 6492   4.097   1.498  11.868 -0.0530 -0.8578 -0.4192
  432TMC3    C4 6493   3.911   1.366  12.012  0.1420  0.4682  0.7060
  432TMC3    C5 6494   4.040   1.327  12.002 -0.2400 -0.2312 -0.1683
  432TMC3    C6 6495   4.133   1.395  11.946 -0.0576 -0.1556  0.3094
  432TMC3     C 6496   3.747   1.530  11.982  0.0916 -0.5461 -0.3024
  432TMC3     O 6497   3.667   1.435  11.964  0.9696  0.1470  0.2039
  432TMC3     H 6498   3.947   1.646  11.843  2.0359  0.1326 -1.8394
  432TMC3    H1 6499   3.833   1.317  12.070  1.1040  0.7483  2.2364
  432TMC3    H2 6500   4.235   1.358  11.948 -0.0120 -0.0002  0.8069
  432TMC3    C7 6501   4.080   1.224  12.096  0.2790 -0.1664  0.0848
  432TMC3    C8 6502   4.194   1.600  11.809 -0.3988 -0.5021 -0.2794
  432TMC3    O1 6503   4.190   1.175  12.088  0.1788  0.1155  0.2186
  432TMC3    O2 6504   4.137   1.673  11.722 -0.6368 -0.5613 -0.2648
  433MPD2     C 6505   2.579   4.553  10.542  0.9334  0.2208 -0.2342
  433MPD2    C1 6506   2.613   4.485  10.657  0.1268 -0.0356  0.2088
  433MPD2    C2 6507   2.620   4.550  10.780 -0.4088 -1.0018  0.3704
  433MPD2    C3 6508   2.613   4.689  10.781 -0.8701  0.2654 -0.0751
  433MPD2    C4 6509   2.568   0.020  10.672 -0.4320 -0.2700  0.4001
  433MPD2    C5 6510   2.542   4.689  10.550  0.2451  0.7746  0.0885
  433MPD2     H 6511   2.640   4.505  10.877  1.9808 -0.2305  0.2171
  433MPD2    H1 6512   2.559   0.128  10.676  1.5722 -0.1286  0.9350
  433MPD2    H2 6513   2.562   4.503  10.448  5.8082 -2.8588  0.5497
  433MPD2    H3 6514   2.517   0.018  10.467 -0.0715  0.4505 -0.0646
  433MPD2     N 6515   2.654   0.017  10.907  0.3392 -0.7346 -0.0256
  433MPD2    H5 6516   2.662   4.689  10.987  0.1451 -2.7077 -1.5378
  433MPD2    N1 6517   2.620   4.343  10.647 -0.3721 -0.6479  0.1266
  433MPD2    H7 6518   2.633   4.310  10.552  0.4078  2.4088 -0.8399
  434TMC3    C1 6519   2.638   4.124  10.727  0.9730 -0.2878  0.0818
  434TMC3    C2 6520   2.725   4.072  10.824  0.1460  0.2013  0.1670
  434TMC3    C3 6521   2.710   3.946  10.877 -0.2972  0.4311 -0.1720
  434TMC3    C4 6522   2.517   4.056  10.705 -1.0360 -0.2508 -0.3282
  434TMC3    C5 6523   2.499   3.927  10.762 -1.2353 -0.2367 -0.2560
  434TMC3    C6 6524   2.595   3.878  10.847  0.2438  0.1807  0.0638
  434TMC3     C 6525   2.613   4.261  10.759 -0.0050 -0.3764 -0.3283
  434TMC3     O 6526   2.574   4.286  10.872 -1.0108 -0.1995  0.1725
  434TMC3     H 6527   2.777   4.151  10.878 -0.0706  0.5433 -0.1288
  434TMC3    H1 6528   2.447   4.099  10.633 -1.9597 -0.9919  0.1192
  434TMC3    H2 6529   2.585   3.776  10.883 -2.5278 -0.3795 -2.3528
  434TMC3    C7 6530   2.383   3.856  10.729  0.8992  0.5197 -0.0068
  434TMC3    C8 6531   2.801   3.927  10.990  0.0633 -0.7105  0.2766
  434TMC3    O1 6532   2.330   3.879  10.625  0.7961  0.2120 -0.1174
  434TMC3    O2 6533   2.911   3.987  10.987 -0.1306  0.0459 -0.6408
  435MPD2     C 6534   0.331   4.375  15.449 -0.0043  0.1955  0.5389
  435MPD2    C1 6535   0.254   4.283  15.518 -0.2243 -0.5810 -0.0817
  435MPD2    C2 6536   0.303   4.236  15.642 -0.0771  0.5454 -0.3340
  435MPD2    C3 6537   0.437   4.259  15.680  0.2023  0.1363 -0.1358
  435MPD2    C4 6538   0.512   4.340  15.607 -0.0381  0.3353 -0.5160
  435MPD2    C5 6539   0.453   4.400  15.502  0.2381  0.8932 -0.1329
  435MPD2     H 6540   0.240   4.176  15.707 -1.9946  2.2060 -0.6446
  435MPD2    H1 6541   0.616   4.360  15.628  0.1247 -0.2526 -0.7773
  435MPD2    H2 6542   0.295   4.425  15.359  0.7237 -0.9596 -0.3946
  435MPD2    H3 6543   0.517   4.467  15.445 -0.0667 -0.5861 -2.2366
  435MPD2     N 6544   0.484   4.188  15.793 -0.0097 -0.2229  0.4762
  435MPD2    H5 6545   0.419   4.127  15.842 -0.2761 -1.4059 -1.3800
  435MPD2    N1 6546   0.131   4.240  15.470  0.4556 -0.3034 -0.2146
  435MPD2    H7 6547   0.081   4.186  15.540 -0.9033  0.9945 -0.2087
  436TMC3    C1 6548   4.463   4.137  15.423  0.2477  0.1476  0.1466
  436TMC3    C2 6549   4.592   4.181  15.444 -0.0448  0.3876 -0.5787
  436TMC3    C3 6550   4.674   4.199  15.334 -0.0090 -0.0999 -1.0801
  436TMC3    C4 6551   4.410   4.109  15.299 -0.0109 -0.2639 -0.2974
  436TMC3    C5 6552   4.487   4.136  15.187 -0.3222 -0.1551  0.4046
  436TMC3    C6 6553   4.621   4.180  15.204 -0.1368 -0.4949 -0.2734
  436TMC3     C 6554   4.392   4.062  15.530  0.6087 -0.7451 -0.0304
  436TMC3     O 6555   4.338   3.959  15.502 -0.5007  0.4158  0.4954
  436TMC3     H 6556   4.622   4.187  15.548 -0.1918 -1.0304 -0.4566
  436TMC3    H1 6557   4.311   4.067  15.282 -0.4248  0.8556 -0.6070
  436TMC3    H2 6558   4.695   4.182  15.125  0.3983  0.9169  0.2597
  436TMC3    C7 6559   4.426   4.150  15.052 -0.3202 -0.1890 -0.0053
  436TMC3    C8 6560   0.074   4.254  15.345  0.1546  0.1263  0.1824
  436TMC3    O1 6561   4.317   4.097  15.033  0.1746 -0.3803  0.0012
  436TMC3    O2 6562   0.136   4.289  15.246 -0.0769  0.0409 -0.1762
  437TMC3    C1 6563   3.438   2.287  12.641 -0.6432  0.1876 -0.2209
  437TMC3    C2 6564   3.341   2.328  12.553 -0.1439 -0.3542  0.0773
  437TMC3    C3 6565   3.375   2.421  12.461  0.5400 -0.1517  0.1784
  437TMC3    C4 6566   3.561   2.337  12.636 -0.0714 -0.2878  0.0265
  437TMC3    C5 6567   3.595   2.436  12.545  0.5452 -0.1202  0.2959
  437TMC3    C6 6568   3.502   2.473  12.452 -0.1384 -0.3295  0.1987
  437TMC3     C 6569   3.409   2.179  12.728  0.1168 -0.6480  0.4294
  437TMC3     O 6570   3.496   2.096  12.747  0.2722  0.5190 -0.1679
  437TMC3     H 6571   3.253   2.269  12.532 -0.4963  1.0203 -2.2023
  437TMC3    H1 6572   3.620   2.301  12.719  0.5167 -0.2575 -0.3765
  437TMC3    H2 6573   3.520   2.559  12.389 -0.7498 -1.2364 -1.1985
  437TMC3    C7 6574   3.737   2.467  12.509  0.2853 -0.1576  0.3646
  437TMC3    C8 6575   3.280   2.443  12.350  0.2846 -0.0310  0.1264
  437TMC3    O1 6576   3.753   2.568  12.434  0.6092  0.6617  0.1430
  437TMC3    O2 6577   3.164   2.402  12.361  0.4500 -0.4734 -0.2150
  438MPD2     C 6578   1.065   2.521  16.995 -0.4279 -0.0290 -0.7759
  438MPD2    C1 6579   1.159   2.449  17.066 -0.0295 -0.0037 -0.4098
  438MPD2    C2 6580   1.166   2.459  17.203  0.5169 -0.1503  0.5199
  438MPD2    C3 6581   1.098   2.561  17.266  0.2186 -0.1461 -0.0647
  438MPD2    C4 6582   1.006   2.640  17.201 -0.1074 -0.3551  0.0369
  438MPD2    C5 6583   0.994   2.613  17.066  0.7199 -0.3179  0.8388
  438MPD2     H 6584   1.225   2.385  17.255 -0.5246 -0.2175  1.6140
  438MPD2    H1 6585   0.944   2.710  17.255 -0.5231 -0.2916 -0.5293
  438MPD2    H2 6586   1.053   2.525  16.888  1.0094  2.2238 -0.8506
  438MPD2    H3 6587   0.919   2.672  17.013  0.7567  1.5804  2.9283
  438MPD2     N 6588   1.102   2.581  17.410 -0.2484  0.2772 -0.3133
  438MPD2    H5 6589   1.029   2.642  17.445 -0.0723  1.1240 -1.4186
  438MPD2    N1 6590   1.236   2.342  17.006  0.5111  0.8835  0.1500
  438MPD2    H7 6591   1.297   2.285  17.064 -0.0698  0.7088  0.5903
  439TMC3    C1 6592   1.337   2.219  16.836 -0.4311  0.3183 -0.0845
  439TMC3    C2 6593   1.332   2.189  16.696  0.1487  0.8413  0.1241
  439TMC3    C3 6594   1.440   2.127  16.638 -0.3936 -0.1127 -0.4317
  439TMC3    C4 6595   1.450   2.197  16.911 -0.1236  0.0429  0.1790
  439TMC3    C5 6596   1.556   2.129  16.849 -0.9667  0.2898  0.2132
  439TMC3    C6 6597   1.553   2.093  16.716 -0.1043  0.2564  0.6544
  439TMC3     C 6598   1.230   2.311  16.875 -0.8266  0.2182 -0.2195
  439TMC3     O 6599   1.162   2.362  16.791 -0.2369 -0.0979  0.0503
  439TMC3     H 6600   1.244   2.208  16.635 -0.9214 -2.5391  0.6471
  439TMC3    H1 6601   1.466   2.241  17.008  0.3190 -2.0626  1.0674
  439TMC3    H2 6602   1.642   2.043  16.679 -2.1215 -0.2403 -3.5107
  439TMC3    C7 6603   1.649   2.051  16.931  0.8867 -0.7429 -0.1927
  439TMC3    C8 6604   1.400   2.045  16.527  0.2301 -0.3251 -0.0582
  439TMC3    O1 6605   1.742   1.998  16.872  0.7466 -0.5395  0.5867
  439TMC3    O2 6606   1.284   2.052  16.487  0.3512  0.4173  0.3590
  440MPD2     C 6607   0.161   2.700  15.166 -0.5530  0.2050 -0.7141
  440MPD2    C1 6608   0.103   2.728  15.286 -0.2624 -0.7638  0.5414
  440MPD2    C2 6609   0.181   2.721  15.398  0.2857  0.4048  0.1161
  440MPD2    C3 6610   0.312   2.672  15.388 -0.4841 -0.8520 -0.2351
  440MPD2    C4 6611   0.367   2.631  15.272  0.4108 -0.4417  0.0105
  440MPD2    C5 6612   0.292   2.650  15.162 -0.3651 -0.5901 -0.3406
  440MPD2     H 6613   0.131   2.733  15.493 -1.2492 -0.4202 -0.5787
  440MPD2    H1 6614   0.471   2.603  15.260  0.4746 -0.8493  1.4354
  440MPD2    H2 6615   0.110   2.710  15.071 -0.8362  1.1550 -0.4700
  440MPD2    H3 6616   0.331   2.637  15.062  1.1550 -0.1893  0.2107
  440MPD2     N 6617   0.388   2.660  15.503  0.0060 -0.4449  0.6146
  440MPD2    H5 6618   0.464   2.593  15.496  2.4467  2.4929 -1.1447
  440MPD2    N1 6619   4.702   2.766  15.298  0.0530  0.3797  0.2161
  440MPD2    H7 6620   4.673   2.783  15.394  0.6515 -0.1668  0.4930
  441TMC3    C1 6621   0.503   2.723  15.692  0.2614 -0.1370  0.0755
  441TMC3    C2 6622   0.521   2.835  15.773 -0.2240  0.7100 -0.1869
  441TMC3    C3 6623   0.586   2.813  15.893  0.5690  0.3229  0.2874
  441TMC3    C4 6624   0.563   2.600  15.721  0.2928  0.3846  0.5906
  441TMC3    C5 6625   0.634   2.583  15.841  0.3920  0.0361 -0.0843
  441TMC3    C6 6626   0.634   2.692  15.928 -0.3594  0.1268  0.3784
  441TMC3     C 6627   0.377   2.733  15.617  0.3435  0.6697 -0.0857
  441TMC3     O 6628   0.307   2.830  15.643 -0.0082  0.7707  0.7692
  441TMC3     H 6629   0.486   2.935  15.749 -1.9526  0.4686  1.2987
  441TMC3    H1 6630   0.547   2.514  15.658  0.3107 -0.1046  1.2533
  441TMC3    H2 6631   0.690   2.679  16.020  0.2670 -2.0000 -0.2972
  441TMC3    C7 6632   0.640   2.451  15.894 -0.1279 -1.0549  0.8329
  441TMC3    C8 6633   0.547   2.901  16.003  0.2864  0.1665 -0.5013
  441TMC3    O1 6634   0.580   2.366  15.832  0.2181  0.2295 -0.7448
  441TMC3    O2 6635   0.577   2.879  16.117  0.4618  0.1235  0.1773
  442MPD2     C 6636   3.067   3.146  16.196  0.1715 -0.5833  0.4134
  442MPD2    C1 6637   2.957   3.071  16.237  0.0834 -0.3239 -0.7200
  442MPD2    C2 6638   2.928   2.949  16.171 -0.3635 -0.3162  0.8342
  442MPD2    C3 6639   3.010   2.910  16.064 -0.2663 -0.4575 -0.0184
  442MPD2    C4 6640   3.127   2.979  16.036 -0.0269 -0.0019  0.5329
  442MPD2    C5 6641   3.155   3.096  16.104 -0.2351 -0.1857 -0.2617
  442MPD2     H 6642   2.838   2.894  16.195 -0.2829 -0.9944 -0.3726
  442MPD2    H1 6643   3.191   2.945  15.956 -0.8359  0.3723 -0.2660
  442MPD2    H2 6644   3.090   3.241  16.243 -0.0797 -1.6068  2.6029
  442MPD2    H3 6645   3.247   3.145  16.076 -1.8355  3.1324  0.2901
  442MPD2     N 6646   2.987   2.796  15.988 -0.0059 -0.1855 -0.3444
  442MPD2    H5 6647   3.047   2.784  15.907 -0.0017 -2.8695  0.0652
  442MPD2    N1 6648   2.875   3.100  16.346  0.1126 -0.2191 -0.7860
  442MPD2    H7 6649   2.817   3.025  16.383 -0.0297  0.5308  0.5041
  443TMC3    C1 6650   2.816   3.219  16.549  0.6578  0.0555 -0.1634
  443TMC3    C2 6651   2.765   3.344  16.581  0.7938  0.1906 -0.1051
  443TMC3    C3 6652   2.651   3.343  16.652  0.1191  0.2535  0.9416
  443TMC3    C4 6653   2.772   3.102  16.598  0.2841  0.8128 -0.2224
  443TMC3    C5 6654   2.674   3.115  16.691  0.2974  0.6724  0.1273
  443TMC3    C6 6655   2.601   3.234  16.715 -0.0709 -0.5714  0.1527
  443TMC3     C 6656   2.891   3.217  16.428  0.0724  0.1635 -0.1779
  443TMC3     O 6657   2.963   3.314  16.411  0.0628  1.1691  0.4993
  443TMC3     H 6658   2.801   3.435  16.534  1.2583  2.0068  3.7801
  443TMC3    H1 6659   2.816   3.003  16.591 -1.2250  0.1154  0.1118
  443TMC3    H2 6660   2.522   3.250  16.787 -0.7107 -1.1768 -0.4113
  443TMC3    C7 6661   2.632   2.996  16.769  0.3498 -0.1934  0.0787
  443TMC3    C8 6662   2.592   3.474  16.696  0.2304 -0.3443  0.0437
  443TMC3    O1 6663   2.668   2.887  16.722  0.0008  0.0803  0.3803
  443TMC3    O2 6664   2.618   3.502  16.813 -0.1661 -1.2252  0.0377
  444MPD2     C 6665   3.275   2.822  16.926  0.1328 -0.1529 -1.2267
  444MPD2    C1 6666   3.184   2.723  16.924  0.4206 -0.1350 -0.6707
  444MPD2    C2 6667   3.202   2.623  16.829  0.6105  0.4358  0.1107
  444MPD2    C3 6668   3.310   2.623  16.740 -0.7717  0.1058 -0.3243
  444MPD2    C4 6669   3.406   2.724  16.745 -0.6818  0.3517  0.0052
  444MPD2    C5 6670   3.377   2.826  16.840 -0.3148 -0.2816 -0.0910
  444MPD2     H 6671   3.143   2.532  16.834  1.7992 -0.3577 -0.2532
  444MPD2    H1 6672   3.484   2.731  16.670 -1.6575 -1.3486 -1.1660
  444MPD2    H2 6673   3.264   2.893  17.007  2.9049 -0.8679 -0.2301
  444MPD2    H3 6674   3.453   2.902  16.836  1.8715 -2.6096 -3.4658
  444MPD2     N 6675   3.324   2.516  16.650 -0.2483 -0.1428  0.0838
  444MPD2    H5 6676   3.246   2.451  16.651  0.1251 -0.5869  0.4735
  444MPD2    N1 6677   3.078   2.709  17.017  0.0880 -0.2472  0.1341
  444MPD2    H7 6678   3.008   2.637  17.005 -1.1632  0.8197  0.9212
  445TMC3    C1 6679   3.404   2.368  16.495 -0.5165 -0.1498 -0.3665
  445TMC3    C2 6680   3.279   2.354  16.438 -0.4285  0.1468 -0.3181
  445TMC3    C3 6681   3.266   2.237  16.367 -0.3386  0.3132  0.7298
  445TMC3    C4 6682   3.500   2.270  16.497 -0.3430  0.5428 -0.1295
  445TMC3    C5 6683   3.471   2.153  16.439  0.0651  0.2618  0.2214
  445TMC3    C6 6684   3.355   2.133  16.369  0.0159 -0.1162  0.1748
  445TMC3     C 6685   3.437   2.485  16.577  0.4026  0.8454 -0.6297
  445TMC3     O 6686   3.554   2.523  16.591  0.1231 -0.1689  0.1962
  445TMC3     H 6687   3.212   2.439  16.434  0.8380  1.0463 -2.3727
  445TMC3    H1 6688   3.586   2.295  16.557 -0.6798  1.8016 -0.1729
  445TMC3    H2 6689   3.337   2.041  16.313 -2.2710  0.0833  0.5584
  445TMC3    C7 6690   3.590   2.067  16.427  0.3079 -0.1493 -0.2689
  445TMC3    C8 6691   3.129   2.198  16.332  0.3746 -0.7456  0.3248
  445TMC3    O1 6692   3.693   2.119  16.463 -0.0416  0.5012  0.2957
  445TMC3    O2 6693   3.110   2.079  16.317 -0.5634 -0.1378 -0.2740
  446MPD2     C 6694   2.271   3.993  11.307  0.4494 -0.0311  0.5237
  446MPD2    C1 6695   2.284   4.040  11.178  0.4452  0.0330 -0.0802
  446MPD2    C2 6696   2.398   4.109  11.138  0.0746  0.2933 -0.1360
  446MPD2    C3 6697   2.509   4.108  11.228 -0.4275  0.9026  0.2785
  446MPD2    C4 6698   2.495   4.048  11.349  0.0363 -0.3821  0.8584
  446MPD2    C5 6699   2.375   3.999  11.389 -0.0544 -0.1292 -0.8207
  446MPD2     H 6700   2.410   4.155  11.040  3.1898  0.4504  0.3131
  446MPD2    H1 6701   2.570   4.042  11.427  1.0622  1.6547  0.0081
  446MPD2    H2 6702   2.177   3.949  11.338  1.0313 -1.3267  0.4469
  446MPD2    H3 6703   2.370   3.953  11.487 -1.0529 -0.5983 -1.0928
  446MPD2     N 6704   2.625   4.177  11.194 -0.0020  0.5334  0.3161
  446MPD2    H5 6705   2.635   4.202  11.096 -2.2903 -0.3049 -0.1270
  446MPD2    N1 6706   2.167   4.019  11.095 -0.8499  0.7979 -0.1024
  446MPD2    H7 6707   2.096   3.960  11.138 -0.0175 -0.0506  0.1029
  447TMC3    C1 6708   2.855   4.254  11.204  0.2831  0.7044  0.2143
  447TMC3    C2 6709   2.845   4.328  11.087 -0.5194  0.1459  0.3219
  447TMC3    C3 6710   2.963   4.363  11.035  0.4307 -0.0713 -0.5538
  447TMC3    C4 6711   2.975   4.205  11.253  0.5665 -0.4363 -0.4882
  447TMC3    C5 6712   3.089   4.248  11.188  0.3632 -0.1363  0.2306
  447TMC3    C6 6713   3.086   4.332  11.082 -0.1952 -0.0905 -0.0717
  447TMC3     C 6714   2.736   4.197  11.276  0.2212  0.8735  0.3994
  447TMC3     O 6715   2.756   4.169  11.394  0.3913  0.3043 -0.0254
  447TMC3     H 6716   2.750   4.354  11.042 -0.3081 -0.1541 -0.2922
  447TMC3    H1 6717   2.985   4.142  11.340  0.8687  1.3876  0.8121
  447TMC3    H2 6718   3.168   4.373  11.025 -0.2886 -0.1905 -0.2774
  447TMC3    C7 6719   3.211   4.193  11.236 -0.7503  0.0135 -0.2187
  447TMC3    C8 6720   2.953   4.449  10.923 -0.7075 -0.3478  0.2451
  447TMC3    O1 6721   3.208   4.076  11.278 -0.4644  0.0642  0.3957
  447TMC3    O2 6722   2.879   4.404  10.839 -0.5863 -0.3065  0.5521
  448TMC3    C1 6723   0.910   3.784  17.232 -0.0547 -0.4812  0.7742
  448TMC3    C2 6724   0.904   3.740  17.100 -0.3840  0.3830  0.1494
  448TMC3    C3 6725   0.999   3.651  17.060 -0.1426  0.7614  0.5838
  448TMC3    C4 6726   1.008   3.733  17.318  0.0077  0.4234  0.4371
  448TMC3    C5 6727   1.101   3.642  17.270 -0.1321 -0.4037  0.2623
  448TMC3    C6 6728   1.100   3.609  17.136 -0.1441 -0.2289  0.4412
  448TMC3     C 6729   0.817   3.878  17.290 -0.2305 -0.3380 -1.0467
  448TMC3     O 6730   0.804   3.870  17.414  0.4592 -0.2048 -0.4505
  448TMC3     H 6731   0.840   3.785  17.024 -1.1617  1.0354  1.2010
  448TMC3    H1 6732   1.014   3.782  17.415 -1.0286  1.0702  0.1760
  448TMC3    H2 6733   1.177   3.541  17.099  0.5077  0.1725  1.0529
  448TMC3    C7 6734   1.214   3.599  17.347 -0.5740 -0.0007 -0.2010
  448TMC3    C8 6735   0.985   3.598  16.924 -0.7888  0.2989 -0.4291
  448TMC3    O1 6736   1.308   3.541  17.286 -0.4431 -0.3976 -0.1279
  448TMC3    O2 6737   0.892   3.644  16.854  0.1765  0.4455 -0.1059
  449MPD2     C 6738   2.829   2.259  14.278 -0.0922 -0.5709 -0.1087
  449MPD2    C1 6739   2.735   2.189  14.206  0.6139  0.5790  0.3351
  449MPD2    C2 6740   2.672   2.079  14.256  0.3491 -0.2238  0.2411
  449MPD2    C3 6741   2.691   2.042  14.387  0.3675  0.5270  0.2598
  449MPD2    C4 6742   2.780   2.119  14.465 -0.5229 -0.8578  0.3778
  449MPD2    C5 6743   2.848   2.223  14.410 -0.9765  0.0161  0.1807
  449MPD2     H 6744   2.602   2.028  14.191 -0.9250  0.9266  0.7015
  449MPD2    H1 6745   2.801   2.091  14.567  2.7426  1.6320  0.4029
  449MPD2    H2 6746   2.885   2.343  14.240  1.4881 -2.4573 -1.9346
  449MPD2    H3 6747   2.917   2.280  14.471  1.8376 -2.3108 -0.7657
  449MPD2     N 6748   2.620   1.930  14.428  0.0569 -0.0825  0.0982
  449MPD2    H5 6749   2.570   1.883  14.353 -0.7714 -1.9869  1.8458
  449MPD2    N1 6750   2.678   2.234  14.083 -0.2403  0.1261  0.0094
  449MPD2    H7 6751   2.595   2.184  14.051  0.3983  0.3381 -2.0013
  450TMC3    C1 6752   2.624   2.368  13.916  0.5682 -0.0455  0.0532
  450TMC3    C2 6753   2.665   2.367  13.785  0.0014  0.0739 -0.5306
  450TMC3    C3 6754   2.580   2.312  13.695  0.5907 -0.1815 -0.2654
  450TMC3    C4 6755   2.501   2.317  13.960 -0.2712  0.1856 -0.7217
  450TMC3    C5 6756   2.419   2.252  13.868 -0.8747  0.3982  0.1933
  450TMC3    C6 6757   2.463   2.251  13.739  0.2366 -0.2706 -0.0356
  450TMC3     C 6758   2.731   2.334  14.007 -0.3436  0.4546 -0.8018
  450TMC3     O 6759   2.841   2.382  13.996  0.2786  0.2888 -0.0410
  450TMC3     H 6760   2.759   2.415  13.760  0.0767  1.4621  2.3516
  450TMC3    H1 6761   2.463   2.345  14.057  1.3019  1.7056 -0.5344
  450TMC3    H2 6762   2.402   2.221  13.655  0.9189  0.2982 -0.7443
  450TMC3    C7 6763   2.371   2.132  13.927  0.6980  0.1247 -0.4582
  450TMC3    C8 6764   2.584   2.358  13.548 -0.3343  0.3682  0.0739
  450TMC3    O1 6765   2.386   2.126  14.052  0.1455  0.7428 -0.2338
  450TMC3    O2 6766   2.480   2.372  13.480 -0.0705  0.3630  0.9327
  451MPD2     C 6767   4.043   0.455   0.989  0.1371 -0.2387 -0.1063
  451MPD2    C1 6768   4.009   0.551   0.898  0.1766 -0.4113  0.3276
  451MPD2    C2 6769   4.059   0.547   0.767 -0.1429  0.1649  0.0131
  451MPD2    C3 6770   4.148   0.447   0.729 -0.0063 -0.2402 -0.5425
  451MPD2    C4 6771   4.170   0.340   0.818 -0.0482 -0.0821 -0.1422
  451MPD2    C5 6772   4.120   0.349   0.946  0.2520 -0.4658  0.0156
  451MPD2     H 6773   4.040   0.631   0.702 -1.9764 -1.4929 -1.5536
  451MPD2    H1 6774   4.226   0.252   0.787  0.9817  0.2081  0.9032
  451MPD2    H2 6775   4.024   0.460   1.096  0.5776  0.0026 -0.0376
  451MPD2    H3 6776   4.142   0.278   1.025 -0.7832  0.3551  1.0316
  451MPD2     N 6777   4.212   0.433   0.599  0.2161 -0.3439 -0.5472
  451MPD2    H5 6778   4.275   0.355   0.588  0.5187 -0.1279 -0.3504
  451MPD2    N1 6779   3.920   0.657   0.934 -0.1928 -0.0318 -0.6644
  451MPD2    H7 6780   3.894   0.725   0.863 -1.2813  1.8247  1.4905
  452TMC3    C1 6781   4.282   0.489   0.369 -0.1801  0.2095  0.2577
  452TMC3    C2 6782   4.253   0.367   0.311 -0.7399 -0.3422  0.2257
  452TMC3    C3 6783   4.283   0.349   0.176  0.3001 -0.6226  1.0598
  452TMC3    C4 6784   4.317   0.596   0.298 -0.2807 -0.0591  0.4116
  452TMC3    C5 6785   4.345   0.576   0.167  0.3352  0.1157  0.3954
  452TMC3    C6 6786   4.328   0.456   0.099 -0.4208  0.2015 -0.1911
  452TMC3     C 6787   4.212   0.527   0.493  0.3036  0.4112  0.1105
  452TMC3     O 6788   4.174   0.642   0.496 -0.5841  0.3250  0.1349
  452TMC3     H 6789   4.202   0.291   0.369 -1.6985 -0.0572 -0.2379
  452TMC3    H1 6790   4.347   0.690   0.343  1.3676 -0.1959 -0.4177
  452TMC3    H2 6791   4.331   0.453  17.727  0.9518  0.8242 -0.1719
  452TMC3    C7 6792   4.294   0.695   0.092  1.0233 -0.4512  0.6382
  452TMC3    C8 6793   4.206   0.238   0.116  0.4599  0.2890 -0.1173
  452TMC3    O1 6794   4.328   0.714  17.715  0.9335 -0.6666 -0.0093
  452TMC3    O2 6795   4.260   0.175   0.025 -0.4472 -0.2754 -0.2317
  453TMC3    C1 6796   0.292   3.310  12.212  0.1715  0.0052  0.0695
  453TMC3    C2 6797   0.221   3.214  12.274 -0.3868 -0.8351 -0.1698
  453TMC3    C3 6798   0.146   3.125  12.196 -0.2498  0.1814  0.7271
  453TMC3    C4 6799   0.261   3.343  12.081  0.1795 -0.7893  0.0915
  453TMC3    C5 6800   0.177   3.262  12.009 -0.5055  0.3823 -0.1586
  453TMC3    C6 6801   0.137   3.144  12.060 -0.5730 -0.2074 -0.4030
  453TMC3     C 6802   0.431   3.314  12.249  0.3122  0.1036 -0.0940
  453TMC3     O 6803   0.506   3.369  12.173 -0.0845 -0.1987  0.5901
  453TMC3     H 6804   0.216   3.195  12.380  1.1235  1.8815  0.3742
  453TMC3    H1 6805   0.328   3.411  12.030  0.2782 -0.7008  0.3376
  453TMC3    H2 6806   0.075   3.079  11.999  0.7735 -1.5116 -0.3739
  453TMC3    C7 6807   0.148   3.280  11.866  0.4336  0.0478 -0.1172
  453TMC3    C8 6808   0.140   2.989  12.251  0.2946  0.4754 -0.0243
  453TMC3    O1 6809   0.104   3.183  11.802  0.5297  0.2784  0.0059
  453TMC3    O2 6810   0.113   2.971  12.367  0.2890  0.4003  0.4720
  454MPD2     C 6811   3.965   2.313  16.232 -0.2173 -0.9455 -0.0051
  454MPD2    C1 6812   3.922   2.339  16.102 -0.4642  0.2280  0.4568
  454MPD2    C2 6813   3.883   2.466  16.060 -0.4683  0.2473 -0.8008
  454MPD2    C3 6814   3.918   2.576  16.142  0.0981  0.7432 -1.0976
  454MPD2    C4 6815   3.981   2.551  16.268 -0.4376  0.2691 -0.4153
  454MPD2    C5 6816   3.994   2.423  16.315 -0.3715  0.0489  0.0469
  454MPD2     H 6817   3.851   2.476  15.957  1.0816  2.1454 -1.0903
  454MPD2    H1 6818   4.014   2.633  16.331 -1.5947 -0.4696  1.1228
  454MPD2    H2 6819   3.978   2.213  16.273  0.9408 -1.3662 -1.4017
  454MPD2    H3 6820   4.037   2.410  16.413  0.2742 -1.6669 -0.4611
  454MPD2     N 6821   3.855   2.700  16.116 -0.0062  0.6559  0.3918
  454MPD2    H5 6822   3.848   2.766  16.193  1.2399  0.5395  0.5995
  454MPD2    N1 6823   3.914   2.237  16.005 -0.1207  0.9844 -0.0268
  454MPD2    H7 6824   3.877   2.258  15.913  0.8338  2.2098 -0.1396
  455TMC3    C1 6825   3.693   2.825  16.032  0.1289  0.2652 -0.1771
  455TMC3    C2 6826   3.681   2.885  16.157  0.1070  0.0817  0.4004
  455TMC3    C3 6827   3.550   2.901  16.208 -0.4935 -0.1982 -0.4243
  455TMC3    C4 6828   3.577   2.772  15.965  0.4460 -0.2480 -0.2066
  455TMC3    C5 6829   3.458   2.768  16.028 -0.0221 -0.8392  0.3814
  455TMC3    C6 6830   3.443   2.840  16.140 -0.1064 -0.1978 -0.0605
  455TMC3     C 6831   3.803   2.741  16.002  0.5748 -0.5292 -0.0588
  455TMC3     O 6832   3.816   2.695  15.891  0.3434  0.1058  0.1635
  455TMC3     H 6833   3.771   2.920  16.207  0.3293  1.8391 -1.2003
  455TMC3    H1 6834   3.587   2.726  15.867 -0.4951 -3.0805  1.0231
  455TMC3    H2 6835   3.358   2.813  16.202 -0.3496  2.6004  0.8341
  455TMC3    C7 6836   3.404   2.636  16.032 -0.2820 -0.6023  0.0006
  455TMC3    C8 6837   3.527   2.946  16.349  0.3951 -0.5041 -0.5615
  455TMC3    O1 6838   3.286   2.622  16.014  0.0719 -0.1101 -0.4497
  455TMC3    O2 6839   3.626   2.948  16.420  0.6398  0.1010 -0.0023
  456MPD2     C 6840   1.251   2.286  16.086 -1.0221  0.1033  0.0307
  456MPD2    C1 6841   1.372   2.284  16.154 -0.3750 -0.0824 -0.1964
  456MPD2    C2 6842   1.388   2.354  16.273  0.6531  0.8529  0.3244
  456MPD2    C3 6843   1.288   2.433  16.324 -0.0705 -0.0029  0.4620
  456MPD2    C4 6844   1.164   2.430  16.262  0.1019 -0.9718 -0.3942
  456MPD2    C5 6845   1.153   2.364  16.144 -0.5661 -0.0223 -0.2320
  456MPD2     H 6846   1.486   2.357  16.320  1.1117 -0.6456 -0.5336
  456MPD2    H1 6847   1.072   2.467  16.306 -0.0635 -1.5782 -0.2317
  456MPD2    H2 6848   1.231   2.233  15.994 -1.0919 -0.3515  0.3079
  456MPD2    H3 6849   1.062   2.369  16.085 -0.2578  0.7898 -0.6259
  456MPD2     N 6850   1.312   2.506  16.446  0.1755  0.2065  0.7095
  456MPD2    H5 6851   1.405   2.516  16.486  1.9204 -0.9160 -3.0389
  456MPD2    N1 6852   1.488   2.215  16.102  0.7953 -1.0699 -0.2676
  456MPD2    H7 6853   1.481   2.187  16.005  0.2135 -3.2642  0.4141
  457TMC3    C1 6854   1.247   2.674  16.613 -0.2196  0.1892 -0.0486
  457TMC3    C2 6855   1.191   2.801  16.639  0.7981  0.1782  0.0582
  457TMC3    C3 6856   1.238   2.864  16.751 -0.2280  0.0746 -0.2686
  457TMC3    C4 6857   1.339   2.615  16.695  0.1853  0.1798  0.0345
  457TMC3    C5 6858   1.368   2.675  16.812  0.9702 -0.5425  0.2202
  457TMC3    C6 6859   1.312   2.803  16.846 -0.6925  0.7546  0.0629
  457TMC3     C 6860   1.226   2.615  16.482 -0.1916 -0.8000  0.2734
  457TMC3     O 6861   1.126   2.659  16.433  0.2111  0.1234  0.0666
  457TMC3     H 6862   1.129   2.846  16.562  1.0993  0.9617  0.2746
  457TMC3    H1 6863   1.381   2.517  16.673  0.2949  0.8671 -2.7935
  457TMC3    H2 6864   1.342   2.857  16.935  1.0530 -0.5633  0.2942
  457TMC3    C7 6865   1.466   2.634  16.907  0.6025  0.1041  0.3068
  457TMC3    C8 6866   1.181   2.997  16.779  0.2004 -0.4702  0.1757
  457TMC3    O1 6867   1.455   2.674  17.023 -0.4451 -0.1553 -0.2773
  457TMC3    O2 6868   1.215   3.038  16.891  0.3763 -0.0115  0.5705
  458MPD2     C 6869   4.227   2.359  12.568  0.0543  0.1956  0.2802
  458MPD2    C1 6870   4.160   2.253  12.627 -0.1492  0.5677 -0.4566
  458MPD2    C2 6871   4.021   2.248  12.602 -0.1321  0.7907  0.3280
  458MPD2    C3 6872   3.959   2.359  12.554  0.7977  0.3484  0.9884
  458MPD2    C4 6873   4.033   2.457  12.484 -0.3697  0.7347  0.0341
  458MPD2    C5 6874   4.169   2.462  12.492 -0.4581  0.4532 -1.0098
  458MPD2     H 6875   3.964   2.164  12.641 -0.7289  0.7973 -0.5406
  458MPD2    H1 6876   3.980   2.541  12.439 -2.3786 -0.1425  0.7459
  458MPD2    H2 6877   4.332   2.379  12.588  0.0060  0.3987  0.3334
  458MPD2    H3 6878   4.223   2.553  12.468 -0.2012  1.0182  1.7446
  458MPD2     N 6879   3.819   2.371  12.564  0.0876  0.2208 -0.6577
  458MPD2    H5 6880   3.765   2.297  12.609  0.2992  0.4398 -0.0439
  458MPD2    N1 6881   4.220   2.163  12.716  0.5828  0.4796  0.2946
  458MPD2    H7 6882   4.319   2.186  12.720  0.3997  1.4574 -0.8556
  459TMC3    C1 6883   4.273   1.991  12.865  0.2705  0.5588  0.4598
  459TMC3    C2 6884   4.390   2.055  12.890  0.0977  0.3359  0.3046
  459TMC3    C3 6885   4.477   1.986  12.975  0.0075 -0.5124  0.1242
  459TMC3    C4 6886   4.232   1.890  12.948 -0.4293 -0.1883  0.1506
  459TMC3    C5 6887   4.313   1.838  13.042 -0.7025  0.6329 -0.1743
  459TMC3    C6 6888   4.440   1.881  13.056 -0.9137  0.2961 -0.3110
  459TMC3     C 6889   4.174   2.052  12.784 -0.2873  0.4605 -0.3587
  459TMC3     O 6890   4.068   1.995  12.771  0.0082  0.0923 -0.2658
  459TMC3     H 6891   4.433   2.140  12.838  0.1071  0.5447  0.6497
  459TMC3    H1 6892   4.135   1.843  12.933 -1.7500  2.2786  1.0576
  459TMC3    H2 6893   4.508   1.833  13.126 -0.1935 -0.7462 -1.7163
  459TMC3    C7 6894   4.271   1.740  13.137 -1.3436  0.3299 -0.3537
  459TMC3    C8 6895   4.609   2.001  12.931  0.1776  0.5306 -0.6810
  459TMC3    O1 6896   4.354   1.692  13.212 -0.3934  0.1113  0.2460
  459TMC3    O2 6897   4.623   2.054  12.823  0.3516 -0.3034 -0.4158
  460MPD2     C 6898   3.117   0.042  10.869 -0.2419 -0.5610  0.0166
  460MPD2    C1 6899   3.036   4.668  10.848  0.3158  0.3725  0.6151
  460MPD2    C2 6900   2.959   4.668  10.737  0.4128  0.3379 -0.6260
  460MPD2    C3 6901   2.970   0.034  10.639  0.3919  0.0402 -0.4091
  460MPD2    C4 6902   3.067   0.125  10.651  0.7859  0.1939 -0.7762
  460MPD2    C5 6903   3.138   0.130  10.773 -0.7884 -0.6022 -0.2480
  460MPD2     H 6904   2.890   4.585  10.729 -1.6298  1.9093  0.8117
  460MPD2    H1 6905   3.082   0.201  10.576 -1.8827  0.9843 -0.5093
  460MPD2    H2 6906   3.186   0.045  10.953 -0.2157  2.5991 -0.1186
  460MPD2    H3 6907   3.204   0.214  10.791 -0.2823 -1.5278  2.2495
  460MPD2     N 6908   2.875   0.040  10.530  0.4290 -0.9551  0.3946
  460MPD2    H5 6909   2.815   4.693  10.517 -2.8936  1.0090  3.5567
  460MPD2    N1 6910   3.029   4.564  10.942  0.4410 -0.0261 -0.2494
  460MPD2    H7 6911   3.092   4.579  11.020  0.0110  0.4223  0.0131
  461TMC3    C1 6912   2.783   0.077  10.323 -0.0022  0.2012 -0.0835
  461TMC3    C2 6913   2.761   4.681  10.288  0.1167  0.1438  0.2531
  461TMC3    C3 6914   2.697   4.655  10.171  0.0422 -0.1858 -0.7135
  461TMC3    C4 6915   2.746   0.181  10.248 -0.7468  0.2210  0.5440
  461TMC3    C5 6916   2.681   0.151  10.133  0.9898  0.4303  0.2684
  461TMC3    C6 6917   2.648   0.022  10.090 -0.6428  0.1906  0.3771
  461TMC3     C 6918   2.873   0.125  10.426 -0.3406  0.0196 -0.0347
  461TMC3     O 6919   2.946   0.216  10.398 -0.1036 -0.0304  0.6432
  461TMC3     H 6920   2.804   4.597  10.341  0.0620  0.8942  1.4716
  461TMC3    H1 6921   2.759   0.283  10.282 -0.2636 -0.3016  1.9234
  461TMC3    H2 6922   2.620   0.008   9.986  0.4878 -0.3540  0.1417
  461TMC3    C7 6923   2.656   0.257  10.039 -0.0693 -0.4833 -0.2649
  461TMC3    C8 6924   2.712   4.520  10.115 -0.5591  0.4853  0.8395
  461TMC3    O1 6925   2.549   0.253   9.978 -0.5009  0.0501  0.0407
  461TMC3    O2 6926   2.749   4.436  10.199  0.2086 -0.1587  0.0597
  462TMC3    C1 6927   3.146   0.885  17.448 -0.3742 -0.0727 -0.1948
  462TMC3    C2 6928   3.269   0.832  17.404  0.0651 -0.5625  0.1121
  462TMC3    C3 6929   3.308   0.702  17.452 -0.1084 -0.3849  0.4417
  462TMC3    C4 6930   3.076   0.825  17.545 -0.0098 -0.2405 -0.3125
  462TMC3    C5 6931   3.117   0.703  17.591  0.5892 -0.0785  0.1138
  462TMC3    C6 6932   3.233   0.645  17.551  0.6161 -0.1951 -0.6842
  462TMC3     C 6933   3.085   1.001  17.385  0.5423  0.3061 -0.1108
  462TMC3     O 6934   3.149   1.033  17.279 -0.2805 -0.5838  0.5135
  462TMC3     H 6935   3.335   0.895  17.345 -0.2442  0.9524  1.3852
  462TMC3    H1 6936   2.971   0.850  17.558 -0.4870 -2.9699  1.1715
  462TMC3    H2 6937   3.242   0.539  17.573  1.9780  0.1516  0.3966
  462TMC3    C7 6938   3.013   0.607  17.642  0.3122  0.0091 -0.6222
  462TMC3    C8 6939   3.346   0.611  17.347  0.7280 -0.2284  0.4014
  462TMC3    O1 6940   3.050   0.489  17.644  0.9171  0.4073  0.3726
  462TMC3    O2 6941   3.325   0.642  17.229 -0.3830 -0.6120  0.1099
  463MPD2     C 6942   3.411   3.860   1.612  0.2338  0.4694 -0.2408
  463MPD2    C1 6943   3.420   3.729   1.650  0.5632  0.6174  0.3355
  463MPD2    C2 6944   3.538   3.681   1.696  0.1526 -0.1920 -0.4299
  463MPD2    C3 6945   3.647   3.764   1.718  0.4388 -0.8839 -0.4822
  463MPD2    C4 6946   3.644   3.894   1.675 -0.2279  0.1552  0.1764
  463MPD2    C5 6947   3.524   3.934   1.623 -0.5825  0.3242 -0.4051
  463MPD2     H 6948   3.543   3.573   1.706  0.1878 -0.4090 -2.7615
  463MPD2    H1 6949   3.734   3.954   1.668 -1.4732  1.7108 -2.1536
  463MPD2    H2 6950   3.323   3.913   1.578  0.4277 -0.5786 -2.3641
  463MPD2    H3 6951   3.516   4.039   1.596 -0.0124  0.7507  1.0446
  463MPD2     N 6952   3.761   3.708   1.765 -0.2497  0.4758  0.1659
  463MPD2    H5 6953   3.839   3.773   1.767  0.5987 -0.4258 -3.1495
  463MPD2    N1 6954   3.308   3.640   1.636  0.2995  0.1180  0.0974
  463MPD2    H7 6955   3.320   3.540   1.642  0.0608  0.1190  0.5403
  464TMC3    C1 6956   3.094   3.584   1.591 -0.5423  0.1072  0.1703
  464TMC3    C2 6957   3.010   3.607   1.484 -0.7123 -0.1248 -0.7509
  464TMC3    C3 6958   2.988   3.501   1.408 -0.0253 -0.4748  0.4169
  464TMC3    C4 6959   3.140   3.457   1.621 -0.5619  1.3456 -0.2795
  464TMC3    C5 6960   3.110   3.348   1.541 -0.2040  0.0928 -0.2244
  464TMC3    C6 6961   3.031   3.375   1.435  0.4532  0.6194 -0.4306
  464TMC3     C 6962   3.184   3.687   1.632  0.7548  0.5393  0.1992
  464TMC3     O 6963   3.150   3.801   1.648 -0.0713 -0.2795 -0.3754
  464TMC3     H 6964   2.979   3.711   1.482  0.2373  0.0848 -4.0970
  464TMC3    H1 6965   3.170   3.434   1.722  1.9504  1.7747 -0.9328
  464TMC3    H2 6966   2.999   3.297   1.367  3.6266 -0.9260 -0.1325
  464TMC3    C7 6967   3.188   3.223   1.541 -0.1945  1.0519  0.3822
  464TMC3    C8 6968   2.940   3.529   1.270  0.3311 -0.0256 -1.0483
  464TMC3    O1 6969   3.296   3.232   1.596 -0.2414 -0.2944 -0.3069
  464TMC3    O2 6970   2.958   3.440   1.187 -0.1587 -0.5234  0.6400
  465MPD2     C 6971   0.779   3.190  16.987 -0.0670 -0.2084 -0.1146
  465MPD2    C1 6972   0.709   3.083  17.025 -0.2399  0.3995 -0.1396
  465MPD2    C2 6973   0.648   3.003  16.929  0.5129  0.0315 -0.0800
  465MPD2    C3 6974   0.643   3.050  16.798  0.2071  0.2693  0.8535
  465MPD2    C4 6975   0.705   3.167  16.761  0.5163  0.2255  0.2480
  465MPD2    C5 6976   0.782   3.232  16.857 -0.0171 -0.0697  0.4367
  465MPD2     H 6977   0.600   2.908  16.950 -0.2898 -0.2806 -3.2916
  465MPD2    H1 6978   0.708   3.213  16.663 -1.7700 -0.1349  0.0127
  465MPD2    H2 6979   0.845   3.251  17.048 -0.0414 -0.8926  0.5312
  465MPD2    H3 6980   0.836   3.315  16.815  2.2493  0.0681  3.6059
  465MPD2     N 6981   0.578   2.968  16.704  0.4856  0.0544  0.1505
  465MPD2    H5 6982   0.564   2.870  16.729  0.2928 -0.5864 -2.4768
  465MPD2    N1 6983   0.708   3.044  17.165 -0.8717 -0.0265 -0.3823
  465MPD2    H7 6984   0.678   2.949  17.184  0.9060 -0.2406  1.2179
  466TMC3    C1 6985   0.378   2.684  16.532  0.0379  0.2905 -0.5531
  466TMC3    C2 6986   0.247   2.719  16.494 -0.0635 -0.1147 -0.0939
  466TMC3    C3 6987   0.211   2.850  16.477 -0.0007  0.2863 -0.0781
  466TMC3    C4 6988   0.473   2.777  16.548  0.3678 -0.5856 -0.3749
  466TMC3    C5 6989   0.439   2.904  16.525  0.2478  0.0324 -0.0616
  466TMC3    C6 6990   0.316   2.945  16.491 -0.3992 -0.5493 -0.1572
  466TMC3     C 6991   0.387   2.615  16.661  0.4895 -0.5416  0.3239
  466TMC3     O 6992   0.467   2.662  16.742 -0.4083  0.5695  0.0699
  466TMC3     H 6993   0.167   2.646  16.485 -1.7541  1.4770  1.9444
  466TMC3    H1 6994   0.575   2.744  16.559  0.6500  0.7465  1.0268
  466TMC3    H2 6995   0.296   3.051  16.479  0.9281 -0.3036 -0.1827
  466TMC3    C7 6996   0.519   3.011  16.588 -0.2031  0.1251 -0.3347
  466TMC3    C8 6997   0.064   2.878  16.482  0.2009  0.1992  0.3089
  466TMC3    O1 6998   0.514   3.126  16.546 -0.2228  0.3120 -0.4522
  466TMC3    O2 6999   4.721   2.792  16.451 -0.1379  0.1688  0.6193
  467TMC3    C1 7000   1.596   1.231  13.744 -0.5200  0.5613  0.2685
  467TMC3    C2 7001   1.612   1.363  13.716  0.1856  0.1122  0.3549
  467TMC3    C3 7002   1.532   1.415  13.615  0.7286  0.0404  0.2604
  467TMC3    C4 7003   1.496   1.161  13.682  0.6921  0.5098 -0.5778
  467TMC3    C5 7004   1.426   1.216  13.577 -0.4864  0.1186  0.5782
  467TMC3    C6 7005   1.443   1.339  13.541  0.1066  0.1068 -0.5904
  467TMC3     C 7006   1.706   1.165  13.825 -0.0367 -0.5176 -0.8079
  467TMC3     O 7007   1.776   1.247  13.892  0.0112  0.3410  0.1360
  467TMC3     H 7008   1.694   1.418  13.761 -0.5301  0.0911  1.6899
  467TMC3    H1 7009   1.482   1.058  13.713  0.5752  0.1409 -1.8452
  467TMC3    H2 7010   1.383   1.390  13.466  1.2128  3.3018  0.6921
  467TMC3    C7 7011   1.304   1.161  13.521 -0.0255 -0.6444  1.0646
  467TMC3    C8 7012   1.538   1.558  13.584  0.2777 -0.2364  0.0708
  467TMC3    O1 7013   1.275   1.188  13.406 -0.1964  0.0558 -0.1977
  467TMC3    O2 7014   1.450   1.606  13.515 -0.3646  0.0920 -0.2270
  468MPD2     C 7015   4.514   4.429  10.804  0.3025  0.6400 -0.5518
  468MPD2    C1 7016   4.631   4.367  10.847  0.3345  0.9737 -0.2447
  468MPD2    C2 7017   4.648   4.229  10.836 -0.2658  0.3712  0.6887
  468MPD2    C3 7018   4.536   4.154  10.795  0.5640 -0.1182 -0.1408
  468MPD2    C4 7019   4.425   4.222  10.754 -0.4299  0.5509  1.0897
  468MPD2    C5 7020   4.413   4.353  10.767 -0.3541  0.0935 -0.0744
  468MPD2     H 7021   0.002   4.185  10.882 -0.7228  1.3189  2.5006
  468MPD2    H1 7022   4.338   4.172  10.713  0.8492  1.1832 -2.4035
  468MPD2    H2 7023   4.503   4.536  10.808 -1.5248  0.5363 -2.5889
  468MPD2    H3 7024   4.323   4.396  10.727 -0.3449 -0.6308 -0.8670
  468MPD2     N 7025   4.537   4.009  10.790  0.6571 -0.1610  0.0659
  468MPD2    H5 7026   4.451   3.963  10.761  0.9743 -0.2279 -0.7703
  468MPD2    N1 7027   0.003   4.437  10.904 -0.3721 -0.0265 -0.0772
  468MPD2    H7 7028   0.071   4.390  10.964 -0.2006 -0.9160 -0.9752
  469TMC3    C1 7029   0.158   4.603  10.964  0.0737 -0.4787  0.3411
  469TMC3    C2 7030   0.267   4.518  10.974  0.2954  0.3969 -0.3934
  469TMC3    C3 7031   0.359   4.533  11.072  0.2240  0.9341 -0.1275
  469TMC3    C4 7032   0.155   4.717  11.037 -0.5812  0.1316 -0.4448
  469TMC3    C5 7033   0.246   4.727  11.137  0.4724 -0.4115 -0.0085
  469TMC3    C6 7034   0.345   4.639  11.164  0.4857 -0.2201  0.0727
  469TMC3     C 7035   0.035   4.568  10.898 -0.1770  0.2476 -0.8789
  469TMC3     O 7036   4.713   4.653  10.836 -0.2650 -0.3140  0.2091
  469TMC3     H 7037   0.259   4.428  10.915  0.2401  0.8435 -1.0640
  469TMC3    H1 7038   0.072   0.050  11.021  0.8396  1.6160 -1.6266
  469TMC3    H2 7039   0.422   4.671  11.233 -0.3216  1.6427  0.1158
  469TMC3    C7 7040   0.251   0.124  11.197 -0.1553  0.4790  0.2185
  469TMC3    C8 7041   0.450   4.420  11.090  0.4515  0.6427  0.3747
  469TMC3    O1 7042   0.201   0.211  11.128 -0.0468  0.2654 -0.2379
  469TMC3    O2 7043   0.473   4.347  10.994  0.1869 -0.4896  0.3089
  470TMC3    C1 7044   2.116   0.507   1.033 -0.0762 -0.1480  1.1763
  470TMC3    C2 7045   2.240   0.568   1.052 -0.3672 -0.2126 -0.6892
  470TMC3    C3 7046   2.280   0.613   1.172 -0.0084  0.4093  0.6884
  470TMC3    C4 7047   2.033   0.488   1.141  0.2516  0.8051 -0.4411
  470TMC3    C5 7048   2.066   0.560   1.253  0.1438  0.6205 -0.0076
  470TMC3    C6 7049   2.186   0.630   1.265 -0.2106  0.4629 -0.2837
  470TMC3     C 7050   2.093   0.422   0.917  0.2186  0.2585 -1.2689
  470TMC3     O 7051   2.188   0.375   0.859  0.4976 -0.1221 -0.0660
  470TMC3     H 7052   2.310   0.555   0.970  0.7302  0.8940  0.0710
  470TMC3    H1 7053   1.950   0.419   1.131 -0.4602  1.9501 -2.3604
  470TMC3    H2 7054   2.213   0.671   1.361  1.0912 -0.2909 -0.3254
  470TMC3    C7 7055   1.992   0.565   1.379 -0.0887  0.0946 -0.3575
  470TMC3    C8 7056   2.395   0.704   1.181 -0.2126  0.4822  0.0124
  470TMC3    O1 7057   2.002   0.669   1.448  0.1712  0.4834 -0.0804
  470TMC3    O2 7058   2.382   0.794   1.256 -0.3268 -1.1468 -0.3646
  471MPD2     C 7059   3.343   1.444  16.443 -0.5114 -0.3558 -0.3200
  471MPD2    C1 7060   3.360   1.311  16.416 -0.2959  0.0201  1.0786
  471MPD2    C2 7061   3.391   1.225  16.523  0.6820  0.3362 -0.3867
  471MPD2    C3 7062   3.405   1.274  16.647  0.7066 -0.7299 -0.2104
  471MPD2    C4 7063   3.402   1.409  16.668 -0.2164 -0.8174 -0.6358
  471MPD2    C5 7064   3.381   1.494  16.566 -0.1062 -0.4256 -0.1842
  471MPD2     H 7065   3.397   1.120  16.496 -0.7673  0.0219  0.5173
  471MPD2    H1 7066   3.422   1.447  16.767  1.1961 -2.1164 -0.4242
  471MPD2    H2 7067   3.295   1.514  16.376  0.4329 -0.4675 -1.1079
  471MPD2    H3 7068   3.374   1.601  16.575 -1.4071 -0.6154  0.9891
  471MPD2     N 7069   3.422   1.191  16.759 -0.5689  0.6863 -0.1595
  471MPD2    H5 7070   3.420   1.233  16.851  1.3477 -0.0900  0.2397
  471MPD2    N1 7071   3.305   1.258  16.294  0.5467  0.1191 -0.5735
  471MPD2    H7 7072   3.238   1.322  16.252  1.1942 -0.7901 -2.9670
  472TMC3    C1 7073   3.187   1.094  16.190  0.4319 -0.3118  0.3429
  472TMC3    C2 7074   3.073   1.151  16.248 -0.6639 -0.0871 -0.6881
  472TMC3    C3 7075   2.964   1.076  16.257 -0.6216 -0.3628 -0.9745
  472TMC3    C4 7076   3.184   0.973  16.130 -0.4281 -0.1166 -0.5100
  472TMC3    C5 7077   3.073   0.895  16.150  0.0719 -0.4281  0.0055
  472TMC3    C6 7078   2.959   0.947  16.207 -0.5549 -0.5461 -0.5018
  472TMC3     C 7079   3.322   1.135  16.236  0.5632  0.7833  0.9454
  472TMC3     O 7080   3.416   1.056  16.234 -0.2064  0.3552  0.8828
  472TMC3     H 7081   3.063   1.249  16.294 -0.5620 -0.8465  0.9702
  472TMC3    H1 7082   3.276   0.921  16.103 -0.3966 -1.2482  1.8360
  472TMC3    H2 7083   2.865   0.894  16.199 -1.4072  0.7188  1.2991
  472TMC3    C7 7084   3.075   0.761  16.095  0.1581  0.4077 -0.6689
  472TMC3    C8 7085   2.844   1.143  16.313  0.4098  0.4038 -0.3426
  472TMC3    O1 7086   3.139   0.737  15.991  0.1959 -0.2353  0.0193
  472TMC3    O2 7087   2.829   1.265  16.302  0.5706  0.2930  0.1016
  473MPD2     C 7088   3.177   3.201  13.917  0.3001 -0.0586  0.3263
  473MPD2    C1 7089   3.115   3.285  13.830  0.2360 -0.1205  0.3848
  473MPD2    C2 7090   3.141   3.419  13.843  0.1999  0.0341 -0.3599
  473MPD2    C3 7091   3.223   3.475  13.943  0.2203 -0.5151 -0.6126
  473MPD2    C4 7092   3.285   3.388  14.029 -0.0018 -0.2993  0.1011
  473MPD2    C5 7093   3.257   3.252  14.020 -0.1335  0.3828  0.0484
  473MPD2     H 7094   3.096   3.492  13.776 -0.3278 -1.0472 -1.1835
  473MPD2    H1 7095   3.346   3.412  14.114 -0.7462 -2.8274  1.3612
  473MPD2    H2 7096   3.146   3.097  13.920 -1.6955  0.5235 -0.3735
  473MPD2    H3 7097   3.304   3.192  14.097  0.2404  1.4082  0.6305
  473MPD2     N 7098   3.241   3.613  13.956 -0.0673  0.4024 -0.3711
  473MPD2    H5 7099   3.309   3.639  14.027  0.3720 -0.4487 -0.4847
  473MPD2    N1 7100   3.025   3.240  13.727 -0.0887 -0.1372 -0.1992
  473MPD2    H7 7101   2.971   3.312  13.680 -1.4082 -1.2892 -0.4534
  474TMC3    C1 7102   3.179   3.847  13.930  0.2990 -0.2410  0.4528
  474TMC3    C2 7103   3.072   3.930  13.897  0.2873  0.1274  0.3377
  474TMC3    C3 7104   3.057   4.052  13.963  0.5015  0.4864  0.3843
  474TMC3    C4 7105   3.271   3.888  14.032 -0.4970  0.0888 -0.2054
  474TMC3    C5 7106   3.253   4.017  14.089 -0.1249 -0.0174 -0.7642
  474TMC3    C6 7107   3.158   4.110  14.042  0.2976 -0.2674 -0.0028
  474TMC3     C 7108   3.154   3.703  13.897 -0.2253  0.2274  0.0060
  474TMC3     O 7109   3.049   3.688  13.834 -0.4486  0.3773 -0.2428
  474TMC3     H 7110   2.996   3.912  13.822  0.6105  0.6180 -0.1120
  474TMC3    H1 7111   3.325   3.815  14.092 -3.7498 -2.1127  0.0755
  474TMC3    H2 7112   3.146   4.207  14.089 -2.6972 -0.7579  0.2530
  474TMC3    C7 7113   3.368   4.067  14.156 -0.0320 -0.5193 -0.5281
  474TMC3    C8 7114   2.930   4.119  13.945 -0.8751 -0.3766  0.0016
  474TMC3    O1 7115   3.463   3.995  14.144  0.0247 -0.1523 -0.4493
  474TMC3    O2 7116   2.833   4.042  13.947  0.0389 -0.1107 -0.0454
  475MPD2     C 7117   0.290   2.172  10.870  0.5269  0.0918 -0.4420
  475MPD2    C1 7118   0.355   2.234  10.769 -0.1163  0.8040 -0.7293
  475MPD2    C2 7119   0.323   2.200  10.638  0.6895  0.4662  0.3573
  475MPD2    C3 7120   0.226   2.105  10.604 -0.2156 -1.0332 -0.1445
  475MPD2    C4 7121   0.158   2.043  10.710 -0.1116 -0.0686 -0.2080
  475MPD2    C5 7122   0.190   2.083  10.838 -0.5080 -0.0847 -0.0755
  475MPD2     H 7123   0.366   2.256  10.556  0.5880 -1.3755 -0.9497
  475MPD2    H1 7124   0.077   1.973  10.690  0.1377  0.3860 -2.9044
  475MPD2    H2 7125   0.301   2.200  10.974 -0.1552 -1.2105 -0.0133
  475MPD2    H3 7126   0.142   2.031  10.921 -0.0465  1.5582  1.2276
  475MPD2     N 7127   0.212   2.078  10.464  0.8070  0.0714 -0.4061
  475MPD2    H5 7128   0.288   2.113  10.407  0.9043 -0.9155 -0.8852
  475MPD2    N1 7129   0.451   2.331  10.807 -0.7642 -0.2051 -0.6385
  475MPD2    H7 7130   0.447   2.347  10.907  2.5487 -0.3522 -0.4780
  476TMC3    C1 7131   0.602   2.525  10.784  0.1999 -0.0453  0.6434
  476TMC3    C2 7132   0.716   2.565  10.718  0.6225 -0.0528 -0.5872
  476TMC3    C3 7133   0.784   2.677  10.765  0.2544 -0.5914 -1.0076
  476TMC3    C4 7134   0.565   2.588  10.897 -0.4767 -0.2842  0.2572
  476TMC3    C5 7135   0.648   2.690  10.948 -0.1938 -0.5255  0.4639
  476TMC3    C6 7136   0.755   2.741  10.877  0.3128 -0.0426 -0.1646
  476TMC3     C 7137   0.533   2.403  10.728 -0.4562 -0.2361 -0.8869
  476TMC3     O 7138   0.560   2.382  10.610 -0.4378 -0.4194 -0.4646
  476TMC3     H 7139   0.748   2.506  10.633 -1.3976 -0.6193 -0.9478
  476TMC3    H1 7140   0.481   2.549  10.953  0.7913 -0.0777  2.2674
  476TMC3    H2 7141   0.819   2.821  10.912  1.1312 -1.0125  0.5408
  476TMC3    C7 7142   0.627   2.740  11.082  0.0416  0.0974 -0.3967
  476TMC3    C8 7143   0.915   2.712  10.713  0.1521  0.3953 -0.3691
  476TMC3    O1 7144   0.581   2.665  11.166  0.4731 -0.3456  0.4940
  476TMC3    O2 7145   0.970   2.816  10.737  0.7251 -0.3961  0.6230
  477MPD2     C 7146   3.750   3.966  12.102 -0.2403  0.0098  0.9661
  477MPD2    C1 7147   3.650   3.886  12.057 -0.3764 -0.2119 -0.3804
  477MPD2    C2 7148   3.617   3.772  12.127 -0.5406 -0.2094 -0.6359
  477MPD2    C3 7149   3.684   3.734  12.237 -0.5299  0.1611 -0.5410
  477MPD2    C4 7150   3.787   3.819  12.278  0.8209 -0.0726  0.1482
  477MPD2    C5 7151   3.814   3.936  12.217  0.3400 -0.6769  0.0157
  477MPD2     H 7152   3.537   3.705  12.095 -1.0314 -1.4472  3.2059
  477MPD2    H1 7153   3.849   3.791  12.362  1.5665 -1.5746 -0.9101
  477MPD2    H2 7154   3.767   4.067  12.066  1.2309 -0.8769 -0.8496
  477MPD2    H3 7155   3.892   4.001  12.255  1.1250 -0.5327 -1.7982
  477MPD2     N 7156   3.649   3.619  12.309 -0.3812 -0.3238 -0.1798
  477MPD2    H5 7157   3.569   3.570  12.271 -0.1369 -0.0181 -1.0824
  477MPD2    N1 7158   3.580   3.938  11.944  0.0514 -0.4077 -0.3820
  477MPD2    H7 7159   3.616   4.023  11.902 -0.4898 -0.6795 -1.3845
  478TMC3    C1 7160   3.425   3.932  11.761  0.0300  0.1842  0.2642
  478TMC3    C2 7161   3.417   4.076  11.759  0.3003  0.7653 -0.4670
  478TMC3    C3 7162   3.324   4.130  11.676  0.2585 -0.1953 -0.2968
  478TMC3    C4 7163   3.341   3.860  11.681 -0.3122  0.3174 -0.4397
  478TMC3    C5 7164   3.257   3.916  11.590 -0.6958  0.1641  0.0255
  478TMC3    C6 7165   3.249   4.051  11.582  0.8131  0.3540 -0.0932
  478TMC3     C 7166   3.487   3.867  11.873 -0.2221  0.9506  0.2797
  478TMC3     O 7167   3.441   3.754  11.899  0.3249  0.0074 -0.3434
  478TMC3     H 7168   3.479   4.133  11.827 -1.6212 -1.6209  3.3041
  478TMC3    H1 7169   3.338   3.752  11.686 -0.7129  0.4123  1.1200
  478TMC3    H2 7170   3.167   4.093  11.526  0.5623  0.3048  0.2366
  478TMC3    C7 7171   3.148   3.835  11.550  0.9519  0.7559 -0.2830
  478TMC3    C8 7172   3.302   4.274  11.679 -0.3458  0.0907 -0.0063
  478TMC3    O1 7173   3.128   3.733  11.615 -0.2280  0.6514  0.1430
  478TMC3    O2 7174   3.397   4.334  11.727  0.9251 -0.7001  0.5580
  479MPD2     C 7175   2.810   0.841  15.668  0.1989 -0.0148 -0.2559
  479MPD2    C1 7176   2.670   0.836  15.669 -0.0017  0.3856 -0.1261
  479MPD2    C2 7177   2.608   0.823  15.792  0.4982 -0.8476 -0.2622
  479MPD2    C3 7178   2.681   0.826  15.913  0.1482 -0.8690 -0.1604
  479MPD2    C4 7179   2.819   0.833  15.904 -0.0621  0.3846  0.2584
  479MPD2    C5 7180   2.882   0.835  15.781  0.3214 -0.6882 -0.6511
  479MPD2     H 7181   2.500   0.824  15.799  0.3756 -0.5247 -2.2173
  479MPD2    H1 7182   2.883   0.830  15.992 -1.5810  0.7119  1.3736
  479MPD2    H2 7183   2.856   0.851  15.570 -0.1387  0.0784 -0.4045
  479MPD2    H3 7184   2.989   0.818  15.775  0.6523 -0.4440  4.1112
  479MPD2     N 7185   2.595   0.821  16.025  0.1096 -0.5317 -0.1685
  479MPD2    H5 7186   2.496   0.832  16.007 -0.5232 -1.4212  2.7822
  479MPD2    N1 7187   2.597   0.843  15.548  0.5787 -0.1248  0.1615
  479MPD2    H7 7188   2.651   0.858  15.463  0.2141 -0.2950 -0.0992
  480TMC3    C1 7189   2.323   0.644  16.272 -0.0001  0.2003  0.2250
  480TMC3    C2 7190   2.232   0.743  16.251 -0.2159  0.7507  0.4953
  480TMC3    C3 7191   2.281   0.866  16.210 -0.6136  0.2759  0.5672
  480TMC3    C4 7192   2.452   0.655  16.245 -0.7678 -0.3824 -0.0297
  480TMC3    C5 7193   2.503   0.777  16.219  0.3542  0.0744 -0.3016
  480TMC3    C6 7194   2.422   0.884  16.195  0.1843 -0.1546 -0.0607
  480TMC3     C 7195   2.270   0.514  16.277  0.8393 -0.1988 -0.2606
  480TMC3     O 7196   2.329   0.417  16.228 -0.1164  0.2494  0.2045
  480TMC3     H 7197   2.126   0.732  16.269 -0.0668  0.3327  1.0819
  480TMC3    H1 7198   2.518   0.569  16.255 -0.5453 -0.4058 -1.7345
  480TMC3    H2 7199   2.455   0.985  16.172 -0.3679 -0.4135 -1.9717
  480TMC3    C7 7200   2.622   0.775  16.153 -0.0880 -0.2557  0.0599
  480TMC3    C8 7201   2.206   0.935  16.105  0.1725 -0.1903 -0.7516
  480TMC3    O1 7202   2.717   0.717  16.202 -0.0038 -0.4509  0.0597
  480TMC3    O2 7203   2.084   0.908  16.095 -0.0763 -0.3919 -0.9006
  481MPD2     C 7204   4.491   0.528  14.155 -0.4365  0.6619 -0.2861
  481MPD2    C1 7205   4.370   0.473  14.168 -0.1391 -0.2767  0.6140
  481MPD2    C2 7206   4.347   0.395  14.278 -0.8585  1.0328  0.3626
  481MPD2    C3 7207   4.447   0.375  14.372 -1.0744 -0.1695 -0.7007
  481MPD2    C4 7208   4.564   0.443  14.365 -0.4033  0.3462  0.5202
  481MPD2    C5 7209   4.588   0.507  14.250 -0.3109  0.3351  0.0935
  481MPD2     H 7210   4.249   0.350  14.289 -0.5772  0.3120 -0.0868
  481MPD2    H1 7211   4.639   0.437  14.443  0.1153  4.1765  0.2813
  481MPD2    H2 7212   4.521   0.597  14.077 -1.9390  1.4024 -0.2008
  481MPD2    H3 7213   4.673   0.575  14.245  0.8212 -1.2135 -2.1878
  481MPD2     N 7214   4.427   0.300  14.492  0.3542 -0.4110 -0.0223
  481MPD2    H5 7215   4.495   0.303  14.567  0.3305  0.6899 -0.0423
  481MPD2    N1 7216   4.276   0.498  14.066  0.1246  0.0807 -0.4647
  481MPD2    H7 7217   4.316   0.569  14.006 -1.4064  0.3991 -1.1273
  482TMC3    C1 7218   4.081   0.498  13.936 -0.9206 -0.1677 -0.0068
  482TMC3    C2 7219   4.005   0.407  13.867  0.4224  0.6030  1.0708
  482TMC3    C3 7220   3.917   0.458  13.772 -0.1507  0.7411 -0.3223
  482TMC3    C4 7221   4.066   0.632  13.924 -0.4435 -0.5257 -0.4749
  482TMC3    C5 7222   3.987   0.674  13.826 -0.3345  0.3524  0.3147
  482TMC3    C6 7223   3.912   0.594  13.742 -0.3490  0.2883  0.4201
  482TMC3     C 7224   4.150   0.443  14.048 -0.0005 -0.7100 -0.0958
  482TMC3     O 7225   4.089   0.351  14.104 -0.0565  0.7128  0.3563
  482TMC3     H 7226   4.013   0.302  13.892 -0.5280  0.3055  0.1209
  482TMC3    H1 7227   4.119   0.709  13.979 -0.2414 -0.7451 -0.3603
  482TMC3    H2 7228   3.840   0.639  13.675 -0.1512  0.3169  0.2285
  482TMC3    C7 7229   3.944   0.813  13.827  0.4949  0.5004 -0.8898
  482TMC3    C8 7230   3.824   0.363  13.714 -0.1596  0.1419 -0.3176
  482TMC3    O1 7231   3.943   0.871  13.934 -0.0644  0.1996 -0.1469
  482TMC3    O2 7232   3.848   0.244  13.732 -0.5594 -0.4130  0.8119
  483TMC3    C1 7233   2.057   4.059   1.040  0.2955 -0.3171  0.3798
  483TMC3    C2 7234   2.106   4.186   1.045 -0.0692  0.0980 -0.0771
  483TMC3    C3 7235   2.248   4.203   1.063 -0.2881  0.0968  0.1828
  483TMC3    C4 7236   2.137   3.947   1.056 -0.0978 -0.2699 -0.4103
  483TMC3    C5 7237   2.262   3.974   1.099 -0.1592 -0.0384  0.7827
  483TMC3    C6 7238   2.322   4.099   1.101  0.2862  0.0206 -0.2676
  483TMC3     C 7239   1.920   4.041   1.014  0.4123 -0.4013  0.2681
  483TMC3     O 7240   1.839   4.102   1.086  0.1037  0.0503 -0.1821
  483TMC3     H 7241   2.032   4.263   1.026  0.0241 -0.2222 -1.7747
  483TMC3    H1 7242   2.095   3.847   1.062 -0.2323 -0.1821  0.0835
  483TMC3    H2 7243   2.425   4.120   1.129  0.2304  0.0379 -0.0766
  483TMC3    C7 7244   2.340   3.863   1.157  0.7558 -0.0322 -0.1812
  483TMC3    C8 7245   2.298   4.315   0.999  0.0921  0.2148  0.3851
  483TMC3    O1 7246   2.314   3.755   1.112  0.3963 -0.0951  0.0070
  483TMC3    O2 7247   2.417   4.309   0.966 -0.4803 -0.1036 -0.7101
  484MPD2     C 7248   0.173   1.998  13.144  0.2654 -0.0517  0.1623
  484MPD2    C1 7249   0.095   2.023  13.027  0.4415  0.2044  0.4090
  484MPD2    C2 7250   0.162   2.058  12.907  0.3865  0.1383 -0.4312
  484MPD2    C3 7251   0.302   2.071  12.911 -0.1375 -0.2692 -0.1377
  484MPD2    C4 7252   0.376   2.039  13.029 -0.6199  0.2177  0.0731
  484MPD2    C5 7253   0.308   2.010  13.143  0.4674  0.2433  0.2511
  484MPD2     H 7254   0.116   2.074  12.810  1.4674 -1.1366 -1.1683
  484MPD2    H1 7255   0.484   2.031  13.031 -0.5544  0.6461 -1.2986
  484MPD2    H2 7256   0.123   1.963  13.234  0.3037  0.4614  0.3841
  484MPD2    H3 7257   0.365   1.996  13.234 -0.2906  0.7564  0.8089
  484MPD2     N 7258   0.386   2.095  12.800 -0.5432  0.4218 -0.5404
  484MPD2    H5 7259   0.486   2.079  12.799 -1.0859 -2.9031  0.4155
  484MPD2    N1 7260   4.696   1.987  13.034  0.2585  0.1089 -0.1440
  484MPD2    H7 7261   4.659   1.964  13.126  2.0481  0.7627  0.7607
  485TMC3    C1 7262   0.467   2.110  12.583  0.5896 -0.2781 -0.7918
  485TMC3    C2 7263   0.553   2.011  12.611  0.1523  0.0954 -0.2368
  485TMC3    C3 7264   0.651   1.982  12.520 -0.1787  0.1805 -0.2705
  485TMC3    C4 7265   0.466   2.183  12.462  0.8428 -1.1450  0.0138
  485TMC3    C5 7266   0.563   2.141  12.371 -0.2568 -0.6465  0.1192
  485TMC3    C6 7267   0.655   2.039  12.396 -0.3045 -0.0136  0.2165
  485TMC3     C 7268   0.350   2.133  12.672 -0.3405  0.7085 -0.0098
  485TMC3     O 7269   0.242   2.166  12.625  0.3339  0.1225  0.9051
  485TMC3     H 7270   0.561   1.956  12.704  1.8197 -1.1576 -1.1029
  485TMC3    H1 7271   0.392   2.260  12.442  0.5228 -1.5912 -0.5420
  485TMC3    H2 7272   0.705   1.985  12.316 -0.5503  1.6420 -1.0500
  485TMC3    C7 7273   0.589   2.220  12.248  0.1647  0.2952  0.2263
  485TMC3    C8 7274   0.763   1.897  12.574  0.3060  0.2051 -0.7272
  485TMC3    O1 7275   0.500   2.263  12.176  0.2415 -0.0969  0.1509
  485TMC3    O2 7276   0.723   1.789  12.620 -0.0107 -0.1200  0.0449
  486MPD2     C 7277   1.595   0.524  13.087  0.2314 -0.2295  0.0686
  486MPD2    C1 7278   1.699   0.548  13.012 -0.5383 -0.3877  0.5013
  486MPD2    C2 7279   1.690   0.628  12.903 -0.7669 -0.6810  0.1749
  486MPD2    C3 7280   1.571   0.697  12.884 -0.0346  0.0978  0.2615
  486MPD2    C4 7281   1.466   0.671  12.962 -0.6854 -0.9209 -0.9030
  486MPD2    C5 7282   1.474   0.584  13.066 -0.4461 -0.1645 -0.2981
  486MPD2     H 7283   1.776   0.650  12.840 -0.0476  0.6414  1.6087
  486MPD2    H1 7284   1.368   0.712  12.944  1.0703  3.1397 -1.0738
  486MPD2    H2 7285   1.603   0.464  13.177 -2.6193 -0.3399  0.2514
  486MPD2    H3 7286   1.392   0.564  13.134 -0.2443  0.5032  0.1368
  486MPD2     N 7287   1.569   0.796  12.786  0.3699  0.3415  0.0500
  486MPD2    H5 7288   1.659   0.804  12.739  1.4740 -0.7514  1.9651
  486MPD2    N1 7289   1.817   0.487  13.046  0.1132 -0.3707  0.3131
  486MPD2    H7 7290   1.802   0.418  13.119 -1.4679 -1.1575 -0.7532
  487TMC3    C1 7291   2.034   0.424  13.052 -0.1269 -0.2957  0.3610
  487TMC3    C2 7292   2.007   0.291  13.029 -0.0401 -0.1523 -0.3261
  487TMC3    C3 7293   2.065   0.197  13.119 -0.2458 -0.3615  0.1864
  487TMC3    C4 7294   2.084   0.455  13.178 -0.1837  0.0048  0.7529
  487TMC3    C5 7295   2.132   0.360  13.265  1.2799 -0.5170  0.2513
  487TMC3    C6 7296   2.145   0.234  13.223  0.0215 -0.4024 -0.3063
  487TMC3     C 7297   1.941   0.523  12.997  0.2854  0.3736 -0.2391
  487TMC3     O 7298   1.980   0.615  12.932  0.3580 -0.6523  0.3084
  487TMC3     H 7299   1.952   0.251  12.945 -0.9151  3.3080 -1.3994
  487TMC3    H1 7300   2.072   0.556  13.216  0.1080  0.2079  0.3141
  487TMC3    H2 7301   2.185   0.164  13.296  0.1119  0.7502  0.7574
  487TMC3    C7 7302   2.096   0.373  13.404 -0.6246 -0.0940 -0.3503
  487TMC3    C8 7303   2.019   0.055  13.125  0.5762 -0.1969 -0.4562
  487TMC3    O1 7304   2.133   0.286  13.477  0.2303 -0.2032 -0.1002
  487TMC3    O2 7305   2.107   4.707  13.153 -0.1603 -0.0706 -0.4093
  488MPD2     C 7306   2.267   2.427  16.317  0.1839 -0.6370 -0.2232
  488MPD2    C1 7307   2.303   2.535  16.389 -0.0250  0.0586 -0.0001
  488MPD2    C2 7308   2.296   2.517  16.525  0.2825 -0.3727  0.0614
  488MPD2    C3 7309   2.246   2.408  16.598 -0.3350  0.5293 -0.1057
  488MPD2    C4 7310   2.208   2.298  16.522  0.3148 -0.8605 -0.1717
  488MPD2    C5 7311   2.211   2.315  16.384 -0.8493  1.1577  0.2268
  488MPD2     H 7312   2.329   2.601  16.586 -0.1586  0.5430 -0.9785
  488MPD2    H1 7313   2.178   2.205  16.567 -0.7718  0.9120  2.7565
  488MPD2    H2 7314   2.263   2.430  16.208 -0.2131  0.9718 -0.1549
  488MPD2    H3 7315   2.177   2.230  16.327  3.1745 -0.0029 -0.4677
  488MPD2     N 7316   2.239   2.401  16.745 -0.2327  1.0437 -0.1096
  488MPD2    H5 7317   2.270   2.476  16.806  3.5025  0.4576 -1.2868
  488MPD2    N1 7318   2.346   2.655  16.329 -0.5511 -0.0244  0.0838
  488MPD2    H7 7319   2.382   2.725  16.394  0.0034  1.8338 -2.2326
  489TMC3    C1 7320   2.321   2.294  16.934  0.8877 -0.0685 -0.5106
  489TMC3    C2 7321   2.425   2.377  16.936 -0.7180  0.1629  0.3578
  489TMC3    C3 7322   2.503   2.389  17.045 -0.1699 -0.4625  0.4187
  489TMC3    C4 7323   2.273   2.225  17.045  0.2355 -0.3562 -0.2490
  489TMC3    C5 7324   2.346   2.248  17.163 -0.7237  0.0222 -1.0151
  489TMC3    C6 7325   2.456   2.330  17.159 -0.2663 -0.1823  0.0944
  489TMC3     C 7326   2.224   2.293  16.823 -0.0890  0.0561  0.4153
  489TMC3     O 7327   2.179   2.178  16.797  0.3105 -0.1175 -0.5048
  489TMC3     H 7328   2.452   2.431  16.847  0.4472 -2.2844 -0.7621
  489TMC3    H1 7329   2.197   2.148  17.037 -1.8241  1.4666  1.7579
  489TMC3    H2 7330   2.501   2.350  17.256 -0.4460  1.5400 -0.1876
  489TMC3    C7 7331   2.313   2.193  17.289  0.6132  0.4096 -0.5339
  489TMC3    C8 7332   2.584   2.508  17.042 -0.5288  0.1733  0.1504
  489TMC3    O1 7333   2.411   2.161  17.355 -0.6127 -0.3999 -0.1957
  489TMC3    O2 7334   2.645   2.526  16.935  0.0349 -0.0884  0.3216
  490MPD2     C 7335   3.414   1.077  17.627 -0.1242 -0.3508  0.0211
  490MPD2    C1 7336   3.325   1.160  17.691 -0.2790 -0.3664  0.1405
  490MPD2    C2 7337   3.286   1.276  17.632 -0.1034 -0.6368  0.7161
  490MPD2    C3 7338   3.329   1.311  17.506  0.0189  0.2939 -0.4491
  490MPD2    C4 7339   3.410   1.222  17.437  0.5825  0.3368 -0.4416
  490MPD2    C5 7340   3.465   1.112  17.501 -0.0741  0.3832 -0.3593
  490MPD2     H 7341   3.215   1.337  17.687 -0.0549  1.5077 -1.5702
  490MPD2    H1 7342   3.449   1.254  17.342  0.9676  3.3724  0.7321
  490MPD2    H2 7343   3.470   0.996  17.670  1.1620 -0.8193 -2.5661
  490MPD2    H3 7344   3.542   1.058  17.447 -0.6892 -2.3046  1.4645
  490MPD2     N 7345   3.282   1.426  17.442  0.1712 -0.1085  0.5965
  490MPD2    H5 7346   3.311   1.444  17.346  0.4943  1.5423  1.0080
  490MPD2    N1 7347   3.277   1.130   0.088  0.1714  0.0497  0.3404
  490MPD2    H7 7348   3.214   1.200   0.125 -0.0190 -0.7839  1.5918
  491TMC3    C1 7349   3.190   0.997   0.241  0.5232 -0.3165 -0.2174
  491TMC3    C2 7350   3.188   1.096   0.335  0.5632  0.0098  0.3397
  491TMC3    C3 7351   3.068   1.116   0.403  0.0880  0.0511 -0.1581
  491TMC3    C4 7352   3.079   0.929   0.200 -0.7843  0.4740 -0.1135
  491TMC3    C5 7353   2.963   0.972   0.248  0.2440 -0.0396  0.1127
  491TMC3    C6 7354   2.960   1.039   0.368  0.5473  1.1242  0.8973
  491TMC3     C 7355   3.285   1.009   0.146 -0.5455 -0.0295  0.1802
  491TMC3     O 7356   3.334   0.901   0.118 -0.0358  0.4664 -0.3267
  491TMC3     H 7357   3.274   1.161   0.351  1.0511 -0.8111  1.0569
  491TMC3    H1 7358   3.089   0.873   0.107 -1.8884  0.1666 -0.0478
  491TMC3    H2 7359   2.867   1.045   0.423 -1.9887  1.4757 -3.4425
  491TMC3    C7 7360   2.870   1.005   0.142  0.4302 -0.4145  0.5038
  491TMC3    C8 7361   3.036   1.257   0.427 -0.0047  0.2154  0.1065
  491TMC3    O1 7362   2.885   0.948   0.036  0.0996  0.3575  0.3191
  491TMC3    O2 7363   2.924   1.283   0.383  0.2670 -0.2070 -0.4425
  492MPD2     C 7364   3.338   2.264  11.539 -0.6248  0.4567  0.4245
  492MPD2    C1 7365   3.259   2.193  11.454  0.2426 -0.0211 -0.0408
  492MPD2    C2 7366   3.227   2.062  11.490 -0.4193 -0.4759  0.2967
  492MPD2    C3 7367   3.289   2.003  11.597  0.0617 -0.3257 -0.6406
  492MPD2    C4 7368   3.384   2.070  11.663  0.8092  0.2622 -0.5628
  492MPD2    C5 7369   3.401   2.199  11.639  0.5606  0.2838 -0.2154
  492MPD2     H 7370   3.159   2.005  11.428 -1.4890  0.9425  0.1696
  492MPD2    H1 7371   3.449   2.035  11.742 -0.3340  1.0887  0.7454
  492MPD2    H2 7372   3.368   2.368  11.523 -0.6422  0.1855 -1.3435
  492MPD2    H3 7373   3.475   2.250  11.699  1.5646  2.3780 -3.1778
  492MPD2     N 7374   3.256   1.872  11.644 -0.4632 -0.0935 -0.6677
  492MPD2    H5 7375   3.305   1.843  11.728 -0.8263  0.0169 -0.4171
  492MPD2    N1 7376   3.201   2.267  11.345  0.3720 -0.4190 -0.3985
  492MPD2    H7 7377   3.221   2.367  11.342  0.3829 -0.3543  1.4157
  493TMC3    C1 7378   3.064   2.329  11.161 -0.4603  0.6202  0.1664
  493TMC3    C2 7379   3.047   2.455  11.214 -0.6264  0.3049 -0.6315
  493TMC3    C3 7380   3.010   2.557  11.134 -0.8843  0.1041  0.1134
  493TMC3    C4 7381   3.029   2.314  11.033  0.3701 -0.7832  0.7277
  493TMC3    C5 7382   2.989   2.419  10.955 -0.6181 -0.5447 -0.2449
  493TMC3    C6 7383   2.975   2.546  11.003 -0.4148  0.6668  0.0281
  493TMC3     C 7384   3.115   2.223  11.251 -0.0400 -0.1367  0.1990
  493TMC3     O 7385   3.069   2.111  11.240 -0.2275 -0.2892  0.1370
  493TMC3     H 7386   3.050   2.468  11.322 -0.1595  2.1526 -0.8662
  493TMC3    H1 7387   3.047   2.216  10.990 -2.0926 -1.3794  1.0869
  493TMC3    H2 7388   2.932   2.624  10.941  2.6599  1.6100 -0.9136
  493TMC3    C7 7389   2.914   2.392  10.833  0.4966  0.2210  0.2188
  493TMC3    C8 7390   3.002   2.694  11.189 -0.5347 -0.1623 -0.0099
  493TMC3    O1 7391   2.902   2.477  10.748  0.2323 -0.3741  0.0091
  493TMC3    O2 7392   2.977   2.703  11.309 -0.5713 -0.0228 -0.4558
  494TMC3    C1 7393   3.468   3.687   0.137 -0.9581 -0.2754  0.3513
  494TMC3    C2 7394   3.521   3.570   0.177  0.3636 -0.1406 -0.1120
  494TMC3    C3 7395   3.658   3.556   0.162 -0.1743  0.0516  0.0926
  494TMC3    C4 7396   3.545   3.795   0.096 -0.0019  0.6343  0.4453
  494TMC3    C5 7397   3.677   3.772   0.089 -0.2817  0.7827  0.1843
  494TMC3    C6 7398   3.741   3.656   0.125  0.6161 -0.0461 -0.0656
  494TMC3     C 7399   3.324   3.708   0.164 -0.6558 -0.0803  0.0308
  494TMC3     O 7400   3.244   3.619   0.157  0.4306 -0.1447  0.8088
  494TMC3     H 7401   3.448   3.500   0.216  0.1522  0.2347  0.1689
  494TMC3    H1 7402   3.493   3.882   0.059  0.5439  0.1356 -1.5447
  494TMC3    H2 7403   3.848   3.638   0.120  1.0717  2.6378  0.0778
  494TMC3    C7 7404   3.761   3.865   0.020 -0.6753  0.5221  0.4790
  494TMC3    C8 7405   3.725   3.438   0.214 -0.3452  0.4182  0.5630
  494TMC3    O1 7406   3.868   3.820  17.722 -0.2564 -0.1565  0.2507
  494TMC3    O2 7407   3.841   3.458   0.240 -0.2363  0.3809  0.0929
  495TMC3    C1 7408   2.779   1.155  15.335  0.8188  0.3060 -0.6907
  495TMC3    C2 7409   2.732   1.240  15.237  0.1605  0.1460 -0.2564
  495TMC3    C3 7410   2.612   1.310  15.267 -0.0377 -0.1296 -0.7628
  495TMC3    C4 7411   2.726   1.149  15.458  0.5902 -0.4419  0.1948
  495TMC3    C5 7412   2.609   1.211  15.474 -0.9954  0.1811  0.7433
  495TMC3    C6 7413   2.549   1.294  15.385 -0.0520  0.2511  0.2026
  495TMC3     C 7414   2.826   1.026  15.289 -0.4990  0.1342  0.1808
  495TMC3     O 7415   2.773   0.931  15.344  0.4675  0.3161  0.0223
  495TMC3     H 7416   2.772   1.234  15.137  2.4859 -0.9697  0.7458
  495TMC3    H1 7417   2.764   1.076  15.529  0.0987 -2.2204 -1.3586
  495TMC3    H2 7418   2.458   1.347  15.409  2.3642  3.5291  2.0730
  495TMC3    C7 7419   2.535   1.174  15.593 -0.3896 -0.1014 -0.2996
  495TMC3    C8 7420   2.534   1.368  15.161  1.0099  0.4555  0.7806
  495TMC3    O1 7421   2.600   1.160  15.697 -0.1081 -0.0774 -0.2365
  495TMC3    O2 7422   2.410   1.369  15.169 -0.3120  0.9629 -1.6965
  496MPD2     C 7423   0.318   0.367  15.093  0.5077 -0.2811 -0.2334
  496MPD2    C1 7424   0.343   0.465  15.179  0.3332  0.5083 -0.8306
  496MPD2    C2 7425   0.246   0.497  15.271  0.1649  1.0413  0.1829
  496MPD2    C3 7426   0.122   0.436  15.268  0.4730 -0.0649  0.0177
  496MPD2    C4 7427   0.098   0.338  15.174 -0.3825  0.2951 -0.0670
  496MPD2    C5 7428   0.193   0.308  15.086 -0.4609  0.2562  0.4126
  496MPD2     H 7429   0.262   0.574  15.345  0.8171 -0.0012  1.1164
  496MPD2    H1 7430   0.009   0.277  15.181 -0.6402  0.6202 -0.4507
  496MPD2    H2 7431   0.390   0.332  15.020 -0.4955  0.0528 -1.3840
  496MPD2    H3 7432   0.178   0.235  15.008  0.6204  0.4577  0.0306
  496MPD2     N 7433   0.014   0.457  15.354  0.3615 -0.2767 -0.0079
  496MPD2    H5 7434   4.668   0.395  15.347 -0.1497  0.3436  0.3838
  496MPD2    N1 7435   0.472   0.525  15.177  0.9601  0.2223 -0.6596
  496MPD2    H7 7436   0.532   0.501  15.098  0.1020  0.3120 -1.3341
  497TMC3    C1 7437   4.618   0.545  15.535 -0.2418 -0.7642  0.3491
  497TMC3    C2 7438   4.518   0.480  15.473 -0.9610  0.4761  0.6814
  497TMC3    C3 7439   4.427   0.430  15.557  0.0601  0.6679 -0.2925
  497TMC3    C4 7440   4.623   0.591  15.662  0.0303 -0.1364  0.7597
  497TMC3    C5 7441   4.514   0.554  15.739 -0.5722  0.6290 -0.3163
  497TMC3    C6 7442   4.418   0.473  15.688 -0.3625  0.5358  0.1050
  497TMC3     C 7443   0.012   0.540  15.466  0.1417 -0.2937  0.2310
  497TMC3     O 7444   0.099   0.615  15.507 -0.2702 -0.1544  0.1904
  497TMC3     H 7445   4.522   0.458  15.367  2.1655  0.2881  0.8407
  497TMC3    H1 7446   4.709   0.644  15.699 -0.6580 -0.6756  3.0888
  497TMC3    H2 7447   4.325   0.460  15.742 -0.2134  0.6014  0.3762
  497TMC3    C7 7448   4.512   0.575  15.889 -0.1598 -0.6814  0.7268
  497TMC3    C8 7449   4.312   0.359  15.499 -0.5898 -0.2363 -0.3928
  497TMC3    O1 7450   4.420   0.530  15.956 -0.3406  0.0803 -0.3474
  497TMC3    O2 7451   4.205   0.388  15.549 -0.2731  0.4662  0.1409
  498MPD2     C 7452   0.839   1.421   9.345  0.1894 -0.0722  0.2745
  498MPD2    C1 7453   0.904   1.427   9.466  0.0834 -0.2242  0.1926
  498MPD2    C2 7454   0.840   1.381   9.577  0.8178  0.3129  0.6169
  498MPD2    C3 7455   0.712   1.324   9.564 -0.7486  0.2285  0.2720
  498MPD2    C4 7456   0.645   1.327   9.441 -0.6330 -0.1558 -0.2681
  498MPD2    C5 7457   0.710   1.373   9.333  0.8402  0.0701 -0.2248
  498MPD2     H 7458   0.884   1.402   9.674  0.7874 -1.3011  0.9739
  498MPD2    H1 7459   0.538   1.309   9.438 -0.7395  0.2860  0.9292
  498MPD2    H2 7460   0.895   1.464   9.263 -0.3793  0.6887  0.2960
  498MPD2    H3 7461   0.657   1.386   9.239  1.6308 -1.9157 -0.9377
  498MPD2     N 7462   0.648   1.277   9.678 -0.5895 -0.4534 -0.1912
  498MPD2    H5 7463   0.694   1.287   9.768 -0.3721 -0.2336 -0.3304
  498MPD2    N1 7464   1.037   1.479   9.488 -0.4436  0.1837  0.2196
  498MPD2    H7 7465   1.078   1.458   9.578 -0.7483 -1.6614 -0.0823
  499TMC3    C1 7466   1.217   1.622   9.465  0.3584  0.4575  0.8410
  499TMC3    C2 7467   1.283   1.548   9.564 -0.3904 -0.4778 -0.3393
  499TMC3    C3 7468   1.377   1.614   9.631 -0.6604 -1.2535 -0.4521
  499TMC3    C4 7469   1.245   1.753   9.425 -0.3397  0.3595  0.4663
  499TMC3    C5 7470   1.348   1.802   9.498  0.4434 -0.6680 -0.5106
  499TMC3    C6 7471   1.418   1.739   9.597 -0.5613 -0.0062  0.7549
  499TMC3     C 7472   1.103   1.560   9.404 -0.8525 -0.3562  0.6300
  499TMC3     O 7473   1.064   1.610   9.298 -0.4103 -0.2956 -0.1557
  499TMC3     H 7474   1.265   1.442   9.578 -0.3890 -0.3625  0.5097
  499TMC3    H1 7475   1.191   1.794   9.340  0.8557 -0.6846 -0.7981
  499TMC3    H2 7476   1.494   1.801   9.644 -0.7565  0.2200  0.7715
  499TMC3    C7 7477   1.365   1.946   9.499  0.0347  0.3916 -0.5697
  499TMC3    C8 7478   1.467   1.545   9.721  0.1980  0.6287  0.5706
  499TMC3    O1 7479   1.465   1.983   9.555  0.5311 -0.0124  0.6679
  499TMC3    O2 7480   1.583   1.583   9.719  0.1734  0.1377 -0.6284
  500MPD2     C 7481   1.593   2.997  11.286 -0.6743  0.1694  0.2551
  500MPD2    C1 7482   1.665   3.082  11.203  0.1456 -0.3878 -0.4551
  500MPD2    C2 7483   1.643   3.061  11.068 -0.4909 -0.3407  0.3188
  500MPD2    C3 7484   1.547   2.969  11.016  0.1361 -0.3882  1.0520
  500MPD2    C4 7485   1.479   2.890  11.100  0.1121 -0.2526  0.5919
  500MPD2    C5 7486   1.508   2.904  11.234  0.6753 -0.3282 -0.1245
  500MPD2     H 7487   1.683   3.137  11.002 -1.0579 -0.7215 -0.4644
  500MPD2    H1 7488   1.411   2.813  11.065 -1.5502  1.1786  0.7001
  500MPD2    H2 7489   1.583   3.016  11.393  1.9179 -2.5372  0.9827
  500MPD2    H3 7490   1.454   2.840  11.302  2.4256  1.0855  2.5940
  500MPD2     N 7491   1.512   2.969  10.874  0.6500  0.2100 -0.0506
  500MPD2    H5 7492   1.455   2.890  10.846 -0.3992  1.0576 -0.3305
  500MPD2    N1 7493   1.753   3.188  11.245  0.6134 -0.1746 -0.1483
  500MPD2    H7 7494   1.799   3.244  11.174 -2.3749  1.2257 -1.0030
  501TMC3    C1 7495   1.879   3.310  11.392 -0.1597  0.3330 -0.0791
  501TMC3    C2 7496   1.887   3.421  11.308 -0.2100  0.4558 -0.6583
  501TMC3    C3 7497   1.960   3.533  11.346  0.9174  0.3253  0.4364
  501TMC3    C4 7498   1.943   3.313  11.515  0.0220  0.7718 -1.0098
  501TMC3    C5 7499   2.024   3.416  11.543  0.0992 -0.0982 -0.3105
  501TMC3    C6 7500   2.028   3.529  11.466  0.8028  0.3001 -0.5680
  501TMC3     C 7501   1.784   3.199  11.378  0.5945 -0.0724  0.5050
  501TMC3     O 7502   1.761   3.132  11.477  0.2360 -0.0151  0.0072
  501TMC3     H 7503   1.815   3.424  11.227 -0.8736  2.1210 -0.0226
  501TMC3    H1 7504   1.955   3.222  11.573  1.8826 -0.0577 -2.6945
  501TMC3    H2 7505   2.106   3.602  11.488 -0.7728  1.8118 -0.0547
  501TMC3    C7 7506   2.163   3.377  11.587 -0.5915  0.6408  0.1627
  501TMC3    C8 7507   2.017   3.616  11.240 -0.4335  0.0432  0.5132
  501TMC3    O1 7508   2.255   3.433  11.527  0.2945  0.2603 -0.1977
  501TMC3    O2 7509   2.061   3.724  11.272 -0.0246  0.0525  0.6550
  502TMC3    C1 7510   2.050   2.168  15.310 -0.5579  0.0848  0.5357
  502TMC3    C2 7511   2.057   2.223  15.184  0.0926  0.6917 -0.0625
  502TMC3    C3 7512   1.942   2.208  15.109 -1.0765 -0.3181 -0.3639
  502TMC3    C4 7513   1.940   2.100  15.367  0.3201  0.2768  0.4633
  502TMC3    C5 7514   1.827   2.092  15.292  0.0593  1.0412 -0.0526
  502TMC3    C6 7515   1.828   2.147  15.160  0.1758  0.2128  0.3542
  502TMC3     C 7516   2.177   2.156  15.377 -0.3138 -0.0625 -0.5865
  502TMC3     O 7517   2.275   2.214  15.334 -0.2929 -0.3709  0.3371
  502TMC3     H 7518   2.154   2.250  15.145 -0.4867  0.6584 -1.5592
  502TMC3    H1 7519   1.948   2.059  15.467  2.9222  2.6130  1.2208
  502TMC3    H2 7520   1.743   2.118  15.099 -0.3149  0.3304  0.9745
  502TMC3    C7 7521   1.720   2.009  15.338  0.8287 -0.1073 -0.3699
  502TMC3    C8 7522   1.957   2.230  14.964  0.3259 -1.0599 -0.2472
  502TMC3    O1 7523   1.755   1.935  15.429 -0.5253 -0.1811  0.2073
  502TMC3    O2 7524   2.034   2.317  14.929 -0.2532 -0.5006  0.3015
  503MPD2     C 7525   3.958   2.724  17.055 -0.7195  0.2142  0.4004
  503MPD2    C1 7526   4.095   2.752  17.066 -0.2108  0.0731  0.2174
  503MPD2    C2 7527   4.183   2.679  17.140  0.3217  0.8316 -0.4978
  503MPD2    C3 7528   4.133   2.579  17.218  0.7017  0.0718  0.3859
  503MPD2    C4 7529   3.995   2.555  17.218  0.4577 -0.6071  0.7857
  503MPD2    C5 7530   3.917   2.619  17.129  0.8047 -0.7574 -0.3383
  503MPD2     H 7531   4.287   2.707  17.135 -0.0214  2.3342  0.7188
  503MPD2    H1 7532   3.945   2.488  17.288 -0.2926 -1.5478 -0.6423
  503MPD2    H2 7533   3.885   2.780  16.998  0.7331 -1.0991 -2.7486
  503MPD2    H3 7534   3.811   2.596  17.126  0.6042  0.5641 -3.7708
  503MPD2     N 7535   4.226   2.505  17.296 -0.2478  0.7822 -0.4948
  503MPD2    H5 7536   4.325   2.522  17.282  0.3284 -2.1004  0.0785
  503MPD2    N1 7537   4.150   2.870  17.004 -0.2013 -0.3882 -0.6561
  503MPD2    H7 7538   4.244   2.890  17.035  0.9207 -1.9204 -3.1245
  504TMC3    C1 7539   4.313   2.346  17.438  0.1204 -0.0667 -0.2284
  504TMC3    C2 7540   4.301   2.281  17.559  0.1708  0.5439 -0.5445
  504TMC3    C3 7541   4.414   2.244  17.627 -0.2880 -0.1443  0.1376
  504TMC3    C4 7542   4.436   2.363  17.381  0.5557  0.2108 -0.5721
  504TMC3    C5 7543   4.547   2.325  17.456 -0.1326 -0.2909 -0.3997
  504TMC3    C6 7544   4.538   2.276  17.586  0.1661 -0.1125 -0.4372
  504TMC3     C 7545   4.197   2.404  17.381 -0.7935  0.3238 -0.8106
  504TMC3     O 7546   4.087   2.355  17.402  0.0579 -0.5831 -0.1048
  504TMC3     H 7547   4.206   2.244  17.596  0.5933 -1.1061 -1.0954
  504TMC3    H1 7548   4.445   2.388  17.276  0.8831  1.1497 -0.3179
  504TMC3    H2 7549   4.629   2.240  17.632  0.8851  1.5483 -0.5465
  504TMC3    C7 7550   4.679   2.325  17.393  0.4222 -0.2603  0.1854
  504TMC3    C8 7551   4.404   2.135  17.720 -0.3530 -0.5414 -0.0985
  504TMC3    O1 7552   4.699   2.291  17.279  0.3030 -0.0448 -0.3219
  504TMC3    O2 7553   4.316   2.056  17.696  0.5632  0.1596  0.1944
  505MPD2     C 7554   4.440   1.439  10.328 -0.4000 -0.6789 -0.3657
  505MPD2    C1 7555   4.439   1.405  10.463  0.6801  0.6121  0.4384
  505MPD2    C2 7556   4.510   1.479  10.555 -0.7985  0.1099  0.4388
  505MPD2    C3 7557   4.579   1.589  10.516 -0.3466 -0.1105 -0.2541
  505MPD2    C4 7558   4.576   1.619  10.380 -0.0406 -0.9580 -0.1363
  505MPD2    C5 7559   4.511   1.546  10.285 -0.3471 -0.4332  1.0778
  505MPD2     H 7560   4.506   1.453  10.660  1.5626  0.7114  0.6773
  505MPD2    H1 7561   4.634   1.702  10.340 -0.6440 -1.6240 -2.3536
  505MPD2    H2 7562   4.379   1.386  10.256 -0.0097 -0.2058 -1.0515
  505MPD2    H3 7563   4.517   1.583  10.183 -0.1044 -3.1001  0.1352
  505MPD2     N 7564   4.669   1.654  10.596  0.2345 -0.1076  0.5658
  505MPD2    H5 7565   4.712   1.735  10.551 -0.7400  0.5734  0.8496
  505MPD2    N1 7566   4.365   1.288  10.494  0.1744  0.3070  0.0696
  505MPD2    H7 7567   4.323   1.245  10.412  1.2674 -2.1259  0.7890
  506TMC3    C1 7568   4.308   1.099  10.609 -0.1055  0.6741  0.2427
  506TMC3    C2 7569   4.357   1.016  10.512  1.1247  0.3935  0.8196
  506TMC3    C3 7570   4.381   0.884  10.548  0.4049  0.9649  0.1838
  506TMC3    C4 7571   4.300   1.063  10.738 -0.3168 -0.5461 -0.0562
  506TMC3    C5 7572   4.338   0.941  10.776 -0.1291  0.4795 -0.0606
  506TMC3    C6 7573   4.373   0.846  10.678 -0.0950 -0.4000  0.6549
  506TMC3     C 7574   4.351   1.237  10.613 -0.3885  0.6491 -0.1370
  506TMC3     O 7575   4.401   1.277  10.721 -0.1414  0.4959 -0.3051
  506TMC3     H 7576   4.348   1.044  10.408  1.0715 -0.1101  0.6883
  506TMC3    H1 7577   4.255   1.132  10.809  0.6182  0.0700 -0.0593
  506TMC3    H2 7578   4.408   0.748  10.709 -0.4700 -0.2973  1.4138
  506TMC3    C7 7579   4.437   0.947  10.881  0.4012  0.3136 -0.3610
  506TMC3    C8 7580   4.460   0.798  10.457  0.2765  0.3159 -0.0661
  506TMC3    O1 7581   4.496   0.844  10.896 -0.1260  0.5584  0.5574
  506TMC3    O2 7582   4.435   0.680  10.458  0.2378  0.1224  0.8074
  507TMC3    C1 7583   0.464   1.792  14.209 -0.1093  0.1679 -0.2201
  507TMC3    C2 7584   0.522   1.783  14.086  0.0306 -0.1624 -0.2709
  507TMC3    C3 7585   0.572   1.898  14.032  0.2495  0.1419 -0.3631
  507TMC3    C4 7586   0.477   1.895  14.295  0.0757 -0.0496  0.5096
  507TMC3    C5 7587   0.538   2.008  14.244 -0.5031 -0.4218  0.3828
  507TMC3    C6 7588   0.587   2.009  14.116 -0.5585  0.1582 -0.4185
  507TMC3     C 7589   0.398   1.669  14.255 -0.0759 -0.2762  0.0668
  507TMC3     O 7590   0.457   1.569  14.210 -0.3764 -0.2662 -0.1428
  507TMC3     H 7591   0.490   1.705  14.018 -0.4022 -1.3552  1.3021
  507TMC3    H1 7592   0.428   1.892  14.391 -1.2894 -2.1091 -0.2418
  507TMC3    H2 7593   0.641   2.099  14.088 -1.8814  1.9464  2.7720
  507TMC3    C7 7594   0.481   2.134  14.274  0.2488 -0.4241  0.3698
  507TMC3    C8 7595   0.513   1.941  13.909  0.9095  0.7619 -0.5995
  507TMC3    O1 7596   0.489   2.217  14.182 -0.2083 -0.0112 -0.2725
  507TMC3    O2 7597   0.514   1.867  13.814 -0.0423 -0.3509  0.0686
  508MPD2     C 7598   0.777   4.553  16.316  0.0025 -0.5577 -0.2664
  508MPD2    C1 7599   0.880   4.634  16.367  0.0789  0.0477  0.7365
  508MPD2    C2 7600   0.905   0.025  16.306  0.4442 -0.1847 -0.8609
  508MPD2    C3 7601   0.848   0.053  16.185 -0.4074  0.0996 -0.7403
  508MPD2    C4 7602   0.753   4.699  16.131  0.3862 -0.2509 -0.2284
  508MPD2    C5 7603   0.719   4.587  16.196 -0.3090  0.1070 -0.4347
  508MPD2     H 7604   0.980   0.094  16.342 -3.0284  3.1822 -0.0379
  508MPD2    H1 7605   0.696   4.725  16.042 -2.1904 -2.3265  0.8095
  508MPD2    H2 7606   0.740   4.467  16.371 -0.2588 -0.7688 -0.7787
  508MPD2    H3 7607   0.635   4.534  16.155 -0.5467 -0.1014  0.3186
  508MPD2     N 7608   0.889   0.166  16.121  0.3050 -0.0622  0.3033
  508MPD2    H5 7609   0.957   0.226  16.167 -1.0827  1.3864  0.4708
  508MPD2    N1 7610   0.941   4.586  16.481  0.6682 -0.1609 -0.7576
  508MPD2    H7 7611   0.935   4.485  16.496  0.3608 -0.3540 -2.1941
  509TMC3    C1 7612   0.941   0.483  15.790  0.6427  0.8936  0.7434
  509TMC3    C2 7613   0.960   0.582  15.876  0.7180  0.0533  0.0403
  509TMC3    C3 7614   0.945   0.555  16.008 -0.0850 -0.0095  0.5568
  509TMC3    C4 7615   0.900   0.361  15.832  0.0565 -0.2869  0.1604
  509TMC3    C5 7616   0.895   0.335  15.966 -0.3593  0.1655 -0.0744
  509TMC3    C6 7617   0.919   0.430  16.060 -0.7963 -0.5950  0.1183
  509TMC3     C 7618   0.953   0.498  15.645  0.0500 -0.8244  0.2068
  509TMC3     O 7619   0.901   0.407  15.584  0.1839  0.3334 -0.7235
  509TMC3     H 7620   0.970   0.685  15.844  2.1743 -1.1392 -3.3103
  509TMC3    H1 7621   0.884   0.281  15.761  1.3210 -2.1644  1.9991
  509TMC3    H2 7622   0.917   0.403  16.165  0.7824 -1.7583 -0.1535
  509TMC3    C7 7623   0.852   0.205  15.999 -0.0015 -0.5388  0.0951
  509TMC3    C8 7624   1.005   0.642  16.103  0.5510  0.5555  0.3659
  509TMC3    O1 7625   0.788   0.152  15.906 -0.7510 -0.5085  0.2904
  509TMC3    O2 7626   0.999   0.603  16.219 -0.2948  0.3691 -0.4115
  510MPD2     C 7627   4.383   1.142  15.093  0.3913 -0.2066  0.9069
  510MPD2    C1 7628   4.259   1.198  15.075 -0.2341 -0.9438  0.0250
  510MPD2    C2 7629   4.240   1.287  14.981 -0.5469  0.3084  0.0474
  510MPD2    C3 7630   4.341   1.320  14.893  0.3058  0.1247  0.1297
  510MPD2    C4 7631   4.468   1.272  14.911 -0.5037  0.8956  0.2755
  510MPD2    C5 7632   4.484   1.180  15.008 -0.0980  1.6768  0.7518
  510MPD2     H 7633   4.141   1.328  14.963 -0.5629 -0.0895 -0.7945
  510MPD2    H1 7634   4.550   1.312  14.851  1.7989 -1.5673  1.7866
  510MPD2    H2 7635   4.382   1.066  15.169  0.0009 -1.2609 -0.1480
  510MPD2    H3 7636   4.583   1.136  15.018 -0.3950  0.5230 -1.3858
  510MPD2     N 7637   4.308   1.402  14.780  0.4425 -0.4588 -0.0974
  510MPD2    H5 7638   4.212   1.435  14.777  0.4694 -0.1507  2.1134
  510MPD2    N1 7639   4.156   1.144  15.164 -0.0768 -0.3135  0.3762
  510MPD2    H7 7640   4.172   1.067  15.228 -1.1165  0.5840  1.7179
  511TMC3    C1 7641   3.947   1.128  15.273  0.0034 -0.9949 -0.0511
  511TMC3    C2 7642   3.842   1.200  15.331  0.4288  0.0074 -0.1763
  511TMC3    C3 7643   3.734   1.127  15.369  0.4113 -0.7298 -0.0208
  511TMC3    C4 7644   3.925   0.994  15.240 -0.2109 -0.5729 -0.1970
  511TMC3    C5 7645   3.800   0.936  15.277 -0.7020 -0.1468  0.1024
  511TMC3    C6 7646   3.707   1.000  15.335  0.9937 -0.2099  1.5324
  511TMC3     C 7647   4.034   1.202  15.188  0.1102  0.0289  0.3829
  511TMC3     O 7648   3.990   1.317  15.167 -0.2170 -0.3540  0.1780
  511TMC3     H 7649   3.859   1.304  15.359  0.1324 -0.3998  1.5401
  511TMC3    H1 7650   4.003   0.930  15.198 -1.2154 -2.0818  0.2345
  511TMC3    H2 7651   3.602   0.972  15.347  1.0514 -1.6144 -1.3603
  511TMC3    C7 7652   3.775   0.818  15.201 -0.4969 -0.7724  0.0513
  511TMC3    C8 7653   3.635   1.208  15.434 -0.0240  0.2581  0.0346
  511TMC3    O1 7654   3.849   0.804  15.107 -0.4655 -0.1891 -0.0091
  511TMC3    O2 7655   3.629   1.324  15.405  0.8271  0.5741 -0.1627
  512TMC3    C1 7656   2.302   0.850  13.744 -0.2257 -0.3158  0.1857
  512TMC3    C2 7657   2.411   0.811  13.807 -1.0221  0.3583  0.0526
  512TMC3    C3 7658   2.449   0.682  13.787  0.0961  0.3119 -0.2516
  512TMC3    C4 7659   2.239   0.772  13.643 -0.1908 -0.3597 -0.9383
  512TMC3    C5 7660   2.287   0.653  13.611 -0.0411 -0.2903  0.4620
  512TMC3    C6 7661   2.390   0.602  13.687  0.7409  0.5990 -0.1142
  512TMC3     C 7662   2.287   0.997  13.734  0.0788  0.5395  0.0676
  512TMC3     O 7663   2.373   1.065  13.787 -0.0597  0.1125  0.0386
  512TMC3     H 7664   2.471   0.870  13.875  1.3825 -1.1741 -0.7460
  512TMC3    H1 7665   2.167   0.819  13.576 -0.5721  0.6000  0.1376
  512TMC3    H2 7666   2.441   0.511  13.657 -1.7958  0.1800 -3.0756
  512TMC3    C7 7667   2.309   0.629  13.470 -0.0539  1.1315  0.2495
  512TMC3    C8 7668   2.590   0.660  13.805  0.6503 -0.4356 -0.2434
  512TMC3    O1 7669   2.272   0.726  13.402 -0.0498 -0.0673 -0.2081
  512TMC3    O2 7670   2.617   0.542  13.824 -0.4497  0.0601 -0.3571
  513MPD2     C 7671   4.425   0.602  13.143  0.2703  0.1844  0.1777
  513MPD2    C1 7672   4.558   0.612  13.118  0.3158  0.1010  0.0158
  513MPD2    C2 7673   4.637   0.642  13.227  0.3624 -0.4296  0.0217
  513MPD2    C3 7674   4.591   0.654  13.357 -0.2632  0.6310 -0.4653
  513MPD2    C4 7675   4.458   0.632  13.380 -0.0021 -0.2486 -0.8954
  513MPD2    C5 7676   4.376   0.606  13.271 -0.2246  0.1147  0.2468
  513MPD2     H 7677   0.008   0.665  13.213 -0.2696  2.1528 -0.4709
  513MPD2    H1 7678   4.421   0.637  13.482 -0.5303  1.7063 -1.1813
  513MPD2    H2 7679   4.349   0.586  13.067  0.9811  0.3979 -0.5846
  513MPD2    H3 7680   4.270   0.591  13.287  0.1508 -1.2603  1.4643
  513MPD2     N 7681   4.688   0.689  13.450  0.2942 -0.2652 -0.6311
  513MPD2    H5 7682   0.048   0.691  13.416  0.1628 -0.2130 -0.9877
  513MPD2    N1 7683   4.617   0.619  12.988 -0.1987  0.3441 -0.2725
  513MPD2    H7 7684   4.708   0.665  12.980 -0.9949  1.7063 -1.4568
  514TMC3    C1 7685   4.667   0.623  12.769 -0.4652 -0.3470 -0.0746
  514TMC3    C2 7686   4.621   0.695  12.663  0.0666  1.0032  0.5655
  514TMC3    C3 7687   4.694   0.803  12.626 -0.2664  0.6824  0.0300
  514TMC3    C4 7688   0.064   0.651  12.823 -0.2066 -0.1119 -0.2911
  514TMC3    C5 7689   0.139   0.759  12.783 -1.0260 -0.0693  0.0871
  514TMC3    C6 7690   0.076   0.840  12.688  0.7972 -0.3929  0.1752
  514TMC3     C 7691   4.563   0.586  12.869  0.3862 -1.0408 -0.1290
  514TMC3     O 7692   4.452   0.552  12.844  0.2105 -0.0978  0.1641
  514TMC3     H 7693   4.516   0.683  12.637  0.5603  0.1322 -0.9934
  514TMC3    H1 7694   0.123   0.584  12.885 -0.9451 -0.2635  0.2508
  514TMC3    H2 7695   0.127   0.932  12.660 -2.1384  1.2143  0.1861
  514TMC3    C7 7696   0.208   0.816  12.894 -0.0980  0.3979 -0.4868
  514TMC3    C8 7697   4.630   0.893  12.530 -0.0197  0.1221 -0.0131
  514TMC3    O1 7698   0.193   0.755  13.001  0.2398 -0.0089  0.2217
  514TMC3    O2 7699   4.510   0.869  12.505 -0.4656  0.1959  0.4254
  515MPD2     C 7700   2.949   2.997  14.792 -0.1328  0.2754  0.5669
  515MPD2    C1 7701   2.968   2.857  14.803  0.7564  0.2133 -0.5631
  515MPD2    C2 7702   3.079   2.801  14.871  0.2394 -0.1563  0.2023
  515MPD2    C3 7703   3.169   2.891  14.923  0.0765  0.3278 -0.2606
  515MPD2    C4 7704   3.150   3.027  14.916 -0.0758 -0.1127  0.2854
  515MPD2    C5 7705   3.043   3.075  14.848  0.5190 -0.0223 -0.0404
  515MPD2     H 7706   3.080   2.694  14.888  0.5855  0.2654  2.8220
  515MPD2    H1 7707   3.217   3.094  14.970 -0.1502 -0.1344  0.4045
  515MPD2    H2 7708   2.869   3.051  14.742 -0.9888  1.5569  3.3488
  515MPD2    H3 7709   3.049   3.179  14.816  0.5657  1.2752  4.1305
  515MPD2     N 7710   3.289   2.858  14.989  0.1320  0.2292  0.4641
  515MPD2    H5 7711   3.351   2.935  15.011 -0.4596  0.4815  1.2441
  515MPD2    N1 7712   2.869   2.767  14.756 -0.0808  0.3386  0.3602
  515MPD2    H7 7713   2.890   2.670  14.776  1.6358 -0.0541 -3.3694
  516TMC3    C1 7714   2.724   2.675  14.604  0.4155  0.2108  0.1017
  516TMC3    C2 7715   2.673   2.689  14.476  0.5518  0.3463  0.2374
  516TMC3    C3 7716   2.612   2.581  14.422  1.2983 -0.8312 -0.4096
  516TMC3    C4 7717   2.709   2.557  14.675 -0.4923 -0.0109 -0.2986
  516TMC3    C5 7718   2.648   2.451  14.608 -0.1297  0.0466  0.2092
  516TMC3    C6 7719   2.587   2.463  14.487  0.0489  0.0984 -0.0363
  516TMC3     C 7720   2.770   2.795  14.665 -1.0759 -0.1031  0.3261
  516TMC3     O 7721   2.724   2.900  14.625 -0.1770 -0.2625  0.7251
  516TMC3     H 7722   2.682   2.789  14.434  1.0250  0.5301  0.7659
  516TMC3    H1 7723   2.735   2.566  14.779  0.1390 -3.3786 -0.1611
  516TMC3    H2 7724   2.546   2.378  14.434  0.2651  0.4813 -0.8094
  516TMC3    C7 7725   2.603   2.352  14.702 -0.2474  0.1488  0.6582
  516TMC3    C8 7726   2.619   2.581  14.280  0.4962 -0.0696 -0.6030
  516TMC3    O1 7727   2.657   2.360  14.812 -0.7785 -0.1186  0.3558
  516TMC3    O2 7728   2.537   2.513  14.218  0.1849  0.3769  0.3096
  517MPD2     C 7729   2.544   4.041  17.723  0.1867 -0.3169 -0.0946
  517MPD2    C1 7730   2.674   4.087   0.006 -0.3336 -0.1512  0.6795
  517MPD2    C2 7731   2.696   4.209   0.076  0.8946  0.5244  0.2127
  517MPD2    C3 7732   2.582   4.271   0.136 -0.4604 -0.2545  0.2177
  517MPD2    C4 7733   2.459   4.214   0.122 -0.0051 -0.5228  0.2219
  517MPD2    C5 7734   2.435   4.100   0.051 -0.1664  0.2506 -0.1591
  517MPD2     H 7735   2.794   4.254   0.086  0.6270  0.6301  2.3670
  517MPD2    H1 7736   2.377   4.266   0.170  2.0792  2.3616  0.5972
  517MPD2    H2 7737   2.518   3.956  17.662  1.0743 -2.4355  2.4782
  517MPD2    H3 7738   2.338   4.052   0.043  0.6402 -1.1602 -1.5888
  517MPD2     N 7739   2.587   4.387   0.213  0.2761  0.0995 -0.0476
  517MPD2    H5 7740   2.503   4.415   0.262 -1.5806 -0.3047 -2.9860
  517MPD2    N1 7741   2.790   4.028  17.688  0.1338  0.4680 -0.1319
  517MPD2    H7 7742   2.880   4.075  17.692  1.2611 -1.7194  0.7808
  518TMC3    C1 7743   2.925   3.831  17.638  1.1093 -0.9168 -0.1607
  518TMC3    C2 7744   2.910   3.700  17.642  0.4195  0.7415 -0.2342
  518TMC3    C3 7745   3.010   3.612  17.618 -0.4384 -0.1182 -0.0050
  518TMC3    C4 7746   3.047   3.881  17.603 -1.0027 -0.3728 -0.0238
  518TMC3    C5 7747   3.153   3.792  17.592  0.2034  0.0541  0.4828
  518TMC3    C6 7748   3.137   3.658  17.602  0.5213 -0.6381  0.4039
  518TMC3     C 7749   2.802   3.902  17.629 -0.4259  0.0424  0.2708
  518TMC3     O 7750   2.706   3.836  17.602 -0.0002 -0.4331  0.2823
  518TMC3     H 7751   2.809   3.661  17.653  0.7574  0.9433  3.5858
  518TMC3    H1 7752   3.068   3.984  17.575  0.5862 -0.9975 -1.1023
  518TMC3    H2 7753   3.211   3.579  17.615  2.7669  1.4407  0.4075
  518TMC3    C7 7754   3.274   3.840  17.538  0.0705 -0.0524  0.4254
  518TMC3    C8 7755   2.978   3.477  17.598  0.2221 -0.3980  0.2843
  518TMC3    O1 7756   3.322   3.946  17.571 -0.3272  0.5996 -0.1535
  518TMC3    O2 7757   3.061   3.402  17.544  0.1853 -0.2289  0.1825
  519MPD2     C 7758   4.400   2.306  14.550  0.0454  0.0969  0.8279
  519MPD2    C1 7759   4.308   2.246  14.466  0.0017  0.3648 -0.0974
  519MPD2    C2 7760   4.352   2.194  14.344  0.1225  0.3117 -0.5674
  519MPD2    C3 7761   4.487   2.187  14.321  0.0868 -0.3881 -0.0108
  519MPD2    C4 7762   4.571   2.251  14.410  0.3632 -0.5184  0.7153
  519MPD2    C5 7763   4.530   2.318  14.527  0.8063 -0.0446  0.1054
  519MPD2     H 7764   4.279   2.151  14.276 -0.3968 -0.0715  0.2293
  519MPD2    H1 7765   4.670   2.263  14.367 -0.6236  1.5688 -1.0003
  519MPD2    H2 7766   4.368   2.346  14.646 -0.9623 -1.5285  1.1654
  519MPD2    H3 7767   4.589   2.377  14.596 -1.0677  1.5538  0.3361
  519MPD2     N 7768   4.526   2.118  14.202 -0.2553 -0.5207 -0.0404
  519MPD2    H5 7769   4.444   2.089  14.150  0.3765  1.5725 -2.2127
  519MPD2    N1 7770   4.179   2.239  14.516 -0.4794  0.2276 -0.4722
  519MPD2    H7 7771   4.160   2.287  14.603  4.7089 -1.0479  1.3193
  520TMC3    C1 7772   4.663   2.014  14.048 -0.6540 -0.9232  0.0470
  520TMC3    C2 7773   4.573   2.039  13.947  0.3747  1.2342 -1.1888
  520TMC3    C3 7774   4.584   1.960  13.836  0.0002  0.0687 -0.0588
  520TMC3    C4 7775   0.027   1.921  14.035 -0.4326 -0.1959 -0.1900
  520TMC3    C5 7776   0.044   1.849  13.925  0.5708 -0.1374  0.1097
  520TMC3    C6 7777   4.689   1.868  13.820  0.0483 -1.4682 -0.9641
  520TMC3     C 7778   4.658   2.089  14.168  0.0409 -0.3393  0.0458
  520TMC3     O 7779   0.026   2.118  14.233  0.0678 -0.1097  0.1832
  520TMC3     H 7780   4.499   2.117  13.953 -1.2059 -0.3412  0.1411
  520TMC3    H1 7781   0.101   1.908  14.113  0.3770  0.0135 -0.9225
  520TMC3    H2 7782   4.684   1.816  13.725 -1.8089 -3.0960  0.0284
  520TMC3    C7 7783   0.153   1.747  13.926 -0.5634 -1.0595  0.1843
  520TMC3    C8 7784   4.497   1.984  13.731 -0.0764 -0.2722 -0.1389
  520TMC3    O1 7785   0.213   1.726  14.032 -0.3006  0.2935  0.4939
  520TMC3    O2 7786   4.547   1.961  13.619 -1.0873 -0.0225 -0.1474
  521MPD2     C 7787   0.557   0.426   0.120  0.4150 -0.0159  0.0727
  521MPD2    C1 7788   0.503   0.467   0.002  0.7954  0.2716  0.0719
  521MPD2    C2 7789   0.575   0.548  17.651 -0.1986 -0.4222  0.7684
  521MPD2    C3 7790   0.709   0.582  17.676 -0.9329 -0.1807  0.7205
  521MPD2    C4 7791   0.763   0.545   0.063 -0.3681 -0.5393 -0.3623
  521MPD2    C5 7792   0.688   0.470   0.148 -0.3180  0.1625  0.6330
  521MPD2     H 7793   0.531   0.577  17.557  1.9010 -0.1453 -0.1340
  521MPD2    H1 7794   0.866   0.564   0.093 -0.3734  0.9133 -1.3113
  521MPD2    H2 7795   0.503   0.367   0.193  3.4135 -3.7030 -0.7161
  521MPD2    H3 7796   0.731   0.443   0.244 -1.1531  1.7539  1.4474
  521MPD2     N 7797   0.777   0.662  17.584 -0.4962 -0.3687  0.1060
  521MPD2    H5 7798   0.725   0.692  17.502 -0.1104  2.7204  0.9949
  521MPD2    N1 7799   0.376   0.422  17.718 -0.1042 -0.2826  0.5122
  521MPD2    H7 7800   0.325   0.384   0.060 -0.9174  0.6479  0.4281
  522TMC3    C1 7801   0.967   0.738  17.459  0.5772  0.1472  0.2351
  522TMC3    C2 7802   1.068   0.663  17.412 -0.0157 -0.6819  0.4142
  522TMC3    C3 7803   1.072   0.636  17.282 -0.0700  0.3332  0.0239
  522TMC3    C4 7804   0.881   0.797  17.375  0.1307 -0.6131  0.0064
  522TMC3    C5 7805   0.887   0.761  17.243  0.7957 -0.7520 -0.1069
  522TMC3    C6 7806   0.977   0.673  17.188  1.0824  0.5067  0.6147
  522TMC3     C 7807   0.911   0.682  17.584  0.5550  0.3827  0.1360
  522TMC3     O 7808   0.992   0.626  17.657 -0.2790  0.6647 -0.7429
  522TMC3     H 7809   1.136   0.614  17.481 -0.3468 -0.1703  1.1044
  522TMC3    H1 7810   0.802   0.860  17.415 -0.4127 -0.9494 -0.5365
  522TMC3    H2 7811   0.976   0.633  17.087 -1.9356  2.1968 -0.0314
  522TMC3    C7 7812   0.810   0.849  17.157 -0.2648 -0.2923 -0.1005
  522TMC3    C8 7813   1.197   0.582  17.235 -0.3308  0.5056  0.3968
  522TMC3    O1 7814   0.822   0.969  17.182 -0.0764  0.2967 -0.6786
  522TMC3    O2 7815   1.296   0.625  17.295 -0.2693  0.2118  0.1019
  523MPD2     C 7816   2.861   0.559   9.969  0.7949 -0.6709  0.1290
  523MPD2    C1 7817   2.753   0.478   9.957 -0.3713 -0.2983 -0.2806
  523MPD2    C2 7818   2.647   0.518   9.868 -0.1860 -0.4622 -0.1672
  523MPD2    C3 7819   2.662   0.636   9.802  0.6957 -0.4698 -0.6175
  523MPD2    C4 7820   2.772   0.712   9.818 -0.1077  0.1263 -0.0852
  523MPD2    C5 7821   2.874   0.673   9.894 -0.0905  0.1825 -0.7812
  523MPD2     H 7822   2.560   0.457   9.846 -0.0125 -1.0327  0.7175
  523MPD2    H1 7823   2.779   0.798   9.752 -0.4167  2.3371  2.8077
  523MPD2    H2 7824   2.943   0.538  10.035  0.8224 -2.4010 -0.4492
  523MPD2    H3 7825   2.966   0.729   9.903  0.2782 -0.1416 -2.6733
  523MPD2     N 7826   2.560   0.687   9.716  0.4331  0.6371  0.0725
  523MPD2    H5 7827   2.584   0.776   9.674 -0.2567  1.1296  0.6999
  523MPD2    N1 7828   2.757   0.355  10.035 -0.4105 -0.4352 -0.6097
  523MPD2    H7 7829   2.845   0.330  10.080 -0.7972  1.5363  1.2308
  524TMC3    C1 7830   2.376   0.711   9.581  0.1956  0.3766 -0.0948
  524TMC3    C2 7831   2.240   0.691   9.569 -0.3137  0.8515  0.1024
  524TMC3    C3 7832   2.163   0.792   9.521  0.5424 -0.5241  0.0504
  524TMC3    C4 7833   2.432   0.834   9.547 -0.4912  0.0170  0.2933
  524TMC3    C5 7834   2.349   0.941   9.526 -0.0792 -1.0989  0.1532
  524TMC3    C6 7835   2.212   0.921   9.511 -0.0094 -0.0882 -0.8474
  524TMC3     C 7836   2.444   0.624   9.677  0.1157  0.3147 -0.3364
  524TMC3     O 7837   2.385   0.526   9.715 -0.4918  0.1959 -0.6747
  524TMC3     H 7838   2.196   0.598   9.602  0.5432  0.8420  1.2340
  524TMC3    H1 7839   2.536   0.862   9.539 -0.3129 -0.7727 -0.1607
  524TMC3    H2 7840   2.140   1.001   9.507  0.8481  0.7392  0.2534
  524TMC3    C7 7841   2.397   1.071   9.567  0.0420 -0.5644 -0.4863
  524TMC3    C8 7842   2.023   0.771   9.529 -0.0491  0.4371 -0.3855
  524TMC3    O1 7843   2.506   1.080   9.620 -0.3687 -0.5141  0.6233
  524TMC3    O2 7844   1.982   0.667   9.584  0.5150  0.2253  0.0322
  525MPD2     C 7845   0.962   1.676  14.220  0.5654  0.2544  0.7093
  525MPD2    C1 7846   0.988   1.775  14.308  0.8749  0.0137  0.2409
  525MPD2    C2 7847   0.972   1.910  14.276  0.2036 -0.8129 -0.1810
  525MPD2    C3 7848   0.934   1.948  14.147 -0.0642  0.0425  0.3345
  525MPD2    C4 7849   0.908   1.848  14.058  0.1552 -0.4286 -0.1044
  525MPD2    C5 7850   0.916   1.720  14.097  0.4929  0.9262  0.0778
  525MPD2     H 7851   0.986   1.987  14.351 -2.2079  0.9489 -1.5194
  525MPD2    H1 7852   0.856   1.877  13.967 -0.4899 -4.6216 -1.0811
  525MPD2    H2 7853   0.971   1.571  14.244 -0.4011 -0.3099 -1.3266
  525MPD2    H3 7854   0.889   1.640  14.029 -1.7841  1.0452  0.8534
  525MPD2     N 7855   0.909   2.082  14.112 -0.0689 -0.0734 -0.2553
  525MPD2    H5 7856   0.872   2.100  14.019  1.3098 -1.3346 -1.0397
  525MPD2    N1 7857   1.021   1.753  14.442 -0.4574 -0.5406  0.1176
  525MPD2    H7 7858   1.041   1.834  14.499  0.3797 -0.8498  0.2599
  526TMC3    C1 7859   1.049   1.644  14.654 -0.4289  0.0241  0.2640
  526TMC3    C2 7860   0.965   1.590  14.742  0.1175 -0.8461 -0.0915
  526TMC3    C3 7861   0.994   1.612  14.875  0.6726  0.5677  0.0199
  526TMC3    C4 7862   1.140   1.741  14.684 -0.1009 -0.3171  0.5474
  526TMC3    C5 7863   1.154   1.762  14.818  0.2178 -0.1213 -0.6541
  526TMC3    C6 7864   1.090   1.697  14.917  0.0101 -0.1557  0.5530
  526TMC3     C 7865   1.007   1.633  14.508 -0.0741  0.2023  0.4567
  526TMC3     O 7866   0.942   1.536  14.473 -0.3424  0.3328  0.2286
  526TMC3     H 7867   0.889   1.523  14.702 -1.0688 -1.3237  3.0189
  526TMC3    H1 7868   1.216   1.777  14.616 -0.2731 -0.8295  0.0911
  526TMC3    H2 7869   1.107   1.716  15.022 -0.9447  2.6187  0.2023
  526TMC3    C7 7870   1.282   1.798  14.866 -0.0525  0.3491 -0.2386
  526TMC3    C8 7871   0.942   1.519  14.980 -0.8731 -0.0353  0.5164
  526TMC3    O1 7872   1.296   1.878  14.956 -0.2394 -0.0142  0.3609
  526TMC3    O2 7873   0.988   1.539  15.090  0.4071  0.8110  0.0298
  527MPD2     C 7874   2.827   4.150   1.382  0.0556 -0.1054 -0.1231
  527MPD2    C1 7875   2.880   4.205   1.268  0.1242  0.7497  0.1243
  527MPD2    C2 7876   2.993   4.150   1.217  0.6591  0.2297  0.0805
  527MPD2    C3 7877   3.058   4.042   1.277  0.1510 -0.4016  0.0774
  527MPD2    C4 7878   3.017   4.001   1.406 -0.1021  0.5670 -0.5317
  527MPD2    C5 7879   2.900   4.053   1.447  0.4787 -0.4989 -0.5254
  527MPD2     H 7880   3.036   4.181   1.123  0.0961  0.6063 -0.0506
  527MPD2    H1 7881   3.069   3.932   1.472 -1.3632 -0.6747 -0.8460
  527MPD2    H2 7882   2.737   4.188   1.430  0.1730 -0.5589  0.4446
  527MPD2    H3 7883   2.857   4.026   1.543 -1.6251  1.8665 -0.7915
  527MPD2     N 7884   3.174   3.992   1.202  0.2288 -0.6601 -0.6619
  527MPD2    H5 7885   3.208   4.056   1.131  1.3922  0.5292  0.9754
  527MPD2    N1 7886   2.809   4.311   1.196 -0.1525 -0.4600 -0.5527
  527MPD2    H7 7887   2.856   4.348   1.114  0.7942 -5.9395 -2.5381
  528TMC3    C1 7888   2.665   4.491   1.153  0.1154  0.2733  0.6936
  528TMC3    C2 7889   2.738   4.519   1.041 -0.6632 -0.0031 -0.2940
  528TMC3    C3 7890   2.697   4.622   0.960  0.2331 -0.0070 -0.3548
  528TMC3    C4 7891   2.569   4.581   1.200 -0.1471  0.3699 -0.5121
  528TMC3    C5 7892   2.540   4.685   1.120  0.4013  0.1746 -0.5056
  528TMC3    C6 7893   2.601   4.710   1.001  0.9176 -0.2796 -0.5532
  528TMC3     C 7894   2.703   4.386   1.241 -0.4065  0.2563  0.4295
  528TMC3     O 7895   2.646   4.377   1.350 -0.2121 -0.3280  0.5514
  528TMC3     H 7896   2.820   4.460   1.003 -0.9883  0.1841 -1.3074
  528TMC3    H1 7897   2.517   4.566   1.295  1.6668  2.6014  0.8346
  528TMC3    H2 7898   2.561   0.056   0.941  0.2414 -0.4827 -0.3793
  528TMC3    C7 7899   2.483   0.066   1.187  0.5441  0.2764 -0.5187
  528TMC3    C8 7900   2.757   4.643   0.833  0.2911 -0.4576 -0.4603
  528TMC3    O1 7901   2.531   0.177   1.159 -0.1125 -0.0674  0.0034
  528TMC3    O2 7902   2.772   0.027   0.802 -0.3556  0.3849 -0.3944
  529MPD2     C 7903   1.108   2.859   1.143  0.0142  0.6044 -0.0356
  529MPD2    C1 7904   1.182   2.812   1.033 -0.6432 -0.2244  0.1458
  529MPD2    C2 7905   1.165   2.875   0.911 -0.0485  0.0158  0.3078
  529MPD2    C3 7906   1.076   2.984   0.906  0.0334 -0.3020  0.2840
  529MPD2    C4 7907   0.998   3.019   1.015 -0.2683 -0.3472  0.1679
  529MPD2    C5 7908   1.015   2.962   1.136  0.2666 -0.3029 -1.2172
  529MPD2     H 7909   1.223   2.841   0.826 -0.8682 -0.4045 -0.0834
  529MPD2    H1 7910   0.923   3.097   1.008 -0.1415 -0.1243  1.3541
  529MPD2    H2 7911   1.122   2.813   1.240 -1.8806 -1.5035 -0.7731
  529MPD2    H3 7912   0.949   2.996   1.215  1.9287 -0.2215  0.1249
  529MPD2     N 7913   1.070   3.068   0.789  0.2919  0.5752 -0.3634
  529MPD2    H5 7914   1.001   3.143   0.797 -1.3878 -0.7921 -2.0389
  529MPD2    N1 7915   1.272   2.699   1.039  0.3706 -0.1240  0.3501
  529MPD2    H7 7916   1.325   2.667   0.958  2.2498  2.2312  0.6438
  530TMC3    C1 7917   1.369   2.510   1.132 -1.0204  0.1005 -0.3584
  530TMC3    C2 7918   1.487   2.548   1.077  0.3960  0.6638  0.8149
  530TMC3    C3 7919   1.588   2.456   1.067  0.4103 -0.2964 -0.1443
  530TMC3    C4 7920   1.343   2.389   1.176  0.0580  0.1371  0.3519
  530TMC3    C5 7921   1.446   2.293   1.157  0.0518  0.0164  0.2790
  530TMC3    C6 7922   1.569   2.319   1.099  0.0501 -0.4789 -0.0408
  530TMC3     C 7923   1.265   2.610   1.148  0.2927  0.4280  0.0520
  530TMC3     O 7924   1.191   2.607   1.243  0.1225  0.5203  0.0787
  530TMC3     H 7925   1.520   2.648   1.054  0.4768  0.3451 -0.4237
  530TMC3    H1 7926   1.251   2.376   1.231 -0.2850  1.0082 -0.0191
  530TMC3    H2 7927   1.653   2.251   1.093 -0.0835 -0.5831 -0.7833
  530TMC3    C7 7928   1.424   2.157   1.203  0.3813  0.7975 -0.2718
  530TMC3    C8 7929   1.722   2.496   1.010 -0.0975 -0.4884  0.3368
  530TMC3    O1 7930   1.518   2.085   1.187 -0.1718  0.3374 -0.4903
  530TMC3    O2 7931   1.714   2.577   0.925 -0.1451 -0.4257 -0.2368
  531MPD2     C 7932   0.258   1.226  13.161 -0.7771  0.2376  0.2983
  531MPD2    C1 7933   0.274   1.102  13.196 -0.0336  0.2080  0.4788
  531MPD2    C2 7934   0.284   1.003  13.100  0.8093  0.6115 -0.0039
  531MPD2    C3 7935   0.275   1.039  12.964 -0.4021 -0.5332  0.1848
  531MPD2    C4 7936   0.282   1.171  12.931  0.4648 -0.1221  0.3158
  531MPD2    C5 7937   0.261   1.262  13.028  0.0407  0.1686  0.4831
  531MPD2     H 7938   0.295   0.901  13.136  1.6409  0.1229 -1.6678
  531MPD2    H1 7939   0.275   1.204  12.828  0.1056  1.9339  0.9933
  531MPD2    H2 7940   0.265   1.307  13.233  1.0696  0.8666 -0.5694
  531MPD2    H3 7941   0.265   1.368  13.008  0.5001 -0.5416 -3.1736
  531MPD2     N 7942   0.249   0.938  12.863  0.5835 -0.6080 -0.2865
  531MPD2    H5 7943   0.235   0.972  12.768  1.2926  1.7359  0.4450
  531MPD2    N1 7944   0.257   1.072  13.333 -0.5715 -0.0000  0.1915
  531MPD2    H7 7945   0.211   1.137  13.396 -0.6380 -1.0540  1.2253
  532TMC3    C1 7946   0.240   0.916  13.510 -0.0761  0.4666  0.5386
  532TMC3    C2 7947   0.110   0.893  13.513 -0.1192 -0.3494  0.0609
  532TMC3    C3 7948   0.051   0.823  13.614 -0.4730  0.3168 -0.1004
  532TMC3    C4 7949   0.323   0.858  13.607 -0.4543  0.5011 -0.3155
  532TMC3    C5 7950   0.258   0.785  13.706 -0.2388 -0.3934 -0.7658
  532TMC3    C6 7951   0.123   0.765  13.714  0.3734  0.0061  0.3274
  532TMC3     C 7952   0.302   0.953  13.391 -0.5681 -0.0106  0.4044
  532TMC3     O 7953   0.409   0.899  13.363 -0.3235 -0.4241 -0.4935
  532TMC3     H 7954   0.045   0.921  13.430  1.0524 -0.6602 -0.9555
  532TMC3    H1 7955   0.430   0.857  13.593 -0.6506  1.6024 -2.0090
  532TMC3    H2 7956   0.076   0.697  13.785 -2.0181  0.2072 -1.0682
  532TMC3    C7 7957   0.334   0.664  13.729 -0.3110 -0.8889  0.0507
  532TMC3    C8 7958   4.667   0.752  13.568  0.5927  0.7196  0.3117
  532TMC3    O1 7959   0.419   0.648  13.816  0.3375 -0.4326 -0.2334
  532TMC3    O2 7960   4.566   0.756  13.635  0.1250  0.2910  0.5581
  533TMC3    C1 7961   0.891   2.317  14.109  0.6935  0.2521 -0.4310
  533TMC3    C2 7962   0.975   2.338  13.998  0.7505 -0.0689 -0.1582
  533TMC3    C3 7963   1.040   2.459  13.996 -0.2195 -0.1413 -0.1310
  533TMC3    C4 7964   0.857   2.419  14.191  0.2731  0.2249  0.8920
  533TMC3    C5 7965   0.929   2.533  14.191  0.3504 -0.6248  0.6182
  533TMC3    C6 7966   1.015   2.557  14.088 -0.9897 -0.2942 -0.5400
  533TMC3     C 7967   0.918   2.196  14.188  0.1273 -0.2581  0.1779
  533TMC3     O 7968   0.944   2.214  14.304  0.0576  0.4811  0.1517
  533TMC3     H 7969   0.993   2.263  13.921 -0.9885  1.3800 -1.9822
  533TMC3    H1 7970   0.780   2.398  14.264 -0.2694  1.4860  0.6745
  533TMC3    H2 7971   1.070   2.650  14.079  0.6879 -1.2740 -0.5342
  533TMC3    C7 7972   0.948   2.593  14.325  0.2708  0.3413  0.0398
  533TMC3    C8 7973   1.168   2.463  13.932 -0.7231  0.5498  0.2660
  533TMC3    O1 7974   0.971   2.709  14.325 -0.0991  0.2408 -0.8773
  533TMC3    O2 7975   1.232   2.364  13.969  0.0624 -0.5022  0.0232
  534MPD2     C 7976   3.327   2.987   1.431  0.6216 -0.3805 -0.0508
  534MPD2    C1 7977   3.193   3.018   1.419 -0.2555  0.0123  0.1761
  534MPD2    C2 7978   3.105   2.944   1.337  0.2744  0.2738 -0.3943
  534MPD2    C3 7979   3.157   2.831   1.280  0.0418 -0.1385  0.4829
  534MPD2    C4 7980   3.291   2.795   1.302 -0.6604 -0.2132 -0.0829
  534MPD2    C5 7981   3.378   2.874   1.371  0.2255 -0.0976 -0.0364
  534MPD2     H 7982   3.006   2.985   1.322 -0.1607 -0.2190  1.1629
  534MPD2    H1 7983   3.316   2.706   1.246  0.0129 -0.5853  0.8048
  534MPD2    H2 7984   3.397   3.040   1.495  1.0126 -1.8141  0.7141
  534MPD2    H3 7985   3.486   2.862   1.367  0.1842 -0.3897 -0.2768
  534MPD2     N 7986   3.078   2.754   1.187 -0.0703 -0.1700  0.0505
  534MPD2    H5 7987   3.121   2.683   1.128 -0.2889  0.5493 -0.9676
  534MPD2    N1 7988   3.128   3.126   1.472 -0.7694  0.4565  0.1896
  534MPD2    H7 7989   3.028   3.132   1.454 -0.3509  1.2079 -1.8143
  535TMC3    C1 7990   2.889   2.713   1.040  0.4434  0.0232  1.0431
  535TMC3    C2 7991   2.775   2.631   1.044  0.8728  0.5819 -0.5536
  535TMC3    C3 7992   2.755   2.547   0.935 -0.0920 -0.3272  0.8008
  535TMC3    C4 7993   2.973   2.715   0.931 -0.4024 -0.1534 -0.5207
  535TMC3    C5 7994   2.941   2.636   0.825 -0.0461  0.6280  0.4329
  535TMC3    C6 7995   2.833   2.551   0.823  0.1908 -1.0320 -0.6915
  535TMC3     C 7996   2.944   2.770   1.163 -0.7844 -1.3788 -0.0004
  535TMC3     O 7997   2.860   2.817   1.241  0.4976  0.4369  0.2229
  535TMC3     H 7998   2.736   2.611   1.143 -0.8389  1.7157 -0.9912
  535TMC3    H1 7999   3.067   2.769   0.930 -0.1066 -0.6742 -0.4627
  535TMC3    H2 8000   2.805   2.502   0.730 -1.5062 -1.4198  0.0197
  535TMC3    C7 8001   2.991   2.682   0.699 -0.3026  0.0372  0.6489
  535TMC3    C8 8002   2.642   2.453   0.942  0.1980 -0.8895  0.3756
  535TMC3    O1 8003   3.010   2.608   0.607  0.7942 -0.3726  0.1627
  535TMC3    O2 8004   2.544   2.500   0.996  0.3830  0.4149 -0.5053
  536MPD2     C 8005   2.583   1.508  16.775  0.0396 -0.2430  0.1350
  536MPD2    C1 8006   2.464   1.438  16.778 -0.7921  0.1009  0.2515
  536MPD2    C2 8007   2.381   1.453  16.669 -0.5492 -0.3419  0.1653
  536MPD2    C3 8008   2.418   1.539  16.567 -1.3625 -0.0879  0.6442
  536MPD2    C4 8009   2.540   1.598  16.561 -0.2622 -0.3552  0.4019
  536MPD2    C5 8010   2.623   1.589  16.669  0.1856  0.5583  0.6496
  536MPD2     H 8011   2.289   1.397  16.664  0.7956 -2.6333  1.0082
  536MPD2    H1 8012   2.584   1.650  16.478  2.5676 -0.5181  1.8084
  536MPD2    H2 8013   2.660   1.500  16.851  1.6349 -1.6205 -1.6282
  536MPD2    H3 8014   2.722   1.631  16.660 -0.6126  1.8773 -1.8930
  536MPD2     N 8015   2.328   1.555  16.456  0.6394  0.3543  0.3110
  536MPD2    H5 8016   2.241   1.502  16.458  0.5252  0.4516 -1.7917
  536MPD2    N1 8017   2.437   1.342  16.877 -0.1629  0.2203  0.1777
  536MPD2    H7 8018   2.364   1.272  16.879  1.8174 -1.8465  0.5767
  537TMC3    C1 8019   2.482   1.226  17.082  0.7368 -0.0435 -0.1152
  537TMC3    C2 8020   2.530   1.224  17.211  0.3474  0.0879  0.2658
  537TMC3    C3 8021   2.510   1.110  17.289  0.9562 -0.4940 -0.1989
  537TMC3    C4 8022   2.440   1.107  17.024 -0.5386 -0.1179 -0.1467
  537TMC3    C5 8023   2.430   0.996  17.107 -0.0730 -0.2494 -0.3098
  537TMC3    C6 8024   2.474   0.993  17.239  0.2086  0.7702  0.8705
  537TMC3     C 8025   2.506   1.342  16.996 -0.4698 -0.2132 -0.7456
  537TMC3     O 8026   2.583   1.424  17.046  0.6204  0.3782  0.1567
  537TMC3     H 8027   2.571   1.315  17.253  0.1547  0.5762 -0.5951
  537TMC3    H1 8028   2.427   1.092  16.918  1.3746  1.8830 -0.6748
  537TMC3    H2 8029   2.458   0.907  17.303 -0.6890  0.8033  0.7029
  537TMC3    C7 8030   2.436   0.870  17.030 -0.1915  0.6352 -0.1027
  537TMC3    C8 8031   2.567   1.093  17.424 -0.4135  0.3215  0.3441
  537TMC3    O1 8032   2.470   0.871  16.912  0.2298  0.3394  0.0806
  537TMC3    O2 8033   2.592   0.979  17.462  0.0829  0.6107 -0.2087
  538TMC3    C1 8034   3.108   0.354  11.481  0.0322  0.3391  0.3208
  538TMC3    C2 8035   3.248   0.346  11.467 -0.1332 -0.0804 -0.7166
  538TMC3    C3 8036   3.299   0.345  11.342  0.3093 -0.4962  0.3742
  538TMC3    C4 8037   3.029   0.382  11.374 -0.7124 -0.1600  0.0482
  538TMC3    C5 8038   3.088   0.391  11.249  0.8311 -0.3675  0.3401
  538TMC3    C6 8039   3.224   0.368  11.236  0.5160  0.0194 -0.0753
  538TMC3     C 8040   3.030   0.314  11.599 -0.0495 -0.5649 -0.3775
  538TMC3     O 8041   2.909   0.310  11.577  0.4750 -0.2560 -0.3724
  538TMC3     H 8042   3.309   0.324  11.554 -2.6595  0.9957  1.3257
  538TMC3    H1 8043   2.925   0.411  11.375 -0.8870 -0.6904 -1.6603
  538TMC3    H2 8044   3.265   0.360  11.136 -0.7685  0.6308 -0.6383
  538TMC3    C7 8045   2.998   0.415  11.136 -0.2623 -0.9242 -0.4634
  538TMC3    C8 8046   3.444   0.336  11.320 -0.8669  0.0142  0.7092
  538TMC3    O1 8047   2.878   0.437  11.151  0.4085  0.2729  0.5457
  538TMC3    O2 8048   3.504   0.263  11.396 -0.0425 -0.0512  0.1317
  539MPD2     C 8049   3.291   4.553  11.591 -0.4566 -0.6845  0.5855
  539MPD2    C1 8050   3.182   4.463  11.577  0.1514 -0.6346  0.6785
  539MPD2    C2 8051   3.062   4.513  11.521 -0.2279 -0.2977 -0.1147
  539MPD2    C3 8052   3.066   4.637  11.459 -0.1779 -0.1491  0.1587
  539MPD2    C4 8053   3.175   4.717  11.462  0.4866 -0.2073  0.0219
  539MPD2    C5 8054   3.287   4.677  11.531 -0.9088 -0.2598  0.4731
  539MPD2     H 8055   2.969   4.460  11.500 -0.6444 -0.0753  1.1529
  539MPD2    H1 8056   3.187   0.078  11.411 -0.2992  0.4627  1.0855
  539MPD2    H2 8057   3.390   4.521  11.623  0.3136  2.8438  1.6493
  539MPD2    H3 8058   3.371   0.010  11.543 -0.1325 -1.3516  1.1787
  539MPD2     N 8059   2.948   4.679  11.391  0.1650  0.6292 -0.4353
  539MPD2    H5 8060   2.863   4.632  11.421  1.5009 -0.7984  1.1615
  539MPD2    N1 8061   3.186   4.324  11.624 -0.7873 -0.3909  0.5102
  539MPD2    H7 8062   3.118   4.250  11.610  0.1279 -1.2040  0.3363
  540TMC3    C1 8063   2.806   0.054  11.243  0.5053 -0.3391 -0.9090
  540TMC3    C2 8064   2.797   0.100  11.115  0.4629  0.2302  0.0226
  540TMC3    C3 8065   2.695   0.176  11.070  1.0413  0.2412  0.3977
  540TMC3    C4 8066   2.704   0.085  11.328  0.6033 -0.3677 -0.7075
  540TMC3    C5 8067   2.610   0.171  11.292 -0.2852  1.1870 -0.1911
  540TMC3    C6 8068   2.598   0.215  11.164 -0.1393  0.5632 -0.3272
  540TMC3     C 8069   2.938   0.036  11.284 -0.4157  0.6028 -0.1071
  540TMC3     O 8070   3.028   0.084  11.213  0.2034  0.5482 -0.5877
  540TMC3     H 8071   2.864   0.061  11.039  0.0289  0.8612 -0.6831
  540TMC3    H1 8072   2.722   0.080  11.435 -2.0057 -0.3562 -0.2843
  540TMC3    H2 8073   2.507   0.263  11.133 -0.2349 -0.2409 -1.2750
  540TMC3    C7 8074   2.503   0.204  11.388  0.2227 -0.1297 -0.0001
  540TMC3    C8 8075   2.646   0.151  10.933 -0.0751  0.0854  0.4515
  540TMC3    O1 8076   2.474   0.119  11.472 -0.0747 -0.4090  0.0138
  540TMC3    O2 8077   2.571   0.238  10.885 -0.0290 -0.0803  0.6192
  541MPD2     C 8078   1.059   0.579  13.517  0.0614 -0.4389 -0.2582
  541MPD2    C1 8079   1.075   0.487  13.420 -0.0891 -0.2038 -0.1639
  541MPD2    C2 8080   1.071   0.522  13.285 -0.3459  0.1014 -0.1344
  541MPD2    C3 8081   1.054   0.657  13.253  0.0041 -0.1650  0.6954
  541MPD2    C4 8082   1.032   0.744  13.358  0.3531  0.6406  0.6318
  541MPD2    C5 8083   1.045   0.709  13.490  0.9954  0.2310  0.3290
  541MPD2     H 8084   1.106   0.451  13.210  1.7922  2.3612 -1.2785
  541MPD2    H1 8085   1.013   0.848  13.335  1.2560  0.6441 -0.0836
  541MPD2    H2 8086   1.063   0.552  13.622  2.6815 -4.1129 -1.2906
  541MPD2    H3 8087   1.044   0.785  13.568  0.9538 -0.5837  1.1162
  541MPD2     N 8088   1.077   0.709  13.123  0.2129  0.5022 -0.3030
  541MPD2    H5 8089   1.047   0.806  13.117 -1.4306  0.0126  0.0214
  541MPD2    N1 8090   1.105   0.351  13.464 -0.0961  0.0902 -0.4335
  541MPD2    H7 8091   1.126   0.349  13.564 -0.5794  0.2268 -0.3239
  542TMC3    C1 8092   1.107   0.714  12.888 -0.0709  0.2217 -0.2279
  542TMC3    C2 8093   1.154   0.653  12.768  1.1036  0.2641  0.1469
  542TMC3    C3 8094   1.154   0.716  12.644 -0.7737 -1.1192 -0.3489
  542TMC3    C4 8095   1.070   0.844  12.878  0.1898  0.4287  0.0369
  542TMC3    C5 8096   1.088   0.912  12.760  0.2578 -0.2498 -0.0275
  542TMC3    C6 8097   1.127   0.847  12.639 -0.3214  1.0341  0.7809
  542TMC3     C 8098   1.112   0.637  13.013 -0.2988 -0.1364 -0.0393
  542TMC3     O 8099   1.144   0.520  13.006 -0.2449  0.6900  0.1268
  542TMC3     H 8100   1.196   0.554  12.777 -0.6989 -0.6639 -1.6190
  542TMC3    H1 8101   1.022   0.897  12.959  0.6260  0.1268  0.4942
  542TMC3    H2 8102   1.129   0.897  12.542 -2.0755 -0.7159 -0.1385
  542TMC3    C7 8103   1.034   1.051  12.748  0.5347 -0.0012  1.0009
  542TMC3    C8 8104   1.215   0.653  12.529 -0.4828  0.2957 -0.0066
  542TMC3    O1 8105   0.976   1.092  12.845 -0.2714  0.1167  0.0031
  542TMC3    O2 8106   1.291   0.720  12.464  0.1121 -0.0799  0.1571
  543TMC3    C1 8107   1.098   2.510  17.630  0.0042 -0.3743  0.7576
  543TMC3    C2 8108   1.075   2.386  17.688 -0.2718  0.0932  0.0873
  543TMC3    C3 8109   0.998   2.380   0.058  0.6838 -0.0491 -0.1206
  543TMC3    C4 8110   1.039   2.626  17.674 -0.0523 -0.5819 -0.0339
  543TMC3    C5 8111   0.961   2.613   0.050  0.2353  0.5908  0.3678
  543TMC3    C6 8112   0.943   2.493   0.110  0.5373  0.2319  0.2121
  543TMC3     C 8113   1.165   2.504  17.499  0.5363 -0.5443 -0.2996
  543TMC3     O 8114   1.240   2.410  17.478 -0.4578 -0.2775  0.3959
  543TMC3     H 8115   1.115   2.298  17.640  0.3120  1.0074 -1.1324
  543TMC3    H1 8116   1.062   2.723  17.630 -2.1050  0.9151  2.2476
  543TMC3    H2 8117   0.897   2.495   0.208 -0.9537  1.8751 -0.5111
  543TMC3    C7 8118   0.907   2.737   0.103  0.2555  0.3203  0.8116
  543TMC3    C8 8119   0.924   2.257   0.071 -0.0808  0.5159 -0.7586
  543TMC3    O1 8120   0.825   2.717   0.191 -0.3586  0.1535 -0.0883
  543TMC3    O2 8121   0.941   2.181  17.714 -0.0234  0.7168 -0.4234
  544MPD2     C 8122   0.604   1.911   0.265  0.4803 -0.0303  0.2072
  544MPD2    C1 8123   0.666   1.914   0.143 -0.3023  0.2297 -0.0892
  544MPD2    C2 8124   0.744   2.025   0.114  0.1059  0.0703  0.2887
  544MPD2    C3 8125   0.766   2.126   0.207 -0.6126 -0.7260  0.0251
  544MPD2    C4 8126   0.697   2.120   0.324  0.1031  0.8019 -0.1947
  544MPD2    C5 8127   0.623   2.009   0.360 -1.0796  0.5883  0.3318
  544MPD2     H 8128   0.787   2.035   0.014  0.1873 -2.6836  0.0529
  544MPD2    H1 8129   0.691   2.205   0.391 -0.9821  0.7240 -0.1995
  544MPD2    H2 8130   0.548   1.822   0.292 -0.7254  0.7369  0.2235
  544MPD2    H3 8131   0.584   1.996   0.460  0.9999  1.6606  1.2900
  544MPD2     N 8132   0.846   2.242   0.188 -0.6740 -0.2304 -0.2755
  544MPD2    H5 8133   0.840   2.313   0.260 -3.6532  1.5459 -2.2392
  544MPD2    N1 8134   0.650   1.805   0.054 -1.0686 -0.0238  0.0367
  544MPD2    H7 8135   0.580   1.737   0.083 -2.8755  1.0500 -1.8044
  545TMC3    C1 8136   0.652   1.680  17.593  1.4421  0.3923 -0.6372
  545TMC3    C2 8137   0.638   1.683  17.459  0.0776  0.2809 -0.3300
  545TMC3    C3 8138   0.585   1.570  17.395 -0.4489 -0.2772 -0.0190
  545TMC3    C4 8139   0.619   1.572  17.666  0.1579  0.7540  0.2653
  545TMC3    C5 8140   0.573   1.458  17.597  0.1914  0.4584 -0.5060
  545TMC3    C6 8141   0.545   1.462  17.466  0.2336 -0.4644 -0.0865
  545TMC3     C 8142   0.692   1.804  17.662  0.0048 -0.1961  0.2238
  545TMC3     O 8143   0.758   1.879  17.593  0.0955 -0.6338  0.7119
  545TMC3     H 8144   0.663   1.774  17.406 -0.0879  0.4629 -0.0966
  545TMC3    H1 8145   0.622   1.569   0.037  1.6689 -0.4890  0.1791
  545TMC3    H2 8146   0.499   1.377  17.416 -1.0428  1.3994 -2.0620
  545TMC3    C7 8147   0.529   1.348  17.680  0.8160  0.5458  0.6409
  545TMC3    C8 8148   0.552   1.580  17.253 -1.1637 -0.0255  0.1131
  545TMC3    O1 8149   0.429   1.285  17.647  0.1757  0.0017 -0.3348
  545TMC3    O2 8150   0.505   1.477  17.197  0.5854 -0.3029 -0.4196
  546MPD2     C 8151   2.828   1.953  17.163  0.5972 -0.2248  0.1794
  546MPD2    C1 8152   2.729   2.018  17.238 -0.4714 -0.7114 -0.4415
  546MPD2    C2 8153   2.744   2.148  17.282 -0.2194 -0.2053  0.4546
  546MPD2    C3 8154   2.869   2.213  17.254  0.3410  0.1462 -0.6207
  546MPD2    C4 8155   2.966   2.142  17.186 -0.2544  0.2712 -0.2664
  546MPD2    C5 8156   2.946   2.017  17.134  0.4752  0.2463 -0.5642
  546MPD2     H 8157   2.662   2.205  17.324 -1.7398 -2.2723  0.2816
  546MPD2    H1 8158   3.068   2.178  17.176  0.1551 -0.3400  1.7184
  546MPD2    H2 8159   2.814   1.854  17.122 -2.3047  0.7436 -1.1539
  546MPD2    H3 8160   3.027   1.962  17.086  0.4791 -0.0652 -0.1964
  546MPD2     N 8161   2.896   2.350  17.280  0.7234  0.4170  0.1762
  546MPD2    H5 8162   2.972   2.385  17.223  1.1158 -0.2268  0.3054
  546MPD2    N1 8163   2.600   1.956  17.253  0.3335  0.7519 -0.7820
  546MPD2    H7 8164   2.522   2.019  17.268  0.4912  0.9380 -0.7426
  547TMC3    C1 8165   2.453   1.760  17.236  0.5998 -0.2597  0.2499
  547TMC3    C2 8166   2.344   1.830  17.195 -0.0176 -0.3018  0.1026
  547TMC3    C3 8167   2.226   1.760  17.179  0.4627 -0.3566 -0.5127
  547TMC3    C4 8168   2.436   1.628  17.275  0.1076  0.2017 -0.3380
  547TMC3    C5 8169   2.320   1.558  17.240  0.5986  0.2311  0.8494
  547TMC3    C6 8170   2.210   1.626  17.201 -0.5661 -0.7475 -0.0131
  547TMC3     C 8171   2.586   1.818  17.238  0.4299 -1.0770 -0.0436
  547TMC3     O 8172   2.671   1.735  17.260  0.0014  0.3622 -0.1682
  547TMC3     H 8173   2.348   1.932  17.160 -0.0722 -0.3000  0.1011
  547TMC3    H1 8174   2.522   1.575  17.313  0.3669 -0.3513 -1.7016
  547TMC3    H2 8175   2.116   1.575  17.181 -0.2858 -1.8371  1.4101
  547TMC3    C7 8176   2.296   1.441  17.315 -0.2231 -0.0023 -0.0205
  547TMC3    C8 8177   2.106   1.842  17.161  0.3782 -0.8251  1.0071
  547TMC3    O1 8178   2.367   1.413  17.411  0.0733  0.0640 -0.3461
  547TMC3    O2 8179   2.100   1.926  17.075  0.2930 -0.1343 -0.5172
  548MPD2     C 8180   2.112   2.341  12.641 -0.3602 -0.4345 -0.6531
  548MPD2    C1 8181   2.075   2.231  12.570 -0.0680  0.0662  0.6984
  548MPD2    C2 8182   2.175   2.163  12.501  0.4406 -0.3679  0.4535
  548MPD2    C3 8183   2.304   2.203  12.515  0.4000 -0.0559 -0.1613
  548MPD2    C4 8184   2.336   2.314  12.581 -0.1254  0.5181 -0.7316
  548MPD2    C5 8185   2.240   2.381  12.648 -0.0924 -0.3384 -0.2363
  548MPD2     H 8186   2.148   2.067  12.459  0.0697  0.7355 -1.8360
  548MPD2    H1 8187   2.440   2.346  12.587  0.2668 -0.8964 -0.0511
  548MPD2    H2 8188   2.039   2.409  12.683 -0.2338 -0.1476 -0.8964
  548MPD2    H3 8189   2.264   2.472  12.701 -2.3154 -1.1565  2.1323
  548MPD2     N 8190   2.403   2.123  12.449 -0.4126  0.1418  0.3728
  548MPD2    H5 8191   2.380   2.035  12.404 -0.0416  0.3991 -0.3181
  548MPD2    N1 8192   1.937   2.209  12.563  0.3442  0.3008  0.2667
  548MPD2    H7 8193   1.884   2.279  12.613 -1.1660 -0.4218 -0.3118
  549TMC3    C1 8194   1.732   2.139  12.528  0.1491  0.5904 -0.1087
  549TMC3    C2 8195   1.687   2.251  12.469  0.0002  0.0707 -0.6544
  549TMC3    C3 8196   1.561   2.300  12.502 -0.0237  0.3598  0.2176
  549TMC3    C4 8197   1.653   2.047  12.586  0.3581 -0.0322  0.2882
  549TMC3    C5 8198   1.518   2.087  12.607  0.2782  0.8645 -0.5378
  549TMC3    C6 8199   1.480   2.221  12.578  0.6739  1.0900 -0.0696
  549TMC3     C 8200   1.870   2.111  12.505  0.3973 -0.5201  0.2767
  549TMC3     O 8201   1.915   2.000  12.471 -0.4623 -0.5647  0.3087
  549TMC3     H 8202   1.757   2.302  12.403 -0.6961  1.5583 -0.2428
  549TMC3    H1 8203   1.698   1.956  12.624  1.6832  0.2868 -0.4886
  549TMC3    H2 8204   1.379   2.248  12.608  0.8774  1.3397  0.3942
  549TMC3    C7 8205   1.437   2.006  12.696  0.2732 -0.8857 -0.0356
  549TMC3    C8 8206   1.488   2.355  12.388 -0.0012 -0.8874 -0.0203
  549TMC3    O1 8207   1.345   2.053  12.762 -0.0084  0.5559  0.1060
  549TMC3    O2 8208   1.382   2.411  12.413  0.3549 -0.3577 -0.2191
  550TMC3    C1 8209   0.901   0.692  12.006 -0.4125  0.4798  0.3093
  550TMC3    C2 8210   0.861   0.646  12.133 -0.5820 -0.1420 -0.4401
  550TMC3    C3 8211   0.904   0.709  12.245 -0.7380  0.3674 -0.0907
  550TMC3    C4 8212   0.980   0.799  11.994  0.6400  0.7958  0.2672
  550TMC3    C5 8213   1.010   0.876  12.103  0.1526  1.1348  0.4166
  550TMC3    C6 8214   0.973   0.828  12.224 -0.8708 -0.1494 -0.1721
  550TMC3     C 8215   0.802   0.681  11.900  0.9117 -0.7682 -0.5163
  550TMC3     O 8216   0.689   0.687  11.930 -0.3076  0.2906 -0.0034
  550TMC3     H 8217   0.797   0.561  12.154  1.4945 -1.5817  0.1043
  550TMC3    H1 8218   0.999   0.840  11.895  0.9149 -0.4693 -0.1975
  550TMC3    H2 8219   1.008   0.884  12.309 -0.0552 -2.0697  0.7705
  550TMC3    C7 8220   0.971   1.011  12.084 -0.5365  0.2467  0.6041
  550TMC3    C8 8221   0.843   0.711  12.376  0.8356 -0.1422  0.0378
  550TMC3    O1 8222   0.931   1.062  12.185 -0.3301  0.1814 -0.6793
  550TMC3    O2 8223   0.801   0.604  12.421  0.3979 -0.2757  0.1950
  551TMC3    C1 8224   3.373   3.093  13.512  0.1504  0.0364  0.5519
  551TMC3    C2 8225   3.481   3.075  13.426  0.1388 -0.7256 -0.2300
  551TMC3    C3 8226   3.602   3.140  13.452  0.4110  0.2040  0.6168
  551TMC3    C4 8227   3.383   3.181  13.619 -0.7430  0.1620  0.2992
  551TMC3    C5 8228   3.511   3.228  13.643 -0.9436 -0.2187  0.1227
  551TMC3    C6 8229   3.619   3.218  13.561 -0.4486  0.0466 -0.2664
  551TMC3     C 8230   3.252   3.096  13.437  0.0401 -0.6795 -0.2836
  551TMC3     O 8231   3.208   2.999  13.380  0.4402 -0.2052  0.7071
  551TMC3     H 8232   3.466   3.014  13.338 -0.5156 -0.5729 -0.2295
  551TMC3    H1 8233   3.305   3.181  13.695 -0.5180  0.5692  0.5299
  551TMC3    H2 8234   3.707   3.263  13.605  0.9413 -1.0350 -1.8965
  551TMC3    C7 8235   3.551   3.283  13.772 -0.6733 -0.6533 -0.5640
  551TMC3    C8 8236   3.715   3.121  13.354 -0.8123 -1.3320 -0.5753
  551TMC3    O1 8237   3.536   3.215  13.876  0.0933  0.1178  0.2322
  551TMC3    O2 8238   3.711   3.021  13.287 -0.1066 -0.5187 -0.1722
  552MPD2     C 8239   0.396   0.703  14.465  0.4721 -0.0022  0.1845
  552MPD2    C1 8240   0.470   0.637  14.366 -0.4214  0.3840  0.1987
  552MPD2    C2 8241   0.600   0.595  14.390  0.4133 -0.0177  0.2596
  552MPD2    C3 8242   0.660   0.613  14.514 -0.1934  0.2268 -0.0877
  552MPD2    C4 8243   0.582   0.679  14.608 -0.7963 -0.3347  0.5473
  552MPD2    C5 8244   0.463   0.737  14.579  0.4268 -0.1290  0.2862
  552MPD2     H 8245   0.648   0.551  14.303 -1.1371 -3.2124  1.0571
  552MPD2    H1 8246   0.618   0.704  14.707 -2.2195  1.8107  0.5068
  552MPD2    H2 8247   0.292   0.730  14.445  1.1277  2.5831  0.2750
  552MPD2    H3 8248   0.419   0.799  14.656  1.8037 -0.3453  1.2526
  552MPD2     N 8249   0.795   0.574  14.546 -0.2767 -0.0702  0.5148
  552MPD2    H5 8250   0.820   0.590  14.643 -1.6949  1.2464  0.6692
  552MPD2    N1 8251   0.418   0.610  14.235 -0.2157 -0.2664  0.3508
  552MPD2    H7 8252   0.484   0.580  14.164 -0.8583  1.5897 -1.0568
  553TMC3    C1 8253   0.267   0.504  14.108  0.2023  0.2084  0.2179
  553TMC3    C2 8254   0.136   0.502  14.051  0.0155 -0.3277 -0.2984
  553TMC3    C3 8255   0.100   0.381  13.992 -0.4965 -0.0051  0.3641
  553TMC3    C4 8256   0.338   0.391  14.119 -0.3581  0.8638  0.5787
  553TMC3    C5 8257   0.285   0.277  14.071 -0.0888 -0.2429  0.2990
  553TMC3    C6 8258   0.176   0.270  13.998 -0.5355  0.1028 -0.5856
  553TMC3     C 8259   0.285   0.611  14.207  0.1483  0.5812 -0.3632
  553TMC3     O 8260   0.181   0.659  14.261  0.7649 -0.0696 -0.3805
  553TMC3     H 8261   0.086   0.594  14.024  0.2542  0.2909  1.3432
  553TMC3    H1 8262   0.430   0.388  14.176 -0.4131 -2.1966  0.5280
  553TMC3    H2 8263   0.142   0.174  13.961  0.4240 -1.1789  1.8597
  553TMC3    C7 8264   0.370   0.154  14.067  0.4013 -0.0584 -1.2113
  553TMC3    C8 8265   0.012   0.392  13.870 -0.2550 -0.0548  0.2712
  553TMC3    O1 8266   0.354   0.074  13.979 -0.0482  0.0007  0.0296
  553TMC3    O2 8267   4.674   0.485  13.861  0.5266  0.1152  0.1203
  554TMC3    C1 8268   2.287   4.450  11.371 -0.3135  0.3006 -0.2048
  554TMC3    C2 8269   2.188   4.364  11.318  0.1175  0.0312 -0.0391
  554TMC3    C3 8270   2.093   4.418  11.236 -0.1925  0.0023 -0.6636
  554TMC3    C4 8271   2.297   4.581  11.318  0.0284  0.3181 -0.1418
  554TMC3    C5 8272   2.198   4.629  11.239  0.0306  0.0360  0.0209
  554TMC3    C6 8273   2.098   4.546  11.188 -0.4242 -0.1097  0.1401
  554TMC3     C 8274   2.398   4.401  11.462  0.0092 -0.0555 -0.0265
  554TMC3     O 8275   2.494   4.475  11.468 -0.6076  0.1088 -0.2560
  554TMC3     H 8276   2.178   4.264  11.358 -1.4164 -0.0044 -0.5457
  554TMC3    H1 8277   2.376   4.649  11.346  1.7160 -2.2106  1.2668
  554TMC3    H2 8278   2.023   4.585  11.119  0.8242  0.2615 -1.0099
  554TMC3    C7 8279   2.227   0.015  11.171  0.6012 -0.2699 -0.8465
  554TMC3    C8 8280   2.001   4.333  11.171  0.6386 -0.3918 -0.3156
  554TMC3    O1 8281   2.345   0.032  11.137  0.1289 -0.1231  0.3160
  554TMC3    O2 8282   1.965   4.238  11.238  0.1130  0.0586  0.1786
  555TMC3    C1 8283   1.316   3.650  14.822  0.6156  0.0949 -0.6490
  555TMC3    C2 8284   1.333   3.734  14.933  0.3980 -0.2267  0.5026
  555TMC3    C3 8285   1.316   3.676  15.054  0.4855 -0.0537  0.1171
  555TMC3    C4 8286   1.306   3.513  14.823  0.7535  0.0881  0.7069
  555TMC3    C5 8287   1.290   3.460  14.949  0.0461 -0.1926  0.6829
  555TMC3    C6 8288   1.288   3.545  15.056 -0.2007  0.3543 -0.9577
  555TMC3     C 8289   1.375   3.699  14.703 -0.5149  0.1754 -0.3070
  555TMC3     O 8290   1.458   3.630  14.637  0.0148  0.0031  0.0869
  555TMC3     H 8291   1.354   3.840  14.926 -0.7624 -0.0669 -0.6460
  555TMC3    H1 8292   1.293   3.456  14.732  0.7075  0.8038  0.2665
  555TMC3    H2 8293   1.278   3.497  15.153 -0.2861  1.8278 -0.2333
  555TMC3    C7 8294   1.241   3.329  14.978  0.6449 -1.0672  0.4959
  555TMC3    C8 8295   1.354   3.754  15.170  0.4522  0.6164 -0.2425
  555TMC3    O1 8296   1.161   3.316  15.071  0.3552 -0.4296 -0.0537
  555TMC3    O2 8297   1.351   3.877  15.164  0.0627  0.2344  1.0071
  556MPD2     C 8298   3.912   1.534  10.940  0.4114 -0.3647 -0.0552
  556MPD2    C1 8299   3.985   1.442  11.017 -0.4944 -0.2812  0.1620
  556MPD2    C2 8300   3.975   1.312  10.988  0.3632 -0.2435 -0.1819
  556MPD2    C3 8301   3.928   1.266  10.869  0.0571 -0.0145  0.0634
  556MPD2    C4 8302   3.870   1.358  10.780 -0.6382  0.0767 -0.0629
  556MPD2    C5 8303   3.864   1.490  10.815  0.3906  0.5827 -0.2667
  556MPD2     H 8304   3.997   1.241  11.067  0.7525  3.1475  2.7534
  556MPD2    H1 8305   3.829   1.319  10.688 -1.1296 -0.7472  0.5160
  556MPD2    H2 8306   3.916   1.642  10.951 -0.8319 -0.2935 -0.3159
  556MPD2    H3 8307   3.820   1.565  10.750 -1.5344 -0.3371 -0.0087
  556MPD2     N 8308   3.941   1.127  10.836 -0.6003 -0.0398 -0.2786
  556MPD2    H5 8309   3.973   1.068  10.912  2.7478 -0.5785 -2.1154
  556MPD2    N1 8310   4.058   1.475  11.135  0.3422 -0.0382 -0.1391
  556MPD2    H7 8311   4.107   1.403  11.186  1.3918  0.1700 -0.8307
  557TMC3    C1 8312   3.952   0.925  10.712  0.5423  0.2240  0.1708
  557TMC3    C2 8313   3.958   0.885  10.579  0.0536  0.8954 -0.0523
  557TMC3    C3 8314   3.875   0.787  10.533  0.0752  0.5510  0.1336
  557TMC3    C4 8315   3.871   0.865  10.801  0.3956 -0.3216 -0.2839
  557TMC3    C5 8316   3.790   0.762  10.752  0.1013 -0.7236  0.6349
  557TMC3    C6 8317   3.794   0.722  10.620 -0.1250  0.2516  0.9912
  557TMC3     C 8318   3.962   1.072  10.714 -0.6042 -0.3950  0.1899
  557TMC3     O 8319   3.987   1.130  10.612 -0.0864  0.4083  0.2107
  557TMC3     H 8320   4.018   0.942  10.509 -0.0091  0.7895 -0.1918
  557TMC3    H1 8321   3.863   0.896  10.904  0.0215 -1.3842  0.0090
  557TMC3    H2 8322   3.724   0.644  10.591  1.6705 -1.0983  0.3488
  557TMC3    C7 8323   3.726   0.678  10.848 -0.6351  0.9910  0.7034
  557TMC3    C8 8324   3.839   0.791  10.391  0.5469 -0.2150  0.2968
  557TMC3    O1 8325   3.616   0.630  10.820 -0.7506 -0.0519 -0.9445
  557TMC3    O2 8326   3.881   0.886  10.325 -0.4608 -0.0394  0.6554
  558TMC3    C1 8327   1.497   3.025  10.654 -0.2253 -0.2396  0.2807
  558TMC3    C2 8328   1.364   2.987  10.648  1.0632  0.3869  0.0409
  558TMC3    C3 8329   1.306   2.985  10.529  0.1643 -0.9512  0.2813
  558TMC3    C4 8330   1.559   3.067  10.541  0.8587 -0.0476  0.6234
  558TMC3    C5 8331   1.501   3.056  10.418 -0.0811  0.3857 -0.0314
  558TMC3    C6 8332   1.370   3.017  10.411  0.3586 -0.2799  0.5485
  558TMC3     C 8333   1.561   3.052  10.775 -0.0157  0.6066 -0.8830
  558TMC3     O 8334   1.662   3.120  10.767 -0.3896 -0.3411 -0.0567
  558TMC3     H 8335   1.311   2.956  10.737  0.2291  0.7947 -0.3118
  558TMC3    H1 8336   1.663   3.098  10.541  0.8484 -0.0228  0.0977
  558TMC3    H2 8337   1.312   3.041  10.323  0.5224 -0.1643  0.4727
  558TMC3    C7 8338   1.557   3.129  10.304  0.5269 -0.8105 -0.7067
  558TMC3    C8 8339   1.183   3.050  10.524 -0.3261 -0.3172 -0.1375
  558TMC3    O1 8340   1.622   3.229  10.335 -0.6022 -0.2443  0.1743
  558TMC3    O2 8341   1.105   2.993  10.452 -0.1638 -0.3126 -0.2336
  559MPD2     C 8342   1.444   3.929  10.283 -0.2851  0.7348 -0.6867
  559MPD2    C1 8343   1.409   3.921  10.416 -0.0316  0.1246  0.3610
  559MPD2    C2 8344   1.503   3.908  10.520  0.5455 -0.8876 -0.7276
  559MPD2    C3 8345   1.635   3.929  10.483  1.1456  0.3873 -0.8417
  559MPD2    C4 8346   1.671   3.947  10.353  0.1888 -0.0986  0.3264
  559MPD2    C5 8347   1.580   3.945  10.253 -0.0364 -0.5256  0.1618
  559MPD2     H 8348   1.474   3.922  10.623 -0.1661 -1.2216 -0.8785
  559MPD2    H1 8349   1.773   3.959  10.319 -0.0676 -0.6590 -0.6359
  559MPD2    H2 8350   1.381   3.942  10.196 -1.6816  0.2495  0.2579
  559MPD2    H3 8351   1.609   3.965  10.151 -0.7013  1.2831  0.3289
  559MPD2     N 8352   1.723   3.928  10.588 -0.5000  0.2746 -0.5480
  559MPD2    H5 8353   1.688   3.928  10.683  0.0564 -2.1397 -0.3422
  559MPD2    N1 8354   1.272   3.927  10.453 -0.0004 -0.0855  0.7311
  559MPD2    H7 8355   1.255   3.923  10.553 -0.1277 -0.1201  0.7080
  560TMC3    C1 8356   1.910   3.911  10.720  0.6228 -0.4032  0.7043
  560TMC3    C2 8357   1.826   3.854  10.806  0.4320  0.3674 -0.1537
  560TMC3    C3 8358   1.836   3.873  10.936  0.7302  0.5278 -0.3400
  560TMC3    C4 8359   2.017   3.977  10.770 -0.2127  0.1991  0.6324
  560TMC3    C5 8360   2.024   3.997  10.912 -0.4315  0.6763  0.2661
  560TMC3    C6 8361   1.940   3.942  11.001 -0.1802  0.2827 -0.3699
  560TMC3     C 8362   1.861   3.927  10.583 -0.7099 -0.3449 -0.1636
  560TMC3     O 8363   1.949   3.966  10.501  0.4491  0.2704  0.5804
  560TMC3     H 8364   1.755   3.777  10.778 -0.6120  0.1632  3.0665
  560TMC3    H1 8365   2.087   4.013  10.695  2.4662  1.1139  3.5178
  560TMC3    H2 8366   1.937   3.973  11.105 -1.0753  0.6615 -0.5063
  560TMC3    C7 8367   2.140   4.058  10.964  0.3588  0.5997  0.2382
  560TMC3    C8 8368   1.725   3.825  11.014 -0.5115 -0.1999 -0.1024
  560TMC3    O1 8369   2.213   4.114  10.885  0.3042 -0.2553  0.3216
  560TMC3    O2 8370   1.619   3.826  10.955  0.0022 -0.0429 -0.0583
  561TMC3    C1 8371   4.183   2.899  11.516  0.1554 -0.1225  0.8171
  561TMC3    C2 8372   4.082   2.872  11.596  0.2001 -0.1112 -0.7196
  561TMC3    C3 8373   4.012   2.972  11.646 -0.4285 -0.1863 -0.5393
  561TMC3    C4 8374   4.230   3.032  11.501 -0.4740  0.1689 -0.5728
  561TMC3    C5 8375   4.148   3.138  11.551  0.0153 -0.0532  0.3185
  561TMC3    C6 8376   4.036   3.102  11.625  0.1055 -0.3139 -0.2829
  561TMC3     C 8377   4.265   2.788  11.473 -0.5868  0.0013  0.4568
  561TMC3     O 8378   4.227   2.673  11.489  0.0899  0.0175  0.1058
  561TMC3     H 8379   4.064   2.767  11.617 -1.7188 -0.0177 -1.8607
  561TMC3    H1 8380   4.312   3.062  11.437  1.2328 -2.9778  0.1260
  561TMC3    H2 8381   3.965   3.179  11.653 -1.2478 -1.6920  0.0226
  561TMC3    C7 8382   4.169   3.283  11.521 -0.2599  1.1138  0.4024
  561TMC3    C8 8383   3.897   2.925  11.724  0.7388  0.2829  0.9126
  561TMC3    O1 8384   4.094   3.369  11.567  0.2444  0.6486  0.5000
  561TMC3    O2 8385   3.865   2.805  11.724 -0.3526 -0.6008  0.3177
  562TMC3    C1 8386   1.302   3.611  16.029  0.1299  0.8071 -0.2464
  562TMC3    C2 8387   1.262   3.745  16.026 -0.2320 -0.1617 -0.2200
  562TMC3    C3 8388   1.214   3.799  15.908  0.8254 -0.0629  0.6062
  562TMC3    C4 8389   1.279   3.530  15.917  0.2196  0.4461  0.5593
  562TMC3    C5 8390   1.239   3.586  15.807 -0.3924  0.1421  1.1832
  562TMC3    C6 8391   1.201   3.715  15.800 -0.1602 -0.0743  0.6906
  562TMC3     C 8392   1.298   3.543  16.160  0.3089  0.2828  0.5395
  562TMC3     O 8393   1.299   3.608  16.260 -0.2778 -0.2896  0.7137
  562TMC3     H 8394   1.280   3.810  16.110  0.0118 -0.6569  0.1119
  562TMC3    H1 8395   1.308   3.426  15.920  2.0671  0.9615  0.0018
  562TMC3    H2 8396   1.162   3.757  15.709  2.5929 -2.2291 -1.5030
  562TMC3    C7 8397   1.248   3.513  15.676 -0.2839  0.4229  0.4805
  562TMC3    C8 8398   1.167   3.938  15.900 -0.4258  0.4227  0.9672
  562TMC3    O1 8399   1.231   3.575  15.577  0.0292  0.2252  0.2861
  562TMC3    O2 8400   1.177   3.991  16.011 -0.0640  0.4458 -0.1091
  563MPD2     C 8401   3.700   4.713  15.518  0.1240 -0.2406  0.0200
  563MPD2    C1 8402   3.705   0.062  15.630  0.2727  1.0411 -0.3705
  563MPD2    C2 8403   3.826   0.091  15.686  0.2574  0.2130  0.5676
  563MPD2    C3 8404   3.937   0.017  15.647  0.4185 -0.3762 -0.0335
  563MPD2    C4 8405   3.932   4.671  15.538 -0.2857 -0.3747  0.4611
  563MPD2    C5 8406   3.808   4.650  15.472  0.1998 -0.6034 -0.3459
  563MPD2     H 8407   3.829   0.148  15.778 -1.0503 -2.6244  2.3429
  563MPD2    H1 8408   4.003   4.592  15.516 -0.0698 -0.1216  0.2620
  563MPD2    H2 8409   3.605   4.687  15.474  0.8952 -1.1742 -1.1192
  563MPD2    H3 8410   3.797   4.569  15.401  0.7022  1.1791 -2.4277
  563MPD2     N 8411   4.056   0.025  15.724  0.0395  0.2177 -0.3667
  563MPD2    H5 8412   4.047   0.065  15.817 -2.7165  2.4002 -1.5714
  563MPD2    N1 8413   3.590   0.125  15.677 -0.1886  0.5027  0.7232
  563MPD2    H7 8414   3.501   0.091  15.641  0.8787 -2.3598  0.8375
  564TMC3    C1 8415   3.474   0.265  15.840 -0.1470 -0.5167  0.5782
  564TMC3    C2 8416   3.353   0.211  15.812  0.0807  0.7373 -1.0911
  564TMC3    C3 8417   3.268   0.194  15.921 -0.7692 -0.1617 -0.1536
  564TMC3    C4 8418   3.523   0.283  15.964  0.3073  1.1023 -0.0037
  564TMC3    C5 8419   3.453   0.232  16.065 -0.6420  0.2422 -0.2887
  564TMC3    C6 8420   3.331   0.190  16.042 -0.7593 -0.4502  0.3561
  564TMC3     C 8421   3.583   0.247  15.744  0.4260  0.5609 -0.1310
  564TMC3     O 8422   3.681   0.316  15.761 -0.1577 -0.4107  0.0777
  564TMC3     H 8423   3.316   0.187  15.713 -1.1695 -0.0664 -0.4277
  564TMC3    H1 8424   3.622   0.326  15.978  0.6742 -0.0406  0.9658
  564TMC3    H2 8425   3.270   0.169  16.130 -1.2189 -1.2956 -0.1606
  564TMC3    C7 8426   3.533   0.129  16.133  0.1989  0.0027 -0.3902
  564TMC3    C8 8427   3.168   0.095  15.905  1.3370  0.3590  0.0915
  564TMC3    O1 8428   3.644   0.168  16.171 -0.4243  0.3882  0.4005
  564TMC3    O2 8429   3.186   4.731  15.973  0.3893 -0.3059 -0.2784
  565TMC3    C1 8430   3.971   2.090  10.280 -0.2200  0.0217 -0.0567
  565TMC3    C2 8431   3.927   2.004  10.375 -0.3056 -0.7514  0.3541
  565TMC3    C3 8432   3.864   1.890  10.332  0.5431 -0.3138 -0.1306
  565TMC3    C4 8433   3.948   2.074  10.150  0.1501  0.4716 -0.2302
  565TMC3    C5 8434   3.897   1.952  10.112  0.2029  0.4586  0.2822
  565TMC3    C6 8435   3.839   1.862  10.202 -0.8466  0.7312 -0.1347
  565TMC3     C 8436   4.076   2.182  10.307  0.4642  0.3440 -0.4198
  565TMC3     O 8437   4.137   2.225  10.204 -0.1498  0.0168  0.3526
  565TMC3     H 8438   3.940   2.026  10.480 -2.8150  1.0845  0.2742
  565TMC3    H1 8439   3.992   2.143  10.079 -1.3428  1.0676 -0.5526
  565TMC3    H2 8440   3.831   1.760  10.167 -3.8973  0.4894  1.2262
  565TMC3    C7 8441   3.941   1.895   9.985 -0.8014  0.0857  0.0200
  565TMC3    C8 8442   3.794   1.821  10.435 -0.7558  0.4395  0.5173
  565TMC3    O1 8443   3.880   1.804   9.935  0.9737 -0.1607 -0.1878
  565TMC3    O2 8444   3.826   1.846  10.553 -0.1102 -0.0578 -0.1891
  566MPD2     C 8445   0.782   4.042  14.349  0.3410 -0.5058  0.6063
  566MPD2    C1 8446   0.862   4.015  14.243  0.6899  0.4586  0.0519
  566MPD2    C2 8447   0.811   4.015  14.115 -1.1353 -0.3381  0.6273
  566MPD2    C3 8448   0.689   4.073  14.095  0.9073  0.6747 -0.3109
  566MPD2    C4 8449   0.617   4.106  14.202  0.0904  0.1811  0.1174
  566MPD2    C5 8450   0.660   4.088  14.332 -0.2344  0.4273 -0.0056
  566MPD2     H 8451   0.871   3.980  14.031 -0.5771 -0.7735  1.2049
  566MPD2    H1 8452   0.523   4.159  14.189 -0.5479 -0.8343  0.6309
  566MPD2    H2 8453   0.812   4.030  14.453  0.0126  0.5897  0.8238
  566MPD2    H3 8454   0.603   4.121  14.418  0.8915 -1.9359  1.6538
  566MPD2     N 8455   0.654   4.076  13.958 -0.2127 -0.3015  0.0628
  566MPD2    H5 8456   0.715   4.032  13.890 -1.4943 -0.7966 -0.7805
  566MPD2    N1 8457   0.992   3.959  14.267 -0.1762 -0.1234 -0.3660
  566MPD2    H7 8458   0.998   3.905  14.353  0.8320  1.0687  0.3215
  567TMC3    C1 8459   1.211   3.872  14.206 -0.0693 -0.2832  0.1889
  567TMC3    C2 8460   1.295   3.860  14.104 -0.2498 -0.5121 -0.2460
  567TMC3    C3 8461   1.338   3.733  14.068 -0.4290 -0.8401  0.3543
  567TMC3    C4 8462   1.202   3.773  14.291  0.2087  0.1726 -0.6505
  567TMC3    C5 8463   1.262   3.655  14.271 -0.8849  1.2128 -0.7594
  567TMC3    C6 8464   1.317   3.624  14.151  0.1190  0.4074 -0.5469
  567TMC3     C 8465   1.096   3.956  14.176 -0.1506  0.2792  0.0039
  567TMC3     O 8466   1.114   4.034  14.086  0.1211 -0.3052 -0.1685
  567TMC3     H 8467   1.313   3.941  14.035 -0.5728 -0.0983  0.1587
  567TMC3    H1 8468   1.169   3.788  14.393  3.4268  2.0073  0.0796
  567TMC3    H2 8469   1.361   3.529  14.125 -0.5926 -0.4888  1.5429
  567TMC3    C7 8470   1.254   3.550  14.364  0.1086  0.2589  0.0738
  567TMC3    C8 8471   1.325   3.731  13.928  0.8224 -0.5212  0.8541
  567TMC3    O1 8472   1.333   3.463  14.352  0.0391  0.7355  0.1011
  567TMC3    O2 8473   1.345   3.832  13.861 -0.3354  0.6234  0.3665
  568MPD2     C 8474   2.808   3.495  16.121 -0.3657 -0.5470 -0.2903
  568MPD2    C1 8475   2.843   3.597  16.207  0.2721  0.1778 -0.1134
  568MPD2    C2 8476   2.795   3.720  16.171 -0.1580 -0.4154  0.2379
  568MPD2    C3 8477   2.723   3.743  16.060 -0.2598 -0.4354 -0.0838
  568MPD2    C4 8478   2.687   3.636  15.980 -0.2690  0.4893  0.1961
  568MPD2    C5 8479   2.737   3.514  16.005  1.0089 -0.4057 -0.0090
  568MPD2     H 8480   2.813   3.804  16.238 -1.2129  0.2486 -0.2978
  568MPD2    H1 8481   2.618   3.656  15.899 -2.0734 -0.3928  1.5193
  568MPD2    H2 8482   2.838   3.397  16.154 -0.2711 -1.2200 -2.3627
  568MPD2    H3 8483   2.704   3.429  15.947  0.1701  0.2141 -0.4398
  568MPD2     N 8484   2.683   3.883  16.037  0.5332  0.3732  0.2122
  568MPD2    H5 8485   2.704   3.953  16.108  0.8800  0.5676 -0.0812
  568MPD2    N1 8486   2.926   3.568  16.317 -1.0033 -0.0025  0.4952
  568MPD2    H7 8487   2.965   3.475  16.332 -1.4326 -0.3985 -0.8324
  569TMC3    C1 8488   2.602   4.072  15.940 -0.3275 -0.6569 -0.3797
  569TMC3    C2 8489   2.625   4.108  16.066 -0.7706 -1.0108 -0.3434
  569TMC3    C3 8490   2.718   4.209  16.084  0.3141  0.1568  1.1822
  569TMC3    C4 8491   2.647   4.139  15.827 -0.2050 -0.2432  0.7885
  569TMC3    C5 8492   2.737   4.239  15.850  1.1923  0.1546 -0.2973
  569TMC3    C6 8493   2.780   4.268  15.979 -0.1045 -0.4702  0.1255
  569TMC3     C 8494   2.623   3.930  15.922  0.3139 -0.0697 -0.4228
  569TMC3     O 8495   2.589   3.867  15.823  0.0901 -0.4824 -0.5019
  569TMC3     H 8496   2.564   4.060  16.142 -1.9259  0.3052 -0.4504
  569TMC3    H1 8497   2.626   4.101  15.728 -2.1178  0.8235  0.7841
  569TMC3    H2 8498   2.863   4.334  16.001 -1.7807  1.6265  0.1519
  569TMC3    C7 8499   2.755   4.325  15.741 -0.1079 -0.4813 -0.1486
  569TMC3    C8 8500   2.781   4.211  16.213 -0.1224 -0.0625 -0.0212
  569TMC3    O1 8501   2.672   4.325  15.653  0.2702  0.2372 -0.2848
  569TMC3    O2 8502   2.771   4.098  16.268  0.0043 -0.1280  0.0444
  570TMC3    C1 8503   2.447   2.794  16.175  0.1788 -0.3798  0.2441
  570TMC3    C2 8504   2.514   2.803  16.058 -0.3681  0.2846 -0.2150
  570TMC3    C3 8505   2.577   2.923  16.034  0.8080 -0.5703 -0.2332
  570TMC3    C4 8506   2.437   2.906  16.264 -0.1674  0.3535  0.0076
  570TMC3    C5 8507   2.485   3.025  16.218  0.4421 -0.6904 -0.5796
  570TMC3    C6 8508   2.566   3.028  16.112 -0.5610  0.3300 -0.5069
  570TMC3     C 8509   2.373   2.671  16.194 -0.4071 -0.0779  0.2017
  570TMC3     O 8510   2.352   2.602  16.092  0.3476  0.0121 -0.1631
  570TMC3     H 8511   2.528   2.711  16.003 -0.8392  0.9614 -1.4544
  570TMC3    H1 8512   2.373   2.902  16.352  2.4087  0.9208  1.9027
  570TMC3    H2 8513   2.598   3.129  16.087  1.0564  0.8908  3.9138
  570TMC3    C7 8514   2.477   3.139  16.301 -0.3793 -0.1011  0.3552
  570TMC3    C8 8515   2.612   2.956  15.897 -0.3853 -0.0939  0.1077
  570TMC3    O1 8516   2.443   3.120  16.419 -0.3793 -0.4261 -0.6680
  570TMC3    O2 8517   2.649   3.072  15.883  0.0283 -0.2549  0.2425
  571MPD2     C 8518   0.206   0.051   0.193  0.7124 -0.0827  0.0398
  571MPD2    C1 8519   0.101   0.038   0.279 -0.2747  0.4396  0.5923
  571MPD2    C2 8520   0.093   0.131   0.383 -0.8576  0.1354  0.2444
  571MPD2    C3 8521   0.189   0.229   0.403  0.3246  0.0718 -0.1105
  571MPD2    C4 8522   0.290   0.237   0.308 -0.5053 -0.1213  0.1321
  571MPD2    C5 8523   0.298   0.152   0.204 -0.2711 -0.0752  0.3790
  571MPD2     H 8524   0.017   0.132   0.460 -0.0796 -1.0214  1.0177
  571MPD2    H1 8525   0.365   0.314   0.321 -2.0976  1.5027 -0.2926
  571MPD2    H2 8526   0.210   4.719   0.108  0.1607  0.9655 -0.8016
  571MPD2    H3 8527   0.377   0.160   0.131  1.4220 -0.6272  2.1498
  571MPD2     N 8528   0.184   0.314   0.515 -0.2750  0.7584 -0.6165
  571MPD2    H5 8529   0.245   0.395   0.510  0.1752  0.3241 -1.9797
  571MPD2    N1 8530   0.005   4.666   0.266  0.5374  0.2957  0.3792
  571MPD2    H7 8531   0.026   4.593   0.198  0.6784  0.4925  0.2143
  572TMC3    C1 8532   0.104   0.395   0.732  0.4303  0.6276 -0.7082
  572TMC3    C2 8533   0.067   0.369   0.862 -0.1034 -0.1546 -0.2509
  572TMC3    C3 8534   0.085   0.468   0.956 -0.4298 -0.0549  0.0381
  572TMC3    C4 8535   0.146   0.520   0.694  0.2511  0.6114  0.2379
  572TMC3    C5 8536   0.171   0.616   0.790  0.1858  0.3767  0.1418
  572TMC3    C6 8537   0.138   0.588   0.921 -0.1982 -0.0749 -0.0712
  572TMC3     C 8538   0.116   0.285   0.635  0.0958 -0.0641 -0.3586
  572TMC3     O 8539   0.076   0.178   0.681 -0.2336 -0.0075 -0.2342
  572TMC3     H 8540   0.010   0.279   0.882  2.6316 -2.0397 -1.0927
  572TMC3    H1 8541   0.166   0.533   0.588  2.7715  2.1999  0.9129
  572TMC3    H2 8542   0.159   0.658   1.001 -0.7875  0.0445 -0.0228
  572TMC3    C7 8543   0.196   0.756   0.750 -0.1238  0.4089  0.0032
  572TMC3    C8 8544   4.719   0.488   1.058  0.2342  0.0544 -0.1327
  572TMC3    O1 8545   0.180   0.772   0.631 -1.0069  0.2370 -0.4196
  572TMC3    O2 8546   4.686   0.605   1.088  0.3698 -0.1630 -0.2613
  573MPD2     C 8547   1.170   1.090   1.461  0.5080 -0.2293  0.4834
  573MPD2    C1 8548   1.045   1.062   1.422  0.2205 -0.0365  0.1087
  573MPD2    C2 8549   1.026   1.026   1.292 -0.0819 -0.1069  0.2138
  573MPD2    C3 8550   1.120   1.029   1.197 -0.1569 -0.1271  1.0783
  573MPD2    C4 8551   1.254   1.047   1.236 -0.0913  0.3961 -0.8428
  573MPD2    C5 8552   1.275   1.081   1.372 -0.0747  0.0418  0.4232
  573MPD2     H 8553   0.926   1.020   1.251  0.0442 -0.4811 -0.0436
  573MPD2    H1 8554   1.337   1.046   1.167  0.1427 -0.2876 -0.5469
  573MPD2    H2 8555   1.204   1.118   1.560  0.9414  1.2677 -0.0848
  573MPD2    H3 8556   1.377   1.107   1.398 -0.0032  0.6859 -0.4701
  573MPD2     N 8557   1.107   1.029   1.061  0.7809 -0.2556  0.3496
  573MPD2    H5 8558   1.184   1.059   1.002  1.7663 -2.7581  0.3720
  573MPD2    N1 8559   0.940   1.075   1.514  0.4764  0.1827 -0.6157
  573MPD2    H7 8560   0.971   1.112   1.603  0.1129 -1.0548  0.0135
  574TMC3    C1 8561   0.992   0.993   0.854  0.1200  0.0856 -0.3599
  574TMC3    C2 8562   0.877   1.000   0.778 -0.0837 -0.2494 -0.2015
  574TMC3    C3 8563   0.881   1.018   0.643  0.9637  0.6697 -0.0292
  574TMC3    C4 8564   1.117   1.001   0.793 -0.2790 -0.0248 -0.0438
  574TMC3    C5 8565   1.118   1.007   0.655 -0.2048  0.4836  0.4265
  574TMC3    C6 8566   1.001   1.011   0.577  0.0848 -0.6324  0.6315
  574TMC3     C 8567   0.984   1.004   1.002 -0.0327  0.0947 -0.8325
  574TMC3     O 8568   0.877   0.963   1.052 -0.3403  0.0510  0.4620
  574TMC3     H 8569   0.773   0.987   0.807 -0.0004  2.3991  1.2945
  574TMC3    H1 8570   1.205   0.991   0.855 -0.0767  1.4114 -0.1098
  574TMC3    H2 8571   0.995   1.004   0.469  0.7890  1.9429  0.4194
  574TMC3    C7 8572   1.232   1.019   0.575 -0.0636 -0.5337 -0.6394
  574TMC3    C8 8573   0.750   1.009   0.570 -0.5390  0.9101 -0.2576
  574TMC3    O1 8574   1.220   1.023   0.452  1.2203  0.3979 -0.2944
  574TMC3    O2 8575   0.659   0.938   0.605  0.6426  0.0413  0.5632
  575TMC3    C1 8576   3.664   1.663  11.234  0.1072  0.1040 -0.0669
  575TMC3    C2 8577   3.643   1.531  11.267 -0.6971  0.1537  0.1568
  575TMC3    C3 8578   3.557   1.464  11.181  0.1141 -0.2612 -0.3253
  575TMC3    C4 8579   3.620   1.721  11.122 -0.0625 -0.9045 -0.4511
  575TMC3    C5 8580   3.539   1.650  11.041 -0.4265 -0.4168  0.2932
  575TMC3    C6 8581   3.504   1.518  11.067  0.4529 -0.2517  0.5405
  575TMC3     C 8582   3.765   1.723  11.320 -0.6488 -0.4056  0.2426
  575TMC3     O 8583   3.861   1.656  11.359  0.4663  0.1389 -0.6205
  575TMC3     H 8584   3.665   1.487  11.364 -0.0849  0.6093  0.2240
  575TMC3    H1 8585   3.643   1.825  11.102 -2.4683 -0.0732  1.1192
  575TMC3    H2 8586   3.430   1.460  11.012  1.2916 -0.8488  0.0353
  575TMC3    C7 8587   3.539   1.695  10.898  0.3239 -0.5988 -0.5207
  575TMC3    C8 8588   3.542   1.317  11.197  0.3717 -1.1582  0.2878
  575TMC3    O1 8589   3.623   1.776  10.870 -0.3210  0.0672 -0.0137
  575TMC3    O2 8590   3.462   1.262  11.128  0.3205 -0.0203 -0.5507
  576MPD2     C 8591   3.448   3.310  13.058  0.8401  0.1236  0.1722
  576MPD2    C1 8592   3.544   3.382  12.995 -0.2419  0.8253  0.2046
  576MPD2    C2 8593   3.622   3.462  13.074  0.5872 -0.2690  0.3670
  576MPD2    C3 8594   3.602   3.480  13.212  0.2159 -0.0769 -0.0761
  576MPD2    C4 8595   3.495   3.416  13.265 -0.3410  0.3387 -0.0614
  576MPD2    C5 8596   3.416   3.336  13.191 -0.1399  0.3136  0.4520
  576MPD2     H 8597   3.703   3.522  13.033  1.8854 -1.7286  0.8205
  576MPD2    H1 8598   3.480   3.414  13.372 -0.9657  2.4807 -0.1030
  576MPD2    H2 8599   3.383   3.240  13.005  2.7183 -0.4941 -1.2887
  576MPD2    H3 8600   3.341   3.280  13.245  0.3483 -1.0832 -0.3104
  576MPD2     N 8601   3.699   3.556  13.283  0.1786 -0.2174 -0.1266
  576MPD2    H5 8602   3.767   3.599  13.222 -2.0852  1.7205 -1.2874
  576MPD2    N1 8603   3.581   3.368  12.867 -0.0881  0.2901  0.6496
  576MPD2    H7 8604   3.666   3.417  12.842 -0.6430  0.3510 -1.1113
  577TMC3    C1 8605   3.557   3.324  12.634  0.5729 -0.1669 -0.9463
  577TMC3    C2 8606   3.506   3.231  12.540 -0.1906  0.2165  0.1013
  577TMC3    C3 8607   3.537   3.248  12.402 -0.1296  0.8340 -0.4701
  577TMC3    C4 8608   3.636   3.432  12.603  0.1884 -0.0471  0.1449
  577TMC3    C5 8609   3.652   3.446  12.467  0.0481  0.9293 -0.4415
  577TMC3    C6 8610   3.613   3.354  12.369 -0.5383  0.6268 -0.3184
  577TMC3     C 8611   3.503   3.309  12.770 -0.0146 -0.8480 -0.4676
  577TMC3     O 8612   3.398   3.248  12.785 -0.0106  0.2409  0.1878
  577TMC3     H 8613   3.457   3.143  12.581  1.3971 -0.2000  1.0948
  577TMC3    H1 8614   3.668   3.510  12.671 -2.7308  0.3045  1.1320
  577TMC3    H2 8615   3.623   3.374  12.262  0.9274  1.9750  0.0750
  577TMC3    C7 8616   3.700   3.569  12.430  0.3358  0.6695 -0.1586
  577TMC3    C8 8617   3.519   3.153  12.300 -0.8123  0.0619  0.3490
  577TMC3    O1 8618   3.777   3.625  12.508  0.1521  0.6871 -0.3335
  577TMC3    O2 8619   3.421   3.083  12.317  0.1758  0.0115 -0.3950
  578MPD2     C 8620   1.642   2.826   0.105  0.3676  0.4785 -0.2275
  578MPD2    C1 8621   1.661   2.876   0.234  0.7446  0.8302 -1.0773
  578MPD2    C2 8622   1.690   2.787   0.334 -0.3587 -0.2975 -0.5187
  578MPD2    C3 8623   1.715   2.653   0.306 -0.3883  0.1111  0.2169
  578MPD2    C4 8624   1.712   2.607   0.173 -0.6632 -0.3437  0.3089
  578MPD2    C5 8625   1.677   2.695   0.078 -1.1137  0.1648 -0.2123
  578MPD2     H 8626   1.707   2.822   0.435  0.6568 -1.3404 -0.3231
  578MPD2    H1 8627   1.754   2.511   0.147  0.6067  0.3670 -0.2729
  578MPD2    H2 8628   1.619   2.898   0.027 -1.9199 -0.0287  0.0009
  578MPD2    H3 8629   1.674   2.657  17.714 -0.9841  0.1474 -0.2091
  578MPD2     N 8630   1.769   2.575   0.405  0.7810 -0.2046  0.0093
  578MPD2    H5 8631   1.773   2.608   0.501 -1.1077  0.2942 -0.0830
  578MPD2    N1 8632   1.658   3.012   0.255  0.5405  0.0317 -0.7081
  578MPD2    H7 8633   1.671   3.072   0.174 -0.5714  0.5713 -0.4812
  579TMC3    C1 8634   1.864   2.391   0.517  0.4528  0.3417 -0.2211
  579TMC3    C2 8635   1.995   2.407   0.555 -0.6779  0.0991  0.2210
  579TMC3    C3 8636   2.047   2.333   0.660  0.5187  0.4388 -0.0097
  579TMC3    C4 8637   1.783   2.311   0.584 -0.1562  0.0400  0.1535
  579TMC3    C5 8638   1.832   2.250   0.699  0.0770  0.3916 -0.2981
  579TMC3    C6 8639   1.959   2.266   0.745 -0.0292 -0.2623  0.1606
  579TMC3     C 8640   1.810   2.448   0.391  1.7153 -0.2576  0.8120
  579TMC3     O 8641   1.765   2.363   0.318 -0.0017 -0.1251  0.3531
  579TMC3     H 8642   2.066   2.467   0.500  0.1432 -1.4660 -0.3968
  579TMC3    H1 8643   1.677   2.310   0.562  0.0901  0.9891 -1.0218
  579TMC3    H2 8644   1.990   2.212   0.834 -3.6268 -0.6069  1.1826
  579TMC3    C7 8645   1.734   2.183   0.786 -0.6766  0.4292  0.1049
  579TMC3    C8 8646   2.188   2.339   0.696  0.1682  0.2794  0.2462
  579TMC3    O1 8647   1.767   2.158   0.901  0.1013  0.5370 -0.8939
  579TMC3    O2 8648   2.242   2.447   0.673  0.1637  0.0784  0.1099
  580TMC3    C1 8649   1.725   1.669  11.686 -0.2459 -0.2104 -0.2101
  580TMC3    C2 8650   1.687   1.696  11.559  0.2243  0.2067  0.1103
  580TMC3    C3 8651   1.678   1.592  11.471  0.2967  0.3521  0.1561
  580TMC3    C4 8652   1.736   1.542  11.739 -0.4849  0.2772  0.5329
  580TMC3    C5 8653   1.723   1.438  11.643  0.8897  0.1552  0.6990
  580TMC3    C6 8654   1.709   1.463  11.513  0.3839  0.5793  0.1862
  580TMC3     C 8655   1.729   1.788  11.767 -0.6856 -0.5281  0.3127
  580TMC3     O 8656   1.690   1.891  11.718  0.0239 -0.4725 -0.0737
  580TMC3     H 8657   1.666   1.798  11.529 -0.4660 -0.6355 -2.2824
  580TMC3    H1 8658   1.787   1.525  11.833  0.2510  0.4794  0.1765
  580TMC3    H2 8659   1.702   1.381  11.441  0.1045  0.0981  0.7609
  580TMC3    C7 8660   1.725   1.301  11.689 -0.2530  0.0499  0.8156
  580TMC3    C8 8661   1.696   1.613  11.332  0.4962 -0.3220  0.0377
  580TMC3    O1 8662   1.792   1.230  11.615  0.0259  0.2243  0.7921
  580TMC3    O2 8663   1.704   1.511  11.264 -0.5401 -0.1994  0.2536
  581MPD2     C 8664   4.458   1.393  15.571 -0.3372  0.3013 -0.7040
  581MPD2    C1 8665   4.378   1.302  15.510  0.1706  0.1895 -1.1470
  581MPD2    C2 8666   4.280   1.351  15.430  0.3334  0.2775 -0.2382
  581MPD2    C3 8667   4.263   1.483  15.399  0.2089 -0.0334 -0.0131
  581MPD2    C4 8668   4.339   1.570  15.471  0.6312  0.3355  0.1826
  581MPD2    C5 8669   4.437   1.523  15.552  0.1958 -0.1378  0.3194
  581MPD2     H 8670   4.204   1.281  15.398  1.1806  0.1450 -1.9262
  581MPD2    H1 8671   4.333   1.678  15.469  1.3136  0.3594 -0.4106
  581MPD2    H2 8672   4.537   1.361  15.637  1.0535  0.6846 -2.1859
  581MPD2    H3 8673   4.498   1.604  15.590  0.9544 -0.3122 -0.5309
  581MPD2     N 8674   4.169   1.512  15.292  0.3511 -0.3488  0.2833
  581MPD2    H5 8675   4.115   1.440  15.245  2.0994 -2.3766  1.4006
  581MPD2    N1 8676   4.400   1.169  15.542  0.0074  0.8321 -0.1392
  581MPD2    H7 8677   4.470   1.156  15.613  0.8498 -0.1177 -1.1407
  582TMC3    C1 8678   4.374   0.940  15.561 -0.7249  0.2258  0.1960
  582TMC3    C2 8679   4.479   0.950  15.641 -0.3315 -0.0569  0.4815
  582TMC3    C3 8680   4.458   0.913  15.771 -0.2558 -0.4122 -1.1392
  582TMC3    C4 8681   4.253   0.883  15.590  0.1259  0.6065  0.9599
  582TMC3    C5 8682   4.235   0.834  15.713  0.2761 -0.5561  0.2611
  582TMC3    C6 8683   4.340   0.851  15.804 -1.3727  0.6289  0.1260
  582TMC3     C 8684   4.347   1.057  15.482 -0.3645  0.3304  0.0684
  582TMC3     O 8685   4.252   1.054  15.407 -0.2004  0.1682  0.2494
  582TMC3     H 8686   4.564   1.008  15.608  0.4602 -0.8245  1.1695
  582TMC3    H1 8687   4.168   0.883  15.524  0.8983 -0.7810 -0.0236
  582TMC3    H2 8688   4.325   0.818  15.906  1.9126  0.0823  0.4206
  582TMC3    C7 8689   4.110   0.868  15.776 -0.5146  0.0269 -0.5480
  582TMC3    C8 8690   4.474   1.031  15.853 -0.2120 -0.1464  0.6585
  582TMC3    O1 8691   4.009   0.810  15.738 -0.1559 -0.3509 -0.0983
  582TMC3    O2 8692   4.373   1.084  15.887 -0.7563  0.4579  0.5534
  583MPD2     C 8693   4.136   3.761  16.552 -0.4285 -0.4131 -0.1405
  583MPD2    C1 8694   4.248   3.820  16.600  0.0226  0.3899  0.7155
  583MPD2    C2 8695   4.231   3.924  16.682 -0.0763  0.2275  1.2527
  583MPD2    C3 8696   4.104   3.959  16.735  0.3136 -0.2901 -0.6045
  583MPD2    C4 8697   4.000   3.901  16.683 -0.1069 -0.3441 -0.5939
  583MPD2    C5 8698   4.011   3.807  16.586 -0.6186  0.4970  0.4889
  583MPD2     H 8699   4.321   3.962  16.729 -0.2823  1.7720  0.4238
  583MPD2    H1 8700   3.896   3.926  16.701  0.4156  0.4113  1.3386
  583MPD2    H2 8701   4.140   3.678  16.482  0.6920 -0.2918 -0.2282
  583MPD2    H3 8702   3.920   3.762  16.547 -0.1063  0.7457 -1.0124
  583MPD2     N 8703   4.101   4.058  16.833 -0.1153  0.4034 -0.0366
  583MPD2    H5 8704   4.187   4.109  16.850  0.7144 -1.2412  0.5883
  583MPD2    N1 8705   4.380   3.763  16.580 -0.2547  0.0680 -0.6438
  583MPD2    H7 8706   4.460   3.824  16.595  0.5154 -0.6213 -1.9557
  584TMC3    C1 8707   4.028   4.156  17.037  0.2235  0.3142 -0.1420
  584TMC3    C2 8708   4.061   4.287  17.017  0.8781  0.2728  1.2492
  584TMC3    C3 8709   4.121   4.359  17.118 -0.5190  0.9323 -0.0775
  584TMC3    C4 8710   4.044   4.091  17.151 -0.3330  0.1760 -0.3014
  584TMC3    C5 8711   4.098   4.161  17.250 -0.1845  0.5245  0.0948
  584TMC3    C6 8712   4.147   4.294  17.236 -0.2360  0.0669 -0.1279
  584TMC3     C 8713   4.000   4.068  16.926 -0.2077  0.0885  0.2713
  584TMC3     O 8714   3.894   4.008  16.923  0.2211  0.1236  0.0143
  584TMC3     H 8715   4.066   4.328  16.917 -3.4691 -1.4001  0.3579
  584TMC3    H1 8716   4.001   3.994  17.170 -0.0455  0.1061  0.0033
  584TMC3    H2 8717   4.205   4.340  17.316 -0.4112 -1.4165  0.8536
  584TMC3    C7 8718   4.069   4.118  17.389 -0.1573  0.4380 -0.0237
  584TMC3    C8 8719   4.185   4.485  17.076  0.1423 -0.0683  0.2934
  584TMC3    O1 8720   4.059   3.995  17.403 -0.4699 -0.2921  0.4834
  584TMC3    O2 8721   4.190   4.508  16.954 -0.3376  0.3592 -0.1595
  585MPD2     C 8722   2.996   2.373  17.707 -0.2389  0.3723 -0.9552
  585MPD2    C1 8723   3.129   2.354  17.676 -0.2702 -0.0247  0.0875
  585MPD2    C2 8724   3.175   2.237  17.618 -0.0907 -0.5399 -0.7325
  585MPD2    C3 8725   3.083   2.138  17.582  0.1853  0.1838 -0.2345
  585MPD2    C4 8726   2.950   2.164  17.597 -0.3834  0.5959 -0.3939
  585MPD2    C5 8727   2.914   2.280  17.656 -0.5386  0.6616  0.6722
  585MPD2     H 8728   3.279   2.208  17.619  0.1669  0.4019  0.3919
  585MPD2    H1 8729   2.879   2.090  17.562  0.0533  0.2223 -0.4811
  585MPD2    H2 8730   2.952   2.456   0.024  0.5137  0.7532 -0.9169
  585MPD2    H3 8731   2.807   2.293  17.663 -0.7202 -0.1549 -0.5881
  585MPD2     N 8732   3.123   2.012  17.528  0.6710 -0.4032 -0.4493
  585MPD2    H5 8733   3.058   1.934  17.523  0.4919 -0.2847  0.0088
  585MPD2    N1 8734   3.205   2.460  17.727 -0.3584 -0.1770  0.3782
  585MPD2    H7 8735   3.152   2.545   0.010 -0.2678  0.0534 -0.3447
  586TMC3    C1 8736   3.272   1.868  17.411  0.3788  0.4597 -0.1593
  586TMC3    C2 8737   3.322   1.858  17.283  0.1336  0.1759 -0.7719
  586TMC3    C3 8738   3.311   1.733  17.217  0.0354 -0.5723  0.5528
  586TMC3    C4 8739   3.209   1.767  17.480 -0.4935 -0.4792  0.5214
  586TMC3    C5 8740   3.204   1.645  17.409 -0.2823  0.4850 -0.3425
  586TMC3    C6 8741   3.241   1.633  17.280  0.0361 -0.8461 -0.5926
  586TMC3     C 8742   3.237   2.004  17.454  1.0991 -0.1882  0.6071
  586TMC3     O 8743   3.304   2.091  17.405  0.4322  0.3860 -0.3553
  586TMC3     H 8744   3.370   1.943  17.236  0.0902  0.0098 -1.1137
  586TMC3    H1 8745   3.193   1.770  17.587 -1.6012  0.4117  0.3268
  586TMC3    H2 8746   3.238   1.540  17.224  0.9231 -0.1645 -1.7774
  586TMC3    C7 8747   3.198   1.529  17.496  0.3435 -0.9573 -0.9080
  586TMC3    C8 8748   3.398   1.705  17.099 -0.0274 -0.0832 -0.1199
  586TMC3    O1 8749   3.135   1.530  17.603  0.4384  0.1314 -0.0407
  586TMC3    O2 8750   3.411   1.587  17.081 -0.0628  0.1369 -0.1770
  587TMC3    C1 8751   1.127   1.643  16.356  0.1261  0.4043 -0.2499
  587TMC3    C2 8752   1.142   1.696  16.480 -0.4441  0.2640  0.1877
  587TMC3    C3 8753   1.266   1.686  16.540  0.2432  0.6255 -0.2525
  587TMC3    C4 8754   1.224   1.577  16.287  0.3598  0.4613  0.8360
  587TMC3    C5 8755   1.349   1.574  16.337  0.7859  0.9021  0.1285
  587TMC3    C6 8756   1.374   1.625  16.472 -0.0366 -0.1798  0.3287
  587TMC3     C 8757   1.003   1.656  16.284  0.5310  0.3866  0.0865
  587TMC3     O 8758   1.012   1.688  16.168 -0.2925  0.1973  0.0292
  587TMC3     H 8759   1.062   1.756  16.523 -0.9747  1.5856 -2.6876
  587TMC3    H1 8760   1.196   1.544  16.188 -0.8158 -2.1666  2.0357
  587TMC3    H2 8761   1.469   1.635  16.523  1.0968  1.8494 -2.1313
  587TMC3    C7 8762   1.430   1.475  16.271  0.4660 -0.0501  0.5916
  587TMC3    C8 8763   1.279   1.707  16.682 -1.0026  0.2213  0.2290
  587TMC3    O1 8764   1.380   1.410  16.178 -0.2404  0.2590 -0.1631
  587TMC3    O2 8765   1.371   1.668  16.755 -0.1450  0.9212  0.2392
  588TMC3    C1 8766   3.126   4.407  10.129 -0.0898  0.3206 -0.0161
  588TMC3    C2 8767   3.072   4.283  10.127 -0.5401  0.5617  0.8248
  588TMC3    C3 8768   3.109   4.192  10.216 -0.2676  0.5092 -0.4156
  588TMC3    C4 8769   3.229   4.439  10.214 -0.2792  0.2126  0.3112
  588TMC3    C5 8770   3.269   4.341  10.306  0.5296 -0.2736  1.0126
  588TMC3    C6 8771   3.206   4.219  10.311  0.1191 -0.5329  0.5855
  588TMC3     C 8772   3.082   4.504  10.034  0.4328 -0.2703  0.4192
  588TMC3     O 8773   3.078   4.480   9.913  0.0395  0.0878  0.1424
  588TMC3     H 8774   3.001   4.264  10.047 -1.4216 -1.0318  1.9605
  588TMC3    H1 8775   3.273   4.538  10.211 -2.0016  0.9009 -2.2198
  588TMC3    H2 8776   3.254   4.147  10.376  2.4063  0.3340 -0.1091
  588TMC3    C7 8777   3.343   4.383  10.424  1.1793  0.2058 -0.3067
  588TMC3    C8 8778   3.056   4.057  10.198  0.4503 -0.4071  0.1423
  588TMC3    O1 8779   3.326   4.307  10.521 -0.1355 -0.0022 -0.6272
  588TMC3    O2 8780   2.949   4.045  10.139 -0.2096  0.2663 -0.0751
  589TMC3    C1 8781   2.703   1.496   1.301 -0.4232  0.1175 -0.1423
  589TMC3    C2 8782   2.831   1.502   1.351 -0.8210 -0.3628 -0.4054
  589TMC3    C3 8783   2.915   1.399   1.337  0.6714  0.3134  0.0962
  589TMC3    C4 8784   2.660   1.384   1.231  0.3268 -0.6007 -0.5891
  589TMC3    C5 8785   2.748   1.282   1.210  0.7466  0.4114 -0.4485
  589TMC3    C6 8786   2.870   1.287   1.269 -0.1636 -0.1795  0.6785
  589TMC3     C 8787   2.595   1.586   1.337  0.3714 -0.4555 -0.4381
  589TMC3     O 8788   2.480   1.556   1.312 -0.1622 -0.4613 -0.2260
  589TMC3     H 8789   2.858   1.587   1.412 -1.6643  1.0245 -1.9860
  589TMC3    H1 8790   2.561   1.376   1.188 -0.0789 -0.2445  0.2800
  589TMC3    H2 8791   2.930   1.196   1.266 -1.9013 -1.2325 -2.2115
  589TMC3    C7 8792   2.693   1.153   1.165 -1.1959  0.2395  0.1991
  589TMC3    C8 8793   3.031   1.397   1.412 -0.4597  0.6454 -0.2986
  589TMC3    O1 8794   2.576   1.150   1.138 -0.4469 -0.3813  0.0673
  589TMC3    O2 8795   3.029   1.441   1.525  0.2546 -0.8237  0.5431
  590MPD2     C 8796   1.346   4.180  16.248 -0.4124 -0.0462  0.1617
  590MPD2    C1 8797   1.403   4.251  16.346  0.1753  0.7941 -0.4857
  590MPD2    C2 8798   1.535   4.295  16.328  0.0385 -0.1033 -0.2742
  590MPD2    C3 8799   1.607   4.263  16.217  0.0783 -0.0929  0.1515
  590MPD2    C4 8800   1.548   4.190  16.121 -1.2883  0.7061  0.0170
  590MPD2    C5 8801   1.417   4.152  16.133 -0.6669 -1.0108  1.0297
  590MPD2     H 8802   1.590   4.359  16.396  0.6440  0.4883 -1.2993
  590MPD2    H1 8803   1.602   4.159  16.033 -2.6725 -0.1900 -0.5140
  590MPD2    H2 8804   1.246   4.138  16.246  0.7072 -2.7617  1.8271
  590MPD2    H3 8805   1.371   4.103  16.048 -0.8829  2.0083 -0.5910
  590MPD2     N 8806   1.742   4.301  16.218  0.1675  0.2085  0.0175
  590MPD2    H5 8807   1.779   4.354  16.297 -2.2426 -0.0476  1.3148
  590MPD2    N1 8808   1.330   4.292  16.462 -0.3590 -0.0930 -0.1001
  590MPD2    H7 8809   1.230   4.297  16.444 -0.2742  2.4478  0.1111
  591TMC3    C1 8810   1.960   4.352  16.136  0.5143  0.5253  0.1330
  591TMC3    C2 8811   2.019   4.387  16.020  0.2422  0.5571  0.4885
  591TMC3    C3 8812   2.061   4.517  16.005 -0.2052  0.4140  0.7863
  591TMC3    C4 8813   1.955   4.442  16.242  0.0157 -0.8509 -0.5367
  591TMC3    C5 8814   2.003   4.568  16.221  0.3227  0.0502  0.2218
  591TMC3    C6 8815   2.050   4.612  16.099 -0.0994 -0.4545 -0.2828
  591TMC3     C 8816   1.835   4.274  16.116  0.4307 -0.5617 -0.0759
  591TMC3     O 8817   1.820   4.207  16.015 -0.4434  0.4029 -0.1883
  591TMC3     H 8818   2.006   4.324  15.932  2.3657  0.0356  0.5344
  591TMC3    H1 8819   1.927   4.419  16.344 -0.5665  2.4698  0.0487
  591TMC3    H2 8820   2.057   4.717  16.074  2.0307 -0.2557  1.2022
  591TMC3    C7 8821   1.968   4.669  16.319 -0.1416 -0.3218  0.1730
  591TMC3    C8 8822   2.139   4.534  15.881  0.3385 -0.9901 -0.1942
  591TMC3    O1 8823   1.865   4.650  16.382 -0.1180  0.1421 -0.4208
  591TMC3    O2 8824   2.118   4.455  15.792 -0.4515 -0.5635 -0.1866
  592MPD2     C 8825   2.586   1.490  11.586  0.1928 -0.0467  0.0417
  592MPD2    C1 8826   2.560   1.531  11.712  0.0342  0.3478 -0.2661
  592MPD2    C2 8827   2.519   1.444  11.812  0.2013  1.0060 -0.0427
  592MPD2    C3 8828   2.503   1.313  11.771 -0.0419  0.4966 -0.3863
  592MPD2    C4 8829   2.539   1.271  11.644 -0.1872 -0.0070 -0.3320
  592MPD2    C5 8830   2.589   1.359  11.555 -0.0790  0.5799 -0.9855
  592MPD2     H 8831   2.490   1.473  11.912  2.1811  1.0850  0.5085
  592MPD2    H1 8832   2.521   1.171  11.608 -0.2436  0.7985 -2.5573
  592MPD2    H2 8833   2.616   1.555  11.505 -2.6275 -0.0963 -1.0215
  592MPD2    H3 8834   2.624   1.327  11.457  0.3160 -0.6261 -0.4421
  592MPD2     N 8835   2.462   1.222  11.870  0.9398  0.0750 -0.0799
  592MPD2    H5 8836   2.460   1.261  11.963 -0.1567  0.4590 -0.2669
  592MPD2    N1 8837   2.557   1.678  11.723  0.0686 -0.0644  0.0480
  592MPD2    H7 8838   2.559   1.731  11.637 -1.8311 -0.6665 -0.3745
  593TMC3    C1 8839   2.546   1.883  11.826 -0.0279 -0.7943  0.5834
  593TMC3    C2 8840   2.481   1.948  11.928  0.8777 -0.1715 -0.6254
  593TMC3    C3 8841   2.475   2.084  11.912  0.5812 -0.0142 -0.0943
  593TMC3    C4 8842   2.593   1.941  11.711  0.0958  0.3887  0.5172
  593TMC3    C5 8843   2.589   2.076  11.699  0.1718 -0.1324  0.3510
  593TMC3    C6 8844   2.524   2.146  11.799  0.2757  0.2693 -0.1884
  593TMC3     C 8845   2.546   1.746  11.840 -0.3428 -0.3123  1.0059
  593TMC3     O 8846   2.541   1.699  11.952 -0.3710  0.4892 -0.1375
  593TMC3     H 8847   2.447   1.894  12.016 -3.5374 -2.0384 -3.4766
  593TMC3    H1 8848   2.659   1.888  11.643 -0.4201 -1.5193  1.5264
  593TMC3    H2 8849   2.504   2.253  11.795  1.9200  0.4562 -3.8275
  593TMC3    C7 8850   2.607   2.153  11.579  0.2093 -0.6592  0.8730
  593TMC3    C8 8851   2.434   2.170  12.030  0.0571  0.1123  0.1095
  593TMC3    O1 8852   2.581   2.275  11.589 -0.3772  0.5757 -0.2868
  593TMC3    O2 8853   2.354   2.125  12.115 -0.5736  0.2444  0.1024
  594MPD2     C 8854   1.495   0.749  14.207  0.6895 -1.0580 -0.1510
  594MPD2    C1 8855   1.476   0.753  14.343  0.0997 -0.4338 -0.4805
  594MPD2    C2 8856   1.561   0.833  14.422  0.0718 -0.6119  0.2828
  594MPD2    C3 8857   1.661   0.909  14.360  0.0041  0.0474 -0.2055
  594MPD2    C4 8858   1.668   0.913  14.223 -0.2526  0.2963  0.0549
  594MPD2    C5 8859   1.586   0.831  14.152  0.2194  1.1326  0.1259
  594MPD2     H 8860   1.542   0.836  14.529  1.3027 -3.0891  0.5775
  594MPD2    H1 8861   1.735   0.970  14.160 -1.2041  0.7307 -0.5696
  594MPD2    H2 8862   1.423   0.702  14.141  0.6114 -0.9141 -0.1692
  594MPD2    H3 8863   1.593   0.826  14.044 -1.5954 -0.8403  0.0923
  594MPD2     N 8864   1.743   0.998  14.433 -0.4110 -0.4649 -0.0833
  594MPD2    H5 8865   1.734   0.981  14.532  0.0594  1.8037  0.3588
  594MPD2    N1 8866   1.371   0.678  14.401 -0.3320 -0.0864 -0.5071
  594MPD2    H7 8867   1.310   0.631  14.335 -1.2737 -0.1145  0.3685
  595TMC3    C1 8868   2.073   1.269  14.603 -0.1160  0.4668  0.4459
  595TMC3    C2 8869   2.030   1.186  14.507 -0.0605 -0.3757  0.0548
  595TMC3    C3 8870   1.897   1.148  14.505  0.0862 -0.3287  0.0600
  595TMC3    C4 8871   1.986   1.317  14.697  0.3570  0.3677 -0.1685
  595TMC3    C5 8872   1.855   1.285  14.689 -0.6422 -0.5739 -0.0992
  595TMC3    C6 8873   1.805   1.195  14.597  0.2276  0.1626  0.1498
  595TMC3     C 8874   2.203   1.327  14.600 -0.9451  0.1568 -0.4214
  595TMC3     O 8875   2.242   1.340  14.485  0.2521  0.8119 -0.2168
  595TMC3     H 8876   2.096   1.144  14.433  0.5711 -0.6668  0.7797
  595TMC3    H1 8877   2.022   1.376  14.781 -2.3930  2.2990 -0.3601
  595TMC3    H2 8878   1.700   1.170  14.601 -0.0963  1.7749  1.9679
  595TMC3    C7 8879   1.753   1.358  14.760 -0.0387 -0.2893 -0.1012
  595TMC3    C8 8880   1.848   1.074  14.394  0.6478 -0.1550  0.0443
  595TMC3    O1 8881   1.639   1.324  14.734 -0.1015 -0.1855  0.6923
  595TMC3    O2 8882   1.911   1.076  14.290  0.4132 -0.4820 -0.5874
  596MPD2     C 8883   0.201   3.415  16.921  0.2722  0.2583 -0.4856
  596MPD2    C1 8884   0.265   3.532  16.886 -0.7131 -0.5064 -0.4186
  596MPD2    C2 8885   0.358   3.531  16.788  0.2565  0.0518  0.4147
  596MPD2    C3 8886   0.390   3.419  16.717  0.6515 -0.3175 -0.4124
  596MPD2    C4 8887   0.315   3.306  16.747 -0.7081  0.4625  0.0203
  596MPD2    C5 8888   0.223   3.301  16.847  0.0762  0.6380 -0.5144
  596MPD2     H 8889   0.405   3.626  16.764 -1.4421  0.5129 -1.1035
  596MPD2    H1 8890   0.318   3.216  16.687  2.0607  1.4687 -1.3882
  596MPD2    H2 8891   0.140   3.409  17.011 -0.4384  3.1372 -0.7692
  596MPD2    H3 8892   0.189   3.206  16.886 -0.2735  0.6023 -0.9132
  596MPD2     N 8893   0.488   3.411  16.615 -0.0005 -0.5182 -0.0321
  596MPD2    H5 8894   0.492   3.323  16.565  1.9071 -0.7572  0.5618
  596MPD2    N1 8895   0.260   3.659  16.953 -0.2589  0.0594  0.2381
  596MPD2    H7 8896   0.322   3.732  16.918 -0.8405  0.2272 -0.4342
  597TMC3    C1 8897   0.173   3.838  17.087  0.5557 -1.0345  0.4935
  597TMC3    C2 8898   0.239   3.932  17.010 -0.4206  0.3179 -0.3174
  597TMC3    C3 8899   0.223   4.062  17.036 -0.1198 -0.9180 -0.3236
  597TMC3    C4 8900   0.075   3.874  17.181 -0.2276  0.6873 -0.6478
  597TMC3    C5 8901   0.060   4.006  17.210 -0.1281 -0.0636  0.3404
  597TMC3    C6 8902   0.131   4.098  17.137 -0.2789 -0.5940 -0.1839
  597TMC3     C 8903   0.172   3.698  17.050  0.3923  0.0195  0.0687
  597TMC3     O 8904   0.087   3.629  17.101  0.3371  0.2192  0.6143
  597TMC3     H 8905   0.307   3.908  16.928  0.0273 -1.3910  0.5423
  597TMC3    H1 8906   0.026   3.796  17.238  2.3313  3.1230  4.8152
  597TMC3    H2 8907   0.117   4.203  17.160 -0.1788  0.0201 -2.8882
  597TMC3    C7 8908   4.692   4.049  17.301  0.2228  0.3496  0.3466
  597TMC3    C8 8909   0.282   4.177  16.965  0.5528  0.5955 -0.6109
  597TMC3    O1 8910   4.639   3.946  17.348 -0.0019 -0.4352  0.2515
  597TMC3    O2 8911   0.224   4.285  16.965  0.2006  0.7277 -0.0192
  598TMC3    C1 8912   3.174   0.046  15.407 -0.1787 -0.9315  0.0382
  598TMC3    C2 8913   3.074   4.719  15.334  0.9665 -0.4360 -0.3603
  598TMC3    C3 8914   3.026   0.038  15.223 -0.2386 -0.2874 -0.5283
  598TMC3    C4 8915   3.232   0.169  15.360 -0.0087  0.2819  0.2887
  598TMC3    C5 8916   3.170   0.227  15.250  0.4415 -0.2685  0.7018
  598TMC3    C6 8917   3.074   0.160  15.177  0.0006  0.6028  0.4203
  598TMC3     C 8918   3.251   4.710  15.506  0.1339 -0.1550  0.4824
  598TMC3     O 8919   3.354   0.038  15.539 -0.2853 -0.4035  0.1261
  598TMC3     H 8920   3.037   4.622  15.365 -1.1575  1.2392  2.3306
  598TMC3    H1 8921   3.323   0.211  15.402  0.6361 -0.6026 -0.2284
  598TMC3    H2 8922   3.031   0.196  15.084  0.9559 -0.7521 -0.5670
  598TMC3    C7 8923   3.256   0.301  15.157 -0.0331 -0.5520  0.6428
  598TMC3    C8 8924   3.001   4.673  15.118 -0.1597 -0.5347 -0.4396
  598TMC3    O1 8925   3.238   0.274  15.038  0.0690 -0.0397 -0.0787
  598TMC3    O2 8926   2.933   4.573  15.132 -0.6125  0.6160 -0.0948
  599MPD2     C 8927   3.639   2.480  15.603  0.0431  0.1638  0.2307
  599MPD2    C1 8928   3.574   2.358  15.625 -0.2054 -0.2359  0.1860
  599MPD2    C2 8929   3.439   2.366  15.665 -0.5117  0.1106  0.4056
  599MPD2    C3 8930   3.371   2.485  15.670 -0.5557  0.0029  0.5334
  599MPD2    C4 8931   3.439   2.601  15.639 -0.0740 -0.0203 -0.2693
  599MPD2    C5 8932   3.575   2.600  15.616  0.9519 -0.3589 -0.2703
  599MPD2     H 8933   3.404   2.272  15.706 -1.4815  0.2363 -0.1433
  599MPD2    H1 8934   3.381   2.692  15.639  0.3693  0.2632  0.6222
  599MPD2    H2 8935   3.743   2.493  15.575 -0.8763  2.8217 -1.9590
  599MPD2    H3 8936   3.626   2.696  15.616  1.8535 -0.8352  0.2113
  599MPD2     N 8937   3.231   2.495  15.704  0.1824  0.0021  0.1951
  599MPD2    H5 8938   3.182   2.584  15.706 -1.5430 -0.9483  0.0865
  599MPD2    N1 8939   3.655   2.251  15.656  0.3641  0.0623  0.4405
  599MPD2    H7 8940   3.752   2.279  15.660  0.1135  0.7359  1.9774
  600TMC3    C1 8941   3.023   2.438  15.794  0.2307  0.0356  0.3007
  600TMC3    C2 8942   2.926   2.340  15.798  0.4840  0.1090  0.5423
  600TMC3    C3 8943   2.812   2.370  15.872  0.1633 -0.3426 -0.0527
  600TMC3    C4 8944   3.016   2.565  15.843 -0.4441 -0.3835  0.1085
  600TMC3    C5 8945   2.902   2.584  15.915 -0.2320 -0.1272 -0.2130
  600TMC3    C6 8946   2.796   2.497  15.930 -0.0550  0.0742 -0.6300
  600TMC3     C 8947   3.152   2.393  15.742 -0.1031  0.0738  0.5279
  600TMC3     O 8948   3.165   2.273  15.732  0.3449 -0.1875 -0.8811
  600TMC3     H 8949   2.942   2.249  15.741  1.3818  1.7335 -1.8227
  600TMC3    H1 8950   3.103   2.626  15.864  0.8043 -2.4212  0.7467
  600TMC3    H2 8951   2.708   2.522  15.987 -0.1918 -0.4072 -0.6261
  600TMC3    C7 8952   2.895   2.699  16.006  0.3820  0.3959  0.3324
  600TMC3    C8 8953   2.749   2.255  15.929 -0.1323  0.5012 -0.0064
  600TMC3    O1 8954   2.804   2.695  16.087  0.0819 -0.0654  0.2177
  600TMC3    O2 8955   2.812   2.153  15.933  0.0215 -0.1146 -0.0257
  601MPD2     C 8956   0.356   1.233   0.787 -0.5587  0.4258  0.3118
  601MPD2    C1 8957   0.289   1.168   0.686 -0.7215 -0.2341  0.2415
  601MPD2    C2 8958   0.249   1.037   0.709  0.2314 -0.1458 -0.7691
  601MPD2    C3 8959   0.284   0.966   0.822  0.4237 -0.5302 -0.1425
  601MPD2    C4 8960   0.338   1.036   0.927  0.1494  0.4620 -0.2150
  601MPD2    C5 8961   0.378   1.165   0.906 -0.1508  0.2021  0.8245
  601MPD2     H 8962   0.198   0.988   0.627 -0.1747 -1.6567  0.3597
  601MPD2    H1 8963   0.366   0.977   1.013 -1.5232 -1.7462 -1.1593
  601MPD2    H2 8964   0.375   1.340   0.783  1.3239  0.0596 -0.6034
  601MPD2    H3 8965   0.436   1.197   0.992  0.4140 -3.9671  1.9887
  601MPD2     N 8966   0.240   0.839   0.849 -0.4945 -0.5220 -0.4552
  601MPD2    H5 8967   0.270   0.798   0.937 -1.2490  0.4490  0.2653
  601MPD2    N1 8968   0.258   1.222   0.556 -0.5308  0.3430 -1.1309
  601MPD2    H7 8969   0.191   1.174   0.498 -2.6243  0.1778  1.4045
  602TMC3    C1 8970   0.230   1.365   0.386 -0.2803 -0.5082  0.1621
  602TMC3    C2 8971   0.278   1.476   0.324 -0.1916  0.1809 -0.7194
  602TMC3    C3 8972   0.250   1.490   0.195  0.0307  0.3655 -0.0137
  602TMC3    C4 8973   0.153   1.273   0.323  0.0273 -0.0941 -0.7587
  602TMC3    C5 8974   0.126   1.290   0.186 -0.4116  0.8153  0.7235
  602TMC3    C6 8975   0.180   1.399   0.122  0.4528 -0.0651 -0.1563
  602TMC3     C 8976   0.302   1.340   0.502  0.3713  0.5291 -0.2821
  602TMC3     O 8977   0.362   1.434   0.554  0.0458  0.5113  0.0694
  602TMC3     H 8978   0.319   1.560   0.379  0.5073  0.2084 -1.2914
  602TMC3    H1 8979   0.115   1.187   0.376  0.4031 -0.0209 -0.3764
  602TMC3    H2 8980   0.203   1.387   0.017  1.2931  2.3078 -0.2509
  602TMC3    C7 8981   0.069   1.191   0.099 -1.0706  0.0986  0.7533
  602TMC3    C8 8982   0.305   1.596   0.121  0.5855  0.0647 -0.5707
  602TMC3    O1 8983   0.107   1.076   0.122 -0.8148 -0.2003  0.0656
  602TMC3    O2 8984   0.407   1.645   0.162  0.3358 -0.1033 -0.0512
  603TMC3    C1 8985   3.039   1.536  11.002  0.3063 -0.0438 -0.2507
  603TMC3    C2 8986   3.058   1.505  11.134  0.1070 -1.0810  0.1925
  603TMC3    C3 8987   3.109   1.594  11.213  0.0131  0.6422 -0.2989
  603TMC3    C4 8988   3.070   1.662  10.959  0.2178 -0.7628  0.2846
  603TMC3    C5 8989   3.133   1.749  11.047  0.2374 -0.8860  0.0444
  603TMC3    C6 8990   3.154   1.718  11.176 -0.4667 -0.2527  0.3288
  603TMC3     C 8991   2.998   1.432  10.913  0.7467 -0.2849  0.3233
  603TMC3     O 8992   3.024   1.314  10.933 -0.3265  0.0462  0.2454
  603TMC3     H 8993   3.034   1.403  11.162 -0.7771 -1.3838 -1.7151
  603TMC3    H1 8994   3.084   1.681  10.854  1.5806 -0.9672  0.4392
  603TMC3    H2 8995   3.181   1.791  11.252  0.8723 -1.7899  1.3174
  603TMC3    C7 8996   3.207   1.866  10.996  0.2010  0.0843 -0.9425
  603TMC3    C8 8997   3.174   1.537  11.330  0.2622 -0.4799  1.2991
  603TMC3    O1 8998   3.314   1.886  11.055 -0.4007 -0.9676 -0.3965
  603TMC3    O2 8999   3.133   1.427  11.358  0.1012  0.0708 -0.0205
  604MPD2     C 9000   4.258   3.975  16.015  0.0654 -0.3103  0.1979
  604MPD2    C1 9001   4.288   4.109  16.008 -0.6925  0.4070 -0.6970
  604MPD2    C2 9002   4.341   4.155  15.887 -0.2473 -0.0600 -0.1548
  604MPD2    C3 9003   4.355   4.071  15.776  0.2196  0.0504 -0.2014
  604MPD2    C4 9004   4.326   3.940  15.799  0.4088  0.1205 -0.3526
  604MPD2    C5 9005   4.280   3.893  15.915  0.0542  0.1717  0.1813
  604MPD2     H 9006   4.350   4.261  15.864 -1.3245  0.1798  0.5197
  604MPD2    H1 9007   4.352   3.863  15.727  2.0434 -0.5910  1.0135
  604MPD2    H2 9008   4.209   3.929  16.100 -0.1006  3.1634  1.9601
  604MPD2    H3 9009   4.264   3.787  15.929 -1.9646  0.2323 -1.5333
  604MPD2     N 9010   4.404   4.122  15.653  0.1895 -0.1170  0.0511
  604MPD2    H5 9011   4.415   4.223  15.659  0.0980  0.0734 -2.8348
  604MPD2    N1 9012   4.254   4.200  16.111  0.1808  0.5814  0.3873
  604MPD2    H7 9013   4.202   4.164  16.190  1.0459  0.5485  0.9393
  605TMC3    C1 9014   4.263   4.400  16.235  0.3227  0.2053  0.4863
  605TMC3    C2 9015   4.355   4.481  16.283  0.2586 -0.4441  0.0020
  605TMC3    C3 9016   4.312   4.591  16.357  0.3180 -0.0968  0.1110
  605TMC3    C4 9017   4.127   4.418  16.237 -0.2853  0.0754 -0.7849
  605TMC3    C5 9018   4.090   4.530  16.306  0.0360 -0.5643  0.2109
  605TMC3    C6 9019   4.180   4.615  16.367 -0.1826  0.6216  0.3196
  605TMC3     C 9020   4.314   4.323  16.128 -0.7833  0.0123 -0.3725
  605TMC3     O 9021   4.394   4.375  16.050  0.4189  0.1307 -0.5835
  605TMC3     H 9022   4.461   4.456  16.281 -0.7452 -4.4548 -2.8956
  605TMC3    H1 9023   4.067   4.377  16.157  0.2506 -4.5532  1.1835
  605TMC3    H2 9024   4.137   4.702  16.415  0.2569  1.4605 -0.7955
  605TMC3    C7 9025   3.948   4.566  16.304 -0.3038  0.6630 -0.2286
  605TMC3    C8 9026   4.404   4.693  16.396  0.6385  0.1577  0.4662
  605TMC3    O1 9027   3.920   4.681  16.344 -0.3612 -0.1004 -0.0633
  605TMC3    O2 9028   4.504   4.696  16.327  0.1056  0.2305  0.0968
  606TMC3    C1 9029   0.180   4.007   0.283  0.3157 -1.1557  0.4039
  606TMC3    C2 9030   0.194   3.912   0.380  0.1843  0.1407 -0.1950
  606TMC3    C3 9031   0.235   3.787   0.339  0.0686 -0.2615  0.3286
  606TMC3    C4 9032   0.230   3.983   0.160  0.5528 -0.1105  0.0587
  606TMC3    C5 9033   0.262   3.856   0.123 -0.1644  0.6043 -0.0493
  606TMC3    C6 9034   0.261   3.751   0.214  0.0391 -0.8228  0.4296
  606TMC3     C 9035   0.170   4.143   0.328  0.4091 -0.3915 -0.7779
  606TMC3     O 9036   0.208   4.234   0.254 -0.5001 -0.0400 -0.1036
  606TMC3     H 9037   0.183   3.926   0.487  2.6981 -1.5773  0.2803
  606TMC3    H1 9038   0.229   4.065   0.089  3.4863 -2.7246 -2.9565
  606TMC3    H2 9039   0.266   3.649   0.178 -1.0481 -0.4808 -0.7152
  606TMC3    C7 9040   0.283   3.840  17.715  0.1877  0.5112  0.2252
  606TMC3    C8 9041   0.248   3.683   0.444 -0.0335 -0.2264  0.3077
  606TMC3    O1 9042   0.301   3.938  17.644  0.3043 -0.1174  0.1195
  606TMC3    O2 9043   0.201   3.711   0.551  0.0419 -0.2509 -0.1340
  607MPD2     C 9044   2.804   1.120  11.785 -0.3325 -0.1324  0.5167
  607MPD2    C1 9045   2.840   1.205  11.887 -0.6987  0.2568 -0.0893
  607MPD2    C2 9046   2.831   1.160  12.014  0.2769  0.5478 -0.1992
  607MPD2    C3 9047   2.783   1.037  12.048  0.0554  0.1659 -0.1672
  607MPD2    C4 9048   2.739   0.953  11.945 -0.6902 -0.1757  0.0421
  607MPD2    C5 9049   2.761   0.995  11.816 -1.1061  0.0142  0.4975
  607MPD2     H 9050   2.845   1.231  12.094  0.2488  0.9653 -0.5625
  607MPD2    H1 9051   2.698   0.853  11.958 -1.3615 -0.0316 -0.9257
  607MPD2    H2 9052   2.814   1.148  11.681  1.3590  0.1125  0.7391
  607MPD2    H3 9053   2.727   0.928  11.739  0.8085  0.9720 -1.1617
  607MPD2     N 9054   2.769   1.012  12.187  0.2748  0.6293  0.4519
  607MPD2    H5 9055   2.786   1.080  12.261  0.8959 -1.4245  2.1896
  607MPD2    N1 9056   2.884   1.335  11.860  0.0183  0.5226 -0.0260
  607MPD2    H7 9057   2.903   1.393  11.942  0.5335 -0.5562  0.6211
  608TMC3    C1 9058   2.949   1.538  11.758 -0.0373 -0.1512  0.2829
  608TMC3    C2 9059   2.930   1.588  11.884  0.6270 -0.3920 -0.6509
  608TMC3    C3 9060   3.016   1.691  11.925  0.2540  0.2683 -0.5697
  608TMC3    C4 9061   3.039   1.594  11.670  0.1571 -0.2382 -1.1579
  608TMC3    C5 9062   3.112   1.700  11.710  0.5088 -0.1116 -0.2820
  608TMC3    C6 9063   3.105   1.744  11.838 -0.1064 -0.3442  0.3940
  608TMC3     C 9064   2.911   1.403  11.739 -0.0930  0.2194 -0.6303
  608TMC3     O 9065   2.908   1.349  11.625  0.0249 -0.0211 -0.2776
  608TMC3     H 9066   2.836   1.565  11.934  0.9025 -0.2445 -0.0682
  608TMC3    H1 9067   3.053   1.558  11.569  1.3516 -1.1297 -0.6719
  608TMC3    H2 9068   3.141   1.843  11.864 -0.4591 -0.2873  0.6550
  608TMC3    C7 9069   3.148   1.792  11.602  0.3074 -0.3242  0.2735
  608TMC3    C8 9070   3.060   1.696  12.066  0.1461  0.2246  0.6653
  608TMC3    O1 9071   3.071   1.801  11.504  0.3598  0.3800  0.1840
  608TMC3    O2 9072   3.162   1.757  12.090 -0.7045  0.0616 -0.2982
  609TMC3    C1 9073   1.232   0.528   9.403 -0.2507 -0.2849  0.6488
  609TMC3    C2 9074   1.194   0.521   9.269 -0.1015  0.2771 -0.2770
  609TMC3    C3 9075   1.265   0.439   9.183 -0.3615 -0.5384 -0.0697
  609TMC3    C4 9076   1.341   0.464   9.449  0.3634 -0.1649 -0.1983
  609TMC3    C5 9077   1.408   0.381   9.360  0.2533  0.5838 -0.9310
  609TMC3    C6 9078   1.377   0.376   9.231  0.3397 -0.2150 -0.2653
  609TMC3     C 9079   1.168   0.627   9.493  0.7695 -0.2599 -0.0495
  609TMC3     O 9080   1.201   0.622   9.611  0.3271 -0.4913 -0.3233
  609TMC3     H 9081   1.108   0.578   9.237 -0.6171 -0.6471 -0.5040
  609TMC3    H1 9082   1.361   0.454   9.555  0.5022 -2.0215 -0.4014
  609TMC3    H2 9083   1.433   0.320   9.157 -2.0031  0.8575 -2.8704
  609TMC3    C7 9084   1.516   0.305   9.421  1.1734 -0.3216 -0.0076
  609TMC3    C8 9085   1.217   0.420   9.047  0.5969  0.6117 -0.0256
  609TMC3    O1 9086   1.543   0.333   9.535 -0.2632  0.5603 -0.0430
  609TMC3    O2 9087   1.278   0.331   8.986  0.5048 -0.3415  0.2044
  610TMC3    C1 9088   2.859   1.907  12.705 -0.2120  0.8988 -0.3780
  610TMC3    C2 9089   2.914   1.954  12.591  0.1420  0.0114  0.2161
  610TMC3    C3 9090   3.046   1.917  12.560 -0.0090 -0.1801  0.4743
  610TMC3    C4 9091   2.927   1.811  12.778 -0.6672  0.9812  0.8778
  610TMC3    C5 9092   3.055   1.778  12.739  0.7945  0.2742 -0.6710
  610TMC3    C6 9093   3.124   1.826  12.634 -0.0506  0.6975 -0.1205
  610TMC3     C 9094   2.758   1.984  12.768 -0.6151  0.3611 -0.3325
  610TMC3     O 9095   2.697   1.912  12.841 -0.1593  0.2336 -0.3510
  610TMC3     H 9096   2.873   2.025  12.520  0.8755 -0.9934 -1.2188
  610TMC3    H1 9097   2.882   1.784  12.872 -0.6157  1.7079  1.1119
  610TMC3    H2 9098   3.227   1.802  12.611  0.4134  2.9299 -0.3866
  610TMC3    C7 9099   3.127   1.669  12.813 -0.8442  0.6187 -0.6680
  610TMC3    C8 9100   3.112   1.984  12.448 -0.6179 -0.2561 -0.2053
  610TMC3    O1 9101   3.240   1.664  12.777  0.1615  0.3499  0.1799
  610TMC3    O2 9102   3.043   2.006  12.349 -0.2224 -0.3860  0.0144
  611MPD2     C 9103   2.298   1.928  10.044 -0.6469 -0.6992  0.5698
  611MPD2    C1 9104   2.383   1.901  10.150 -0.2150 -0.2064 -0.2551
  611MPD2    C2 9105   2.501   1.973  10.156  0.5504 -0.3764 -0.3170
  611MPD2    C3 9106   2.531   2.076  10.064 -0.1153  0.1670  0.1354
  611MPD2    C4 9107   2.446   2.090   9.956 -0.2566 -0.3082 -0.6603
  611MPD2    C5 9108   2.333   2.015   9.948 -0.5375 -0.4785 -0.1279
  611MPD2     H 9109   2.555   1.973  10.250 -0.0316  0.6929  0.0258
  611MPD2    H1 9110   2.455   2.169   9.883 -3.5602 -0.3964 -1.1886
  611MPD2    H2 9111   2.199   1.888  10.032 -0.6382 -0.4673 -0.2945
  611MPD2    H3 9112   2.268   2.029   9.863 -0.4816 -1.1858 -0.2849
  611MPD2     N 9113   2.646   2.165  10.081 -0.1030  0.1756  0.0610
  611MPD2    H5 9114   2.647   2.239  10.012 -0.4751  0.9126  0.8507
  611MPD2    N1 9115   2.343   1.803  10.248  0.5459  0.0071  0.2692
  611MPD2    H7 9116   2.251   1.761  10.243  0.5401 -0.1929  2.0501
  612TMC3    C1 9117   2.803   2.268  10.230  0.0972  0.1218 -0.1932
  612TMC3    C2 9118   2.884   2.252  10.338 -0.3196 -0.3621 -0.5673
  612TMC3    C3 9119   2.947   2.367  10.382 -0.3333  0.9111 -0.1743
  612TMC3    C4 9120   2.793   2.390  10.172  0.3580 -0.3512 -0.0024
  612TMC3    C5 9121   2.851   2.502  10.224 -0.3363 -0.7779 -0.5333
  612TMC3    C6 9122   2.932   2.492  10.334  0.1243  0.3582  0.0413
  612TMC3     C 9123   2.746   2.149  10.171 -0.3113  0.3177  0.0060
  612TMC3     O 9124   2.772   2.045  10.231  0.3553 -0.0828 -0.3400
  612TMC3     H 9125   2.886   2.163  10.400 -0.3185 -0.1351 -0.2368
  612TMC3    H1 9126   2.722   2.398  10.091 -0.0461 -1.3379  0.2480
  612TMC3    H2 9127   2.986   2.572  10.383  2.2661 -1.9991  1.5700
  612TMC3    C7 9128   2.821   2.632  10.173 -0.1658 -0.0201  0.3933
  612TMC3    C8 9129   3.062   2.356  10.474 -0.2656 -0.0238  0.1913
  612TMC3    O1 9130   2.767   2.625  10.061  0.0022 -0.9898 -0.7713
  612TMC3    O2 9131   3.149   2.441  10.470 -0.0422  0.0903 -0.7021
  613MPD2     C 9132   1.648   2.899  16.310  0.2890 -0.4182 -0.0253
  613MPD2    C1 9133   1.594   2.962  16.201 -0.3394  0.1641 -0.1787
  613MPD2    C2 9134   1.520   2.893  16.111 -0.0499 -0.0638 -0.4701
  613MPD2    C3 9135   1.503   2.753  16.122 -0.4748  0.2957 -0.1608
  613MPD2    C4 9136   1.559   2.699  16.237  0.5289 -0.3447  0.3853
  613MPD2    C5 9137   1.639   2.760  16.324 -1.0385  0.0207 -0.1127
  613MPD2     H 9138   1.473   2.943  16.027  0.9393  2.5923  0.5573
  613MPD2    H1 9139   1.539   2.593  16.247 -0.2849 -0.1973  0.3158
  613MPD2    H2 9140   1.695   2.950  16.394  0.0031 -0.5210  0.1996
  613MPD2    H3 9141   1.676   2.706  16.411  1.1074 -0.7474 -1.4996
  613MPD2     N 9142   1.433   2.676  16.026 -0.0815  0.5728  0.0300
  613MPD2    H5 9143   1.437   2.575  16.027  3.3846  0.6874  0.0513
  613MPD2    N1 9144   1.626   3.103  16.189 -0.2224 -0.1515  0.1364
  613MPD2    H7 9145   1.691   3.139  16.258  0.2673 -1.3193  0.2905
  614TMC3    C1 9146   1.679   3.295  16.055 -0.2963  0.9532  0.0410
  614TMC3    C2 9147   1.797   3.237  16.024  0.8851  0.2989  1.0862
  614TMC3    C3 9148   1.837   3.254  15.894 -0.0339  0.6006 -0.0863
  614TMC3    C4 9149   1.614   3.388  15.979  0.1282 -0.8416  0.1361
  614TMC3    C5 9150   1.669   3.417  15.861 -0.5185 -0.1604  0.1417
  614TMC3    C6 9151   1.771   3.339  15.809  0.2125  0.9279 -0.4515
  614TMC3     C 9152   1.577   3.189  16.092  0.3649 -0.0199  0.4669
  614TMC3     O 9153   1.473   3.180  16.023  0.1982 -0.1913  0.7441
  614TMC3     H 9154   1.843   3.159  16.084 -0.8106 -1.4496  0.1141
  614TMC3    H1 9155   1.520   3.438  16.003  0.9222  0.2956  0.8647
  614TMC3    H2 9156   1.809   3.363  15.710  0.8575 -0.2752 -0.4895
  614TMC3    C7 9157   1.663   3.550  15.804  0.3876  0.3494 -0.6764
  614TMC3    C8 9158   1.868   3.119  15.836  0.9193 -0.3370  0.3524
  614TMC3    O1 9159   1.673   3.644  15.878  0.4510 -0.0778  0.2569
  614TMC3    O2 9160   1.830   3.021  15.900  0.0571 -0.1776  0.3242
  615MPD2     C 9161   0.963   0.747  16.671  0.0556 -0.0069 -0.5497
  615MPD2    C1 9162   0.984   0.878  16.681  0.2952 -0.3139  0.2584
  615MPD2    C2 9163   0.959   0.971  16.577 -0.4699  0.1794 -0.1484
  615MPD2    C3 9164   0.893   0.927  16.462 -0.0103 -1.1850  0.7448
  615MPD2    C4 9165   0.865   0.795  16.456  0.3068 -0.4298  0.3786
  615MPD2    C5 9166   0.906   0.700  16.552  0.0935  0.2814  0.5183
  615MPD2     H 9167   0.972   1.078  16.592 -0.0273  0.3921 -1.9872
  615MPD2    H1 9168   0.803   0.761  16.373 -3.0640  0.4911  2.5007
  615MPD2    H2 9169   0.976   0.682  16.756  1.3223  0.0833 -0.6731
  615MPD2    H3 9170   0.871   0.599  16.536 -2.6774  0.9695  2.3750
  615MPD2     N 9171   0.865   1.008  16.350  0.2721  0.3457  0.6535
  615MPD2    H5 9172   0.828   0.958  16.270 -1.3097 -1.0647  2.2741
  615MPD2    N1 9173   1.050   0.928  16.797 -1.4702 -0.3334 -0.7477
  615MPD2    H7 9174   1.047   1.029  16.811 -0.9166 -0.7215  2.2265
  616TMC3    C1 9175   1.184   0.932  16.990  0.8536  0.0243 -0.5982
  616TMC3    C2 9176   1.309   0.898  17.045  0.0792 -0.2036  0.1921
  616TMC3    C3 9177   1.350   0.958  17.154 -0.0054 -0.3702 -0.6167
  616TMC3    C4 9178   1.108   1.035  17.042 -0.0057 -0.6578 -0.3601
  616TMC3    C5 9179   1.168   1.105  17.142 -1.0255  0.7742 -0.1548
  616TMC3    C6 9180   1.281   1.063  17.207 -0.0878 -0.0486 -0.2074
  616TMC3     C 9181   1.126   0.850  16.883 -0.1469  0.6362 -0.0715
  616TMC3     O 9182   1.182   0.741  16.859 -0.4004  0.0280 -0.4991
  616TMC3     H 9183   1.347   0.802  17.014 -1.5518 -0.3841 -1.2612
  616TMC3    H1 9184   1.011   1.063  17.001 -0.1124 -0.5879 -0.0641
  616TMC3    H2 9185   1.328   1.120  17.287 -0.3182  0.9004 -0.7489
  616TMC3    C7 9186   1.097   1.220  17.192 -0.0333 -0.2712 -0.0416
  616TMC3    C8 9187   1.461   0.902  17.230 -0.5764 -0.3217 -0.2593
  616TMC3    O1 9188   1.128   1.249  17.305  0.1561  0.5018  0.5692
  616TMC3    O2 9189   1.462   0.934  17.345 -0.2991 -0.4573 -0.2625
  617MPD2     C 9190   3.350   2.892  13.991  0.7674 -0.0032 -0.0819
  617MPD2    C1 9191   3.450   2.861  14.083 -0.0844 -0.3160 -0.8310
  617MPD2    C2 9192   3.438   2.738  14.145 -0.3869 -0.6681 -0.2063
  617MPD2    C3 9193   3.322   2.664  14.135  0.6547  0.7428 -0.2255
  617MPD2    C4 9194   3.226   2.700  14.049 -0.4873 -0.4658 -0.5209
  617MPD2    C5 9195   3.242   2.817  13.973 -0.1515 -0.2038  0.1860
  617MPD2     H 9196   3.517   2.691  14.203 -1.3758 -0.7317  1.0885
  617MPD2    H1 9197   3.131   2.650  14.031 -0.9955  0.7900 -1.3586
  617MPD2    H2 9198   3.367   2.979  13.929 -1.9957  1.1522  0.7701
  617MPD2    H3 9199   3.172   2.843  13.893  1.0281 -1.7455 -1.3382
  617MPD2     N 9200   3.295   2.547  14.201  0.0503  0.0736 -0.2700
  617MPD2    H5 9201   3.203   2.504  14.193 -0.0908  0.5618 -1.2455
  617MPD2    N1 9202   3.561   2.946  14.081 -0.0311  0.1055 -0.2134
  617MPD2    H7 9203   3.574   3.021  14.013  0.8473  2.0750  2.1419
  618TMC3    C1 9204   3.793   2.990  14.116  0.1400 -0.1120 -0.4853
  618TMC3    C2 9205   3.907   2.903  14.122  0.3669 -0.4385 -0.3530
  618TMC3    C3 9206   4.025   2.952  14.067  0.1549  0.1173  0.6594
  618TMC3    C4 9207   3.801   3.117  14.064  0.4443  0.4858 -0.0903
  618TMC3    C5 9208   3.925   3.165  14.030  0.2787 -0.6374 -0.1719
  618TMC3    C6 9209   4.041   3.086  14.031 -0.7169  0.0036 -0.3987
  618TMC3     C 9210   3.671   2.925  14.167  0.1977  0.4306 -0.5932
  618TMC3     O 9211   3.683   2.850  14.258 -0.3350  0.0310  0.3054
  618TMC3     H 9212   3.892   2.802  14.160  0.2632 -0.0583  0.6236
  618TMC3    H1 9213   3.711   3.178  14.064  0.0460 -0.0968  2.0303
  618TMC3    H2 9214   4.122   3.129  13.973 -0.7900  1.5684  0.6575
  618TMC3    C7 9215   3.937   3.304  13.981  0.1691 -0.2213 -0.0956
  618TMC3    C8 9216   4.089   2.845  13.996 -0.3208  0.6069 -0.4717
  618TMC3    O1 9217   3.910   3.389  14.064 -0.0089  0.0706 -0.0102
  618TMC3    O2 9218   4.013   2.751  13.969  0.2982 -0.5793 -0.8328
  619MPD2     C 9219   0.578   4.498  13.717  0.2151  0.6383  0.2568
  619MPD2    C1 9220   0.457   4.529  13.663  0.5314  0.1923  0.4094
  619MPD2    C2 9221   0.346   4.523  13.749  0.7871  0.3740 -0.5377
  619MPD2    C3 9222   0.368   4.513  13.886 -0.3126 -0.5191 -0.3280
  619MPD2    C4 9223   0.495   4.511  13.940 -0.1054 -0.8584  0.5707
  619MPD2    C5 9224   0.598   4.495  13.850 -0.4928  0.6827  0.1762
  619MPD2     H 9225   0.248   4.545  13.709  0.9236  0.1172 -1.0189
  619MPD2    H1 9226   0.524   4.498  14.044 -1.6498 -0.9830  0.9822
  619MPD2    H2 9227   0.671   4.490  13.662 -0.4743  0.5090 -0.8697
  619MPD2    H3 9228   0.697   4.491  13.894 -0.2112  1.4484 -0.3749
  619MPD2     N 9229   0.255   4.510  13.974 -0.1724  0.0285  0.0917
  619MPD2    H5 9230   0.281   4.551  14.063 -0.6963  2.5398 -0.8951
  619MPD2    N1 9231   0.448   4.549  13.520 -0.0617 -0.3260 -0.1580
  619MPD2    H7 9232   0.539   4.571  13.479  0.2058  1.6551  1.5019
  620TMC3    C1 9233   0.334   4.574  13.298 -0.0546 -0.1833 -0.0819
  620TMC3    C2 9234   0.203   4.594  13.252 -0.2384 -0.9338 -0.3173
  620TMC3    C3 9235   0.192   4.710  13.182  1.0755 -0.2014  0.2025
  620TMC3    C4 9236   0.446   4.643  13.250  0.4336 -0.3478 -0.4112
  620TMC3    C5 9237   0.423   0.033  13.197 -0.1807 -0.1854 -0.6858
  620TMC3    C6 9238   0.296   0.063  13.152  0.6598 -0.5539  0.6541
  620TMC3     C 9239   0.328   4.554  13.444 -0.0849  0.7029 -0.1502
  620TMC3     O 9240   0.216   4.563  13.488 -0.8963 -1.0562 -0.2244
  620TMC3     H 9241   0.113   4.550  13.292  1.1237 -2.8865  0.5620
  620TMC3    H1 9242   0.546   4.621  13.286  0.5654  0.4037 -0.3161
  620TMC3    H2 9243   0.271   0.154  13.100 -3.1753 -2.5322 -0.9345
  620TMC3    C7 9244   0.475   0.120  13.301  0.2080  0.6507 -0.6268
  620TMC3    C8 9245   0.078   0.053  13.225 -0.8836  0.2553  0.3032
  620TMC3    O1 9246   0.591   0.111  13.334 -0.4258  0.0529 -0.5642
  620TMC3    O2 9247   0.036   0.142  13.150  0.4723  0.1605 -0.1691
  621MPD2     C 9248   0.717   4.561  10.145  0.0458 -0.6045  0.3037
  621MPD2    C1 9249   0.829   4.513  10.211 -0.2307 -0.0206 -0.1454
  621MPD2    C2 9250   0.948   4.584  10.194 -0.3643  0.0053  0.5414
  621MPD2    C3 9251   0.952   4.714  10.146 -0.3349 -0.2308  0.2691
  621MPD2    C4 9252   0.828   0.025  10.087 -0.5822 -0.1433  0.0882
  621MPD2    C5 9253   0.717   4.681  10.082  0.1207 -0.1972  0.9220
  621MPD2     H 9254   1.036   4.534  10.233 -2.1216 -3.1448  0.4575
  621MPD2    H1 9255   0.819   0.119  10.034 -1.7131 -0.2166  0.1505
  621MPD2    H2 9256   0.624   4.505  10.144  0.1541 -0.7870  0.3796
  621MPD2    H3 9257   0.626   4.716  10.035 -0.6788 -2.0673  1.0924
  621MPD2     N 9258   1.070   0.063  10.157  0.0573 -0.0424 -0.4382
  621MPD2    H5 9259   1.143   0.029  10.219  0.6705 -0.4760 -1.3929
  621MPD2    N1 9260   0.829   4.394  10.291 -0.5142  0.6910 -0.1914
  621MPD2    H7 9261   0.920   4.361  10.322 -0.4902  0.9461  0.0047
  622TMC3    C1 9262   0.756   4.193  10.374 -0.5541  0.7243  0.1462
  622TMC3    C2 9263   0.641   4.156  10.439 -0.0888 -0.1295 -0.5799
  622TMC3    C3 9264   0.587   4.038  10.392 -0.7918 -0.3283 -0.4984
  622TMC3    C4 9265   0.822   4.125  10.274  0.3180  0.4353 -0.4344
  622TMC3    C5 9266   0.754   4.013  10.231  0.4874 -1.1930 -0.0590
  622TMC3    C6 9267   0.641   3.970  10.284 -0.0024  0.2116  0.0607
  622TMC3     C 9268   0.722   4.323  10.326 -0.1292 -0.5910 -0.0831
  622TMC3     O 9269   0.602   4.353  10.318 -0.3448  0.3564 -0.1263
  622TMC3     H 9270   0.596   4.226  10.508 -0.3120 -1.2064  0.3585
  622TMC3    H1 9271   0.927   4.142  10.252  0.3382 -0.3687 -0.9827
  622TMC3    H2 9272   0.597   3.874  10.262  3.1700 -1.4359  0.8606
  622TMC3    C7 9273   0.794   3.977  10.100 -0.7596  0.2940  0.6996
  622TMC3    C8 9274   0.448   4.013  10.412  0.1349  0.4987 -0.5351
  622TMC3    O1 9275   0.728   3.884  10.056 -0.4934 -0.1535 -0.0291
  622TMC3    O2 9276   0.405   3.904  10.378 -0.4665 -1.0177  0.2090
  623MPD2     C 9277   0.108   0.383  15.779 -0.3863  0.0453  0.2137
  623MPD2    C1 9278   0.045   0.320  15.884  1.2446  0.3560 -0.6352
  623MPD2    C2 9279   0.081   0.360  16.009 -0.1714  0.7461  0.3653
  623MPD2    C3 9280   0.178   0.451  16.036 -0.2354  0.1284 -0.2485
  623MPD2    C4 9281   0.239   0.515  15.932 -0.7186 -0.2321  0.7264
  623MPD2    C5 9282   0.206   0.483  15.798  0.1986  0.1457  0.0046
  623MPD2     H 9283   0.034   0.306  16.090  0.0059 -1.9910 -1.3302
  623MPD2    H1 9284   0.325   0.580  15.942  0.7233 -2.0865  0.4081
  623MPD2    H2 9285   0.085   0.350  15.678 -1.4008  0.2223  0.3851
  623MPD2    H3 9286   0.254   0.530  15.713 -0.7304 -0.5477 -0.8996
  623MPD2     N 9287   0.223   0.465  16.171  0.4394 -0.2752 -0.6100
  623MPD2    H5 9288   0.178   0.408  16.242  2.5726  0.6681  1.4844
  623MPD2    N1 9289   4.676   0.223  15.883 -0.1024  0.5042 -0.1431
  623MPD2    H7 9290   4.649   0.185  15.973  0.4873 -0.1785 -0.2567
  624TMC3    C1 9291   0.351   0.538  16.572 -0.6126  0.8267  0.1910
  624TMC3    C2 9292   0.279   0.432  16.614 -0.4962 -0.4859 -0.9968
  624TMC3    C3 9293   0.242   0.344  16.512  0.0429  0.0538 -0.5977
  624TMC3    C4 9294   0.393   0.565  16.444 -0.1733 -1.2163 -0.1230
  624TMC3    C5 9295   0.355   0.475  16.348 -0.1566  0.3111  0.3506
  624TMC3    C6 9296   0.278   0.362  16.380  0.0663 -0.2973  0.2846
  624TMC3     C 9297   0.450   0.575  16.672 -0.7372 -0.2804 -0.4394
  624TMC3     O 9298   0.469   0.510  16.773  0.0043 -0.3734  0.4875
  624TMC3     H 9299   0.257   0.428  16.720 -1.7780 -1.5487 -1.2988
  624TMC3    H1 9300   0.446   0.657  16.421 -2.4667  0.6366  1.9312
  624TMC3    H2 9301   0.263   0.283  16.307 -1.6117  0.1665  0.1234
  624TMC3    C7 9302   0.337   0.529  16.218  0.5854 -0.3037 -0.2754
  624TMC3    C8 9303   0.108   0.282  16.516 -0.2664  0.3034 -0.2112
  624TMC3    O1 9304   0.417   0.604  16.162 -0.0894 -0.4573  0.4882
  624TMC3    O2 9305   0.064   0.243  16.406  0.2662 -0.1680  0.4870
  625MPD2     C 9306   0.087   1.700   1.157  0.5563 -0.9262 -0.1576
  625MPD2    C1 9307   0.143   1.778   1.063 -0.0196 -0.1158 -0.0745
  625MPD2    C2 9308   0.272   1.763   1.023 -0.3976 -0.0759  0.9398
  625MPD2    C3 9309   0.355   1.664   1.081  0.0152  0.3079 -0.1163
  625MPD2    C4 9310   0.295   1.586   1.178 -0.3145 -0.0402 -0.1310
  625MPD2    C5 9311   0.167   1.605   1.215  0.3503 -0.1757  0.1532
  625MPD2     H 9312   0.316   1.827   0.947 -0.1146 -0.0481  1.1277
  625MPD2    H1 9313   0.360   1.512   1.225  1.8652  0.7901 -1.8159
  625MPD2    H2 9314   4.717   1.708   1.184  0.5738  1.4559 -0.8368
  625MPD2    H3 9315   0.119   1.539   1.287 -0.1327 -0.9876 -0.9211
  625MPD2     N 9316   0.488   1.654   1.049 -0.2349 -0.3139 -0.6295
  625MPD2    H5 9317   0.526   1.705   0.970 -1.1673  0.7913 -0.3550
  625MPD2    N1 9318   0.071   1.874   0.988  0.4689 -0.0577  0.2587
  625MPD2    H7 9319   0.120   1.924   0.914 -2.3877  1.2401 -0.7919
  626TMC3    C1 9320   4.678   2.069   0.956  0.4758  0.0563 -0.6202
  626TMC3    C2 9321   4.685   2.056   0.820 -0.1429  0.8896 -0.3677
  626TMC3    C3 9322   4.677   2.170   0.743  0.2893  0.4327 -0.0052
  626TMC3    C4 9323   4.678   2.188   1.021 -0.3652  0.0345 -0.1528
  626TMC3    C5 9324   4.672   2.304   0.938  0.4421  0.2514  0.0382
  626TMC3    C6 9325   4.686   2.297   0.802  0.1969 -0.6294  0.4077
  626TMC3     C 9326   4.699   1.952   1.037  0.0955  0.1907 -0.2299
  626TMC3     O 9327   4.643   1.948   1.148 -0.0450  0.5033 -0.3655
  626TMC3     H 9328   4.692   1.959   0.773 -0.6968  0.2816  0.7890
  626TMC3    H1 9329   4.664   2.191   1.128 -2.0154  1.7354 -0.4070
  626TMC3    H2 9330   4.682   2.392   0.751  1.5837 -0.4058  0.7052
  626TMC3    C7 9331   4.710   2.427   1.003 -0.3128 -0.2514  0.1042
  626TMC3    C8 9332   4.649   2.174   0.594  0.1847 -0.0955 -0.0249
  626TMC3    O1 9333   0.047   2.426   1.103 -0.1222  0.1640  0.0156
  626TMC3    O2 9334   4.676   2.275   0.533  0.3713 -0.1026  0.4637
  627MPD2     C 9335   3.823   1.396  14.594 -0.2010  0.1375 -0.3852
  627MPD2    C1 9336   3.753   1.415  14.711  0.1699 -0.1212  0.9276
  627MPD2    C2 9337   3.629   1.355  14.726 -0.6372 -0.3089  0.1929
  627MPD2    C3 9338   3.583   1.265  14.630 -0.9907  0.8956  0.3118
  627MPD2    C4 9339   3.660   1.237  14.516  0.0242 -0.1056 -0.2274
  627MPD2    C5 9340   3.775   1.317  14.496  0.1328 -0.8672  0.6258
  627MPD2     H 9341   3.565   1.358  14.814 -1.3648  1.1257 -0.3817
  627MPD2    H1 9342   3.618   1.168  14.443  0.3807 -1.3423  0.7253
  627MPD2    H2 9343   3.924   1.433  14.579 -0.8435  0.8667 -2.8799
  627MPD2    H3 9344   3.828   1.308  14.403 -0.2965  1.2241  0.1798
  627MPD2     N 9345   3.452   1.221  14.663 -0.3753 -0.4098  0.1630
  627MPD2    H5 9346   3.406   1.260  14.745 -1.9644 -2.1656  0.0948
  627MPD2    N1 9347   3.803   1.502  14.814 -0.2691  0.9195 -0.1021
  627MPD2    H7 9348   3.739   1.524  14.890 -3.1898 -0.5648 -2.1407
  628TMC3    C1 9349   3.944   1.627  14.941  0.0135  0.5887 -0.2246
  628TMC3    C2 9350   4.028   1.585  15.039  0.3407 -0.5702 -0.4653
  628TMC3    C3 9351   4.034   1.659  15.158 -0.3180 -0.5888  0.4445
  628TMC3    C4 9352   3.885   1.744  14.946  0.1437  0.0951  1.0565
  628TMC3    C5 9353   3.895   1.824  15.059  0.4538 -1.1656 -1.2155
  628TMC3    C6 9354   3.964   1.774  15.169  0.3129 -0.2123  0.1106
  628TMC3     C 9355   3.932   1.542  14.823 -1.2321  0.0784 -0.4441
  628TMC3     O 9356   4.044   1.509  14.779  0.4409 -0.8125  0.2868
  628TMC3     H 9357   4.103   1.509  15.021  0.9712 -0.1096  0.2282
  628TMC3    H1 9358   3.856   1.786  14.851  1.9947 -0.1779  0.3833
  628TMC3    H2 9359   3.998   1.853  15.235 -0.7057  1.1313 -0.9636
  628TMC3    C7 9360   3.864   1.962  15.051  0.3085 -0.5230  0.2614
  628TMC3    C8 9361   4.147   1.644  15.251  0.0334 -0.3791 -0.0292
  628TMC3    O1 9362   3.921   2.042  15.121 -0.6399 -0.4642 -0.3199
  628TMC3    O2 9363   4.208   1.745  15.290 -0.2557  0.3277  0.2133
  629MPD2     C 9364   1.903   0.652  17.268  0.5529  0.5860 -0.4509
  629MPD2    C1 9365   1.897   0.698  17.137  0.6264  0.3309 -0.5822
  629MPD2    C2 9366   1.778   0.755  17.093 -0.3906 -0.1452 -1.4654
  629MPD2    C3 9367   1.684   0.791  17.191  0.9117 -0.0992 -0.2684
  629MPD2    C4 9368   1.710   0.774  17.323 -0.7404 -0.0856 -0.3918
  629MPD2    C5 9369   1.819   0.698  17.358 -0.4631 -0.1855  0.3078
  629MPD2     H 9370   1.749   0.780  16.991 -0.8206  1.9662 -0.8313
  629MPD2    H1 9371   1.643   0.803  17.404 -0.2443  1.2643 -0.4775
  629MPD2    H2 9372   1.985   0.587  17.293 -0.6193 -0.1058  1.5675
  629MPD2    H3 9373   1.821   0.666  17.462  1.6905 -0.4843  0.1649
  629MPD2     N 9374   1.559   0.841  17.153  0.0360 -0.2452 -0.1549
  629MPD2    H5 9375   1.557   0.847  17.052  0.7528 -0.4578 -0.1796
  629MPD2    N1 9376   2.001   0.667  17.056  0.2094  0.1618 -0.3055
  629MPD2    H7 9377   2.065   0.599  17.096 -2.6915 -1.1131  2.1209
  630TMC3    C1 9378   2.137   0.665  16.856  1.2076  0.0875 -0.5436
  630TMC3    C2 9379   2.204   0.751  16.769 -0.5802 -0.1185 -0.8146
  630TMC3    C3 9380   2.303   0.688  16.696 -0.3466 -0.0897 -0.1297
  630TMC3    C4 9381   2.146   0.531  16.862 -0.6512 -0.7259  0.1201
  630TMC3    C5 9382   2.232   0.477  16.774 -0.7094 -0.2239 -0.0686
  630TMC3    C6 9383   2.314   0.551  16.690  0.0824 -0.3929  0.9066
  630TMC3     C 9384   2.021   0.719  16.928 -0.5750  0.1457  0.0755
  630TMC3     O 9385   1.970   0.820  16.877 -0.5893  0.3276 -0.3566
  630TMC3     H 9386   2.186   0.858  16.770 -0.4549 -0.1096  0.9919
  630TMC3    H1 9387   2.076   0.468  16.915 -0.1261 -1.8905 -0.5870
  630TMC3    H2 9388   2.383   0.504  16.621 -0.5777 -1.5495  1.0420
  630TMC3    C7 9389   2.241   0.333  16.786  0.2963 -0.1270  0.6040
  630TMC3    C8 9390   2.406   0.763  16.623 -0.7578 -0.0673  0.8854
  630TMC3    O1 9391   2.143   0.278  16.836  0.1595 -0.4493  0.3397
  630TMC3    O2 9392   2.498   0.695  16.580  0.3250 -0.4556 -0.4284
  631MPD2     C 9393   0.995   1.281  15.411  0.0248 -0.0604 -0.3775
  631MPD2    C1 9394   0.911   1.182  15.463  0.1813  0.9086  0.0098
  631MPD2    C2 9395   0.859   1.203  15.597  1.0264  1.2008 -0.2801
  631MPD2    C3 9396   0.930   1.287  15.684  0.0552  0.8034 -0.0508
  631MPD2    C4 9397   1.036   1.364  15.637  0.3705 -0.4470 -0.1973
  631MPD2    C5 9398   1.063   1.363  15.497 -0.7030  0.0387 -0.3968
  631MPD2     H 9399   0.776   1.145  15.637  0.4632  2.2910  0.1293
  631MPD2    H1 9400   1.099   1.422  15.703  1.2443 -2.2026  0.5337
  631MPD2    H2 9401   1.032   1.282  15.309  3.3830  0.6492  0.8210
  631MPD2    H3 9402   1.135   1.428  15.450 -2.2608  3.1405  1.5027
  631MPD2     N 9403   0.879   1.291  15.814  0.4632  0.1086  0.4641
  631MPD2    H5 9404   0.791   1.244  15.834  2.1407 -1.6507  3.6970
  631MPD2    N1 9405   0.858   1.083  15.375 -0.0489  0.2070  0.5221
  631MPD2    H7 9406   0.884   1.091  15.277 -1.5956  0.0165  0.1045
  632TMC3    C1 9407   0.730   0.895  15.312 -0.7354 -0.0932  0.2640
  632TMC3    C2 9408   0.661   0.781  15.337  0.6228 -0.0221 -0.1410
  632TMC3    C3 9409   0.617   0.701  15.232  0.0786 -0.0264  0.0210
  632TMC3    C4 9410   0.746   0.934  15.180 -0.0963  0.5316 -0.0756
  632TMC3    C5 9411   0.689   0.862  15.085  0.4130 -0.4964  0.0678
  632TMC3    C6 9412   0.629   0.739  15.101  0.3832  0.5338 -0.4372
  632TMC3     C 9413   0.773   0.983  15.416  0.3855  0.6231 -0.1115
  632TMC3     O 9414   0.741   0.952  15.531 -0.8010  0.2733 -0.2954
  632TMC3     H 9415   0.652   0.747  15.439 -0.3158  2.1273  0.4866
  632TMC3    H1 9416   0.798   1.025  15.154  1.0904  0.2450  1.3040
  632TMC3    H2 9417   0.587   0.688  15.015 -0.1130  1.1606 -0.5714
  632TMC3    C7 9418   0.691   0.906  14.948 -0.8287  0.5204  0.1793
  632TMC3    C8 9419   0.505   0.622  15.266  0.1217  0.4164 -0.3416
  632TMC3    O1 9420   0.584   0.896  14.888  0.2453  0.2981 -0.5256
  632TMC3    O2 9421   0.460   0.638  15.379 -0.3478  0.2719  0.2989
  633MPD2     C 9422   0.005   3.404  17.583 -0.0589  0.2923 -0.2600
  633MPD2    C1 9423   4.715   3.320  17.483 -0.2089 -0.9635  0.4709
  633MPD2    C2 9424   4.726   3.187  17.514  0.7429 -0.2920  0.4651
  633MPD2    C3 9425   0.032   3.142  17.646  0.0927  0.9011 -0.6054
  633MPD2    C4 9426   0.040   3.236   0.010  0.0868  0.5052  0.7255
  633MPD2    C5 9427   0.030   3.364  17.709  0.3785 -0.3198 -0.0798
  633MPD2     H 9428   4.716   3.114  17.435  0.3548  0.6716 -0.3621
  633MPD2    H1 9429   0.081   3.220   0.109 -0.5574 -2.3954  0.4983
  633MPD2    H2 9430   0.014   3.510  17.564  0.3775 -0.1145 -2.2958
  633MPD2    H3 9431   0.049   3.438   0.050 -1.1324  0.0964 -0.1059
  633MPD2     N 9432   0.073   3.007  17.683  0.1381 -0.1267  0.2121
  633MPD2    H5 9433   0.077   2.974   0.042  1.9638  0.5480  0.3674
  633MPD2    N1 9434   4.661   3.368  17.359 -0.1156  0.0601  0.6537
  633MPD2    H7 9435   4.654   3.302  17.282  1.5527  0.2398  0.3383
  634TMC3    C1 9436   4.557   3.505  17.197 -0.0024  0.0747 -0.3616
  634TMC3    C2 9437   4.541   3.395  17.118  0.4864 -0.7421 -0.7504
  634TMC3    C3 9438   4.549   3.421  16.988  0.9670 -0.6993  0.2491
  634TMC3    C4 9439   4.534   3.634  17.147  0.1949  0.6163 -0.5181
  634TMC3    C5 9440   4.538   3.643  17.012 -0.0211 -0.3623  0.4725
  634TMC3    C6 9441   4.535   3.542  16.927  0.1773 -0.4264 -0.2701
  634TMC3     C 9442   4.604   3.499  17.333 -0.6940  0.2806 -1.0396
  634TMC3     O 9443   4.568   3.588  17.404 -0.8864 -0.5590  0.3874
  634TMC3     H 9444   4.536   3.291  17.151 -1.3633  0.0750  1.5628
  634TMC3    H1 9445   4.547   3.714  17.219 -1.4181 -1.1798  1.8289
  634TMC3    H2 9446   4.530   3.565  16.822  0.4741  0.1458 -0.1615
  634TMC3    C7 9447   4.542   3.778  16.958  0.0446  0.1256  0.2622
  634TMC3    C8 9448   4.573   3.306  16.904 -0.0539  0.1780  0.4966
  634TMC3    O1 9449   4.603   3.785  16.852  0.0254 -0.1352  0.1589
  634TMC3    O2 9450   4.661   3.231  16.946  0.5367  0.0451  0.2631
  635TMC3    C1 9451   4.576   4.505   0.337 -0.4185  0.6199  0.1472
  635TMC3    C2 9452   4.628   4.407   0.248  0.3129 -0.2627  0.5705
  635TMC3    C3 9453   4.560   4.284   0.247 -0.6559  0.5592  0.0158
  635TMC3    C4 9454   4.475   4.480   0.423 -0.0090  0.1145 -0.1364
  635TMC3    C5 9455   4.408   4.361   0.406  0.3813 -0.6916  0.7788
  635TMC3    C6 9456   4.444   4.265   0.324 -0.2962 -0.0606  0.1939
  635TMC3     C 9457   4.637   4.636   0.356  0.3882  0.0654 -0.0882
  635TMC3     O 9458   4.598   4.704   0.452  0.1194 -0.3628 -0.0252
  635TMC3     H 9459   4.720   4.437   0.199  0.3602 -1.9707 -0.3987
  635TMC3    H1 9460   4.429   4.564   0.474 -1.6051 -1.3117  0.7867
  635TMC3    H2 9461   4.380   4.177   0.326 -1.9813  1.1822  0.5879
  635TMC3    C7 9462   4.285   4.350   0.482 -0.0633 -0.2494 -0.1572
  635TMC3    C8 9463   4.598   4.189   0.150 -0.6542 -0.7734  0.2151
  635TMC3    O1 9464   4.188   4.289   0.431 -0.1703 -0.4812  0.0795
  635TMC3    O2 9465   4.649   4.227   0.043 -0.3486  0.0547 -0.7063
  636MPD2     C 9466   1.275   3.310  15.460  0.5913 -0.8797 -0.1168
  636MPD2    C1 9467   1.275   3.283  15.587  0.9172 -0.1903 -0.5661
  636MPD2    C2 9468   1.281   3.150  15.619  0.3094  0.2331 -0.0328
  636MPD2    C3 9469   1.292   3.048  15.528 -0.3032 -0.5693 -0.5677
  636MPD2    C4 9470   1.296   3.078  15.391  0.2228  0.2892  0.2241
  636MPD2    C5 9471   1.288   3.215  15.361  0.2125 -1.1281 -0.1194
  636MPD2     H 9472   1.269   3.125  15.724  2.6372  1.4249  0.5234
  636MPD2    H1 9473   1.297   3.003  15.313 -3.7905  0.7723 -0.2619
  636MPD2    H2 9474   1.249   3.405  15.414  1.6173  0.4050  2.0081
  636MPD2    H3 9475   1.296   3.252  15.259  0.7077 -0.6830  0.0792
  636MPD2     N 9476   1.307   2.917  15.577 -0.2775 -0.6913  0.1336
  636MPD2    H5 9477   1.308   2.902  15.677  1.0303 -0.9158  0.0864
  636MPD2    N1 9478   1.259   3.378  15.701 -0.6855  0.4331 -0.0205
  636MPD2    H7 9479   1.255   3.347  15.797  0.0164 -0.5469 -0.3125
  637TMC3    C1 9480   1.365   2.691  15.572 -0.4089 -0.1947  0.4882
  637TMC3    C2 9481   1.310   2.690  15.691 -0.2540 -0.0393  0.2689
  637TMC3    C3 9482   1.381   2.639  15.797  1.1363  0.3885  0.4770
  637TMC3    C4 9483   1.498   2.648  15.554  0.0578 -0.2880 -0.5498
  637TMC3    C5 9484   1.564   2.596  15.663  0.2060  0.6356  0.4459
  637TMC3    C6 9485   1.506   2.586  15.780 -0.0952 -0.9381 -0.6007
  637TMC3     C 9486   1.337   2.811  15.498  0.0637 -0.3307  0.5014
  637TMC3     O 9487   1.350   2.798  15.375 -0.0982  0.0492  0.0059
  637TMC3     H 9488   1.213   2.736  15.703  0.5840  1.9742 -0.6570
  637TMC3    H1 9489   1.547   2.689  15.466 -0.2684 -0.0693 -0.6277
  637TMC3    H2 9490   1.555   2.547  15.869 -1.1790  0.7330  0.7360
  637TMC3    C7 9491   1.710   2.632  15.673  0.0846 -0.4664 -0.1026
  637TMC3    C8 9492   1.372   2.732  15.908  0.1217 -0.1942  0.4850
  637TMC3    O1 9493   1.755   2.635  15.782 -0.3790 -0.2791  0.6748
  637TMC3    O2 9494   1.349   2.848  15.878  0.6576 -0.3798  0.2238
  638MPD2     C 9495   1.008   2.637  14.623 -0.7467 -0.0041 -0.0364
  638MPD2    C1 9496   0.960   2.521  14.559 -0.4261 -0.6391  0.4979
  638MPD2    C2 9497   0.935   2.415  14.639 -0.4546 -0.1380  0.4751
  638MPD2    C3 9498   0.944   2.415  14.781  0.7932 -0.1702 -0.2228
  638MPD2    C4 9499   0.976   2.536  14.839 -0.6209 -0.1252  0.0935
  638MPD2    C5 9500   1.004   2.640  14.761  0.1823  0.1914  0.2558
  638MPD2     H 9501   0.922   2.322  14.585  0.2123  0.3757 -0.5721
  638MPD2    H1 9502   0.975   2.551  14.946 -0.9904 -0.6808  0.1682
  638MPD2    H2 9503   1.028   2.731  14.571  1.2152 -0.4500 -0.0941
  638MPD2    H3 9504   1.015   2.739  14.802  0.7188  0.3443 -0.2649
  638MPD2     N 9505   0.924   2.296  14.851  0.5924  0.5062 -0.1069
  638MPD2    H5 9506   0.925   2.211  14.796  2.6371  1.2152 -1.1572
  638MPD2    N1 9507   0.933   2.503  14.425  0.5892 -0.2366  0.7946
  638MPD2    H7 9508   0.917   2.405  14.404  1.1982 -0.2467  0.3800
  639TMC3    C1 9509   0.856   2.145  15.019 -0.6351  0.5303 -0.2193
  639TMC3    C2 9510   0.790   2.071  14.920 -0.2067 -0.1277 -0.8212
  639TMC3    C3 9511   0.782   1.937  14.952 -0.3027 -0.0220 -0.0212
  639TMC3    C4 9512   0.900   2.086  15.134 -0.3514  0.2284  0.5555
  639TMC3    C5 9513   0.895   1.953  15.157  0.1596 -0.1359  0.1741
  639TMC3    C6 9514   0.827   1.868  15.070  0.3275  0.2335  0.1704
  639TMC3     C 9515   0.903   2.280  14.982  0.8166  0.8786  0.1477
  639TMC3     O 9516   0.908   2.366  15.067 -0.2789  0.0500  0.3020
  639TMC3     H 9517   0.760   2.103  14.821 -2.8824 -0.6197 -0.1626
  639TMC3    H1 9518   0.961   2.140  15.205  0.4305  1.3680 -0.9645
  639TMC3    H2 9519   0.820   1.763  15.096  0.3616  0.3213  0.5352
  639TMC3    C7 9520   1.013   1.889  15.218  0.4499  0.2588 -0.3187
  639TMC3    C8 9521   0.727   1.854  14.853  0.0057 -0.3001  0.1142
  639TMC3    O1 9522   0.992   1.781  15.261 -0.5847 -0.6316  0.8581
  639TMC3    O2 9523   0.778   1.866  14.742  0.4816 -0.1766  0.1121
  640MPD2     C 9524   1.974   1.840   9.867 -0.1632 -0.1203 -0.1941
  640MPD2    C1 9525   1.861   1.768   9.852 -0.7378 -0.2097 -0.3134
  640MPD2    C2 9526   1.745   1.833   9.874 -0.1063  0.6582 -0.7496
  640MPD2    C3 9527   1.741   1.956   9.928 -0.6596  0.2402 -0.0841
  640MPD2    C4 9528   1.856   2.035   9.941 -0.3030  0.3256  0.2631
  640MPD2    C5 9529   1.970   1.973   9.908  0.3560 -0.4666  1.2320
  640MPD2     H 9530   1.656   1.771   9.870  0.2719  0.0196  1.0956
  640MPD2    H1 9531   1.844   2.136   9.979  0.1675  0.7972 -0.8505
  640MPD2    H2 9532   2.071   1.801   9.838  1.2820  3.0143  0.3413
  640MPD2    H3 9533   2.065   2.027   9.912 -0.3141  0.7413  0.7874
  640MPD2     N 9534   1.619   2.019   9.970 -0.0453 -0.2627 -0.1923
  640MPD2    H5 9535   1.627   2.118   9.990  0.9626 -0.1611 -1.1012
  640MPD2    N1 9536   1.861   1.642   9.798 -0.4590 -0.3524 -0.1944
  640MPD2    H7 9537   1.771   1.606   9.769  1.1699 -2.9864 -2.0670
  641TMC3    C1 9538   1.932   1.435   9.725 -0.2129 -0.4391 -0.5530
  641TMC3    C2 9539   1.991   1.325   9.783  0.0601  0.5484 -0.1362
  641TMC3    C3 9540   1.928   1.204   9.759 -0.7045 -0.9472 -0.6220
  641TMC3    C4 9541   1.825   1.429   9.643  0.5578 -0.6157  0.0298
  641TMC3    C5 9542   1.768   1.302   9.627  0.3129 -0.2310 -0.1090
  641TMC3    C6 9543   1.817   1.190   9.679  0.6413 -0.9997 -0.5104
  641TMC3     C 9544   1.965   1.560   9.787 -0.5763 -0.0752 -0.4398
  641TMC3     O 9545   2.069   1.575   9.844  0.2713 -0.3093 -0.5886
  641TMC3     H 9546   2.071   1.338   9.855 -0.3822  0.5671  0.3491
  641TMC3    H1 9547   1.780   1.514   9.594  0.7879  0.1892  1.2157
  641TMC3    H2 9548   1.784   1.091   9.649  1.5799 -1.9678  1.6758
  641TMC3    C7 9549   1.662   1.291   9.524 -0.5075  0.6558  0.1942
  641TMC3    C8 9550   1.985   1.078   9.817  0.1311 -0.8802  0.4620
  641TMC3    O1 9551   1.670   1.373   9.434  0.2074 -0.2517  0.4723
  641TMC3    O2 9552   1.916   0.975   9.797 -0.0522 -0.0518 -0.3807
  642TMC3    C1 9553   2.602   2.037  12.400 -0.1707  0.3636 -0.2732
  642TMC3    C2 9554   2.699   2.052  12.311 -1.2555  0.6715  0.0048
  642TMC3    C3 9555   2.761   1.948  12.256  0.1943  0.2409 -0.7135
  642TMC3    C4 9556   2.565   1.918  12.446 -0.8765  0.5365 -0.5511
  642TMC3    C5 9557   2.629   1.814  12.395 -1.0183 -0.8538 -0.8474
  642TMC3    C6 9558   2.731   1.820  12.303 -0.6571  0.1100 -0.1916
  642TMC3     C 9559   2.536   2.148  12.457  0.1383 -0.4269 -0.4390
  642TMC3     O 9560   2.601   2.247  12.481  0.8316 -0.0770  0.3672
  642TMC3     H 9561   2.714   2.150  12.265 -0.0322  0.6062  0.2745
  642TMC3    H1 9562   2.500   1.915  12.533 -0.3266  1.4645 -0.0975
  642TMC3    H2 9563   2.786   1.738  12.260 -1.8988  0.0051 -1.5862
  642TMC3    C7 9564   2.576   1.682  12.422  0.6399  0.1305  0.0134
  642TMC3    C8 9565   2.809   1.946  12.116 -0.4149  0.3515  0.5590
  642TMC3    O1 9566   2.644   1.590  12.381  0.1108  0.6243 -0.1553
  642TMC3    O2 9567   2.790   1.851  12.042 -0.8543  0.0321  0.3485
  643TMC3    C1 9568   2.011   1.412   0.316 -0.0480 -0.2372 -0.6035
  643TMC3    C2 9569   1.883   1.455   0.292  0.0536  0.0672 -0.3820
  643TMC3    C3 9570   1.808   1.390   0.199  0.2849  0.0022  0.0146
  643TMC3    C4 9571   2.073   1.317   0.237  0.4824 -0.0624  0.2848
  643TMC3    C5 9572   2.004   1.266   0.128 -0.5332 -0.6995  0.2720
  643TMC3    C6 9573   1.869   1.299   0.113  0.1841 -0.2702 -0.0308
  643TMC3     C 9574   2.085   1.496   0.402 -0.0785 -0.0512 -0.3387
  643TMC3     O 9575   2.024   1.590   0.450  0.0256 -0.3809  0.0709
  643TMC3     H 9576   1.833   1.519   0.363  0.4665  0.5972 -0.5651
  643TMC3    H1 9577   2.180   1.297   0.233  0.4509  0.0081 -1.1557
  643TMC3    H2 9578   1.817   1.263   0.026  0.0013  2.3548 -1.0131
  643TMC3    C7 9579   2.079   1.219   0.010 -1.0018  0.1149 -0.5954
  643TMC3    C8 9580   1.705   1.458   0.123 -0.1524  0.3711  0.0051
  643TMC3    O1 9581   2.193   1.255   0.006  0.3377 -0.4281 -0.2768
  643TMC3    O2 9582   1.649   1.396   0.037 -0.3885  0.0761  0.0485
  644MPD2     C 9583   1.524   2.251   9.709  0.2619 -1.0224 -0.5640
  644MPD2    C1 9584   1.661   2.252   9.694 -0.5079  0.5202 -0.7043
  644MPD2    C2 9585   1.732   2.361   9.742  0.2529  0.7819  0.2546
  644MPD2    C3 9586   1.667   2.464   9.812  0.1054  0.0514  0.8561
  644MPD2    C4 9587   1.530   2.467   9.820 -0.0571 -0.1074 -0.2473
  644MPD2    C5 9588   1.458   2.362   9.766  0.3007 -0.4378  0.0704
  644MPD2     H 9589   1.841   2.363   9.737  0.3335  0.5924  1.7203
  644MPD2    H1 9590   1.469   2.542   9.869  1.4207  1.1156 -0.3137
  644MPD2    H2 9591   1.458   2.177   9.666 -1.5508  1.2840 -1.7066
  644MPD2    H3 9592   1.351   2.357   9.781  0.1399 -2.4720 -1.6641
  644MPD2     N 9593   1.751   2.561   9.873  0.1196 -0.1683  0.3220
  644MPD2    H5 9594   1.850   2.559   9.850 -0.0938 -3.1782 -0.3736
  644MPD2    N1 9595   1.717   2.145   9.632  0.1564 -0.2683 -0.4311
  644MPD2    H7 9596   1.656   2.074   9.593  0.9929 -1.1441 -0.1615
  645TMC3    C1 9597   1.812   2.704  10.053 -0.2375 -0.2840  0.2139
  645TMC3    C2 9598   1.785   2.715  10.187 -0.4773 -0.0053 -0.3796
  645TMC3    C3 9599   1.827   2.818  10.263  1.0298  0.3449  0.5994
  645TMC3    C4 9600   1.872   2.804   9.988 -0.3284 -0.3578 -0.1757
  645TMC3    C5 9601   1.932   2.899  10.070  0.0144  0.5784  0.4006
  645TMC3    C6 9602   1.905   2.913  10.209  0.2389  0.4565  0.7447
  645TMC3     C 9603   1.703   2.637   9.980  0.1237  0.5603 -0.2709
  645TMC3     O 9604   1.607   2.624  10.047  0.8650  0.2676 -0.7836
  645TMC3     H 9605   1.725   2.643  10.242 -1.2697  0.4110 -0.6912
  645TMC3    H1 9606   1.896   2.805   9.882 -1.5159  1.1048 -0.4217
  645TMC3    H2 9607   1.955   2.986  10.272  0.7086 -0.0064  0.9034
  645TMC3    C7 9608   2.003   3.004   9.998 -0.6656  0.0285  0.4081
  645TMC3    C8 9609   1.800   2.826  10.404  0.0574  0.4360  0.9055
  645TMC3    O1 9610   2.067   2.971   9.898 -0.1070 -0.6315  0.3233
  645TMC3    O2 9611   1.862   2.913  10.462 -0.2432 -0.0655 -0.4396
  646MPD2     C 9612   1.414   1.165  14.566  0.2845 -0.4299  0.5970
  646MPD2    C1 9613   1.325   1.245  14.627 -0.3876  1.3724  0.0747
  646MPD2    C2 9614   1.218   1.292  14.555  0.3881  0.1833 -0.2147
  646MPD2    C3 9615   1.213   1.286  14.415 -0.8404  0.5927  0.0460
  646MPD2    C4 9616   1.318   1.225  14.353  0.2285 -0.0256  0.1148
  646MPD2    C5 9617   1.404   1.151  14.425 -0.5706 -0.0708  0.3263
  646MPD2     H 9618   1.140   1.349  14.605 -2.4647 -2.9364 -1.0539
  646MPD2    H1 9619   1.341   1.242  14.248  0.9440 -0.8529  0.1309
  646MPD2    H2 9620   1.496   1.109  14.609  0.3961 -1.4570 -0.9270
  646MPD2    H3 9621   1.481   1.094  14.374  1.0908  1.2411  1.3482
  646MPD2     N 9622   1.094   1.330  14.358  0.4088  0.0084 -0.6771
  646MPD2    H5 9623   1.031   1.385  14.416  0.4363 -1.0989  0.4041
  646MPD2    N1 9624   1.349   1.269  14.761  0.1488  0.1771 -0.3886
  646MPD2    H7 9625   1.442   1.240  14.788 -1.1321 -2.3929  1.3225
  647TMC3    C1 9626   1.293   1.287  14.988  0.0750  0.2639  0.1851
  647TMC3    C2 9627   1.189   1.231  15.059 -0.1035 -0.4303 -0.5558
  647TMC3    C3 9628   1.220   1.141  15.159  0.6161  0.1763  0.4606
  647TMC3    C4 9629   1.423   1.277  15.021  0.7628  0.3747 -0.0246
  647TMC3    C5 9630   1.449   1.182  15.117  0.0637 -0.1492 -0.1442
  647TMC3    C6 9631   1.354   1.113  15.182  0.2559 -0.6087  0.1910
  647TMC3     C 9632   1.257   1.324  14.851  0.1060 -0.5384  0.6054
  647TMC3     O 9633   1.138   1.341  14.838 -0.2577 -0.2396 -0.3897
  647TMC3     H 9634   1.083   1.251  15.041 -0.4818 -0.2711  1.9004
  647TMC3    H1 9635   1.498   1.317  14.953  1.0180  1.4983  0.9253
  647TMC3    H2 9636   1.385   1.049  15.263  0.3684 -0.8191 -0.0198
  647TMC3    C7 9637   1.585   1.167  15.154 -0.1479  0.2644 -0.2452
  647TMC3    C8 9638   1.121   1.033  15.171 -0.8964  0.3876  0.1712
  647TMC3    O1 9639   1.614   1.061  15.209  0.4101  0.2883  0.1477
  647TMC3    O2 9640   1.028   1.028  15.092 -0.3334 -0.1485 -0.0639
  648TMC3    C1 9641   0.587   3.489  16.413 -0.2011 -0.4438 -0.7860
  648TMC3    C2 9642   0.654   3.370  16.377  0.0822 -0.6736 -0.0065
  648TMC3    C3 9643   0.675   3.350  16.244 -1.4878 -0.2143 -0.9404
  648TMC3    C4 9644   0.549   3.581  16.316 -0.1916  0.0430 -0.7790
  648TMC3    C5 9645   0.570   3.551  16.186  0.5383 -0.0034  0.3392
  648TMC3    C6 9646   0.639   3.440  16.144 -0.3297  0.7101 -0.0744
  648TMC3     C 9647   0.547   3.517  16.553  0.3684 -0.4274 -0.7144
  648TMC3     O 9648   0.565   3.638  16.581 -0.1048 -0.1337  0.0470
  648TMC3     H 9649   0.696   3.310  16.457 -0.6343 -1.4522 -0.2182
  648TMC3    H1 9650   0.494   3.665  16.357 -0.0845 -0.7206  0.9338
  648TMC3    H2 9651   0.647   3.411  16.040 -1.8543 -0.4094  0.1108
  648TMC3    C7 9652   0.491   3.627  16.080 -0.3319  0.3873 -0.2188
  648TMC3    C8 9653   0.766   3.237  16.215  0.0412 -0.3336  0.5811
  648TMC3    O1 9654   0.528   3.621  15.965 -0.3656  0.0665  0.1875
  648TMC3    O2 9655   0.829   3.195  16.304  0.5193  0.2258  0.5583
  649TMC3    C1 9656   4.134   4.692  12.851  0.8619  0.2394 -0.4292
  649TMC3    C2 9657   4.235   4.621  12.800 -0.1741 -0.9574 -0.0733
  649TMC3    C3 9658   4.287   4.518  12.878  0.0844  0.0214  0.9241
  649TMC3    C4 9659   4.080   4.668  12.972  0.2345 -0.4988  0.0175
  649TMC3    C5 9660   4.132   4.563  13.040 -0.1518  0.2502 -0.2764
  649TMC3    C6 9661   4.244   4.495  13.003 -0.7036 -0.4816 -0.8722
  649TMC3     C 9662   4.070   0.060  12.777  0.1991  0.3611 -0.3100
  649TMC3     O 9663   4.013   0.155  12.833  0.5297  0.6027 -0.1492
  649TMC3     H 9664   4.273   4.649  12.702  0.7139  2.9620  1.4009
  649TMC3    H1 9665   3.987   4.713  13.005  0.4960  0.0130  0.0538
  649TMC3    H2 9666   4.299   4.423  13.062  0.1168 -0.6475 -1.8494
  649TMC3    C7 9667   4.061   4.510  13.151  1.0434 -0.4443 -0.8636
  649TMC3    C8 9668   4.411   4.460  12.834 -0.3840 -0.1682  0.0196
  649TMC3    O1 9669   3.948   4.551  13.160 -0.3177 -0.1640 -1.6593
  649TMC3    O2 9670   4.440   4.351  12.883  0.0920 -0.4779 -0.3406
  650TMC3    C1 9671   1.505   0.996  12.681  0.0533  0.2827 -0.4681
  650TMC3    C2 9672   1.466   1.122  12.706 -0.1745 -0.5153 -0.6579
  650TMC3    C3 9673   1.517   1.211  12.612 -0.5338  0.0350  0.0216
  650TMC3    C4 9674   1.580   0.960  12.575  0.0870 -0.5360  0.5854
  650TMC3    C5 9675   1.618   1.053  12.487 -0.3034  0.1519  0.6316
  650TMC3    C6 9676   1.588   1.181  12.502 -0.2542 -0.1572  0.0024
  650TMC3     C 9677   1.482   0.903  12.789  0.0123  0.3852 -0.1870
  650TMC3     O 9678   1.384   0.924  12.857 -0.6810 -0.6469 -0.1013
  650TMC3     H 9679   1.398   1.147  12.786  1.2707 -0.7940  0.6614
  650TMC3    H1 9680   1.609   0.857  12.558 -0.7019 -0.4274 -1.4081
  650TMC3    H2 9681   1.617   1.252  12.425 -1.0859 -1.1028 -1.1838
  650TMC3    C7 9682   1.679   1.008  12.371 -0.1515  0.4316  0.1193
  650TMC3    C8 9683   1.516   1.352  12.640  0.4923  0.5307 -1.5442
  650TMC3    O1 9684   1.753   0.911  12.380 -0.0845 -0.2475 -0.6748
  650TMC3    O2 9685   1.608   1.416  12.595 -0.3254  0.3034  0.1832
  651MPD2     C 9686   0.339   3.443  10.527 -0.1761  0.4154  0.1992
  651MPD2    C1 9687   0.336   3.555  10.596 -0.6390 -0.5067 -0.1985
  651MPD2    C2 9688   0.438   3.644  10.584  0.2884 -0.1461  0.4613
  651MPD2    C3 9689   0.554   3.608  10.527  0.0648  0.1313 -0.6016
  651MPD2    C4 9690   0.565   3.485  10.471  0.1292 -0.1536  0.2151
  651MPD2    C5 9691   0.453   3.406  10.465 -1.2497 -0.1154 -0.4795
  651MPD2     H 9692   0.431   3.743  10.629  0.8939  0.5577 -0.9925
  651MPD2    H1 9693   0.645   3.457  10.403  0.7584  2.7827 -0.2176
  651MPD2    H2 9694   0.248   3.384  10.521  0.9027 -0.9457 -2.7042
  651MPD2    H3 9695   0.442   3.316  10.405  2.7189 -0.0303 -1.3451
  651MPD2     N 9696   0.659   3.706  10.526  0.8516 -0.3676 -0.3132
  651MPD2    H5 9697   0.639   3.790  10.579  0.7777  0.1725 -1.1887
  651MPD2    N1 9698   0.219   3.609  10.658 -0.3100  0.0120  0.0481
  651MPD2    H7 9699   0.217   3.706  10.688  0.4646 -0.9249  3.0946
  652TMC3    C1 9700   1.052   3.935  10.451  0.5313  0.1065 -0.1418
  652TMC3    C2 9701   0.959   3.838  10.413 -0.4525 -0.3748 -0.3592
  652TMC3    C3 9702   0.862   3.805  10.507 -0.9242 -0.7155 -0.1747
  652TMC3    C4 9703   1.046   3.984  10.578 -0.5083 -0.2279 -0.2403
  652TMC3    C5 9704   0.950   3.938  10.673  0.0423  0.0643  0.1436
  652TMC3    C6 9705   0.849   3.852  10.635  0.1154  0.3904 -0.3829
  652TMC3     C 9706   1.166   3.948  10.368  0.1699  0.7585 -0.0521
  652TMC3     O 9707   1.161   3.955  10.247  0.1045  0.0078  0.4645
  652TMC3     H 9708   0.974   3.787  10.318 -0.2126 -2.6211  0.8885
  652TMC3    H1 9709   1.132   4.040  10.613  0.1318  0.1370 -2.3778
  652TMC3    H2 9710   0.781   3.812  10.709  0.1541  1.7393  0.3824
  652TMC3    C7 9711   0.967   3.966  10.818  0.2031  0.1929 -0.7085
  652TMC3    C8 9712   0.784   3.690  10.478 -0.4844 -0.0337 -0.6627
  652TMC3    O1 9713   0.909   3.894  10.897  0.3150  0.0218 -0.3699
  652TMC3    O2 9714   0.834   3.610  10.395  0.4544  0.6221 -0.0666
  653MPD2     C 9715   4.345   3.439  17.718  0.0529 -0.9663  0.2281
  653MPD2    C1 9716   4.243   3.507  17.650  0.9201 -0.1104  0.3386
  653MPD2    C2 9717   4.204   3.469  17.526 -0.3931 -0.7362 -0.5211
  653MPD2    C3 9718   4.272   3.370  17.458  0.0523  0.0172  0.4363
  653MPD2    C4 9719   4.373   3.306  17.524 -0.2123 -0.5263  0.5549
  653MPD2    C5 9720   4.396   3.327  17.654 -0.1209  0.1866  0.3730
  653MPD2     H 9721   4.130   3.524  17.469 -2.7936  0.9514  4.2895
  653MPD2    H1 9722   4.427   3.229  17.471 -1.0677 -0.7660  0.0315
  653MPD2    H2 9723   4.374   3.466   0.082  3.2193  2.0685 -1.4794
  653MPD2    H3 9724   4.478   3.271  17.696  0.0890 -0.7780 -1.3118
  653MPD2     N 9725   4.228   3.349  17.324  0.5560 -0.3893 -0.4590
  653MPD2    H5 9726   4.152   3.410  17.293  2.5232  1.6654 -1.2094
  653MPD2    N1 9727   4.182   3.623  17.708  0.3309 -0.6577  0.2188
  653MPD2    H7 9728   4.132   3.681  17.641  0.7668 -2.8092 -1.9680
  654TMC3    C1 9729   4.189   3.233  17.123  0.5125  0.2050  0.9105
  654TMC3    C2 9730   4.098   3.328  17.079  0.5888  0.2833 -0.4716
  654TMC3    C3 9731   4.021   3.311  16.964 -0.2164  0.9053 -0.1496
  654TMC3    C4 9732   4.199   3.122  17.058  0.1228 -0.0736 -0.1152
  654TMC3    C5 9733   4.110   3.091  16.959 -0.1255 -0.3420  0.5130
  654TMC3    C6 9734   4.037   3.185  16.900 -0.4356 -0.1396 -0.3652
  654TMC3     C 9735   4.275   3.250  17.241 -0.7256  0.5654 -0.0048
  654TMC3     O 9736   4.368   3.174  17.261  0.2110 -0.3878 -0.1953
  654TMC3     H 9737   4.087   3.425  17.126 -3.0769 -0.8480  1.0868
  654TMC3    H1 9738   4.260   3.050  17.112  0.5048 -1.6190 -2.6142
  654TMC3    H2 9739   3.985   3.153  16.811  1.7931 -1.9174 -1.0641
  654TMC3    C7 9740   4.090   2.955  16.916  0.0480  0.4026 -0.4294
  654TMC3    C8 9741   3.929   3.402  16.918  0.6069  0.0102  0.3458
  654TMC3    O1 9742   4.004   2.930  16.833 -0.1025  0.2481 -0.1611
  654TMC3    O2 9743   3.872   3.474  17.002 -0.1607 -0.0620 -0.1359
  655MPD2     C 9744   0.917   3.549  15.883 -0.3027 -0.0263 -0.4019
  655MPD2    C1 9745   0.871   3.649  15.805  0.2981 -0.2103 -0.4809
  655MPD2    C2 9746   0.852   3.637  15.665 -0.7202 -0.4515 -0.1275
  655MPD2    C3 9747   0.882   3.517  15.607 -0.2015 -0.2229 -0.1955
  655MPD2    C4 9748   0.922   3.413  15.685  0.2795 -0.1300  0.0253
  655MPD2    C5 9749   0.942   3.428  15.817  0.4901  0.4122 -0.0657
  655MPD2     H 9750   0.815   3.719  15.605  1.5845 -0.0669 -1.0411
  655MPD2    H1 9751   0.941   3.313  15.648 -0.7590 -0.2406 -0.2098
  655MPD2    H2 9752   0.940   3.560  15.988 -0.0758  1.8850 -0.6580
  655MPD2    H3 9753   0.977   3.342  15.873  1.1630  0.8657  0.2103
  655MPD2     N 9754   0.862   3.491  15.467 -0.5315  0.2850 -0.0779
  655MPD2    H5 9755   0.880   3.395  15.443 -1.4900  0.4157 -1.2944
  655MPD2    N1 9756   0.844   3.781  15.865  0.2878 -0.7413  0.3083
  655MPD2    H7 9757   0.797   3.848  15.804  3.0231  0.1846 -0.7414
  656TMC3    C1 9758   0.760   3.921  16.032 -0.7636  0.6922  0.0039
  656TMC3    C2 9759   0.678   3.919  16.141  0.1219  0.1266  0.1233
  656TMC3    C3 9760   0.590   4.017  16.155  0.4888 -0.1184 -0.2064
  656TMC3    C4 9761   0.750   4.014  15.941 -0.3803  0.0943  0.3113
  656TMC3    C5 9762   0.634   4.104  15.945  0.2463  0.1564  0.4079
  656TMC3    C6 9763   0.558   4.109  16.058 -0.0034 -0.2060  0.0914
  656TMC3     C 9764   0.839   3.805  15.998  0.3804 -0.0225  0.0725
  656TMC3     O 9765   0.871   3.730  16.090 -0.8598 -0.5744  0.3514
  656TMC3     H 9766   0.686   3.836  16.210 -1.0967  0.6596  0.9068
  656TMC3    H1 9767   0.817   4.018  15.856 -0.7676 -0.0510  0.0010
  656TMC3    H2 9768   0.485   4.189  16.074 -0.1391  0.0576 -1.8643
  656TMC3    C7 9769   0.617   4.178  15.828 -0.4782  0.5015  0.0322
  656TMC3    C8 9770   0.515   4.009  16.274  0.0049 -0.1774  0.2982
  656TMC3    O1 9771   0.720   4.216  15.771 -0.4803  0.2844  0.0926
  656TMC3    O2 9772   0.527   3.901  16.328  0.3763 -0.5691  0.1179
  657TMC3    C1 9773   4.483   2.833  15.244  0.0645  0.3781 -1.1524
  657TMC3    C2 9774   4.439   2.803  15.365 -0.3949 -0.5862  0.0079
  657TMC3    C3 9775   4.311   2.826  15.402 -0.1122 -0.5126 -0.1675
  657TMC3    C4 9776   4.407   2.906  15.154  0.5410 -0.4737 -0.7067
  657TMC3    C5 9777   4.283   2.944  15.201 -0.0326  0.2211  0.5993
  657TMC3    C6 9778   4.227   2.903  15.327  0.0481 -0.1838 -0.5726
  657TMC3     C 9779   4.615   2.790  15.194 -0.6640 -0.1373 -0.2602
  657TMC3     O 9780   4.628   2.806  15.073  0.3211 -0.1646 -0.1175
  657TMC3     H 9781   4.504   2.745  15.429 -1.3721  0.3896  1.8990
  657TMC3    H1 9782   4.449   2.933  15.058 -1.7997  2.7510 -0.8077
  657TMC3    H2 9783   4.130   2.932  15.366  0.2643 -2.5329  1.7533
  657TMC3    C7 9784   4.234   3.061  15.136 -0.5339 -0.4056  0.2562
  657TMC3    C8 9785   4.257   2.778  15.526 -0.3400 -0.6006  0.5436
  657TMC3    O1 9786   4.279   3.082  15.024 -0.0978 -0.5992 -0.4143
  657TMC3    O2 9787   4.152   2.831  15.567  0.0414  0.7201  0.1313
  658MPD2     C 9788   1.024   3.261  14.717 -0.0465 -0.2875  0.3352
  658MPD2    C1 9789   0.986   3.395  14.739 -0.4879  0.0920 -0.1652
  658MPD2    C2 9790   1.023   3.487  14.646  0.2639  0.2631  0.1874
  658MPD2    C3 9791   1.101   3.453  14.535  0.2904 -0.4611  0.1635
  658MPD2    C4 9792   1.140   3.325  14.524 -0.0504 -0.3356  0.3597
  658MPD2    C5 9793   1.088   3.221  14.601 -0.7089  0.6750  0.5284
  658MPD2     H 9794   0.991   3.590  14.652 -1.3537 -0.1438 -1.6285
  658MPD2    H1 9795   1.209   3.301  14.443 -1.8689  1.7844 -1.8018
  658MPD2    H2 9796   0.994   3.189  14.792  2.0252 -0.9702  0.5190
  658MPD2    H3 9797   1.123   3.120  14.582 -1.4670  0.6888 -0.9056
  658MPD2     N 9798   1.145   3.560  14.452 -0.3490  0.1861  0.4352
  658MPD2    H5 9799   1.095   3.647  14.462  2.2117  1.6022  0.9257
  658MPD2    N1 9800   0.913   3.430  14.857 -0.0184  0.2921 -0.3127
  658MPD2    H7 9801   0.885   3.348  14.910  1.1048 -1.3953 -2.3411
  659TMC3    C1 9802   0.791   3.562  15.016  0.4933 -0.4140  0.6631
  659TMC3    C2 9803   0.855   3.596  15.130 -0.1445  0.3942 -0.5396
  659TMC3    C3 9804   0.819   3.531  15.249 -0.8212  0.1860 -0.0292
  659TMC3    C4 9805   0.689   3.470  15.016 -0.6591 -0.2698 -0.2629
  659TMC3    C5 9806   0.658   3.403  15.129 -0.2856  0.3602  0.0958
  659TMC3    C6 9807   0.721   3.442  15.242 -0.5861  0.0303 -0.0819
  659TMC3     C 9808   0.883   3.559  14.904 -0.3641  0.4824 -0.0748
  659TMC3     O 9809   0.940   3.665  14.881  0.2588 -0.0941  1.1680
  659TMC3     H 9810   0.930   3.674  15.118 -0.3940  0.8736  0.9888
  659TMC3    H1 9811   0.645   3.446  14.919 -3.2670 -0.4093  0.9710
  659TMC3    H2 9812   0.661   3.404  15.324 -1.4198  0.6075 -0.4265
  659TMC3    C7 9813   0.517   3.366  15.148 -0.0243  0.3176 -0.2346
  659TMC3    C8 9814   0.851   3.588  15.376  0.1241 -0.6277 -0.1936
  659TMC3    O1 9815   0.494   3.286  15.241  0.1334  0.0886  0.1693
  659TMC3    O2 9816   0.889   3.703  15.384 -0.3043 -0.1530 -0.2516
  660MPD2     C 9817   3.566   2.850  12.556 -0.0617  0.5547  0.2094
  660MPD2    C1 9818   3.446   2.785  12.583  0.7802 -0.4125 -0.1643
  660MPD2    C2 9819   3.428   2.703  12.697  0.6087 -0.1156  0.9022
  660MPD2    C3 9820   3.540   2.674  12.777  0.2111 -0.3024 -0.5621
  660MPD2    C4 9821   3.658   2.736  12.746 -0.5921  1.2485  0.7253
  660MPD2    C5 9822   3.672   2.823  12.640  0.6992 -0.0501  0.6690
  660MPD2     H 9823   3.329   2.664  12.719 -0.1603  0.7258 -1.1222
  660MPD2    H1 9824   3.746   2.719  12.808 -1.0170  1.4842  1.3965
  660MPD2    H2 9825   3.586   2.910  12.469 -0.6433  0.8804  0.3019
  660MPD2    H3 9826   3.774   2.856  12.624 -0.1602  2.7689  0.8849
  660MPD2     N 9827   3.534   2.585  12.885 -0.1996  0.0977  0.5950
  660MPD2    H5 9828   3.622   2.570  12.934  0.5129  1.0800 -0.3870
  660MPD2    N1 9829   3.340   2.816  12.496 -0.6396  0.2824  0.3689
  660MPD2    H7 9830   3.357   2.886  12.424  0.9818 -1.2477 -0.7257
  661TMC3    C1 9831   3.110   2.823  12.411  0.5146 -0.7005  0.0154
  661TMC3    C2 9832   3.134   2.898  12.302 -0.3859 -0.1141 -0.1118
  661TMC3    C3 9833   3.037   2.904  12.207  0.2294 -0.8313 -0.0190
  661TMC3    C4 9834   2.986   2.759  12.432  0.2116 -0.1916 -0.2454
  661TMC3    C5 9835   2.897   2.774  12.336  0.5537  0.0962  0.2764
  661TMC3    C6 9836   2.919   2.841  12.216 -1.2387 -0.0723  0.5958
  661TMC3     C 9837   3.214   2.767  12.498  0.1829  0.1010  0.2698
  661TMC3     O 9838   3.174   2.673  12.560 -0.5950  0.7478 -0.1128
  661TMC3     H 9839   3.230   2.949  12.299 -1.7673  2.4660 -0.3860
  661TMC3    H1 9840   2.962   2.694  12.515  0.8478 -0.9495 -0.6525
  661TMC3    H2 9841   2.834   2.861  12.152 -0.3295  0.8492 -0.3183
  661TMC3    C7 9842   2.770   2.726  12.367 -0.0280 -0.0760  0.3878
  661TMC3    C8 9843   3.076   2.965  12.078  0.2141  0.1559  0.2039
  661TMC3    O1 9844   2.737   2.730  12.489 -0.0310  0.0570 -0.4331
  661TMC3    O2 9845   2.996   2.944  11.990  0.2135  0.3626 -0.0846
  662MPD2     C 9846   3.723   1.753  16.720  0.4989  0.3301 -0.1451
  662MPD2    C1 9847   3.708   1.658  16.820  0.1624 -0.0298  0.2356
  662MPD2    C2 9848   3.624   1.683  16.924 -0.4960  0.0417 -0.6352
  662MPD2    C3 9849   3.546   1.794  16.926 -0.5105  0.4021 -0.6878
  662MPD2    C4 9850   3.562   1.888  16.830 -0.2203 -0.2566 -0.0027
  662MPD2    C5 9851   3.655   1.871  16.728 -0.4048  0.3310 -0.0568
  662MPD2     H 9852   3.630   1.607  17.001 -0.3648  0.3677 -0.3211
  662MPD2    H1 9853   3.489   1.968  16.833 -0.5167 -0.5719  1.2089
  662MPD2    H2 9854   3.783   1.738  16.630  1.1046  1.5387  0.0681
  662MPD2    H3 9855   3.661   1.930  16.638 -0.3730 -0.3972 -0.5328
  662MPD2     N 9856   3.445   1.809  17.029  0.0119  0.0474 -0.5847
  662MPD2    H5 9857   3.399   1.900  17.032  2.3018  1.1975 -0.0787
  662MPD2    N1 9858   3.778   1.532  16.813  0.0750 -0.9494  0.6836
  662MPD2    H7 9859   3.760   1.462  16.884 -0.1172  0.9356  2.5170
  663TMC3    C1 9860   3.948   1.379  16.761  0.1975 -0.3288  0.4789
  663TMC3    C2 9861   3.991   1.348  16.893 -0.6866  0.1227  0.7960
  663TMC3    C3 9862   4.063   1.240  16.915 -0.2107  0.4768 -0.0820
  663TMC3    C4 9863   4.000   1.311  16.652 -0.2663  0.0519  0.2419
  663TMC3    C5 9864   4.082   1.210  16.683 -0.1806  0.2636  0.3925
  663TMC3    C6 9865   4.104   1.162  16.809  0.0659 -0.0563  0.1903
  663TMC3     C 9866   3.880   1.505  16.730 -0.8362 -0.4147  0.3336
  663TMC3     O 9867   3.930   1.577  16.641 -0.3645 -0.7231  0.3286
  663TMC3     H 9868   3.924   1.384  16.971  0.2066  1.6131  0.8855
  663TMC3    H1 9869   3.955   1.334  16.556 -2.0101 -0.2930  0.9759
  663TMC3    H2 9870   4.192   1.100  16.824  0.5366  0.8384  1.1610
  663TMC3    C7 9871   4.074   1.098  16.600  0.2557  0.5701  0.2654
  663TMC3    C8 9872   4.030   1.150  17.019  0.0497 -0.1339 -1.0360
  663TMC3    O1 9873   4.076   1.109  16.477 -0.2634 -0.2540 -0.1538
  663TMC3    O2 9874   4.038   1.034  16.985 -0.0975 -0.4835 -0.9678
  664MPD2     C 9875   1.836   4.720  17.730  0.1803 -0.1523 -0.2078
  664MPD2    C1 9876   1.915   0.102  17.724  0.3111 -0.0927 -0.7929
  664MPD2    C2 9877   1.888   0.210   0.062 -0.3601  0.0583  0.1938
  664MPD2    C3 9878   1.771   0.212   0.147  0.0152 -0.3588 -0.0883
  664MPD2    C4 9879   1.693   0.094   0.156 -0.3114  0.4050 -0.2783
  664MPD2    C5 9880   1.736   4.717   0.085  0.0773 -0.3434  0.0431
  664MPD2     H 9881   1.938   0.305   0.047 -0.6649  0.0740 -0.7087
  664MPD2    H1 9882   1.611   0.084   0.227  0.4334 -0.3047  0.4816
  664MPD2    H2 9883   1.846   4.628  17.674  0.1280 -1.9057  2.6439
  664MPD2    H3 9884   1.689   4.620   0.100  0.3065 -0.0787  2.3760
  664MPD2     N 9885   1.741   0.333   0.211  0.1382  0.4753  0.1829
  664MPD2    H5 9886   1.809   0.408   0.213 -0.2447  0.8230  0.2186
  664MPD2    N1 9887   2.019   0.111  17.628  0.2525  0.0195 -0.4920
  664MPD2    H7 9888   2.065   0.201  17.634 -0.3902  0.4304 -1.7308
  665TMC3    C1 9889   1.635   0.481   0.361 -0.2835 -0.2132 -0.6329
  665TMC3    C2 9890   1.518   0.522   0.423 -0.7495  0.2728  0.5563
  665TMC3    C3 9891   1.532   0.619   0.519 -0.0009  0.5966  0.1485
  665TMC3    C4 9892   1.766   0.512   0.403 -0.2434 -0.1894  0.5203
  665TMC3    C5 9893   1.768   0.602   0.507 -0.3393 -0.1233  0.3596
  665TMC3    C6 9894   1.656   0.652   0.564 -0.1583  0.1135 -0.2698
  665TMC3     C 9895   1.626   0.359   0.282 -0.1339 -0.2701 -0.2610
  665TMC3     O 9896   1.521   0.298   0.278  0.0185 -0.2796  0.2915
  665TMC3     H 9897   1.427   0.482   0.379 -0.6968  1.1034 -0.2918
  665TMC3    H1 9898   1.859   0.468   0.367 -0.6651 -0.4780 -0.2101
  665TMC3    H2 9899   1.657   0.737   0.632 -1.2659  1.0819 -1.4597
  665TMC3    C7 9900   1.892   0.675   0.534 -0.1723  0.4445  0.1987
  665TMC3    C8 9901   1.426   0.654   0.604  0.4715  0.0662  0.0739
  665TMC3    O1 9902   1.974   0.700   0.448  0.1632 -0.3374 -0.3735
  665TMC3    O2 9903   1.453   0.706   0.711 -0.0016 -0.0323 -0.5577
  666TMC3    C1 9904   1.212   0.257  10.164  0.3956  0.6142  0.4440
  666TMC3    C2 9905   1.299   0.205  10.258 -0.9058 -0.5870  0.8325
  666TMC3    C3 9906   1.388   0.287  10.317  0.4921 -0.5197 -0.1200
  666TMC3    C4 9907   1.217   0.390  10.135  0.1662  0.3263  0.5832
  666TMC3    C5 9908   1.305   0.470  10.196 -0.5170  0.9637  0.4773
  666TMC3    C6 9909   1.388   0.419  10.283 -0.8452  0.1533  0.5229
  666TMC3     C 9910   1.096   0.190  10.104 -0.1158 -0.1727  0.1323
  666TMC3     O 9911   1.036   0.245  10.014  0.3597  0.2968  0.4274
  666TMC3     H 9912   1.284   0.101  10.285 -0.5883 -0.0551  3.0288
  666TMC3    H1 9913   1.138   0.425  10.069  0.3040 -0.8817 -0.2282
  666TMC3    H2 9914   1.453   0.485  10.339 -0.4797 -0.0417  0.3333
  666TMC3    C7 9915   1.287   0.612  10.191  0.1411  0.9746 -0.7405
  666TMC3    C8 9916   1.470   0.231  10.422  0.4022 -0.2417  0.4304
  666TMC3    O1 9917   1.323   0.678  10.282 -0.4819  0.0271 -0.0232
  666TMC3    O2 9918   1.426   0.128  10.476  0.5485 -0.4836  0.0343
  667MPD2     C 9919   2.812   0.196  14.896 -0.5785  0.3066 -0.8829
  667MPD2    C1 9920   2.721   0.209  15.001 -0.3828  0.2096 -0.1239
  667MPD2    C2 9921   2.615   0.119  15.007  0.3431 -0.0403  0.3304
  667MPD2    C3 9922   2.595   0.025  14.906 -0.5771  0.1548 -0.8503
  667MPD2    C4 9923   2.689   0.016  14.806  0.0512 -0.1054 -0.3741
  667MPD2    C5 9924   2.801   0.094  14.810 -0.2935  0.3593 -1.3272
  667MPD2     H 9925   2.552   0.128  15.095 -0.8551  2.9590 -0.8699
  667MPD2    H1 9926   2.693   4.678  14.725  1.2572 -1.2566  0.7183
  667MPD2    H2 9927   2.907   0.249  14.887 -1.1060  1.1684 -1.3689
  667MPD2    H3 9928   2.871   0.075  14.729  1.4669  5.5790 -1.0753
  667MPD2     N 9929   2.492   4.663  14.915 -0.3227  0.7581 -0.6863
  667MPD2    H5 9930   2.471   4.605  14.834 -0.4419 -2.0579  1.3577
  667MPD2    N1 9931   2.734   0.304  15.106 -0.6578  0.2972  0.1217
  667MPD2    H7 9932   2.684   0.284  15.192 -2.3676  2.0377 -0.4880
  668TMC3    C1 9933   2.871   0.471  15.227 -0.3083 -0.9027 -0.2791
  668TMC3    C2 9934   2.976   0.561  15.218  0.9530 -0.4368  0.2275
  668TMC3    C3 9935   3.024   0.609  15.333 -0.0059  0.3036 -0.2174
  668TMC3    C4 9936   2.815   0.433  15.346 -0.1286  0.3146 -0.3236
  668TMC3    C5 9937   2.866   0.489  15.456  0.2808  0.3451 -0.2562
  668TMC3    C6 9938   2.977   0.576  15.459 -0.2526  0.3913 -0.3864
  668TMC3     C 9939   2.840   0.392  15.106  0.3824 -0.9986 -0.6072
  668TMC3     O 9940   2.906   0.433  15.012 -0.1793  0.3473  0.3536
  668TMC3     H 9941   3.015   0.592  15.122  0.0321  0.7960  0.2491
  668TMC3    H1 9942   2.749   0.347  15.351 -0.1808  0.5607  3.2426
  668TMC3    H2 9943   3.010   0.625  15.549  0.6502 -0.2271 -0.3822
  668TMC3    C7 9944   2.806   0.469  15.586 -0.4565  1.2465 -0.5547
  668TMC3    C8 9945   3.117   0.725  15.327 -0.8712 -0.1374  0.5218
  668TMC3    O1 9946   2.876   0.479  15.684  0.7839 -0.2310 -0.8769
  668TMC3    O2 9947   3.130   0.779  15.436  0.2490 -0.3654 -0.0169
  669TMC3    C1 9948   1.126   0.432  14.708 -0.2117  0.9314 -0.3179
  669TMC3    C2 9949   1.015   0.442  14.627  0.8773  0.1305  0.2970
  669TMC3    C3 9950   1.018   0.532  14.525 -0.3572  1.2342 -0.3753
  669TMC3    C4 9951   1.241   0.494  14.676 -0.0532 -0.1422  0.4173
  669TMC3    C5 9952   1.243   0.573  14.564 -0.1505 -0.5117 -0.8093
  669TMC3    C6 9953   1.131   0.600  14.491  0.7192 -0.4138 -0.2087
  669TMC3     C 9954   1.122   0.321  14.801  0.7930  0.4128 -0.4939
  669TMC3     O 9955   1.013   0.274  14.822  0.6166 -0.1569 -0.4305
  669TMC3     H 9956   0.921   0.394  14.650  0.8837 -0.4446 -0.8733
  669TMC3    H1 9957   1.329   0.479  14.738 -0.8164  0.7323  1.7247
  669TMC3    H2 9958   1.132   0.672  14.410 -2.4282  2.9127  2.7125
  669TMC3    C7 9959   1.360   0.655  14.536  0.0842 -0.0270  0.6813
  669TMC3    C8 9960   0.893   0.565  14.452  0.0132  0.2612  0.2390
  669TMC3    O1 9961   1.434   0.675  14.628 -0.0910  0.4013  0.5979
  669TMC3    O2 9962   0.893   0.578  14.329 -0.0745  0.2868  0.1221
  670MPD2     C 9963   3.429   2.258  13.886 -0.9210  0.0513 -0.3761
  670MPD2    C1 9964   3.493   2.369  13.933  0.0797 -0.4759 -0.1656
  670MPD2    C2 9965   3.557   2.369  14.055 -0.2643 -0.1429 -0.1712
  670MPD2    C3 9966   3.568   2.247  14.127  0.3481 -0.7771  0.2239
  670MPD2    C4 9967   3.507   2.132  14.075 -0.9082  1.0644 -0.1663
  670MPD2    C5 9968   3.433   2.146  13.961 -0.2358  0.8036 -0.0195
  670MPD2     H 9969   3.598   2.464  14.087 -2.5944  0.8663 -0.2244
  670MPD2    H1 9970   3.520   2.033  14.117 -1.9725  0.3094 -1.6124
  670MPD2    H2 9971   3.382   2.248  13.788  0.2773 -0.8443 -0.8632
  670MPD2    H3 9972   3.386   2.057  13.920  0.9481  0.4099 -0.5392
  670MPD2     N 9973   3.632   2.244  14.248 -0.0237  0.2631 -0.1664
  670MPD2    H5 9974   3.670   2.334  14.277  1.9506 -0.0491 -1.7496
  670MPD2    N1 9975   3.504   2.486  13.857  0.3129  0.3027 -0.6606
  670MPD2    H7 9976   3.573   2.551  13.893  0.7901 -0.6203  0.1095
  671TMC3    C1 9977   3.741   2.141  14.437  0.6176  0.0667  0.1685
  671TMC3    C2 9978   3.847   2.225  14.428  0.5909  0.2038 -0.4604
  671TMC3    C3 9979   3.949   2.211  14.516  0.4036  0.2295  0.9307
  671TMC3    C4 9980   3.732   2.050  14.537  0.5289  0.0992  0.3351
  671TMC3    C5 9981   3.849   2.024  14.613 -0.0897 -0.1302  0.1833
  671TMC3    C6 9982   3.951   2.114  14.613 -0.1757  0.4972 -0.2651
  671TMC3     C 9983   3.648   2.135  14.329 -0.4682 -0.1669 -0.2171
  671TMC3     O 9984   3.597   2.026  14.323 -0.2310  0.8681  0.4409
  671TMC3     H 9985   3.865   2.284  14.338  1.0139  0.4970 -0.1810
  671TMC3    H1 9986   3.643   1.989  14.550 -0.0613  1.1974  1.4388
  671TMC3    H2 9987   4.045   2.094  14.664 -0.2601 -0.9292 -0.6556
  671TMC3    C7 9988   3.904   1.895  14.590 -0.4641  0.4468 -0.4006
  671TMC3    C8 9989   4.073   2.221  14.440  0.4801  0.1321 -0.1225
  671TMC3    O1 9990   3.999   1.859  14.648  0.1106 -0.1630  0.0341
  671TMC3    O2 9991   4.062   2.187  14.321 -0.2899  0.3080  0.2174
  672MPD2     C 9992   4.288   3.587   0.583 -0.0472 -0.1960  0.2763
  672MPD2    C1 9993   4.342   3.491   0.666 -0.8330  0.0418  0.0797
  672MPD2    C2 9994   4.385   3.533   0.794 -0.1796  0.6042  0.6193
  672MPD2    C3 9995   4.377   3.666   0.827  0.1049  0.6213 -0.2678
  672MPD2    C4 9996   4.333   3.760   0.740 -0.5549 -0.7951 -0.6827
  672MPD2    C5 9997   4.292   3.719   0.617 -0.6240  0.9162  0.3876
  672MPD2     H 9998   4.423   3.466   0.870 -1.9822 -1.0946  0.0177
  672MPD2    H1 9999   4.331   3.866   0.763  0.0074 -0.8758 -0.2449
  672MPD2    H210000   4.235   3.566   0.491  0.2578  0.6318 -0.0880
  672MPD2    H310001   4.235   3.792   0.561 -1.2347  1.7083  2.0494
  672MPD2     N10002   4.427   3.709   0.948  0.4803  0.0783  0.8336
  672MPD2    H510003   4.400   3.803   0.976 -0.1970  0.0521  0.2664
  672MPD2    N110004   4.329   3.359   0.626 -0.3802 -0.2680 -0.3655
  672MPD2    H710005   4.277   3.334   0.543  0.2856 -0.5467 -0.7028
  673TMC3    C110006   4.347   3.121   0.634  0.0463  0.5337  0.5239
  673TMC3    C210007   4.434   3.024   0.656  0.0292 -0.2310 -0.1063
  673TMC3    C310008   4.406   2.899   0.594  0.3263 -0.3470 -0.0206
  673TMC3    C410009   4.220   3.106   0.574 -0.7210  0.4756  0.6701
  673TMC3    C510010   4.196   2.980   0.516 -0.1955 -0.4261 -0.1285
  673TMC3    C610011   4.292   2.879   0.524 -0.0533  0.1045  0.2040
  673TMC3     C10012   4.375   3.244   0.698  0.1755 -0.3681  0.0207
  673TMC3     O10013   4.453   3.237   0.793  0.1286  0.6633 -0.2373
  673TMC3     H10014   4.525   3.044   0.711  0.2950 -0.1591 -0.5743
  673TMC3    H110015   4.144   3.181   0.592 -2.7421 -0.8641 -2.3626
  673TMC3    H210016   4.259   2.783   0.485 -0.6045  0.7444 -0.9150
  673TMC3    C710017   4.063   2.945   0.473 -0.2948  0.0059  0.3158
  673TMC3    C810018   4.509   2.796   0.599 -0.3475  0.0678  0.2428
  673TMC3    O110019   4.033   2.829   0.458  0.1638  0.1327 -0.2349
  673TMC3    O210020   4.469   2.681   0.577 -0.0885  0.5894 -0.2467
  674MPD2     C10021   4.104   2.833  17.436 -0.4901 -0.4938 -0.6273
  674MPD2    C110022   4.090   2.752  17.547  0.5181  0.3818  0.1789
  674MPD2    C210023   3.964   2.720  17.592 -0.7337 -0.5382 -0.2340
  674MPD2    C310024   3.858   2.767  17.521 -0.2119  0.3846  0.8159
  674MPD2    C410025   3.867   2.826  17.397  0.7193 -0.5032  0.0228
  674MPD2    C510026   3.994   2.862  17.362  0.0934 -0.4069  0.4688
  674MPD2     H10027   3.946   2.670  17.686 -0.2162  1.7582  1.0754
  674MPD2    H110028   3.779   2.868  17.351 -0.3646 -1.1549  1.4864
  674MPD2    H210029   4.199   2.880  17.413  0.1596 -1.7073 -0.4232
  674MPD2    H310030   4.002   2.915  17.268 -0.0886  0.0145  0.6942
  674MPD2     N10031   3.732   2.740  17.572  0.1511  0.5307  0.4446
  674MPD2    H510032   3.726   2.663  17.638 -0.6622  0.4386  0.2639
  674MPD2    N110033   4.205   2.700  17.614 -0.1745  0.3524  0.2318
  674MPD2    H710034   4.296   2.738  17.590  0.1952  0.2770  1.5320
  675TMC3    C110035   4.323   2.582   0.051 -1.3305 -0.6155 -0.1198
  675TMC3    C210036   4.322   2.469   0.124  0.2789 -0.0324  0.6142
  675TMC3    C310037   4.392   2.464   0.240  0.8076  0.4163 -0.0986
  675TMC3    C410038   4.407   2.684   0.081 -0.0116  0.3299 -0.2382
  675TMC3    C510039   4.479   2.677   0.199 -0.3445 -0.4793 -0.3918
  675TMC3    C610040   4.466   2.569   0.287  0.1906 -0.5852 -0.0528
  675TMC3     C10041   4.208   2.591  17.700 -1.1946 -0.2621 -0.0743
  675TMC3     O10042   4.116   2.510  17.720  0.6280 -0.7361 -0.2782
  675TMC3     H10043   4.266   2.382   0.090  0.4360  0.7067 -1.5309
  675TMC3    H110044   4.405   2.768   0.012  3.7639 -0.2334 -1.0267
  675TMC3    H210045   4.530   2.565   0.375  0.4356 -0.8873 -0.2422
  675TMC3    C710046   4.543   2.803   0.251  0.3098 -0.1062 -0.8750
  675TMC3    C810047   4.327   2.378   0.341  0.3516  0.1814  0.4518
  675TMC3    O110048   4.656   2.803   0.297  0.3179  0.3706 -0.0309
  675TMC3    O210049   4.248   2.299   0.290  0.7141  0.2183 -0.0330
  676MPD2     C10050   2.277   1.150  11.075  0.1005 -0.5839 -0.4855
  676MPD2    C110051   2.163   1.126  11.150 -0.6352 -0.3156 -0.2836
  676MPD2    C210052   2.052   1.058  11.096  0.2164  0.6282 -0.1720
  676MPD2    C310053   2.053   1.024  10.965 -0.0876  0.9301  0.1083
  676MPD2    C410054   2.155   1.056  10.883  0.9334  0.6452  0.2564
  676MPD2    C510055   2.270   1.113  10.938 -0.2184 -0.5362 -0.2889
  676MPD2     H10056   1.972   1.033  11.164 -0.3518  1.8403 -0.3874
  676MPD2    H110057   2.147   1.044  10.775  0.9741 -0.0035  0.3254
  676MPD2    H210058   2.369   1.193  11.112 -0.4618  0.2291 -0.0371
  676MPD2    H310059   2.361   1.125  10.880  1.1735 -0.0763  1.9660
  676MPD2     N10060   1.936   0.974  10.908  0.0034 -0.4295  0.6620
  676MPD2    H510061   1.944   0.970  10.807  0.9698  3.3048  0.5986
  676MPD2    N110062   2.152   1.159  11.289 -0.2447 -0.3356 -0.1936
  676MPD2    H710063   2.063   1.140  11.333  0.6139  0.6719  1.9839
  677TMC3    C110064   2.204   1.258  11.494  0.2947 -1.0926 -0.3467
  677TMC3    C210065   2.149   1.156  11.559  0.0032 -0.3166  0.3282
  677TMC3    C310066   2.111   1.180  11.686  0.3756  0.3501  0.3749
  677TMC3    C410067   2.236   1.381  11.559 -0.4667  0.3362 -0.6476
  677TMC3    C510068   2.165   1.407  11.677 -0.1069 -0.1083 -0.0980
  677TMC3    C610069   2.116   1.302  11.744  0.2841  0.0124  0.2091
  677TMC3     C10070   2.247   1.226  11.363 -0.3649  0.3629 -0.5102
  677TMC3     O10071   2.349   1.282  11.326  0.0738 -0.1244 -0.1438
  677TMC3     H10072   2.165   1.058  11.515  1.7438 -0.6365  1.6556
  677TMC3    H110073   2.281   1.453  11.491  0.1457  0.8200  0.2794
  677TMC3    H210074   2.065   1.315  11.838 -2.0979 -1.7828 -0.8249
  677TMC3    C710075   2.160   1.539  11.738 -0.2343 -0.6390 -0.6469
  677TMC3    C810076   2.104   1.070  11.785 -0.3407 -0.5703 -0.2375
  677TMC3    O110077   2.083   1.548  11.831 -0.3370  0.5501  0.3742
  677TMC3    O210078   2.121   1.095  11.905 -0.3683  0.0525  0.2101
  678MPD2     C10079   3.477   1.161   1.475 -0.4658 -0.0819  0.4940
  678MPD2    C110080   3.458   1.183   1.340  1.3441  0.6289 -0.7866
  678MPD2    C210081   3.348   1.244   1.300 -0.5601 -0.2679 -0.6593
  678MPD2    C310082   3.254   1.291   1.390 -0.0629  0.9549 -1.1561
  678MPD2    C410083   3.271   1.276   1.528  0.0930  0.1089 -0.2505
  678MPD2    C510084   3.387   1.213   1.570  0.7786 -0.4021 -0.0206
  678MPD2     H10085   3.324   1.250   1.195  4.0050 -0.3199 -1.6856
  678MPD2    H110086   3.204   1.310   1.607 -0.2715  0.9675 -0.9375
  678MPD2    H210087   3.569   1.115   1.507  1.5025  1.6479 -2.6908
  678MPD2    H310088   3.401   1.205   1.677  1.8196 -2.1532 -0.2928
  678MPD2     N10089   3.132   1.336   1.339 -0.0355 -0.3886 -0.0221
  678MPD2    H510090   3.122   1.328   1.238  2.0634 -0.5242 -0.2100
  678MPD2    N110091   3.536   1.138   1.230 -0.0209 -0.6630  0.3664
  678MPD2    H710092   3.509   1.167   1.137 -0.7240 -0.1549  0.7274
  679TMC3    C110093   3.762   0.775   1.039 -0.0205 -0.5837  0.5545
  679TMC3    C210094   3.750   0.866   1.139 -0.2249 -0.3327  0.1685
  679TMC3    C310095   3.671   0.974   1.122  0.0076 -0.5913 -0.8161
  679TMC3    C410096   3.686   0.776   0.928  0.2325  0.2462  0.9173
  679TMC3    C510097   3.597   0.879   0.924 -0.6287  0.3765 -0.1340
  679TMC3    C610098   3.588   0.983   1.010  0.8540 -0.0551  0.3361
  679TMC3     C10099   3.863   0.675   1.056  0.3196 -0.1893 -0.3864
  679TMC3     O10100   3.878   0.622   1.168  0.3350  0.2686 -0.1232
  679TMC3     H10101   3.816   0.861   1.225 -0.5822 -0.5401  0.4269
  679TMC3    H110102   3.691   0.693   0.858  1.5877  1.5629 -0.5590
  679TMC3    H210103   3.526   1.067   0.982 -0.0995 -0.6466  0.6758
  679TMC3    C710104   3.548   0.904   0.787  0.3799  0.6781 -0.4323
  679TMC3    C810105   3.624   1.034   1.242  0.5763 -0.5178  0.5852
  679TMC3    O110106   3.510   1.017   0.765 -0.0667 -0.2986 -0.1221
  679TMC3    O210107   3.669   0.987   1.341  0.5341 -0.1315  0.1245
  680MPD2     C10108   3.386   0.214  13.497  0.5665  1.0943 -0.7933
  680MPD2    C110109   3.473   0.142  13.575 -0.1869  0.3453 -0.1638
  680MPD2    C210110   3.585   0.209  13.629 -0.2479  0.4121 -0.4021
  680MPD2    C310111   3.605   0.344  13.614  0.2745  0.3206  1.0180
  680MPD2    C410112   3.507   0.410  13.545  0.2037  0.3071 -0.4730
  680MPD2    C510113   3.405   0.352  13.483  0.2268  0.2288  0.4535
  680MPD2     H10114   3.638   0.155  13.708  1.2509  0.7858 -1.1598
  680MPD2    H110115   3.503   0.518  13.539  1.0755  0.5363  3.0811
  680MPD2    H210116   3.294   0.172  13.456  1.7622  0.8396 -3.2055
  680MPD2    H310117   3.330   0.416  13.439 -0.0787  1.2821  2.5096
  680MPD2     N10118   3.713   0.421  13.665 -0.2219  0.2290  0.0324
  680MPD2    H510119   3.703   0.522  13.663 -0.6850  0.1673 -1.0272
  680MPD2    N110120   3.463   0.001  13.599  0.4714  0.4225  0.2223
  680MPD2    H710121   3.541   4.688  13.643  1.6275  0.3181 -1.9345
  681TMC3    C110122   3.382   4.521  13.593  0.1828 -0.7068  0.4274
  681TMC3    C210123   3.299   4.460  13.678 -0.2611 -0.7296  0.0470
  681TMC3    C310124   3.354   4.368  13.763 -0.2467 -0.7971 -0.3107
  681TMC3    C410125   3.512   4.487  13.576 -0.1386  0.0489 -0.9317
  681TMC3    C510126   3.558   4.390  13.663  0.2976  0.6966  0.5416
  681TMC3    C610127   3.482   4.334  13.758 -0.0839  0.1930  0.4786
  681TMC3     C10128   3.352   4.659  13.563  0.0440 -0.0718 -0.0765
  681TMC3     O10129   3.232   4.688  13.551  0.6028  0.2487  0.4074
  681TMC3     H10130   3.196   4.494  13.686  0.1336  0.4532  0.1038
  681TMC3    H110131   3.590   4.542  13.523 -2.2824  1.7909 -2.3107
  681TMC3    H210132   3.531   4.264  13.825  0.2043 -1.3457 -1.3549
  681TMC3    C710133   3.696   4.347  13.655  0.3039  0.1212  0.1834
  681TMC3    C810134   3.291   4.374  13.893  0.3133  0.5439  0.4347
  681TMC3    O110135   3.739   4.274  13.744 -0.3413 -0.2129 -0.6793
  681TMC3    O210136   3.166   4.386  13.901  0.2991  0.1375 -0.0820
  682MPD2     C10137   0.809   1.891  10.418  0.7142 -0.8077  0.8855
  682MPD2    C110138   0.784   1.784  10.503 -0.4832  0.1711 -0.9164
  682MPD2    C210139   0.740   1.817  10.630  0.3385 -0.2149 -0.4039
  682MPD2    C310140   0.729   1.946  10.664  0.3414  0.8024  0.1747
  682MPD2    C410141   0.752   2.054  10.584 -0.1107  0.6379  0.0650
  682MPD2    C510142   0.783   2.018  10.454  0.1842  0.3757 -0.7820
  682MPD2     H10143   0.729   1.738  10.704 -0.6177  0.1537 -0.1601
  682MPD2    H110144   0.726   2.150  10.625 -4.1462 -1.6125  2.7142
  682MPD2    H210145   0.839   1.884  10.314 -1.6179 -1.1662  0.2466
  682MPD2    H310146   0.786   2.096  10.379 -3.3439  0.1564 -1.1298
  682MPD2     N10147   0.682   1.961  10.800 -0.1559  0.5850  0.2417
  682MPD2    H510148   0.659   1.872  10.841 -0.5157 -0.0488 -1.3350
  682MPD2    N110149   0.783   1.653  10.453  0.7915 -0.1918  0.0954
  682MPD2    H710150   0.740   1.576  10.504  0.6992 -2.5401 -3.5610
  683TMC3    C110151   0.718   1.975  11.223  0.3884  0.2115  0.1743
  683TMC3    C210152   0.604   1.902  11.238  0.3824  0.0743  0.1055
  683TMC3    C310153   0.518   1.895  11.127  0.2882 -0.2561 -0.7183
  683TMC3    C410154   0.741   2.038  11.106  0.3343 -0.3553  0.0370
  683TMC3    C510155   0.645   2.047  11.013  0.6975 -0.1789  0.1671
  683TMC3    C610156   0.530   1.972  11.017  0.1217 -0.4841 -0.1522
  683TMC3     C10157   0.827   1.944  11.311 -0.1202  0.2778 -0.1945
  683TMC3     O10158   0.917   2.025  11.312  0.0132 -0.5259  0.2645
  683TMC3     H10159   0.588   1.846  11.329  1.0469  0.9075  0.7394
  683TMC3    H110160   0.842   2.064  11.078 -0.3298  0.3966 -1.6508
  683TMC3    H210161   0.451   1.976  10.943 -0.4798  1.0904  0.5876
  683TMC3    C710162   0.694   2.077  10.882  0.3901 -0.1273 -0.1970
  683TMC3    C810163   0.381   1.850  11.159  0.3111 -0.0257  0.3630
  683TMC3    O110164   0.759   2.181  10.866 -0.5025 -0.5659  0.4094
  683TMC3    O210165   0.304   1.941  11.136  0.4388 -0.5149 -0.4291
  684MPD2     C10166   4.240   0.344  16.373  0.2112 -0.4629 -0.1328
  684MPD2    C110167   4.255   0.404  16.245  0.9029 -0.7766 -0.3567
  684MPD2    C210168   4.269   0.535  16.239 -0.7742 -0.4007 -0.3655
  684MPD2    C310169   4.268   0.620  16.350 -0.1370 -0.5823  0.0270
  684MPD2    C410170   4.264   0.564  16.472  0.0973  0.0162  0.3720
  684MPD2    C510171   4.242   0.431  16.486 -0.2114 -0.2395 -0.6314
  684MPD2     H10172   4.284   0.585  16.144  0.6715  1.5361  0.9073
  684MPD2    H110173   4.277   0.630  16.557 -1.3750 -0.7009  1.1528
  684MPD2    H210174   4.243   0.237  16.390 -0.8078 -0.5038 -0.1925
  684MPD2    H310175   4.232   0.392  16.587  1.2573  1.1205  0.0431
  684MPD2     N10176   4.274   0.764  16.331  0.2760 -0.2530  0.3233
  684MPD2    H510177   4.283   0.828  16.409 -0.1345 -0.0687  0.2212
  684MPD2    N110178   4.258   0.330  16.121 -0.0391  0.0976  0.1309
  684MPD2    H710179   4.310   0.374  16.045  0.0886  0.7163  0.5846
  685TMC3    C110180   4.291   0.150  15.982  0.0865  0.3680  0.0533
  685TMC3    C210181   4.221   0.065  15.906  0.1313  0.2596 -0.6656
  685TMC3    C310182   4.273   0.028  15.784  0.0724 -0.2869 -0.3221
  685TMC3    C410183   4.421   0.185  15.943 -0.4170  0.6082  0.7530
  685TMC3    C510184   4.474   0.141  15.826 -0.4716  0.2850 -0.1089
  685TMC3    C610185   4.391   0.073  15.737 -0.1934  0.4527 -0.0898
  685TMC3     C10186   4.235   0.194  16.112 -0.5727  0.2527 -0.2217
  685TMC3     O10187   4.153   0.122  16.160 -0.0574 -0.2234  0.3842
  685TMC3     H10188   4.132   0.016  15.942 -0.4912  2.1330  0.3617
  685TMC3    H110189   4.479   0.256  16.001  0.7467  2.9907 -3.2788
  685TMC3    H210190   4.432   0.037  15.644 -2.3344 -1.0485 -0.4328
  685TMC3    C710191   4.599   0.194  15.778  0.4615 -0.0160 -0.0633
  685TMC3    C810192   4.178   4.707  15.691  0.1501  0.1797 -0.0897
  685TMC3    O110193   4.609   0.218  15.662 -0.6148 -0.0778 -0.2304
  685TMC3    O210194   4.227   4.674  15.582 -0.0928 -0.2661  0.1013
  686MPD2     C10195   0.401   0.901  15.568 -0.9419  0.1878  0.1509
  686MPD2    C110196   0.471   0.850  15.672 -0.8681  0.3765 -0.2832
  686MPD2    C210197   0.529   0.942  15.756  0.5155 -0.2363 -0.3293
  686MPD2    C310198   0.492   1.080  15.760  0.5076  0.3889  0.2623
  686MPD2    C410199   0.424   1.125  15.653  0.6429 -0.0494  0.0430
  686MPD2    C510200   0.373   1.037  15.561 -0.3060 -0.0322 -0.3755
  686MPD2     H10201   0.584   0.906  15.842 -2.2232  3.2574  2.8794
  686MPD2    H110202   0.397   1.229  15.641  0.1634 -0.1253  0.4792
  686MPD2    H210203   0.339   0.843  15.501 -0.5467  0.6821 -0.6512
  686MPD2    H310204   0.322   1.072  15.473  0.1421 -0.4659 -0.8110
  686MPD2     N10205   0.540   1.170  15.861 -0.8534  0.6505 -0.1360
  686MPD2    H510206   0.524   1.270  15.846  1.3231  1.1744  1.0948
  686MPD2    N110207   0.481   0.710  15.682  0.2476  0.3191 -0.0715
  686MPD2    H710208   0.438   0.668  15.600  3.1038 -0.6015 -1.1263
  687TMC3    C110209   0.649   1.225  16.067 -0.7069  0.1223 -0.0327
  687TMC3    C210210   0.715   1.317  15.987  0.1135  0.1328  0.2240
  687TMC3    C310211   0.847   1.348  16.031  0.0606  0.5343  0.0314
  687TMC3    C410212   0.709   1.173  16.179 -0.2650 -0.4175 -0.0978
  687TMC3    C510213   0.834   1.201  16.211 -0.0227  0.9604  0.1791
  687TMC3    C610214   0.900   1.300  16.148  0.2451 -0.4023 -0.1799
  687TMC3     C10215   0.561   1.133  15.994  0.2577 -0.0719  0.4206
  687TMC3     O10216   0.551   1.025  16.048  0.1729 -0.2289 -0.4371
  687TMC3     H10217   0.675   1.369  15.901 -1.4451 -0.8120  0.3714
  687TMC3    H110218   0.646   1.108  16.239 -0.2775 -0.6879 -0.4048
  687TMC3    H210219   1.005   1.318  16.170 -0.1720  0.1723  1.3382
  687TMC3    C710220   0.895   1.138  16.335 -0.2941 -0.5986 -0.2258
  687TMC3    C810221   0.942   1.346  15.920  0.2378  0.2194  0.2139
  687TMC3    O110222   0.971   1.210  16.407 -0.1654  0.1756 -0.1087
  687TMC3    O210223   1.051   1.400  15.919 -0.3101  0.1103 -0.2638
  688MPD2     C10224   4.369   4.330  17.581  0.0610  0.2810 -0.6754
  688MPD2    C110225   4.394   4.194  17.588 -0.2620 -0.2674 -0.5367
  688MPD2    C210226   4.492   4.134  17.502 -0.5334  0.0856  0.0768
  688MPD2    C310227   4.560   4.219  17.411 -0.0505  0.1499 -0.2108
  688MPD2    C410228   4.548   4.355  17.423 -0.0538 -0.7128 -0.0522
  688MPD2    C510229   4.447   4.409  17.495 -0.2688  0.3533 -0.5701
  688MPD2     H10230   4.499   4.027  17.517  1.2600  0.1548 -0.2607
  688MPD2    H110231   4.609   4.411  17.353  0.8244 -1.6372 -0.0410
  688MPD2    H210232   4.297   4.382  17.643 -1.5725 -1.2099 -1.3318
  688MPD2    H310233   4.439   4.516  17.481  2.4069  1.0213  2.9604
  688MPD2     N10234   4.654   4.175  17.319  0.3871 -0.2578  0.6410
  688MPD2    H510235   4.699   4.245  17.259  2.1140 -2.4513 -0.6359
  688MPD2    N110236   4.320   4.103  17.667  0.6929 -0.6848 -0.5373
  688MPD2    H710237   4.348   4.006  17.672  1.8615 -0.3573 -0.7284
  689TMC3    C110238   4.170   4.029   0.094  0.2634  0.6435 -0.4952
  689TMC3    C210239   4.108   4.062   0.215 -0.1436  0.9494  0.5431
  689TMC3    C310240   4.075   3.955   0.293 -0.1096  0.2225  0.1364
  689TMC3    C410241   4.186   3.901   0.044 -0.1814 -0.0032  0.0586
  689TMC3    C510242   4.139   3.806   0.123  0.3940  1.0136 -0.4428
  689TMC3    C610243   4.092   3.828   0.250 -0.0904 -0.2593 -0.5116
  689TMC3     C10244   4.215   4.140   0.014  0.0037 -0.3433 -0.5510
  689TMC3     O10245   4.192   4.249   0.065 -0.2930  0.6556  0.0961
  689TMC3     H10246   4.095   4.163   0.252  0.0486  0.3922  2.1395
  689TMC3    H110247   4.231   3.883  17.684  0.9058  0.3391  0.4948
  689TMC3    H210248   4.067   3.742   0.312  1.3417  0.0884  0.5322
  689TMC3    C710249   4.192   3.671   0.100 -0.2002 -0.8097  0.3980
  689TMC3    C810250   3.965   3.974   0.390  0.6345 -0.0790  0.1784
  689TMC3    O110251   4.228   3.603   0.196  0.1316  0.2080 -0.2412
  689TMC3    O210252   3.952   3.879   0.472  0.4351  0.1434  0.4740
  690MPD2     C10253   1.974   1.420  15.789 -0.7233  0.0095 -0.1972
  690MPD2    C110254   1.921   1.465  15.677 -0.1319 -0.3030 -0.4739
  690MPD2    C210255   2.007   1.546  15.592 -0.5952 -0.2055 -1.0231
  690MPD2    C310256   2.143   1.572  15.620 -0.1700  0.1598  0.0308
  690MPD2    C410257   2.194   1.510  15.732 -0.8616 -0.0918  0.5303
  690MPD2    C510258   2.109   1.444  15.818 -0.0409 -0.2261  0.5814
  690MPD2     H10259   1.961   1.579  15.499 -0.1451 -0.1735 -1.2367
  690MPD2    H110260   2.299   1.497  15.758 -0.8534 -1.1658 -0.0650
  690MPD2    H210261   1.920   1.370  15.870 -1.8661  1.6573  0.0487
  690MPD2    H310262   2.154   1.398  15.905 -1.9683 -1.5575  0.8819
  690MPD2     N10263   2.223   1.628  15.514  0.3782 -0.2124 -1.1738
  690MPD2    H510264   2.183   1.671  15.431  2.2887  0.4354 -1.7754
  690MPD2    N110265   1.780   1.458  15.653  0.2928  0.5149  0.4529
  690MPD2    H710266   1.736   1.508  15.576 -0.7488 -0.0550  0.6742
  691TMC3    C110267   1.569   1.368  15.705  0.0911 -0.3098 -0.5352
  691TMC3    C210268   1.513   1.496  15.739 -0.4936 -0.2072 -0.6416
  691TMC3    C310269   1.407   1.509  15.819  0.7850  0.0134  0.3641
  691TMC3    C410270   1.509   1.260  15.751  1.0507  0.0131  0.3413
  691TMC3    C510271   1.403   1.271  15.833 -0.3458 -0.3774  0.1004
  691TMC3    C610272   1.350   1.395  15.874 -0.0071  0.8916  0.1220
  691TMC3     C10273   1.711   1.346  15.699 -0.4705  0.6066 -0.0547
  691TMC3     O10274   1.752   1.248  15.756  0.0277  0.2707  0.1144
  691TMC3     H10275   1.562   1.588  15.710  1.5444 -1.3408 -0.8193
  691TMC3    H110276   1.542   1.161  15.722 -1.2337 -0.0653 -1.9583
  691TMC3    H210277   1.281   1.406  15.957 -2.1764 -0.9780 -1.4446
  691TMC3    C710278   1.338   1.155  15.883  0.2739 -0.3257  0.5263
  691TMC3    C810279   1.344   1.639  15.847 -0.1630 -0.9816 -0.1245
  691TMC3    O110280   1.340   1.057  15.813 -0.0590 -0.3850 -0.4097
  691TMC3    O210281   1.413   1.737  15.814 -0.3574  0.2666  0.3253
  692TMC3    C110282   3.697   2.041  15.762 -0.5761 -0.0085  0.1722
  692TMC3    C210283   3.809   2.105  15.822 -0.1963 -0.1697 -0.0566
  692TMC3    C310284   3.886   2.032  15.912  0.8315  0.5739  0.0026
  692TMC3    C410285   3.650   1.915  15.795  0.6734 -0.3609  0.2575
  692TMC3    C510286   3.731   1.850  15.879  0.0036  0.2032  0.0649
  692TMC3    C610287   3.842   1.903  15.933  0.4725  0.3229  0.1461
  692TMC3     C10288   3.608   2.125  15.684  0.1835  0.5236  0.6967
  692TMC3     O10289   3.501   2.074  15.658 -1.0974  0.6768  1.1050
  692TMC3     H10290   3.856   2.192  15.778 -2.2893 -0.2464 -2.4010
  692TMC3    H110291   3.563   1.867  15.751  1.3800 -1.1181 -0.3137
  692TMC3    H210292   3.888   1.854  16.019 -1.8040 -0.2538  1.0531
  692TMC3    C710293   3.697   1.717  15.919 -0.7025 -0.0128  0.3595
  692TMC3    C810294   3.933   2.106  16.029  0.4109 -0.1333 -0.2996
  692TMC3    O110295   3.583   1.684  15.884 -0.0488  0.1319 -0.3308
  692TMC3    O210296   3.967   2.040  16.129  0.4221 -0.0253  0.6308
  693MPD2     C10297   2.910   0.493  10.634  0.4540  0.5564 -0.0957
  693MPD2    C110298   2.829   0.440  10.729  0.5014  0.3403  0.3641
  693MPD2    C210299   2.882   0.420  10.855  0.6429  0.0402 -0.9816
  693MPD2    C310300   3.014   0.447  10.887  0.1832 -0.0644  0.1108
  693MPD2    C410301   3.095   0.493  10.785  0.9062  0.5583  0.4122
  693MPD2    C510302   3.042   0.522  10.656 -0.1040 -0.2289  0.4797
  693MPD2     H10303   2.818   0.373  10.929 -0.5887  0.9374 -1.4674
  693MPD2    H110304   3.202   0.496  10.802  1.0099 -1.0674  0.0081
  693MPD2    H210305   2.871   0.500  10.533  2.3825  1.4317 -0.7808
  693MPD2    H310306   3.102   0.549  10.570 -0.1607 -2.4828 -0.2613
  693MPD2     N10307   3.072   0.430  11.017  0.5317  0.2127  0.8193
  693MPD2    H510308   3.172   0.437  11.031  0.5031 -0.2013  1.2543
  693MPD2    N110309   2.689   0.410  10.703 -0.6828  0.2659  0.2979
  693MPD2    H710310   2.634   0.372  10.779 -0.4813 -0.9687 -0.1663
  694TMC3    C110311   2.484   0.400  10.596 -0.1782  0.1789  0.0424
  694TMC3    C210312   2.426   0.369  10.474 -0.3871 -0.5226  0.2185
  694TMC3    C310313   2.301   0.420  10.452 -0.6411  0.7813 -0.2015
  694TMC3    C410314   2.427   0.487  10.687 -0.2190 -0.0285  0.0882
  694TMC3    C510315   2.297   0.529  10.661 -0.6567 -0.3159  0.1602
  694TMC3    C610316   2.232   0.486  10.546 -0.1330  0.2919 -0.2172
  694TMC3     C10317   2.625   0.406  10.580 -0.4458  0.5258  0.1118
  694TMC3     O10318   2.667   0.425  10.464 -0.9082  0.2295 -0.3428
  694TMC3     H10319   2.479   0.298  10.411 -0.2750 -0.2833  0.0468
  694TMC3    H110320   2.466   0.507  10.786 -0.1015 -2.0151  0.4517
  694TMC3    H210321   2.129   0.519  10.535  0.0223  0.2950 -1.5926
  694TMC3    C710322   2.207   0.533  10.769  0.4603 -0.0737 -0.5803
  694TMC3    C810323   2.213   0.342  10.362 -0.3988 -0.0980  0.2330
  694TMC3    O110324   2.118   0.614  10.769 -0.1816  0.0094  0.0956
  694TMC3    O210325   2.264   0.234  10.338  0.0630  0.0791 -0.2244
  695MPD2     C10326   4.267   2.010  13.545  0.3268  0.1722 -0.0603
  695MPD2    C110327   4.254   1.969  13.675 -0.0243  0.4381 -0.6908
  695MPD2    C210328   4.140   1.899  13.719  0.0441 -0.5656 -0.6847
  695MPD2    C310329   4.032   1.886  13.639 -0.4173 -0.1552  0.0429
  695MPD2    C410330   4.042   1.933  13.510 -0.1210  0.5940 -0.2033
  695MPD2    C510331   4.159   1.982  13.464  0.0757  0.8192 -0.7761
  695MPD2     H10332   4.128   1.872  13.823 -1.4979 -1.5460 -1.1034
  695MPD2    H110333   3.958   1.935  13.442  0.4644  0.0236 -0.9396
  695MPD2    H210334   4.351   2.057  13.495  1.0228 -0.9434  0.0422
  695MPD2    H310335   4.156   2.018  13.362  0.2513  0.5124 -0.8863
  695MPD2     N10336   3.923   1.812  13.689  0.3223 -0.2807 -0.2323
  695MPD2    H510337   3.945   1.756  13.771  1.5074  2.0417  1.0204
  695MPD2    N110338   4.367   1.985  13.766 -0.1716 -0.1292  0.3286
  695MPD2    H710339   4.356   1.985  13.867  0.1253  0.7224  0.3633
  696TMC3    C110340   3.707   1.716  13.710  0.1548  0.9471 -0.5879
  696TMC3    C210341   3.748   1.666  13.829  0.2609  0.0644 -0.6479
  696TMC3    C310342   3.655   1.598  13.898 -0.2681  0.7249  0.0885
  696TMC3    C410343   3.581   1.694  13.660  0.3041 -0.5214 -0.7448
  696TMC3    C510344   3.491   1.651  13.747 -0.2889  0.0817  0.2263
  696TMC3    C610345   3.522   1.598  13.867  0.0889 -0.3670  0.0101
  696TMC3     C10346   3.800   1.808  13.638  0.5139  0.3518 -0.8096
  696TMC3     O10347   3.764   1.891  13.553  0.7345  0.7403  0.2931
  696TMC3     H10348   3.852   1.657  13.857 -0.0527  0.1756  0.5686
  696TMC3    H110349   3.545   1.715  13.560  1.7976  2.1809 -0.7297
  696TMC3    H210350   3.444   1.556  13.928 -0.7539  0.9427 -0.1814
  696TMC3    C710351   3.352   1.701  13.723 -0.7830  0.1154 -0.1968
  696TMC3    C810352   3.667   1.609  14.040 -0.0585  0.1195 -1.2924
  696TMC3    O110353   3.315   1.727  13.610 -0.1544 -0.1698 -0.4061
  696TMC3    O210354   3.590   1.682  14.097 -0.4550  0.0242  0.1993
  697MPD2     C10355   2.824   3.983  15.420 -0.5157 -0.1482 -0.6461
  697MPD2    C110356   2.896   3.916  15.324  0.2785  0.0307  0.6488
  697MPD2    C210357   2.989   3.987  15.252  0.5173  0.7175  0.6856
  697MPD2    C310358   3.016   4.117  15.286 -1.0200 -0.2569  0.2801
  697MPD2    C410359   2.953   4.180  15.391 -0.3850  0.2617 -0.0119
  697MPD2    C510360   2.856   4.111  15.460  0.1281  0.2254 -0.2280
  697MPD2     H10361   3.049   3.942  15.174 -0.8235 -0.2869  0.2412
  697MPD2    H110362   2.969   4.285  15.413  1.0150 -0.1878  1.1207
  697MPD2    H210363   2.742   3.938  15.474 -2.8315  2.0062 -2.3967
  697MPD2    H310364   2.793   4.156  15.537 -0.3459 -1.8047  0.5685
  697MPD2     N10365   3.102   4.187  15.202 -0.1976  0.2806 -0.3198
  697MPD2    H510366   3.146   4.137  15.125 -1.0499 -1.5899  0.3854
  697MPD2    N110367   2.885   3.779  15.293  0.1369  0.5465 -0.1609
  697MPD2    H710368   2.941   3.749  15.213 -1.3437 -0.0926 -0.9563
  698TMC3    C110369   3.204   4.369  15.101 -0.1316  0.7424 -0.2779
  698TMC3    C210370   3.291   4.465  15.130 -0.3512 -0.1601  0.6675
  698TMC3    C310371   3.385   4.511  15.041  0.1284  0.5016  0.0395
  698TMC3    C410372   3.224   4.299  14.985  0.1733  0.6350 -0.4395
  698TMC3    C510373   3.312   4.352  14.888 -0.3159  0.8338 -0.2028
  698TMC3    C610374   3.394   4.461  14.918  0.4032  0.4849  0.2443
  698TMC3     C10375   3.135   4.318  15.217 -0.0061 -0.0261  0.5330
  698TMC3     O10376   3.125   4.393  15.313 -0.3965  0.0377  0.4533
  698TMC3     H10377   3.278   4.516  15.224 -3.9608 -1.7680  1.0277
  698TMC3    H110378   3.160   4.216  14.956  2.0679 -0.8749 -0.2646
  698TMC3    H210379   3.420   4.527  14.836  2.3110  0.0028  0.4573
  698TMC3    C710380   3.319   4.299  14.758  0.3184  0.0188 -0.5272
  698TMC3    C810381   3.447   4.637  15.080  0.2569 -0.0943 -0.3247
  698TMC3    O110382   3.226   4.230  14.714 -0.0279  0.2071  0.8770
  698TMC3    O210383   3.376   4.698  15.155 -0.0175 -0.8392  0.4054
  699TMC3    C110384   3.430   2.425  13.041 -0.6127 -0.3784  0.0989
  699TMC3    C210385   3.509   2.320  13.050 -0.0702  0.3709  0.0221
  699TMC3    C310386   3.474   2.220  13.136 -0.1512 -0.0177 -0.1799
  699TMC3    C410387   3.318   2.439  13.109  0.4214 -0.5021 -0.7718
  699TMC3    C510388   3.276   2.329  13.182 -0.0254 -0.2439 -0.0842
  699TMC3    C610389   3.361   2.226  13.214 -0.2645 -0.0346  0.4742
  699TMC3     C10390   3.427   2.501  12.917  0.0858 -0.1278 -0.1555
  699TMC3     O10391   3.314   2.494  12.870  0.9568 -0.1783 -0.2111
  699TMC3     H10392   3.595   2.312  12.985 -0.2809  0.5017 -0.2730
  699TMC3    H110393   3.262   2.530  13.089 -0.5288 -0.4915  2.0311
  699TMC3    H210394   3.319   2.144  13.271 -0.1035 -1.3479 -1.2809
  699TMC3    C710395   3.145   2.315  13.230 -0.8453 -0.5988  0.1904
  699TMC3    C810396   3.553   2.093  13.125 -0.4804 -0.3385  0.1029
  699TMC3    O110397   3.133   2.254  13.334  0.4958 -0.6321 -0.3472
  699TMC3    O210398   3.638   2.085  13.035 -0.2160 -0.0730  0.2697
  700TMC3    C110399   2.300   4.150  17.181  0.2272 -0.6347  0.5120
  700TMC3    C210400   2.402   4.076  17.135 -0.1881  0.7126  0.1809
  700TMC3    C310401   2.498   4.032  17.224 -0.1922  0.0859  0.0107
  700TMC3    C410402   2.298   4.199  17.310  0.2359 -0.4879 -0.2545
  700TMC3    C510403   2.399   4.154  17.388 -0.3977 -0.2484  1.1907
  700TMC3    C610404   2.500   4.072  17.354  0.2107  0.4951 -0.2350
  700TMC3     C10405   2.245   4.247  17.080 -0.0299 -0.2312 -0.1486
  700TMC3     O10406   2.136   4.307  17.108 -0.3464 -0.3257  0.1948
  700TMC3     H10407   2.394   4.032  17.036 -0.8016 -1.1872  1.0755
  700TMC3    H110408   2.232   4.281  17.336 -0.1329 -0.8796  0.0199
  700TMC3    H210409   2.584   4.048  17.418  1.6574  0.4262 -2.1765
  700TMC3    C710410   2.447   4.261  17.469  0.1867  0.4558  0.4340
  700TMC3    C810411   2.593   3.948  17.164 -0.9968  0.4884  0.3570
  700TMC3    O110412   2.556   4.306  17.433  0.2124  0.1934 -0.6563
  700TMC3    O210413   2.605   3.955  17.043 -0.0236  0.5382  0.3827
  701TMC3    C110414   2.524   3.192  14.879  0.1468  0.2057 -0.1922
  701TMC3    C210415   2.429   3.195  14.785  0.1138 -0.5019 -0.6752
  701TMC3    C310416   2.388   3.317  14.735 -0.1401  0.4618 -0.1827
  701TMC3    C410417   2.581   3.307  14.917  0.0866  0.6968  0.1915
  701TMC3    C510418   2.554   3.417  14.851 -0.5724  0.9250  0.2832
  701TMC3    C610419   2.461   3.426  14.760  0.1907  0.1852 -0.1870
  701TMC3     C10420   2.566   3.072  14.947  0.8247  0.4312 -0.3067
  701TMC3     O10421   2.646   3.082  15.040 -0.4208 -0.2294  0.0489
  701TMC3     H10422   2.354   3.117  14.784 -1.0092  0.5549  1.5362
  701TMC3    H110423   2.661   3.313  14.990 -1.0381 -0.7760  1.5561
  701TMC3    H210424   2.434   3.520  14.713  1.2240  0.1689 -0.8116
  701TMC3    C710425   2.576   3.533  14.932 -0.4712 -0.0865 -0.7834
  701TMC3    C810426   2.309   3.324  14.620  0.1620 -0.3303  0.0120
  701TMC3    O110427   2.629   3.631  14.879  0.4553 -0.3344  0.2175
  701TMC3    O210428   2.293   3.436  14.570 -0.2610 -0.0249  0.0875
  702MPD2     C10429   1.644   1.390  10.448  0.4116  0.2171 -0.5096
  702MPD2    C110430   1.728   1.300  10.502 -0.9682  0.2005 -0.7178
  702MPD2    C210431   1.863   1.319  10.485  0.2067 -0.0703  1.2766
  702MPD2    C310432   1.912   1.415  10.396  0.6973 -0.1285 -0.8681
  702MPD2    C410433   1.825   1.495  10.327  0.2018 -0.2098  0.0186
  702MPD2    C510434   1.696   1.484  10.362  0.4358  0.0640  0.1922
  702MPD2     H10435   1.931   1.240  10.517 -1.1432 -1.1818  1.4017
  702MPD2    H110436   1.845   1.584  10.267 -3.3107 -0.1176 -1.0012
  702MPD2    H210437   1.539   1.387  10.476  0.6495 -1.2689  0.2216
  702MPD2    H310438   1.627   1.555  10.318 -0.5223 -0.8995  0.1162
  702MPD2     N10439   2.053   1.441  10.385  0.9815  0.3629  0.4007
  702MPD2    H510440   2.076   1.519  10.323 -1.2463  0.4370 -0.3172
  702MPD2    N110441   1.696   1.183  10.571 -0.1338  0.1709  0.1581
  702MPD2    H710442   1.774   1.129  10.607 -1.7571 -2.4076 -0.1574
  703TMC3    C110443   2.267   1.473  10.467  0.3901 -0.1836  0.2071
  703TMC3    C210444   2.324   1.455  10.589 -0.4395  0.1047  0.0309
  703TMC3    C310445   2.393   1.563  10.636 -0.7335 -0.2668  0.4837
  703TMC3    C410446   2.269   1.587  10.392 -0.2013  0.4322 -0.2686
  703TMC3    C510447   2.345   1.688  10.446 -0.3676 -0.0823 -0.6739
  703TMC3    C610448   2.401   1.685  10.566  0.4396 -0.4671 -0.7761
  703TMC3     C10449   2.155   1.391  10.458  0.2139  0.3438  0.3611
  703TMC3     O10450   2.146   1.312  10.554  0.0946  0.2305 -0.0483
  703TMC3     H10451   2.332   1.361  10.642 -0.4323  0.1963  0.1929
  703TMC3    H110452   2.231   1.593  10.291  0.1638 -2.1480 -0.5636
  703TMC3    H210453   2.442   1.776  10.609  0.1457 -2.6071  4.0771
  703TMC3    C710454   2.414   1.773  10.354 -0.3834  0.3620 -0.1964
  703TMC3    C810455   2.371   1.566  10.782 -0.7563 -0.0621  0.1157
  703TMC3    O110456   2.524   1.816  10.396 -0.2062  0.5296 -0.0247
  703TMC3    O210457   2.433   1.646  10.849  0.2188 -0.3421  0.5395
  704TMC3    C110458   4.389   3.680  12.093  0.5052 -0.2172  0.6023
  704TMC3    C210459   4.362   3.612  11.975  0.1962  0.0934 -0.0936
  704TMC3    C310460   4.448   3.506  11.943  0.0980  0.3907 -0.8807
  704TMC3    C410461   4.496   3.657  12.170  0.4693 -0.3860 -0.0094
  704TMC3    C510462   4.576   3.551  12.129 -0.2936 -0.7949 -0.5805
  704TMC3    C610463   4.563   3.480  12.011 -0.0165 -0.2409  0.2552
  704TMC3     C10464   4.334   3.804  12.108 -0.1165  0.8893 -0.1256
  704TMC3     O10465   4.273   3.825  12.211 -0.0730  0.3366  0.1663
  704TMC3     H10466   4.263   3.618  11.931 -1.0351  0.1996  2.6915
  704TMC3    H110467   4.512   3.715  12.260 -0.1735  0.2579 -0.3163
  704TMC3    H210468   4.629   3.396  11.992  2.4818  1.8760 -0.2952
  704TMC3    C710469   4.652   3.479  12.232  0.0749 -0.6046  0.1732
  704TMC3    C810470   4.375   3.395  11.892  0.4682  0.1865  0.6299
  704TMC3    O110471   4.680   3.362  12.215  0.2677  0.3278 -0.2464
  704TMC3    O210472   4.261   3.376  11.931 -0.2908 -0.0446 -0.2339
  705MPD2     C10473   3.822   1.627  16.335 -0.0212  0.4980  0.4963
  705MPD2    C110474   3.878   1.756  16.328  0.6695  0.0904  0.1379
  705MPD2    C210475   3.785   1.866  16.333 -0.7976  0.4224  0.2391
  705MPD2    C310476   3.646   1.840  16.355 -0.0770 -0.8977  0.2229
  705MPD2    C410477   3.600   1.712  16.360 -0.7549  0.1902  0.3974
  705MPD2    C510478   3.688   1.607  16.352  0.2465 -0.0360 -0.6028
  705MPD2     H10479   3.826   1.967  16.331  1.9522 -0.7040 -0.7563
  705MPD2    H110480   3.495   1.692  16.375  0.0328 -2.6219  2.1659
  705MPD2    H210481   3.879   1.537  16.315  1.6539  1.6046  0.1958
  705MPD2    H310482   3.638   1.513  16.333  1.2673 -0.9310  1.1503
  705MPD2     N10483   3.555   1.941  16.393  0.7324 -0.4575 -0.8947
  705MPD2    H510484   3.459   1.907  16.392 -0.1298  1.9428  0.3631
  705MPD2    N110485   4.015   1.788  16.310 -0.4279  0.1831  0.0737
  705MPD2    H710486   4.025   1.888  16.302 -3.3248  0.6811  2.4727
  706TMC3    C110487   4.414   1.743  16.072 -0.1449  0.7720  0.4364
  706TMC3    C210488   4.434   1.878  16.078  0.6173 -0.1113 -0.3821
  706TMC3    C310489   4.343   1.954  16.142 -0.1591  0.0953  0.1158
  706TMC3    C410490   4.321   1.682  16.159 -0.1991  0.2492  0.7143
  706TMC3    C510491   4.238   1.760  16.230 -0.7308 -0.3246 -0.4821
  706TMC3    C610492   4.239   1.898  16.217 -0.3689  0.2696 -0.1371
  706TMC3     C10493   4.529   1.661  16.029  0.4854 -0.4223  0.4801
  706TMC3     O10494   4.631   1.722  15.986  0.1257 -0.3097  0.1110
  706TMC3     H10495   4.517   1.918  16.021 -1.2057  0.9069 -2.3184
  706TMC3    H110496   4.318   1.574  16.168  0.2714 -0.0198 -2.4142
  706TMC3    H210497   4.182   1.968  16.276  0.8336  0.3966  0.8701
  706TMC3    C710498   4.117   1.701  16.287 -0.1550  0.1345  0.3375
  706TMC3    C810499   4.383   2.090  16.153 -0.0945  0.5000 -0.3323
  706TMC3    O110500   4.114   1.579  16.299 -0.7532  0.2101  0.4349
  706TMC3    O210501   4.451   2.142  16.068 -0.0764 -0.1065  0.0425
  707TMC3    C110502   4.704   0.525   1.507 -0.1493  0.0223 -0.2893
  707TMC3    C210503   0.050   0.465   1.412  0.4852 -0.0344  0.4233
  707TMC3    C310504   0.042   0.323   1.408  0.4641 -0.1408 -0.1045
  707TMC3    C410505   4.616   0.455   1.586 -0.2831 -0.2118  0.0541
  707TMC3    C510506   4.607   0.319   1.571  0.6215  0.0361  0.6660
  707TMC3    C610507   4.682   0.251   1.477  0.4472  0.4822  0.0339
  707TMC3     C10508   4.729   0.669   1.512 -0.0402  0.1365 -0.0504
  707TMC3     O10509   0.087   0.714   1.448 -0.6689 -0.3949 -0.5346
  707TMC3     H10510   0.092   0.516   1.326  0.4430  0.3342  0.6208
  707TMC3    H110511   4.555   0.511   1.655  1.1949 -1.4568  2.3700
  707TMC3    H210512   4.682   0.143   1.467  0.9891  0.4289  0.6415
  707TMC3    C710513   4.502   0.245   1.636  0.8326 -0.2996 -0.1628
  707TMC3    C810514   0.142   0.248   1.339  0.8455 -0.3964  0.6905
  707TMC3    O110515   4.517   0.124   1.638 -0.0865  0.1165  0.2684
  707TMC3    O210516   0.129   0.131   1.313  0.0297  0.4018 -0.5288
  708MPD2     C10517   2.493   0.160  14.344  0.2729  0.4437 -0.4763
  708MPD2    C110518   2.372   0.196  14.399  0.5107 -0.2904 -0.3772
  708MPD2    C210519   2.365   0.245  14.529  0.3663 -0.4037  0.9088
  708MPD2    C310520   2.477   0.251  14.607  0.3842 -0.6998  0.2714
  708MPD2    C410521   2.604   0.232  14.544 -0.5834  0.5657  0.3709
  708MPD2    C510522   2.602   0.194  14.412 -0.2245 -0.1958 -0.4780
  708MPD2     H10523   2.263   0.258  14.563  0.3970 -1.8498  1.5620
  708MPD2    H110524   2.701   0.247  14.591 -0.5513  1.8172 -0.1053
  708MPD2    H210525   2.503   0.131  14.240 -1.7346 -0.0872 -0.5395
  708MPD2    H310526   2.700   0.192  14.364  0.9461  0.7640  1.8576
  708MPD2     N10527   2.477   0.273  14.748 -0.3449  0.4353  0.4724
  708MPD2    H510528   2.569   0.302  14.780 -0.5499  1.5587  0.0317
  708MPD2    N110529   2.250   0.168  14.340 -0.2652  0.1512  0.3187
  708MPD2    H710530   2.167   0.187  14.394 -0.9342 -1.2893 -0.1948
  709TMC3    C110531   2.087   0.151  14.169 -0.4000 -0.0139  0.9558
  709TMC3    C210532   2.063   0.247  14.081  0.7349  0.2205 -0.7290
  709TMC3    C310533   1.951   0.324  14.111  0.1433  0.2829 -0.2607
  709TMC3    C410534   2.011   0.123  14.278  0.2269 -0.7807  0.0202
  709TMC3    C510535   1.912   0.213  14.314 -0.5411 -0.0835 -0.0362
  709TMC3    C610536   1.884   0.316  14.226  0.4372 -0.1425  0.4366
  709TMC3     C10537   2.230   0.136  14.203 -0.4413  0.4602  0.2906
  709TMC3     O10538   2.312   0.158  14.115 -0.0169 -0.4356  0.5328
  709TMC3     H10539   2.136   0.269  14.004  0.2696 -0.6743 -1.4270
  709TMC3    H110540   2.038   0.039  14.341  3.4593  0.4493  0.2426
  709TMC3    H210541   1.798   0.377  14.247  0.1298 -0.4515  0.0753
  709TMC3    C710542   1.910   0.241  14.457  0.5141 -0.0282 -0.3964
  709TMC3    C810543   1.886   0.397  14.013  1.2039 -0.5062  0.2162
  709TMC3    O110544   2.016   0.200  14.506  0.0501 -0.7632  0.2742
  709TMC3    O210545   1.792   0.471  14.052 -0.4842  0.0447 -0.6963
  710TMC3    C110546   3.511   1.458   0.146 -0.0854  0.0084 -0.3208
  710TMC3    C210547   3.579   1.439   0.025  0.2319  0.1143 -1.2381
  710TMC3    C310548   3.661   1.329   0.014  0.6583  0.2879  0.5233
  710TMC3    C410549   3.524   1.365   0.248 -0.0840 -0.1827  0.1082
  710TMC3    C510550   3.601   1.255   0.228 -0.4850 -0.0753  0.3676
  710TMC3    C610551   3.677   1.236   0.113  0.1308 -0.4881  0.5586
  710TMC3     C10552   3.429   1.576   0.156  0.3901  0.1738 -0.6638
  710TMC3     O10553   3.420   1.655   0.059 -0.3307 -0.3538  0.4015
  710TMC3     H10554   3.579   1.512  17.682 -1.1977 -1.3024 -2.5422
  710TMC3    H110555   3.461   1.373   0.336 -0.1026  1.9851 -0.1045
  710TMC3    H210556   3.746   1.153   0.107  0.4434 -0.2539  0.9351
  710TMC3    C710557   3.583   1.153   0.326  1.0300 -0.0792  0.0645
  710TMC3    C810558   3.727   1.310  17.618  0.2400 -0.3519 -0.4020
  710TMC3    O110559   3.530   1.199   0.433 -0.1862  0.1398  0.3451
  710TMC3    O210560   3.718   1.408  17.543 -0.0698 -0.5453 -0.1090
  711TMC3    C110561   3.452   2.724  15.097 -0.7392 -0.5532  0.0009
  711TMC3    C210562   3.471   2.820  15.195 -0.1430 -0.3698 -0.0219
  711TMC3    C310563   3.558   2.799  15.293  0.0019  1.0089 -0.6850
  711TMC3    C410564   3.503   2.595  15.115  0.5516 -0.5296  0.1843
  711TMC3    C510565   3.606   2.580  15.206 -0.0782  0.1414  0.4871
  711TMC3    C610566   3.638   2.683  15.297  0.0342  0.7865 -0.1823
  711TMC3     C10567   3.330   2.733  15.016 -0.1774  0.6059 -0.2974
  711TMC3     O10568   3.272   2.626  14.990  0.1035 -0.3035 -0.4611
  711TMC3     H10569   3.413   2.912  15.191  0.0136 -0.2245  0.9514
  711TMC3    H110570   3.485   2.516  15.042  1.0720  0.5833 -1.1589
  711TMC3    H210571   3.708   2.661  15.377  0.5787  0.8363 -0.6463
  711TMC3    C710572   3.647   2.447  15.247  0.4570  0.0653 -0.0661
  711TMC3    C810573   3.559   2.885  15.408  0.7518 -0.5020 -0.1223
  711TMC3    O110574   3.753   2.440  15.308  0.0812 -0.2801 -0.5087
  711TMC3    O210575   3.455   2.942  15.426  0.3595  0.2007 -0.0561
  712MPD2     C10576   0.332   3.650  14.065  0.3814 -0.0741  0.2016
  712MPD2    C110577   0.250   3.640  13.958 -0.1929 -0.1943  0.6959
  712MPD2    C210578   0.210   3.758  13.899 -0.1503 -0.4205  1.0189
  712MPD2    C310579   0.244   3.882  13.956  0.5665 -0.5906  0.3979
  712MPD2    C410580   0.331   3.885  14.065 -0.5882  0.6953 -0.1465
  712MPD2    C510581   0.374   3.768  14.116  0.5188 -0.1068 -0.5443
  712MPD2     H10582   0.136   3.752  13.820  0.7224  1.6841  0.0210
  712MPD2    H110583   0.373   3.977  14.104  0.2803  0.0084  0.5398
  712MPD2    H210584   0.367   3.567  14.125  1.0919 -0.2750 -0.4934
  712MPD2    H310585   0.443   3.765  14.200  1.0727  1.8205 -0.9350
  712MPD2     N10586   0.209   4.011  13.903  0.3570  0.4969  0.1639
  712MPD2    H510587   0.243   4.081  13.968  3.7393  1.0201 -2.1726
  712MPD2    N110588   0.212   3.518  13.897  0.3673  0.1619 -0.3963
  712MPD2    H710589   0.169   3.532  13.806 -0.5415  2.9853  0.4557
  713TMC3    C110590   0.102   4.166  13.760  0.1772 -0.9416  0.5356
  713TMC3    C210591   0.139   4.263  13.850 -0.3541  0.3287  0.0148
  713TMC3    C310592   0.099   4.392  13.833 -0.0061  0.2285 -0.2497
  713TMC3    C410593   0.027   4.198  13.649  0.1951 -0.1638 -0.3762
  713TMC3    C510594   4.718   4.330  13.639 -0.6819 -0.4744  0.6665
  713TMC3    C610595   0.008   4.425  13.730  0.1958  0.0064  0.3587
  713TMC3     C10596   0.143   4.036  13.786 -0.6931  0.1003  0.2334
  713TMC3     O10597   0.115   3.955  13.697 -0.3138 -0.1195  0.3485
  713TMC3     H10598   0.214   4.256  13.928  0.1303  0.3875 -0.4414
  713TMC3    H110599   0.008   4.131  13.566  1.1907 -0.7932 -0.1046
  713TMC3    H210600   4.705   4.527  13.722 -0.2577 -0.0571  1.7144
  713TMC3    C710601   4.644   4.376  13.523  0.3340 -0.4998  0.5280
  713TMC3    C810602   0.124   4.480  13.944 -0.2745  0.3220  0.6676
  713TMC3    O110603   4.669   4.313  13.421 -0.6429  0.5192 -0.0570
  713TMC3    O210604   0.029   4.514  14.012 -0.1627 -0.1871 -0.0224
  714MPD2     C10605   2.225   2.551   0.974 -0.7482  0.3019  0.6668
  714MPD2    C110606   2.203   2.442   1.065  0.0226  0.2400  0.8471
  714MPD2    C210607   2.077   2.416   1.099 -0.1721 -0.4799  0.4355
  714MPD2    C310608   1.970   2.482   1.044  0.1741 -0.0170 -1.1126
  714MPD2    C410609   1.996   2.584   0.954  0.1072 -0.1608 -0.6712
  714MPD2    C510610   2.122   2.620   0.924  0.2059  0.2578  0.4372
  714MPD2     H10611   2.056   2.337   1.170  0.5026 -1.5010 -0.5062
  714MPD2    H110612   1.923   2.643   0.901 -0.9757 -0.0034  0.9721
  714MPD2    H210613   2.325   2.576   0.939 -0.4754 -1.9066 -0.1234
  714MPD2    H310614   2.142   2.705   0.860 -1.1532  0.5956  0.4755
  714MPD2     N10615   1.836   2.444   1.070  0.3778  0.2710  0.3935
  714MPD2    H510616   1.821   2.370   1.138  0.3743  1.6878  1.9158
  714MPD2    N110617   2.316   2.372   1.103 -0.4643  0.2572  0.5615
  714MPD2    H710618   2.401   2.415   1.067 -0.1474 -1.4930 -0.7814
  715TMC3    C110619   2.461   2.231   1.210  0.4065  0.1875 -0.4782
  715TMC3    C210620   2.526   2.116   1.174  0.7629  0.3617 -0.2371
  715TMC3    C310621   2.656   2.098   1.218  0.3948 -0.6997  0.4298
  715TMC3    C410622   2.535   2.333   1.270  0.7828 -0.1987 -0.2576
  715TMC3    C510623   2.665   2.312   1.305  0.2586  0.0286 -1.4110
  715TMC3    C610624   2.724   2.193   1.287  0.2853  0.1244 -1.0733
  715TMC3     C10625   2.324   2.256   1.170  0.7602  0.0127  0.6306
  715TMC3     O10626   2.256   2.156   1.160 -0.3115  0.4131  0.2214
  715TMC3     H10627   2.471   2.034   1.130  0.4009  0.3440  0.2555
  715TMC3    H110628   2.476   2.421   1.293 -1.6873 -2.1730  0.9347
  715TMC3    H210629   2.831   2.194   1.304 -0.1849  0.2742  1.8257
  715TMC3    C710630   2.743   2.420   1.366 -0.1185  0.5934  0.3995
  715TMC3    C810631   2.726   1.984   1.174  0.4880  0.2602  0.0378
  715TMC3    O110632   2.850   2.437   1.319  0.2711  0.4284 -0.3083
  715TMC3    O210633   2.671   1.907   1.097 -0.1962 -0.4542 -0.3671
  716MPD2     C10634   2.326   0.996   9.931  0.0253  0.0900  0.7856
  716MPD2    C110635   2.194   0.970   9.908  0.4436 -0.1713 -0.1038
  716MPD2    C210636   2.137   0.849   9.931 -0.2765  0.8833 -0.3135
  716MPD2    C310637   2.230   0.744   9.964 -0.0829  0.7089 -0.0441
  716MPD2    C410638   2.365   0.770   9.985 -0.1770 -0.6175  0.8055
  716MPD2    C510639   2.408   0.897   9.980 -0.9150 -0.4656 -0.0993
  716MPD2     H10640   2.033   0.822   9.918 -0.2701  0.0634  1.3521
  716MPD2    H110641   2.433   0.694  10.022 -0.0532 -1.0224 -0.2364
  716MPD2    H210642   2.367   1.095   9.911 -0.8174  0.0243 -1.2284
  716MPD2    H310643   2.509   0.921  10.011 -1.1809  0.4418  0.0786
  716MPD2     N10644   2.185   0.610   9.972  0.1628 -0.1087 -0.0515
  716MPD2    H510645   2.090   0.595   9.941  0.5516  0.9509 -1.7752
  716MPD2    N110646   2.117   1.080   9.857  0.1470 -0.2509  0.3336
  716MPD2    H710647   2.160   1.171   9.847  1.5525 -1.1624 -1.7727
  717TMC3    C110648   2.218   0.384   9.927  0.2813  0.3742 -0.3439
  717TMC3    C210649   2.137   0.389   9.815 -0.2269  0.1657  0.2810
  717TMC3    C310650   2.095   0.269   9.762  0.4307  0.4103 -0.7516
  717TMC3    C410651   2.226   0.273  10.005 -0.1429  0.0899 -0.6188
  717TMC3    C510652   2.182   0.156   9.948 -0.2047  0.4091 -0.3235
  717TMC3    C610653   2.120   0.153   9.824  0.4536 -0.0243  0.2770
  717TMC3     C10654   2.268   0.502   9.997 -0.4491  0.1878  0.5306
  717TMC3     O10655   2.367   0.485  10.068 -0.2315  0.4649 -0.1393
  717TMC3     H10656   2.124   0.483   9.762  0.2118 -0.2905 -0.6527
  717TMC3    H110657   2.290   0.278  10.093  0.5285  0.6642 -1.1395
  717TMC3    H210658   2.085   0.059   9.783  0.1367 -0.4138  1.4512
  717TMC3    C710659   2.227   0.030  10.003  0.0848  0.3604  0.1129
  717TMC3    C810660   1.999   0.274   9.655 -0.4592  1.2237 -1.0265
  717TMC3    O110661   2.235   4.678   9.923  0.1958  0.6572  0.2884
  717TMC3    O210662   1.919   0.366   9.653 -0.0918 -0.0487  0.0282
  718MPD2     C10663   1.830   4.471  12.687  0.8410 -0.1982 -0.3955
  718MPD2    C110664   1.706   4.482  12.744  0.0297  0.0362  1.1499
  718MPD2    C210665   1.609   4.384  12.719 -0.2072  0.7420  0.2540
  718MPD2    C310666   1.648   4.283  12.635 -0.0034 -0.6797 -0.4141
  718MPD2    C410667   1.773   4.276  12.583 -0.0077  0.1908  0.0774
  718MPD2    C510668   1.867   4.365  12.618 -0.1908  0.5663 -0.2030
  718MPD2     H10669   1.507   4.381  12.755 -0.1546  0.4301  0.3782
  718MPD2    H110670   1.801   4.194  12.518 -0.1388 -0.6321  1.0523
  718MPD2    H210671   1.903   4.550  12.696  2.7067 -2.0347  0.7097
  718MPD2    H310672   1.969   4.362  12.582  0.3388 -0.4812  1.3510
  718MPD2     N10673   1.533   4.197  12.609  0.0480  0.2213  0.1237
  718MPD2    H510674   1.442   4.219  12.648  0.1608 -1.1333  1.1607
  718MPD2    N110675   1.666   4.591  12.829 -0.0278 -0.3990 -0.3415
  718MPD2    H710676   1.571   4.591  12.864  0.3740 -2.1415  0.7304
  719TMC3    C110677   1.641   0.080  12.893 -0.4930 -0.2021 -0.7214
  719TMC3    C210678   1.524   0.026  12.928  0.4652 -0.4756 -0.4426
  719TMC3    C310679   1.409   0.084  12.889  0.6521 -0.0680 -0.3279
  719TMC3    C410680   1.659   0.200  12.835 -0.6694 -0.5409 -0.1687
  719TMC3    C510681   1.536   0.264  12.813 -0.0126  0.0547  0.3510
  719TMC3    C610682   1.414   0.209  12.834  0.5714  0.2767 -0.8499
  719TMC3     C10683   1.732   4.708  12.845 -0.1237  0.0273  0.1187
  719TMC3     O10684   1.837   0.013  12.798  0.1692 -0.0061  0.2367
  719TMC3     H10685   1.521   4.679  13.000 -0.0233 -0.5522 -0.5505
  719TMC3    H110686   1.758   0.237  12.811 -0.2044  0.4340  3.2316
  719TMC3    H210687   1.326   0.270  12.817  2.1086  2.8803  0.5959
  719TMC3    C710688   1.539   0.368  12.710 -0.8294  0.6865 -0.3541
  719TMC3    C810689   1.334   4.720  12.816  0.5516  0.5376 -0.1720
  719TMC3    O110690   1.440   0.440  12.699 -0.2499 -0.4199 -0.1213
  719TMC3    O210691   1.366   4.608  12.845  0.2300 -0.2668 -0.1781
  720MPD2     C10692   4.551   0.949  14.055 -0.1309 -0.3881  0.4710
  720MPD2    C110693   4.616   1.004  13.946 -0.0039 -0.2834 -0.0945
  720MPD2    C210694   0.022   1.012  13.950  0.7338 -1.1188  0.5989
  720MPD2    C310695   0.095   0.966  14.055  0.1149 -0.2196  0.8622
  720MPD2    C410696   0.029   0.913  14.163  0.5692  0.1206  0.0071
  720MPD2    C510697   4.628   0.905  14.162 -0.3627 -0.1476 -0.2797
  720MPD2     H10698   0.071   1.063  13.868  0.9335 -0.3095  1.2227
  720MPD2    H110699   0.082   0.870  14.247 -1.4371  0.2265  1.3126
  720MPD2    H210700   4.444   0.941  14.068  0.0424 -1.3765  1.2699
  720MPD2    H310701   4.581   0.877  14.256  0.8774  2.4523  1.1077
  720MPD2     N10702   0.241   0.969  14.046  1.6176  0.1538  0.1418
  720MPD2    H510703   0.274   1.000  13.955 -1.3004  3.1821  0.1186
  720MPD2    N110704   4.550   1.059  13.835  0.4512  0.5621  0.6683
  720MPD2    H710705   4.609   1.099  13.764  0.3098 -0.5504 -0.0731
  721TMC3    C110706   0.476   0.931  14.124  0.1611 -0.5303  0.4120
  721TMC3    C210707   0.563   0.925  14.228 -0.2926  0.5851 -0.6452
  721TMC3    C310708   0.695   0.907  14.203  0.3892 -0.0500  0.3021
  721TMC3    C410709   0.508   0.908  13.995 -0.3963 -0.4220 -0.4833
  721TMC3    C510710   0.646   0.898  13.971  0.2456  0.0048 -0.0878
  721TMC3    C610711   0.734   0.895  14.076  0.1437  0.1476 -0.1410
  721TMC3     C10712   0.327   0.944  14.156  0.3374 -0.3943 -0.0278
  721TMC3     O10713   0.289   0.947  14.270 -0.3685  0.2577 -0.1889
  721TMC3     H10714   0.528   0.946  14.329  2.3088  0.1459  0.3450
  721TMC3    H110715   0.435   0.892  13.916 -2.0438 -1.2855  1.2420
  721TMC3    H210716   0.836   0.868  14.054  0.2777  0.0478  0.6147
  721TMC3    C710717   0.679   0.955  13.844  0.0779 -0.0187  0.7090
  721TMC3    C810718   0.795   0.956  14.302  0.6224  0.3090  0.8698
  721TMC3    O110719   0.581   0.967  13.770 -0.5165 -0.0053 -0.0153
  721TMC3    O210720   0.907   0.955  14.252  0.6977 -0.1818 -0.4533
  722MPD2     C10721   3.587   4.501  13.250 -0.0929 -0.6475 -0.2112
  722MPD2    C110722   3.534   4.633  13.240 -0.9052 -0.1340  0.0932
  722MPD2    C210723   3.398   4.654  13.210 -0.3265  0.3479  0.2641
  722MPD2    C310724   3.312   4.546  13.216  0.5569 -0.3446  0.1903
  722MPD2    C410725   3.363   4.422  13.231  0.4939 -0.1235  0.1704
  722MPD2    C510726   3.499   4.398  13.251  0.4407  0.0028 -0.0419
  722MPD2     H10727   3.353   0.018  13.214  0.8583  0.9351 -0.7381
  722MPD2    H110728   3.296   4.338  13.219  0.2469  0.3422 -1.7747
  722MPD2    H210729   3.694   4.483  13.251 -0.1781 -1.2542 -1.2827
  722MPD2    H310730   3.543   4.299  13.250  1.3296  0.3965 -2.1269
  722MPD2     N10731   3.170   4.550  13.194  1.0974  0.1723  0.9917
  722MPD2    H510732   3.117   4.470  13.227 -2.0683  1.8804  0.1390
  722MPD2    N110733   3.618   0.011  13.256 -0.3732  0.8701  0.2903
  722MPD2    H710734   3.600   0.097  13.205  0.9714  0.1226 -1.4431
  723TMC3    C110735   2.967   4.654  13.113 -0.0563 -0.7148  0.0628
  723TMC3    C210736   2.902   4.556  13.181  0.1223 -0.6113 -1.0211
  723TMC3    C310737   2.761   4.562  13.175  0.1907 -0.3300 -0.3464
  723TMC3    C410738   2.912   0.037  13.065  0.1387  0.2312 -0.1208
  723TMC3    C510739   2.779   0.054  13.098  0.3309 -0.3087 -0.5746
  723TMC3    C610740   2.707   4.681  13.129  0.0641 -0.0231 -0.2215
  723TMC3     C10741   3.110   4.658  13.124 -0.3389 -1.0836  0.4053
  723TMC3     O10742   3.162   0.026  13.075 -0.0404  0.4422  0.5181
  723TMC3     H10743   2.953   4.465  13.209 -1.8067 -1.3973 -0.0371
  723TMC3    H110744   2.962   0.123  13.021  0.7392 -0.2620 -0.4071
  723TMC3    H210745   2.599   4.692  13.125 -0.0905 -1.2353  0.6398
  723TMC3    C710746   2.706   0.170  13.062 -0.4010 -0.1027 -0.4321
  723TMC3    C810747   2.681   4.445  13.169 -0.4057 -0.5540  0.9089
  723TMC3    O110748   2.760   0.244  12.985  0.3996  0.6309  0.0537
  723TMC3    O210749   2.561   4.460  13.166  0.7156  0.0063  0.1274
  724TMC3    C110750   3.769   2.530  10.319 -0.0298  0.5184 -0.3475
  724TMC3    C210751   3.887   2.503  10.248 -0.2651 -0.6038  0.6238
  724TMC3    C310752   3.998   2.581  10.290 -0.7762 -0.3522 -0.6028
  724TMC3    C410753   3.758   2.636  10.409 -0.1692 -0.3514  0.3990
  724TMC3    C510754   3.863   2.719  10.424 -1.0181  0.0818  0.0414
  724TMC3    C610755   3.992   2.689  10.379 -0.1498  0.3726  0.6220
  724TMC3     C10756   3.692   2.416  10.353  0.1756 -0.1509 -0.0278
  724TMC3     O10757   3.648   2.420  10.461  0.5339 -0.1839 -0.1969
  724TMC3     H10758   3.901   2.406  10.202 -0.5037 -0.3873  0.0947
  724TMC3    H110759   3.676   2.640  10.479 -0.5879  2.0983 -0.2138
  724TMC3    H210760   4.076   2.749  10.411 -1.9228  3.1155  0.1485
  724TMC3    C710761   3.867   2.836  10.505 -0.4067 -0.0312 -0.5844
  724TMC3    C810762   4.099   2.592  10.181  1.0454  0.7530 -0.8213
  724TMC3    O110763   3.972   2.878  10.546 -0.7882  0.1988 -0.2701
  724TMC3    O210764   4.082   2.521  10.079  0.2206 -0.0876 -0.6125
  725TMC3    C110765   0.517   1.567  12.740 -0.2759  0.2703 -0.5903
  725TMC3    C210766   0.449   1.632  12.641 -0.0848 -0.6681 -0.1662
  725TMC3    C310767   0.418   1.567  12.528  0.3603  0.3730 -0.2538
  725TMC3    C410768   0.548   1.435  12.736 -0.5565  0.4593 -0.4255
  725TMC3    C510769   0.489   1.369  12.634  0.1614  0.4041 -0.0327
  725TMC3    C610770   0.423   1.435  12.530  0.1038  0.2194 -0.1048
  725TMC3     C10771   0.564   1.650  12.852 -0.3919 -0.0126  0.3420
  725TMC3     O10772   0.501   1.754  12.868 -0.4064  0.2387 -0.7520
  725TMC3     H10773   0.454   1.740  12.634  2.1109 -0.6789  1.1183
  725TMC3    H110774   0.601   1.380  12.814  0.0225  0.7629 -0.6058
  725TMC3    H210775   0.391   1.380  12.442  1.3741 -0.3168 -0.2296
  725TMC3    C710776   0.516   1.232  12.603  0.0069  0.2475 -0.3216
  725TMC3    C810777   0.508   1.600  12.421 -0.6427  0.2308 -0.8576
  725TMC3    O110778   0.491   1.190  12.488 -0.3508 -0.0949  0.3458
  725TMC3    O210779   0.563   1.505  12.370  0.1409  0.1305 -0.1925
  726MPD2     C10780   2.979   3.553  11.162 -0.0349 -0.2004 -0.1343
  726MPD2    C110781   2.944   3.574  11.033 -0.2467 -0.5102 -0.1929
  726MPD2    C210782   2.825   3.517  10.996 -0.3241 -0.1930 -0.0315
  726MPD2    C310783   2.737   3.437  11.074  0.8781  0.0527  0.4437
  726MPD2    C410784   2.782   3.411  11.200 -0.3415  0.1318  0.4285
  726MPD2    C510785   2.903   3.474  11.246  0.1294  0.2109  1.0296
  726MPD2     H10786   2.804   3.541  10.892 -2.4209 -2.2012 -0.0806
  726MPD2    H110787   2.727   3.339  11.259  3.9102 -1.9125  1.9028
  726MPD2    H210788   3.061   3.601  11.214 -0.5908 -0.4379  0.9630
  726MPD2    H310789   2.943   3.442  11.342  2.6064  1.1763  0.3147
  726MPD2     N10790   2.612   3.387  11.038  0.4802 -0.1877 -0.7376
  726MPD2    H510791   2.558   3.333  11.105  1.4029  0.5791  0.6316
  726MPD2    N110792   3.008   3.670  10.950 -0.7816  0.2714  0.6065
  726MPD2    H710793   2.961   3.676  10.859  0.7254  2.2780 -0.0512
  727TMC3    C110794   3.156   3.820  10.869 -0.1873 -0.0542  0.1450
  727TMC3    C210795   3.275   3.892  10.872  0.0984 -0.3163  0.0523
  727TMC3    C310796   3.317   3.971  10.770  0.3563  0.1815  0.0418
  727TMC3    C410797   3.066   3.852  10.770  0.2043 -0.2185 -0.4254
  727TMC3    C510798   3.103   3.948  10.677 -0.1445  0.0537 -0.3303
  727TMC3    C610799   3.226   4.013  10.677 -0.5683 -0.0575 -0.0689
  727TMC3     C10800   3.121   3.737  10.977  0.4459  0.5675 -0.2612
  727TMC3     O10801   3.202   3.718  11.067  0.5143  0.0696  0.6309
  727TMC3     H10802   3.349   3.881  10.950  0.7916 -0.7420 -0.6580
  727TMC3    H110803   2.964   3.818  10.780 -0.4685  1.8124 -0.4088
  727TMC3    H210804   3.250   4.095  10.610 -2.5775  1.8688  1.5592
  727TMC3    C710805   2.998   4.001  10.598  0.1458 -0.4089 -0.4966
  727TMC3    C810806   3.464   4.009  10.756 -0.4487 -0.1370  0.0072
  727TMC3    O110807   3.018   4.117  10.565 -0.3434 -0.3299 -0.3211
  727TMC3    O210808   3.546   3.921  10.775  0.0301 -0.0201  0.8669
  728TMC3    C110809   2.414   1.689  15.400  0.2625 -0.2619 -0.1485
  728TMC3    C210810   2.550   1.660  15.387  0.4818 -0.7084  0.2113
  728TMC3    C310811   2.604   1.722  15.272  0.8079  0.0096  0.1280
  728TMC3    C410812   2.352   1.790  15.335 -0.1063 -0.3649 -0.2484
  728TMC3    C510813   2.418   1.859  15.237  0.2280 -0.5853 -0.3830
  728TMC3    C610814   2.547   1.820  15.199  0.0257  0.2720  0.2015
  728TMC3     C10815   2.360   1.603  15.500 -0.5345  0.0816  0.8486
  728TMC3     O10816   2.432   1.525  15.563 -1.0253 -0.0182 -0.0683
  728TMC3     H10817   2.600   1.584  15.445  0.8682 -2.1548 -2.0138
  728TMC3    H110818   2.247   1.811  15.352  0.5631  2.7323  0.0192
  728TMC3    H210819   2.600   1.865  15.115 -2.5029  1.6206 -0.6797
  728TMC3    C710820   2.331   1.929  15.143 -0.3582 -0.2808 -0.8554
  728TMC3    C810821   2.732   1.680  15.229  0.1839  0.6315 -0.3238
  728TMC3    O110822   2.211   1.917  15.149 -0.3341  0.3644 -0.1863
  728TMC3    O210823   2.734   1.649  15.108  0.2722  0.0557  0.5768
  729MPD2     C10824   0.113   2.441  16.815  0.3204  0.5349  0.4652
  729MPD2    C110825   0.213   2.531  16.808 -0.6493  0.6334  0.8083
  729MPD2    C210826   0.250   2.605  16.919  0.3240 -0.0573 -0.3532
  729MPD2    C310827   0.175   2.605  17.031  0.5837  0.5927  0.5863
  729MPD2    C410828   0.073   2.513  17.041 -0.3551 -0.4192  0.5533
  729MPD2    C510829   0.044   2.437  16.930 -0.3944  0.2488  0.3271
  729MPD2     H10830   0.329   2.679  16.905 -1.2214  1.5722 -0.5046
  729MPD2    H110831   0.016   2.495  17.132  0.5694 -2.7044  0.6783
  729MPD2    H210832   0.088   2.362  16.745  1.6786  0.0523  0.5206
  729MPD2    H310833   4.698   2.365  16.933 -0.7495  0.6335 -0.0600
  729MPD2     N10834   0.196   2.699  17.140 -0.0183 -0.5059  0.0061
  729MPD2    H510835   0.132   2.693  17.218  0.7545 -0.2757  0.6669
  729MPD2    N110836   0.279   2.539  16.684 -0.0605 -0.4455  0.4869
  729MPD2    H710837   0.240   2.479  16.612  1.2017  1.2647 -1.6116
  730TMC3    C110838   0.282   2.890  17.269  0.9741  0.7483  0.0002
  730TMC3    C210839   0.330   3.014  17.254  0.7385 -0.2392 -0.7638
  730TMC3    C310840   0.326   3.106  17.353  0.8979 -0.3788  0.3416
  730TMC3    C410841   0.198   2.866  17.377  0.2545  0.0216 -0.9148
  730TMC3    C510842   0.190   2.965  17.472 -0.1313  0.4561 -0.3867
  730TMC3    C610843   0.263   3.083  17.469  0.8485  0.5616  0.0032
  730TMC3     C10844   0.286   2.803  17.150 -0.9792  0.1443  0.2370
  730TMC3     O10845   0.360   2.839  17.056 -0.4699 -0.0257  0.2062
  730TMC3     H10846   0.376   3.043  17.160  1.8315  0.9949  0.1610
  730TMC3    H110847   0.144   2.773  17.377  2.8080 -1.4400  1.0990
  730TMC3    H210848   0.260   3.155  17.550 -1.0721  0.7507 -0.2412
  730TMC3    C710849   0.122   2.919  17.596 -0.4361 -0.5260 -0.5613
  730TMC3    C810850   0.330   3.246  17.307 -0.4438 -0.4626  0.1276
  730TMC3    O110851   0.122   2.802  17.626  0.1281  0.3481  0.2467
  730TMC3    O210852   0.319   3.270  17.186 -0.0644  0.1150 -0.1150
  731MPD2     C10853   4.624   1.263  12.179 -0.9512  0.2909  0.3212
  731MPD2    C110854   0.023   1.250  12.215 -0.4796  0.1988 -0.0757
  731MPD2    C210855   0.041   1.173  12.328 -0.1220 -0.7454 -0.7444
  731MPD2    C310856   4.681   1.088  12.387 -0.1430  0.5324  0.2264
  731MPD2    C410857   4.559   1.099  12.340 -0.0269 -0.2947  0.5527
  731MPD2    C510858   4.532   1.179  12.234  0.1087  0.1504 -0.4555
  731MPD2     H10859   0.143   1.164  12.365 -0.3847  0.4858  0.2446
  731MPD2    H110860   4.471   1.042  12.369  0.2616 -0.6211  0.7763
  731MPD2    H210861   4.582   1.310  12.090  0.8264  1.2470 -0.0037
  731MPD2    H310862   4.427   1.182  12.204  0.3283 -0.0410 -1.2523
  731MPD2     N10863   4.714   0.994  12.487 -0.1576  0.1138  0.2891
  731MPD2    H510864   0.076   0.990  12.518  0.0744 -2.4893 -0.7569
  731MPD2    N110865   0.112   1.331  12.152 -0.8760 -0.1737  0.1249
  731MPD2    H710866   0.080   1.378  12.068  1.9812 -0.5736 -1.1902
  732TMC3    C110867   0.308   1.453  12.123  0.4779  0.7360  0.1067
  732TMC3    C210868   0.225   1.555  12.096 -0.0429 -0.5824 -0.1221
  732TMC3    C310869   0.269   1.646  12.000  0.4715  1.0769 -0.3225
  732TMC3    C410870   0.428   1.439  12.061 -0.2001  0.2961 -0.4491
  732TMC3    C510871   0.469   1.524  11.959  0.1222 -0.2587  0.2280
  732TMC3    C610872   0.384   1.632  11.930  0.3503 -0.2547 -0.0748
  732TMC3     C10873   0.245   1.334  12.176 -0.2204 -0.3156  0.1425
  732TMC3     O10874   0.306   1.262  12.252 -0.1334  0.2813 -0.2068
  732TMC3     H10875   0.135   1.568  12.154  1.3098  0.0373  1.8265
  732TMC3    H110876   0.487   1.357  12.102 -1.1853  0.7186  1.8079
  732TMC3    H210877   0.417   1.700  11.853 -2.5714  1.3014  0.0226
  732TMC3    C710878   0.601   1.511  11.903 -0.0238  0.0659 -0.1009
  732TMC3    C810879   0.167   1.744  11.961  0.3174  0.5028  0.1657
  732TMC3    O110880   0.628   1.582  11.805  0.5599  0.6346  0.5766
  732TMC3    O210881   0.211   1.847  11.911 -0.3009 -0.3178 -0.5855
  733TMC3    C110882   1.199   3.945  12.489  0.4048  0.3545 -0.2851
  733TMC3    C210883   1.330   3.954  12.527 -0.0780  0.0100  0.2249
  733TMC3    C310884   1.400   4.061  12.481 -0.1808 -0.3546  0.6457
  733TMC3    C410885   1.140   4.046  12.422 -1.0252  0.0314 -0.1380
  733TMC3    C510886   1.211   4.164  12.396  0.0128 -0.7711 -0.2484
  733TMC3    C610887   1.343   4.169  12.420  0.3664  0.0702 -0.9208
  733TMC3     C10888   1.107   3.887  12.582  0.0753  0.3389  0.4400
  733TMC3     O10889   0.991   3.921  12.572 -0.1077  0.0542  0.3518
  733TMC3     H10890   1.378   3.873  12.581 -0.7490  0.1622  1.0543
  733TMC3    H110891   1.039   4.042  12.385 -1.5149  1.2709  1.0769
  733TMC3    H210892   1.400   4.257  12.391 -2.5641  2.4959  0.6923
  733TMC3    C710893   1.148   4.285  12.361  0.6568 -0.2370  0.4530
  733TMC3    C810894   1.532   4.086  12.519  0.2137 -0.0101 -0.1896
  733TMC3    O110895   1.056   4.294  12.286  0.1629  0.0516  0.2024
  733TMC3    O210896   1.622   4.028  12.461  0.2651  0.0907 -0.1731
  734MPD2     C10897   3.118   1.444  12.507 -0.0448 -0.1129  0.1538
  734MPD2    C110898   2.999   1.399  12.453 -0.2190  0.1276 -0.4596
  734MPD2    C210899   2.959   1.462  12.330  0.3435  0.1144 -0.1316
  734MPD2    C310900   3.031   1.559  12.272 -0.0697  0.0126 -0.1372
  734MPD2    C410901   3.148   1.604  12.331  0.0901  0.0712  0.1097
  734MPD2    C510902   3.184   1.548  12.451 -0.4839 -0.0373 -0.1736
  734MPD2     H10903   2.872   1.430  12.274 -0.5100  0.4207  1.0162
  734MPD2    H110904   3.203   1.688  12.291 -0.4147  0.7646  0.8557
  734MPD2    H210905   3.169   1.407  12.595 -2.1511  0.9427  1.8272
  734MPD2    H310906   3.272   1.592  12.496 -0.7718 -0.1356  0.4855
  734MPD2     N10907   2.988   1.610  12.148  0.1425 -0.3741  0.2240
  734MPD2    H510908   2.900   1.576  12.110  0.0932 -0.4779  0.4304
  734MPD2    N110909   2.945   1.282  12.504 -0.0133 -0.0604  0.1157
  734MPD2    H710910   2.987   1.238  12.585  0.2394 -0.2252 -0.1050
  735TMC3    C110911   2.823   1.075  12.495 -0.4851 -0.0229  0.4705
  735TMC3    C210912   2.719   1.018  12.427 -0.2116 -0.7932  0.2394
  735TMC3    C310913   2.733   0.891  12.380 -0.1215  0.1203  0.8911
  735TMC3    C410914   2.933   1.002  12.531 -0.9181  0.0464 -0.8308
  735TMC3    C510915   2.935   0.868  12.484 -0.1326 -0.4131 -0.6192
  735TMC3    C610916   2.831   0.807  12.422 -0.4959  0.3785 -0.2169
  735TMC3     C10917   2.845   1.211  12.442 -0.6382 -0.2276 -0.1188
  735TMC3     O10918   2.798   1.231  12.330  0.2010  0.1272  0.0173
  735TMC3     H10919   2.638   1.080  12.392  2.0934  0.9390 -1.9706
  735TMC3    H110920   3.027   1.044  12.565 -0.3689  0.1895 -2.5699
  735TMC3    H210921   2.847   0.716  12.365  1.0993  1.4643 -1.4794
  735TMC3    C710922   3.061   0.843  12.411  0.0453  0.2338 -0.5115
  735TMC3    C810923   2.730   0.892  12.236  0.5344  0.5693 -0.1748
  735TMC3    O110924   3.133   0.940  12.379  0.5173 -0.0837 -0.5134
  735TMC3    O210925   2.727   0.783  12.179  0.9293  0.2233  0.0922
  736MPD2     C10926   3.269   0.543  12.413 -0.0446 -0.6725  0.1279
  736MPD2    C110927   3.216   0.656  12.367  0.1405 -0.2353 -0.1320
  736MPD2    C210928   3.274   0.711  12.255 -0.5306  0.0257  0.0555
  736MPD2    C310929   3.385   0.664  12.190  0.1827  0.0655  0.2019
  736MPD2    C410930   3.435   0.548  12.240 -0.5410  0.3461 -0.6998
  736MPD2    C510931   3.383   0.496  12.354  0.0841 -0.1009  0.5289
  736MPD2     H10932   3.229   0.799  12.210 -0.5770 -0.4847 -0.8841
  736MPD2    H110933   3.525   0.504  12.199 -1.6831 -0.9946 -1.8050
  736MPD2    H210934   3.251   0.502  12.511  0.6855 -1.4112 -0.0459
  736MPD2    H310935   3.417   0.400  12.392  1.0189 -0.7250 -1.9261
  736MPD2     N10936   3.442   0.722  12.069  0.8950 -0.0806 -0.2285
  736MPD2    H510937   3.524   0.680  12.027  0.8731 -1.4050  1.0729
  736MPD2    N110938   3.098   0.711  12.421 -0.4028  0.1683  0.1638
  736MPD2    H710939   3.039   0.656  12.482  0.2417 -2.2284 -1.3699
  737TMC3    C110940   3.479   0.859  11.871 -0.7162 -0.4275 -0.0787
  737TMC3    C210941   3.432   0.962  11.792 -0.6444  0.2396  0.8972
  737TMC3    C310942   3.514   1.004  11.681 -0.0090  0.5098 -0.1702
  737TMC3    C410943   3.605   0.807  11.854 -0.4401  0.8592  0.1758
  737TMC3    C510944   3.675   0.843  11.745 -0.0160 -0.0364  0.4236
  737TMC3    C610945   3.621   0.927  11.649 -0.1505 -0.6533 -0.2726
  737TMC3     C10946   3.403   0.833  11.996 -0.1696  1.0289 -0.4246
  737TMC3     O10947   3.306   0.908  12.018 -0.2024  0.4620  0.0088
  737TMC3     H10948   3.349   1.026  11.818 -1.2201 -1.1512  2.5317
  737TMC3    H110949   3.648   0.727  11.914 -2.1401 -0.2528 -0.0698
  737TMC3    H210950   3.673   0.952  11.557 -0.6024  3.0512  0.4674
  737TMC3    C710951   3.817   0.860  11.774 -0.0483  0.4882 -0.3169
  737TMC3    C810952   3.547   1.141  11.666 -0.4212 -0.2872  0.1548
  737TMC3    O110953   3.872   0.775  11.843  0.4754 -0.4072 -0.1830
  737TMC3    O210954   3.665   1.160  11.690  0.4046 -0.3457  0.2070
  738MPD2     C10955   3.596   0.139  15.162  0.5592 -0.2544 -0.2250
  738MPD2    C110956   3.641   0.055  15.061 -0.5692  0.5965 -0.6146
  738MPD2    C210957   3.764   0.084  14.997 -0.0597  0.5235  0.0732
  738MPD2    C310958   3.846   0.191  15.036  0.1563 -0.3305 -0.3258
  738MPD2    C410959   3.800   0.265  15.136 -0.5866 -0.4421  0.4177
  738MPD2    C510960   3.677   0.244  15.199  0.5885 -0.5470 -0.9277
  738MPD2     H10961   3.805   0.007  14.932  1.4425  1.1913  0.2363
  738MPD2    H110962   3.862   0.342  15.182  1.9392 -1.2830 -1.6003
  738MPD2    H210963   3.500   0.136  15.212  0.3787  3.9084 -0.3603
  738MPD2    H310964   3.649   0.306  15.283 -2.9218  1.6110 -3.6996
  738MPD2     N10965   3.977   0.207  14.995  0.1712 -0.2512 -0.1673
  738MPD2    H510966   4.030   0.286  15.030 -0.3409 -0.3878  0.9188
  738MPD2    N110967   3.570   4.677  15.021  0.4290  0.1710  0.3961
  738MPD2    H710968   3.618   4.618  14.954 -1.1274  2.1702 -2.4798
  739TMC3    C110969   4.172   0.169  14.859  0.3483 -0.5114  0.7092
  739TMC3    C210970   4.210   0.155  14.726  0.4814 -0.0602  0.1642
  739TMC3    C310971   4.319   0.219  14.676 -0.4833 -0.2718 -0.4379
  739TMC3    C410972   4.237   0.257  14.944 -0.2577 -0.1493 -0.6546
  739TMC3    C510973   4.350   0.322  14.888  0.3857  0.8299  0.3607
  739TMC3    C610974   4.400   0.293  14.761 -0.3753  0.2007 -0.3306
  739TMC3     C10975   4.029   0.147  14.877 -0.4376 -0.4565 -1.0525
  739TMC3     O10976   3.978   0.073  14.793  0.1875 -0.1595 -0.0170
  739TMC3     H10977   4.154   0.080  14.670 -0.9523 -1.3456  3.3133
  739TMC3    H110978   4.225   0.257  15.051 -1.8718  0.2200 -0.8382
  739TMC3    H210979   4.482   0.354  14.725 -1.0225  0.4447 -1.3960
  739TMC3    C710980   4.449   0.393  14.972 -0.6121 -0.8352  0.2624
  739TMC3    C810981   4.307   0.254  14.540 -0.6420 -0.2442 -0.1892
  739TMC3    O110982   4.566   0.373  14.953 -0.3504  0.1937  0.2074
  739TMC3    O210983   4.206   0.219  14.475 -0.3939 -0.0581 -0.1599
  740TMC3    C110984   4.342   1.541  14.597 -1.3165 -0.1413  0.3043
  740TMC3    C210985   4.322   1.670  14.643  0.6637 -0.0988 -0.5358
  740TMC3    C310986   4.339   1.777  14.564 -0.3057 -0.6611 -1.0567
  740TMC3    C410987   4.372   1.515  14.463 -0.7014 -0.1359 -0.1411
  740TMC3    C510988   4.393   1.632  14.391  0.7847  0.5527 -0.1932
  740TMC3    C610989   4.372   1.757  14.432 -0.6699  0.1600 -0.2064
  740TMC3     C10990   4.395   1.435  14.682 -0.3099 -0.0248 -0.0519
  740TMC3     O10991   4.512   1.416  14.657  0.6439  0.9717  0.2180
  740TMC3     H10992   4.307   1.684  14.749  1.1757 -0.5943 -0.3953
  740TMC3    H110993   4.379   1.419  14.414 -0.3771  0.4264 -1.2049
  740TMC3    H210994   4.397   1.841  14.368 -1.1755  1.4237  1.2537
  740TMC3    C710995   4.460   1.616  14.259  0.3664 -0.7176 -0.3441
  740TMC3    C810996   4.366   1.907  14.623 -0.9795  0.0213  0.4047
  740TMC3    O110997   4.420   1.681  14.161 -0.0690  0.5588  0.0405
  740TMC3    O210998   4.468   1.957  14.590 -0.1299 -0.1574 -0.2171
  741TMC3    C110999   3.741   0.833  14.143  0.3344  0.0730 -0.0786
  741TMC3    C211000   3.662   0.752  14.072  0.3528  0.0208 -0.2646
  741TMC3    C311001   3.701   0.624  14.056 -0.0048 -0.9000 -0.9574
  741TMC3    C411002   3.853   0.782  14.207 -0.6556 -0.2157  0.4099
  741TMC3    C511003   3.884   0.649  14.199 -0.2430  0.0727 -0.5156
  741TMC3    C611004   3.808   0.566  14.123 -0.4012 -1.3883  0.3334
  741TMC3     C11005   3.710   0.969  14.167 -0.5095  0.4536  0.5131
  741TMC3     O11006   3.792   1.038  14.234 -0.3304  0.0298  0.6183
  741TMC3     H11007   3.570   0.788  14.027  1.3755 -0.6350 -2.9044
  741TMC3    H111008   3.908   0.843  14.277  1.1059 -1.9862  0.5770
  741TMC3    H211009   3.838   0.463  14.105  2.8009 -0.3459 -0.2642
  741TMC3    C711010   3.965   0.589  14.308 -0.2762  0.5974  0.0756
  741TMC3    C811011   3.596   0.534  14.005 -0.0095  0.2776  0.2514
  741TMC3    O111012   3.942   0.478  14.352 -0.3966 -0.0167  0.6457
  741TMC3    O211013   3.495   0.588  13.956 -0.2544 -0.6781 -0.0638
  742TMC3    C111014   3.581   3.856  15.562 -0.1367 -0.1299  0.3035
  742TMC3    C211015   3.571   3.865  15.424 -0.0639 -0.3707 -0.0657
  742TMC3    C311016   3.686   3.851  15.361  0.3707 -0.3335 -0.4864
  742TMC3    C411017   3.684   3.785  15.621 -0.0495  0.0553 -0.0891
  742TMC3    C511018   3.798   3.765  15.547 -0.3530 -0.2658 -0.3421
  742TMC3    C611019   3.798   3.794  15.417  0.3786 -0.4733 -0.0247
  742TMC3     C11020   3.459   3.871  15.651  0.1682 -0.5731 -0.9272
  742TMC3     O11021   3.352   3.878  15.589  0.0084 -0.3695  0.4407
  742TMC3     H11022   3.491   3.916  15.370  0.2472  0.3385  0.1439
  742TMC3    H111023   3.697   3.769  15.727  0.9026  0.8940 -0.0732
  742TMC3    H211024   3.885   3.769  15.358  0.7230  0.5027  0.0746
  742TMC3    C711025   3.925   3.709  15.606  0.5121  0.1479 -0.2830
  742TMC3    C811026   3.690   3.870  15.219  0.0647  0.0178 -0.0398
  742TMC3    O111027   4.019   3.710  15.526  0.2076 -0.4467  0.4966
  742TMC3    O211028   3.592   3.841  15.156  0.4012  0.8043 -0.0628
  743MPD2     C11029   1.010   0.793   1.889 -0.1955 -0.3518  0.5110
  743MPD2    C111030   1.105   0.767   1.793 -0.1121  1.2302 -0.1227
  743MPD2    C211031   1.243   0.766   1.824  0.3224  0.3569  0.2312
  743MPD2    C311032   1.288   0.808   1.947 -0.3724 -0.6253 -0.6521
  743MPD2    C411033   1.190   0.823   2.043  0.0919 -1.3301 -0.4296
  743MPD2    C511034   1.055   0.824   2.015  0.7079 -0.3154  0.6116
  743MPD2     H11035   1.311   0.747   1.742  1.0548 -0.9705  1.1560
  743MPD2    H111036   1.223   0.837   2.145 -2.4233  0.8123  0.0722
  743MPD2    H211037   0.903   0.787   1.876 -0.1215  0.8053 -0.6629
  743MPD2    H311038   0.987   0.840   2.098 -1.8302 -1.8334 -1.1679
  743MPD2     N11039   1.425   0.803   1.978 -0.5590  0.4852  0.2686
  743MPD2    H511040   1.490   0.776   1.905 -1.9730  0.1534 -0.8789
  743MPD2    N111041   1.056   0.733   1.666 -0.3611  0.1745  0.5952
  743MPD2    H711042   0.956   0.733   1.648 -0.1510  0.3899 -0.5274
  744TMC3    C111043   1.054   0.679   1.436  0.7091 -0.0031  0.3950
  744TMC3    C211044   0.942   0.592   1.453 -0.6728  0.4687 -0.4170
  744TMC3    C311045   0.880   0.533   1.342 -0.0605 -0.0969 -0.5575
  744TMC3    C411046   1.110   0.694   1.314  0.3788 -0.4087 -1.0385
  744TMC3    C511047   1.053   0.638   1.206 -0.5442  0.0084 -0.0316
  744TMC3    C611048   0.936   0.553   1.216 -0.8090  0.5697 -0.5669
  744TMC3     C11049   1.136   0.714   1.549  0.0259 -0.1793 -0.5364
  744TMC3     O11050   1.254   0.747   1.528 -0.0100  0.1741  0.4965
  744TMC3     H11051   0.920   0.564   1.555 -0.1093 -0.2498 -0.4942
  744TMC3    H111052   1.203   0.750   1.309  0.2536  0.1022  2.2406
  744TMC3    H211053   0.892   0.521   1.122 -0.0784 -1.1102 -0.3394
  744TMC3    C711054   1.110   0.662   1.078 -0.1170  0.4131 -0.1189
  744TMC3    C811055   0.763   0.442   1.357  0.6646 -0.5010  0.6319
  744TMC3    O111056   1.234   0.666   1.069  0.4484 -0.4448 -0.1278
  744TMC3    O211057   0.714   0.434   1.468 -0.0866 -0.5161 -0.5389
  745TMC3    C111058   0.171   3.295  13.872 -0.3796 -0.5362  0.0767
  745TMC3    C211059   0.052   3.255  13.922  0.2290 -0.0851  0.0811
  745TMC3    C311060   4.691   3.207  13.849  0.2150  0.2246  0.3692
  745TMC3    C411061   0.192   3.279  13.734  0.0252  0.3463 -0.0085
  745TMC3    C511062   0.094   3.223  13.657  0.1077 -0.1227 -0.3703
  745TMC3    C611063   4.706   3.181  13.713  0.5678  0.6431  0.5829
  745TMC3     C11064   0.238   3.397  13.943  1.0053 -0.5711 -0.0936
  745TMC3     O11065   0.288   3.369  14.050  0.4654  0.0335 -0.3399
  745TMC3     H11066   0.030   3.274  14.026 -1.3732  0.6907 -0.4028
  745TMC3    H111067   0.286   3.304  13.685 -0.3249  3.0888  0.7622
  745TMC3    H211068   4.616   3.161  13.655  1.5609 -0.3414 -0.6052
  745TMC3    C711069   0.105   3.207  13.516 -0.7994 -0.5703  0.4756
  745TMC3    C811070   4.561   3.273  13.887 -0.0748  0.1760  0.1225
  745TMC3    O111071   0.077   3.101  13.466 -0.6173  0.3035 -0.9674
  745TMC3    O211072   4.458   3.224  13.847 -0.3714 -0.1511 -0.3277
  746TMC3    C111073   1.711   0.923  10.877 -0.2413 -1.0526  0.0141
  746TMC3    C211074   1.708   1.006  10.768 -0.1418  0.5248 -0.3829
  746TMC3    C311075   1.589   1.022  10.702 -0.5983 -0.1460  0.3254
  746TMC3    C411076   1.599   0.851  10.913 -0.2153 -0.0777 -0.4858
  746TMC3    C511077   1.491   0.858  10.830 -0.4093  0.0953 -0.1496
  746TMC3    C611078   1.481   0.949  10.729  0.0453 -0.2516  0.0652
  746TMC3     C11079   1.820   0.928  10.974 -0.2136  0.8058  0.4851
  746TMC3     O11080   1.790   0.911  11.094  0.7212  0.5489  0.3618
  746TMC3     H11081   1.798   1.059  10.739 -1.3916  1.5430 -2.4125
  746TMC3    H111082   1.605   0.794  11.005  1.0701  0.3062 -0.3301
  746TMC3    H211083   1.388   0.955  10.673 -0.2950  0.3634  0.7078
  746TMC3    C711084   1.366   0.812  10.885  0.1393 -0.1745  0.0437
  746TMC3    C811085   1.571   1.133  10.611  0.2916  0.3101  0.4343
  746TMC3    O111086   1.267   0.876  10.842  0.6410 -0.3601 -0.0300
  746TMC3    O211087   1.461   1.175  10.582  0.0707 -0.8469 -0.5347
  747TMC3    C111088   4.188   1.599  11.273  0.6205  0.3345 -0.3446
  747TMC3    C211089   4.205   1.483  11.349  0.4916 -0.4991  0.5307
  747TMC3    C311090   4.287   1.491  11.457 -0.1055 -0.1330  0.0849
  747TMC3    C411091   4.262   1.708  11.302  0.7678 -0.2387 -0.4742
  747TMC3    C511092   4.340   1.712  11.410  0.2154 -0.6981 -0.8842
  747TMC3    C611093   4.356   1.605  11.487 -0.3376 -0.1943  0.1670
  747TMC3     C11094   4.085   1.603  11.173  0.8218 -0.2420  0.8457
  747TMC3     O11095   4.070   1.714  11.121  0.2991 -0.0402 -0.5533
  747TMC3     H11096   4.146   1.393  11.340 -0.4676  0.1862 -0.1423
  747TMC3    H111097   4.246   1.796  11.241  0.0875  0.8556  1.2829
  747TMC3    H211098   4.432   1.601  11.565 -0.6103 -0.1709  0.4329
  747TMC3    C711099   4.441   1.807  11.412 -0.5223 -0.3096  0.1102
  747TMC3    C811100   4.294   1.382  11.553  0.2027 -0.4134  0.2546
  747TMC3    O111101   4.519   1.803  11.502  0.0414  0.0291 -0.0643
  747TMC3    O211102   4.404   1.349  11.589 -0.5244 -0.1766  0.1317
  748MPD2     C11103   0.191   1.349   1.593  0.2085  0.2760 -0.5482
  748MPD2    C111104   0.235   1.301   1.467  0.0537 -0.2182  0.3217
  748MPD2    C211105   0.369   1.319   1.428 -0.4165  0.2531 -0.4950
  748MPD2    C311106   0.454   1.386   1.511 -0.5605 -0.5188 -0.4518
  748MPD2    C411107   0.410   1.419   1.636 -0.8545 -0.0275  0.8894
  748MPD2    C511108   0.282   1.409   1.679 -0.0105 -0.2154 -0.2816
  748MPD2     H11109   0.406   1.275   1.336  1.5890 -0.7598  0.8202
  748MPD2    H111110   0.483   1.459   1.705 -1.1786  1.5092  0.3465
  748MPD2    H211111   0.087   1.341   1.623  0.0203  1.8606 -0.7731
  748MPD2    H311112   0.235   1.446   1.770 -0.2246 -0.0196 -0.4727
  748MPD2     N11113   0.590   1.390   1.480 -0.2953  0.4152  0.3119
  748MPD2    H511114   0.617   1.338   1.397 -2.6389  0.4830 -0.5023
  748MPD2    N111115   0.144   1.225   1.390  0.3209 -0.1768 -0.1256
  748MPD2    H711116   0.046   1.239   1.413  0.2975 -0.0625 -0.2927
  749TMC3    C111117   0.809   1.430   1.492 -0.3993 -0.0161  0.8697
  749TMC3    C211118   0.921   1.462   1.571 -0.7866 -0.3023 -0.4247
  749TMC3    C311119   1.050   1.447   1.522 -0.4602  0.7328  0.4108
  749TMC3    C411120   0.823   1.395   1.366  0.0908  0.1148 -0.2517
  749TMC3    C511121   0.952   1.385   1.315  0.1066 -0.5888  0.1411
  749TMC3    C611122   1.065   1.399   1.398 -0.1235  0.1945  0.3036
  749TMC3     C11123   0.684   1.460   1.548  0.2419 -0.3340  0.1904
  749TMC3     O11124   0.682   1.522   1.656 -0.5017  0.5459 -0.2862
  749TMC3     H11125   0.901   1.503   1.669  1.4122 -0.5017  0.0926
  749TMC3    H111126   0.742   1.406   1.295  0.9229  1.4852 -0.9810
  749TMC3    H211127   1.159   1.404   1.344  0.0161 -0.0498  0.5226
  749TMC3    C711128   0.971   1.378   1.172 -0.2927 -0.5709  0.1431
  749TMC3    C811129   1.166   1.455   1.613  0.2001 -0.0721 -0.2110
  749TMC3    O111130   1.073   1.427   1.130  0.3015  0.8238  0.5944
  749TMC3    O211131   1.151   1.511   1.721  0.1752 -0.5323 -0.2362
  750MPD2     C11132   1.916   2.815  11.408  0.6939 -0.3068  0.1960
  750MPD2    C111133   1.904   2.688  11.451 -0.0041 -0.2586  0.5992
  750MPD2    C211134   1.901   2.591  11.354 -0.1060  0.1029  0.1973
  750MPD2    C311135   1.913   2.626  11.216 -0.4116 -0.1880 -0.0545
  750MPD2    C411136   1.923   2.761  11.183  0.2719  0.3134  0.4701
  750MPD2    C511137   1.914   2.859  11.277 -0.0124 -0.0419 -0.2346
  750MPD2     H11138   1.892   2.486  11.378 -0.7859 -0.0820 -0.8652
  750MPD2    H111139   1.933   2.787  11.078 -0.1571 -0.4669  0.2378
  750MPD2    H211140   1.917   2.893  11.484 -0.6066  1.0225 -1.1615
  750MPD2    H311141   1.915   2.964  11.251 -0.0176  0.6189  2.3594
  750MPD2     N11142   1.910   2.531  11.112  0.7959 -0.1598 -0.4303
  750MPD2    H511143   1.924   2.573  11.020 -0.3974 -0.4657 -0.7479
  750MPD2    N111144   1.884   2.658  11.582  0.1289 -0.4326  0.2985
  750MPD2    H711145   1.862   2.742  11.634 -0.9660 -1.2588  1.1741
  751TMC3    C111146   1.832   2.347  11.006 -0.3976  0.2408 -0.1826
  751TMC3    C211147   1.745   2.241  11.007  0.5383  0.0569  0.7341
  751TMC3    C311148   1.687   2.188  10.895 -0.8147  0.2724 -0.5699
  751TMC3    C411149   1.874   2.394  10.880  0.8965 -0.0262  0.9361
  751TMC3    C511150   1.831   2.318  10.767  0.4109 -0.2275  0.5618
  751TMC3    C611151   1.729   2.223  10.771 -0.0145 -0.4097 -0.2281
  751TMC3     C11152   1.852   2.411  11.127  0.2232 -0.3718  0.3003
  751TMC3     O11153   1.810   2.351  11.225  0.2752 -0.1577 -0.5014
  751TMC3     H11154   1.730   2.187  11.100  1.5974 -2.9716 -0.8462
  751TMC3    H111155   1.940   2.479  10.865 -1.9176  2.0194  0.2755
  751TMC3    H211156   1.707   2.167  10.681  0.4592 -1.1202  0.1020
  751TMC3    C711157   1.883   2.353  10.637  0.3897  0.5299  0.6289
  751TMC3    C811158   1.596   2.072  10.902 -0.2333 -0.1854  0.1929
  751TMC3    O111159   1.989   2.412  10.638 -0.0327 -0.0657 -0.2744
  751TMC3    O211160   1.587   2.004  10.801 -0.3970 -0.1387 -0.1216
  752TMC3    C111161   0.697   3.070  17.391  0.6910  0.0070  0.3984
  752TMC3    C211162   0.736   2.935  17.408 -0.0535 -0.6195 -0.3208
  752TMC3    C311163   0.705   2.878  17.531  0.7962 -1.0733 -0.4810
  752TMC3    C411164   0.631   3.137  17.491 -0.6530 -0.4732 -0.1522
  752TMC3    C511165   0.597   3.072  17.608  0.2309 -0.3261  0.0964
  752TMC3    C611166   0.637   2.943  17.630  0.1394  0.1028  0.6406
  752TMC3     C11167   0.717   3.134  17.269 -0.9850 -0.0840  0.7149
  752TMC3     O11168   0.726   3.257  17.270  0.6188 -0.0922  0.3121
  752TMC3     H11169   0.804   2.888  17.338 -0.4962 -0.2554 -0.9953
  752TMC3    H111170   0.610   3.242  17.474  0.8486 -0.2670 -0.6816
  752TMC3    H211171   0.602   2.894  17.720 -2.5451  2.8446  1.1256
  752TMC3    C711172   0.526   3.149  17.709  0.1483 -0.0728  0.2536
  752TMC3    C811173   0.722   2.731  17.532  0.6601  0.1573  0.0847
  752TMC3    O111174   0.490   3.260  17.672 -0.4129  0.2193 -0.0902
  752TMC3    O211175   0.807   2.691  17.457  0.3959 -0.6145  0.3746
  753TMC3    C111176   2.714   3.180  13.458  0.3272 -0.2005  0.6665
  753TMC3    C211177   2.798   3.201  13.562 -0.2699 -0.0735  0.5166
  753TMC3    C311178   2.888   3.101  13.585 -0.0264 -0.3649  0.2213
  753TMC3    C411179   2.703   3.073  13.377  0.1939  0.4091 -0.1893
  753TMC3    C511180   2.800   2.978  13.403  1.1881 -0.7974 -0.0559
  753TMC3    C611181   2.888   2.990  13.507  0.3033 -0.1806  0.1586
  753TMC3     C11182   2.611   3.281  13.443 -0.4491 -0.6782  0.2499
  753TMC3     O11183   2.511   3.258  13.380  0.0736 -0.1971  0.2674
  753TMC3     H11184   2.779   3.279  13.635  0.8986  0.5019  0.1878
  753TMC3    H111185   2.626   3.056  13.303 -0.0189 -0.3118  0.2011
  753TMC3    H211186   2.947   2.902  13.530  0.0884 -0.2265  0.5256
  753TMC3    C711187   2.819   2.880  13.297 -0.3157  0.0024 -0.4130
  753TMC3    C811188   2.990   3.109  13.686 -0.4564 -0.5974 -0.4328
  753TMC3    O111189   2.723   2.874  13.222  0.0602 -0.1888  0.6950
  753TMC3    O211190   3.062   3.012  13.701 -0.3251  0.0025  0.1211
  754MPD2     C11191   1.376   2.893  13.107  0.1763 -0.1226  0.3332
  754MPD2    C111192   1.392   2.756  13.133 -0.0753  0.5650  0.6691
  754MPD2    C211193   1.297   2.670  13.089  0.0084 -0.0240 -0.5235
  754MPD2    C311194   1.172   2.714  13.058  0.4344  0.0209 -0.4850
  754MPD2    C411195   1.150   2.845  13.047  0.3709 -0.1254  0.4369
  754MPD2    C511196   1.259   2.934  13.063 -0.9339 -0.3644  0.4175
  754MPD2     H11197   1.309   2.562  13.093  0.0542  0.1358  3.4041
  754MPD2    H111198   1.057   2.883  13.006  0.8202 -0.4647 -0.8916
  754MPD2    H211199   1.450   2.971  13.120  1.6280 -0.9626 -2.8475
  754MPD2    H311200   1.232   3.038  13.054  0.5722 -0.0861 -0.8937
  754MPD2     N11201   1.055   2.636  13.035  0.5496  0.0779 -0.8647
  754MPD2    H511202   0.967   2.682  13.018  1.7659  2.3010 -1.1955
  754MPD2    N111203   1.523   2.721  13.178  0.1954  0.8348 -0.0981
  754MPD2    H711204   1.585   2.802  13.180 -0.9525  1.7011  0.1363
  755MPD2     C11205   0.227   2.874  13.165  0.1300  0.0071  0.0237
  755MPD2    C111206   0.308   2.824  13.267  0.8297 -0.4253  0.4872
  755MPD2    C211207   0.399   2.722  13.234 -0.1617 -0.2943  0.4745
  755MPD2    C311208   0.418   2.669  13.109 -0.0378  0.0831 -0.3908
  755MPD2    C411209   0.331   2.723  13.015 -0.0166 -0.9004 -0.4437
  755MPD2    C511210   0.242   2.823  13.041 -0.1958  0.2850 -0.8136
  755MPD2     H11211   0.470   2.701  13.313  0.1153 -0.6380  0.1338
  755MPD2    H111212   0.324   2.690  12.912  0.7067 -1.3749 -0.3419
  755MPD2    H211213   0.148   2.944  13.187  0.7783  0.6697  0.2331
  755MPD2    H311214   0.178   2.851  12.958 -0.9910 -1.8470 -0.9278
  755MPD2     N11215   0.503   2.562  13.075  0.3220 -0.3969 -0.2595
  755MPD2    H511216   0.494   2.525  12.981 -0.1323 -2.3095  0.5399
  755MPD2    N111217   0.287   2.879  13.400  0.1893  0.2519 -0.5449
  755MPD2    H711218   0.206   2.940  13.411 -1.7524 -2.3440 -0.5514
  756MPD2     C11219   1.655   3.236  10.051 -0.2097  0.7511 -0.8044
  756MPD2    C111220   1.602   3.113  10.070 -0.5166  0.4194 -0.1918
  756MPD2    C211221   1.601   3.026   9.962  0.4758 -0.3447  0.5296
  756MPD2    C311222   1.648   3.059   9.837  0.2455  0.8448  0.0491
  756MPD2    C411223   1.698   3.179   9.823 -0.1606 -0.1776  0.8205
  756MPD2    C511224   1.704   3.266   9.925 -0.4129 -0.7216  0.3602
  756MPD2     H11225   1.567   2.924   9.976  0.1057  0.1099  2.9391
  756MPD2    H111226   1.725   3.218   9.726  0.5457 -1.1138  0.6429
  756MPD2    H211227   1.681   3.313  10.123  2.7204  0.3642 -1.4348
  756MPD2    H311228   1.749   3.362   9.901  0.6972 -1.2350  0.3736
  756MPD2     N11229   1.652   2.954   9.744 -0.2386 -0.0310  0.2650
  756MPD2    H511230   1.579   2.883   9.747 -0.1378 -0.0153  2.9110
  756MPD2    N111231   1.545   3.067  10.189  0.0394 -0.5123 -0.2663
  756MPD2    H711232   1.513   2.971  10.194 -2.2794  0.3474  1.3400
  757MPD2     C11233   1.136   2.218   9.388  0.3412  0.5886  0.0640
  757MPD2    C111234   1.262   2.159   9.424  0.1441  0.5127 -0.3800
  757MPD2    C211235   1.370   2.244   9.427 -1.1177 -0.8833  0.0233
  757MPD2    C311236   1.366   2.381   9.416 -0.5541 -0.4263 -0.6852
  757MPD2    C411237   1.244   2.435   9.383 -0.3592  0.0733 -0.6028
  757MPD2    C511238   1.132   2.350   9.371 -0.4338 -0.0866  0.2232
  757MPD2     H11239   1.470   2.203   9.439 -0.9534 -1.1751 -2.3360
  757MPD2    H111240   1.226   2.542   9.378 -3.3744 -0.5236 -2.5433
  757MPD2    H211241   1.043   2.164   9.377 -1.2512  3.0902  1.1656
  757MPD2    H311242   1.040   2.404   9.351  0.2332  1.7636  2.0985
  757MPD2     N11243   1.476   2.463   9.453  0.1234  0.1638 -0.6225
  757MPD2    H511244   1.556   2.412   9.489 -0.7023 -1.7371 -1.4820
  757MPD2    N111245   1.264   2.017   9.437  0.3253 -0.6360  0.1432
  757MPD2    H711246   1.182   1.959   9.420  0.6671 -1.0650 -0.0293
  758MPD2     C11247   1.540   1.758  16.122  0.0586  0.2677  0.8656
  758MPD2    C111248   1.645   1.768  16.209 -0.4535  0.3126  0.8902
  758MPD2    C211249   1.634   1.851  16.321 -0.6553 -0.4403 -0.3628
  758MPD2    C311250   1.514   1.914  16.350  0.2989  0.1616  0.9395
  758MPD2    C411251   1.409   1.913  16.262  0.0106 -0.3976  0.5287
  758MPD2    C511252   1.428   1.835  16.143 -0.6545 -0.0461  0.4120
  758MPD2     H11253   1.718   1.864  16.389 -0.0805 -1.1487 -0.9289
  758MPD2    H111254   1.319   1.973  16.269  0.0010 -0.3275 -0.2042
  758MPD2    H211255   1.552   1.696  16.034  0.5838  2.6668 -0.7492
  758MPD2    H311256   1.350   1.830  16.068  0.3558  0.8682 -0.7023
  758MPD2     N11257   1.505   1.977  16.476 -0.6662  0.3798  0.7396
  758MPD2    H511258   1.594   1.969  16.523 -1.6557 -1.4298  2.2957
  758MPD2    N111259   1.759   1.690  16.182 -0.2285  0.0392  0.0460
  758MPD2    H711260   1.761   1.652  16.087  2.3484 -1.8387  0.8429
  759MPD2     C11261   0.089   0.652  10.526 -0.4790 -1.2111  0.2325
  759MPD2    C111262   0.169   0.546  10.499  0.1944 -0.2023 -0.4304
  759MPD2    C211263   0.296   0.561  10.437 -0.4202  0.3633 -0.0771
  759MPD2    C311264   0.344   0.690  10.426  0.1024 -0.1664  0.6115
  759MPD2    C411265   0.267   0.792  10.478  0.0425  0.2312 -0.7774
  759MPD2    C511266   0.139   0.775  10.514 -0.0949 -0.3106  0.0154
  759MPD2     H11267   0.370   0.484  10.417 -2.3140 -1.0932 -1.4079
  759MPD2    H111268   0.297   0.896  10.473 -0.3190  0.3607 -0.3355
  759MPD2    H211269   4.729   0.640  10.579 -0.7933 -1.4028 -0.3792
  759MPD2    H311270   0.075   0.853  10.553  1.0549  0.1605  0.9587
  759MPD2     N11271   0.468   0.718  10.364 -0.5167  0.3749  0.0588
  759MPD2    H511272   0.521   0.637  10.336 -1.6378  0.0799 -1.2145
  759MPD2    N111273   0.105   0.418  10.510  0.0441 -0.3571  0.1730
  759MPD2    H711274   0.011   0.414  10.547  0.3152 -0.0396  0.8982
  760MPD2     C11275   0.189   2.701  12.297 -0.1669  0.2931  0.3680
  760MPD2    C111276   0.222   2.759  12.175 -0.4289 -0.0252  0.5116
  760MPD2    C211277   0.289   2.689  12.081 -0.4582 -0.1911 -0.1201
  760MPD2    C311278   0.322   2.556  12.108  0.6230  0.3262 -0.0531
  760MPD2    C411279   0.296   2.499  12.227 -0.1714 -0.2023 -0.1470
  760MPD2    C511280   0.233   2.575  12.322  0.1607  0.2004  0.4330
  760MPD2     H11281   0.320   2.738  11.989  0.3902  0.0943  0.3139
  760MPD2    H111282   0.312   2.393  12.244  1.2827  0.1565  0.7150
  760MPD2    H211283   0.143   2.756  12.377 -0.9285  1.1891 -0.6846
  760MPD2    H311284   0.205   2.525  12.415  1.2941 -0.5232  0.3846
  760MPD2     N11285   0.395   2.469  12.021  0.1249  0.1996 -0.2231
  760MPD2    H511286   0.419   2.376  12.055 -1.2707 -0.4639 -1.0415
  760MPD2    N111287   0.193   2.898  12.159 -0.1664  0.0630  0.5235
  760MPD2    H711288   0.225   2.940  12.072 -0.7951  1.1645  0.8146
  761MPD2     C11289   1.350   1.752  11.235 -0.5636  0.9046 -1.4018
  761MPD2    C111290   1.376   1.741  11.099  0.8658 -0.0773 -0.1479
  761MPD2    C211291   1.425   1.847  11.027 -0.3830  0.2518  0.1104
  761MPD2    C311292   1.467   1.966  11.086  0.4324 -0.5331 -0.3425
  761MPD2    C411293   1.441   1.969  11.227  0.2710 -0.4345  0.3190
  761MPD2    C511294   1.384   1.870  11.297  0.3126 -0.2144  1.0379
  761MPD2     H11295   1.435   1.840  10.919  3.1223 -1.4243  0.5415
  761MPD2    H111296   1.452   2.061  11.283 -0.7961 -0.5935  0.8035
  761MPD2    H211297   1.302   1.676  11.295  1.3919 -0.5795 -1.7242
  761MPD2    H311298   1.372   1.876  11.405  2.0421 -0.6761  1.2422
  761MPD2     N11299   1.524   2.076  11.021 -0.4481 -0.2208 -0.6781
  761MPD2    H511300   1.556   2.153  11.079 -0.0863 -1.6563  0.9883
  761MPD2    N111301   1.349   1.610  11.041  0.0822  0.2118 -0.4610
  761MPD2    H711302   1.329   1.546  11.117 -1.6577  0.5411 -0.6384
  762MPD2     C11303   2.022   1.492  11.141 -0.1060 -0.0573  0.1130
  762MPD2    C111304   1.970   1.448  11.021  0.7981  0.5334  0.7310
  762MPD2    C211305   2.050   1.446  10.907  0.1114 -0.3986  0.1330
  762MPD2    C311306   2.174   1.502  10.909 -0.3069 -0.3030 -0.0362
  762MPD2    C411307   2.217   1.557  11.028 -0.0949 -0.0506  0.5852
  762MPD2    C511308   2.143   1.556  11.139  0.0918 -0.2077  0.1236
  762MPD2     H11309   2.012   1.394  10.821 -2.5539 -1.0815  1.7300
  762MPD2    H111310   2.317   1.597  11.033 -0.0677 -0.1547  0.8204
  762MPD2    H211311   1.960   1.474  11.228 -1.5182 -3.0669 -1.5360
  762MPD2    H311312   2.187   1.584  11.234 -0.3847  2.8398 -0.5431
  762MPD2     N11313   2.254   1.499  10.798  0.1935 -0.1130  0.7267
  762MPD2    H511314   2.208   1.460  10.717 -0.8531  0.9351  0.8151
  762MPD2    N111315   1.840   1.402  11.036 -0.1145  0.6531 -0.4119
  762MPD2    H711316   1.787   1.421  11.121  1.8397  0.2598  0.8881
  763MPD2     C11317   3.513   2.132  16.086 -0.4372  0.0264  0.4452
  763MPD2    C111318   3.406   2.194  16.023  0.0202 -0.2168 -0.2128
  763MPD2    C211319   3.401   2.333  16.016 -0.2839  0.1890  0.5413
  763MPD2    C311320   3.488   2.409  16.089  0.2676 -0.2101  0.7106
  763MPD2    C411321   3.595   2.352  16.150 -0.2783 -0.4381  0.2684
  763MPD2    C511322   3.611   2.215  16.144 -0.0775  0.5583 -0.7784
  763MPD2     H11323   3.327   2.384  15.955  2.2131  2.4372 -0.5958
  763MPD2    H111324   3.668   2.413  16.202  1.5225 -2.3647  0.0274
  763MPD2    H211325   3.523   2.027  16.114 -0.0212 -0.3085 -0.9571
  763MPD2    H311326   3.689   2.164  16.200  1.7737  2.4223 -1.6940
  763MPD2     N11327   3.494   2.548  16.080 -0.2039  0.1305  0.0023
  763MPD2    H511328   3.570   2.588  16.134 -0.1373  0.3033 -0.2178
  763MPD2    N111329   3.317   2.121  15.945 -0.1832 -0.0878 -0.2348
  763MPD2    H711330   3.264   2.167  15.871  0.5271  0.6068 -0.3070
  764MPD2     C11331   1.394   3.484  17.547  0.0157 -0.5665 -0.1743
  764MPD2    C111332   1.263   3.504  17.565  0.0018  0.1478  0.1626
  764MPD2    C211333   1.202   3.470  17.682  0.5286 -0.3262  0.6524
  764MPD2    C311334   1.274   3.395   0.042 -0.0346  0.4459  0.7586
  764MPD2    C411335   1.408   3.365   0.018 -0.9896 -0.1407  0.2747
  764MPD2    C511336   1.468   3.419  17.639  0.0017  0.4620 -0.3129
  764MPD2     H11337   1.099   3.493  17.703  0.8950  1.4545  0.4640
  764MPD2    H111338   1.475   3.315   0.087 -0.7585 -0.1539  0.0394
  764MPD2    H211339   1.456   3.521  17.466 -0.9961 -2.5824 -1.8704
  764MPD2    H311340   1.576   3.409  17.630  0.1451  1.1151  0.7580
  764MPD2     N11341   1.210   3.359   0.159 -0.2422 -0.9040 -0.0099
  764MPD2    H511342   1.113   3.387   0.170  0.3630  0.0602  2.9091
  764MPD2    N111343   1.188   3.587  17.481 -1.0221 -0.9332 -0.6181
  764MPD2    H711344   1.097   3.615  17.515 -0.2226 -0.2979  1.0089
  765MPD2     C11345   0.930   1.925  15.839  0.0105  0.5845 -0.0330
  765MPD2    C111346   0.886   1.797  15.824  0.1990  0.6001  0.2385
  765MPD2    C211347   0.982   1.698  15.836  0.9527 -0.2250  0.2299
  765MPD2    C311348   1.116   1.734  15.856  0.3500 -0.2945 -0.1587
  765MPD2    C411349   1.156   1.864  15.867  0.2251 -0.0324 -0.1852
  765MPD2    C511350   1.062   1.962  15.859  0.8874  0.1373  0.3763
  765MPD2     H11351   0.951   1.594  15.828  0.5837 -0.1157  0.2474
  765MPD2    H111352   1.257   1.896  15.892 -0.0413  1.7011 -1.3239
  765MPD2    H211353   0.847   1.995  15.833 -0.8015 -0.3606  0.0784
  765MPD2    H311354   1.089   2.066  15.877 -0.2714  0.8559 -1.9800
  765MPD2     N11355   1.203   1.624  15.860  0.8571  0.2089  0.0084
  765MPD2    H511356   1.167   1.530  15.851  3.1682 -0.5528 -1.4200
  765MPD2    N111357   0.746   1.772  15.796  0.0426 -0.3762 -0.2660
  765MPD2    H711358   0.689   1.855  15.806 -0.9078 -1.1285  0.4740
  766MPD2     C11359   0.532   1.283  15.179  0.1935  0.2599  0.5079
  766MPD2    C111360   0.618   1.383  15.221 -0.1285 -0.0465 -0.4562
  766MPD2    C211361   0.725   1.428  15.145 -0.0021  0.9451 -0.0367
  766MPD2    C311362   0.749   1.371  15.023  0.0646 -0.1151 -0.0546
  766MPD2    C411363   0.665   1.269  14.973 -0.1254 -0.0308 -0.4225
  766MPD2    C511364   0.564   1.222  15.057  0.4957 -0.5405  0.4265
  766MPD2     H11365   0.778   1.517  15.178  2.1717 -0.8896  1.3891
  766MPD2    H111366   0.689   1.226  14.877  0.4215 -1.0403  0.1652
  766MPD2    H211367   0.451   1.242  15.239 -0.4797  0.6762 -0.1134
  766MPD2    H311368   0.490   1.152  15.022  0.0281 -1.2864  2.9031
  766MPD2     N11369   0.848   1.427  14.934  0.0835 -0.5414  0.0786
  766MPD2    H511370   0.840   1.397  14.838  0.9519  0.5802 -0.3413
  766MPD2    N111371   0.603   1.444  15.347 -0.4781  0.1257 -0.8263
  766MPD2    H711372   0.674   1.508  15.382 -0.0164  0.5486 -2.5286
  767MPD2     C11373   0.490   1.583  14.880  0.3725  0.5442 -0.2629
  767MPD2    C111374   0.589   1.657  14.820 -0.4502 -0.4539  0.0475
  767MPD2    C211375   0.641   1.607  14.689 -0.2985 -0.0320  0.7306
  767MPD2    C311376   0.593   1.497  14.626 -1.0754 -0.6071  0.1132
  767MPD2    C411377   0.496   1.424  14.693 -0.5017  0.0265 -0.5138
  767MPD2    C511378   0.448   1.468  14.812 -0.5219  0.3738  0.1732
  767MPD2     H11379   0.711   1.672  14.639 -0.8525 -0.0814 -0.1104
  767MPD2    H111380   0.447   1.335  14.656 -0.0266 -0.6719  0.5388
  767MPD2    H211381   0.441   1.621  14.969  0.9266 -1.3303  0.8303
  767MPD2    H311382   0.381   1.395  14.856  2.8326 -2.3692  0.7386
  767MPD2     N11383   0.654   1.453  14.508 -0.1707 -0.3213  0.3265
  767MPD2    H511384   0.734   1.504  14.473  0.0630  0.5381  2.1109
  767MPD2    N111385   0.636   1.761  14.894  0.4522 -0.7932 -0.6047
  767MPD2    H711386   0.601   1.788  14.986  0.7302 -1.7788 -0.2067
  768MPD2     C11387   0.458   0.126  10.867  0.5933 -0.5761 -0.4407
  768MPD2    C111388   0.523   0.183  10.972 -0.0165  0.0967 -0.0791
  768MPD2    C211389   0.621   0.117  11.041  0.2451  0.3519 -0.3736
  768MPD2    C311390   0.658   4.721  11.000 -0.3814  0.1418  0.6008
  768MPD2    C411391   0.593   4.667  10.886  0.0674 -0.0349 -0.1758
  768MPD2    C511392   0.492   0.003  10.824  0.1884  0.0961 -0.1894
  768MPD2     H11393   0.681   0.162  11.119  2.2003  0.4480 -1.9281
  768MPD2    H111394   0.627   4.572  10.847 -0.2451 -0.6938  1.1554
  768MPD2    H211395   0.383   0.183  10.814  1.0770  0.3451 -0.1492
  768MPD2    H311396   0.443   4.691  10.740  1.1046  2.0169 -1.7906
  768MPD2     N11397   0.764   4.649  11.057 -0.7334  0.4374 -0.2700
  768MPD2    H511398   0.799   4.568  11.006  1.3504  1.2528 -0.1432
  768MPD2    N111399   0.500   0.317  11.018  0.5006 -0.0003  0.5491
  768MPD2    H711400   0.573   0.353  11.078  1.1321 -0.7979  0.2469
  769MPD2     C11401   1.974   3.148  14.276  1.0003  0.5294  0.0809
  769MPD2    C111402   2.033   3.041  14.341  0.2624 -0.5232 -0.2537
  769MPD2    C211403   2.126   3.059  14.444  0.0884 -0.2245  1.2180
  769MPD2    C311404   2.176   3.186  14.464 -0.2225  0.1641 -0.6395
  769MPD2    C411405   2.111   3.295  14.404 -0.3176  0.6478 -0.5033
  769MPD2    C511406   2.013   3.274  14.311 -0.3609 -0.2778 -0.2052
  769MPD2     H11407   2.169   2.980  14.504 -2.9629 -1.5017  1.7367
  769MPD2    H111408   2.131   3.399  14.427 -0.7105  1.0708 -2.0752
  769MPD2    H211409   1.895   3.140  14.202  1.5315  1.7486 -0.6192
  769MPD2    H311410   1.975   3.363  14.263 -1.0690  0.3958  1.6071
  769MPD2     N11411   2.268   3.201  14.568  0.6070 -0.5891  0.2815
  769MPD2    H511412   2.309   3.117  14.607  0.7536 -0.5434  0.2245
  769MPD2    N111413   1.997   2.913  14.296 -0.8715 -0.0305 -0.2798
  769MPD2    H711414   1.918   2.915  14.233 -0.2783 -1.4844 -1.0564
  770MPD2     C11415   1.809   1.996  14.715  0.1593  0.0896  0.3515
  770MPD2    C111416   1.875   2.113  14.761  0.6827  0.2388  0.2386
  770MPD2    C211417   1.909   2.214  14.675 -0.0662  0.6462 -0.2944
  770MPD2    C311418   1.866   2.214  14.551  0.1147 -0.2218  0.1059
  770MPD2    C411419   1.807   2.104  14.504 -0.0116 -0.4584  0.4103
  770MPD2    C511420   1.787   1.995  14.582 -0.6603 -0.3812 -0.3476
  770MPD2     H11421   1.962   2.305  14.703  0.3827  0.5625 -0.8647
  770MPD2    H111422   1.778   2.091  14.400 -0.6213 -0.9515  0.6388
  770MPD2    H211423   1.796   1.912  14.782 -1.3299  0.3728  0.4230
  770MPD2    H311424   1.760   1.900  14.539  1.6850 -0.5054 -1.5141
  770MPD2     N11425   1.897   2.327  14.465  0.1043  0.5303 -0.1826
  770MPD2    H511426   1.979   2.384  14.488  1.0637 -0.4374 -1.2425
  770MPD2    N111427   1.898   2.128  14.896 -0.2085  0.1329 -0.1848
  770MPD2    H711428   1.864   2.051  14.952 -1.3533  1.9373  1.5975
  771MPD2     C11429   3.073   0.835  13.802  0.5675  0.2338  0.1544
  771MPD2    C111430   2.988   0.936  13.746 -0.7112 -0.5844  0.0922
  771MPD2    C211431   2.852   0.908  13.737  0.4350  0.1132  0.6380
  771MPD2    C311432   2.804   0.781  13.772 -0.2471 -0.0437  0.0596
  771MPD2    C411433   2.885   0.683  13.824  0.4541 -0.0318  0.6059
  771MPD2    C511434   3.019   0.712  13.833 -0.5266 -0.6952  0.1308
  771MPD2     H11435   2.785   0.988  13.706  0.3018 -0.3518 -0.2635
  771MPD2    H111436   2.842   0.588  13.852  0.1253  0.7888  2.9131
  771MPD2    H211437   3.180   0.845  13.815  0.8334 -0.8135 -1.1437
  771MPD2    H311438   3.082   0.636  13.878 -0.2919 -2.2439 -2.8228
  771MPD2     N11439   2.664   0.768  13.768 -0.1823 -0.0865  0.1413
  771MPD2    H511440   2.613   0.850  13.736  1.8998  1.7823  1.6071
  771MPD2    N111441   3.042   1.064  13.708  0.2917  0.0797 -0.5117
  771MPD2    H711442   2.972   1.126  13.669  1.7226  3.3892  2.2418
  772MPD2     C11443   2.652   1.581  13.676 -0.6891  0.3297 -0.4473
  772MPD2    C111444   2.734   1.510  13.765 -0.0884 -0.3496  0.3803
  772MPD2    C211445   2.665   1.462  13.878 -0.7172  0.0718 -0.4189
  772MPD2    C311446   2.531   1.472  13.889 -0.1700 -0.2452 -0.2453
  772MPD2    C411447   2.453   1.522  13.784 -0.4299 -0.8651  0.0576
  772MPD2    C511448   2.518   1.573  13.677  0.5796 -0.4975  1.1109
  772MPD2     H11449   2.720   1.400  13.948  0.6973 -0.2159 -1.7575
  772MPD2    H111450   2.346   1.514  13.799 -0.3943  0.3882  0.9263
  772MPD2    H211451   2.692   1.631  13.588  0.4254  0.8891  0.3633
  772MPD2    H311452   2.467   1.622  13.594 -1.2518 -2.1909  1.2394
  772MPD2     N11453   2.460   1.410  13.994 -0.5496  0.0572  0.4679
  772MPD2    H511454   2.362   1.389  13.981 -0.2289 -0.8390 -0.4194
  772MPD2    N111455   2.872   1.484  13.756 -0.8469 -0.2628 -0.2201
  772MPD2    H711456   2.914   1.428  13.830  1.1238 -1.0273 -1.9068
  773MPD2     C11457   2.225   2.538   0.231  0.1520 -0.7400  0.3326
  773MPD2    C111458   2.165   2.415   0.218  0.1348  0.1317  0.3599
  773MPD2    C211459   2.220   2.311   0.299 -0.2892 -0.8311  0.1247
  773MPD2    C311460   2.338   2.332   0.367 -0.5415 -0.1572  0.0245
  773MPD2    C411461   2.398   2.450   0.369  0.2486  0.6527 -0.5579
  773MPD2    C511462   2.341   2.553   0.297 -0.0490 -0.3195 -0.3464
  773MPD2     H11463   2.194   2.207   0.287 -2.2900 -0.2660 -0.3277
  773MPD2    H111464   2.486   2.462   0.431 -0.3689 -2.5719  0.9131
  773MPD2    H211465   2.186   2.630   0.188  1.4311  0.9585  2.8272
  773MPD2    H311466   2.375   2.655   0.313 -0.1220 -0.0781 -1.7489
  773MPD2     N11467   2.403   2.218   0.420  0.5997 -0.0672  0.0666
  773MPD2    H511468   2.356   2.128   0.415 -0.9617  0.7446  0.0703
  773MPD2    N111469   2.058   2.379   0.133  0.0498 -0.1278  0.4882
  773MPD2    H711470   2.016   2.288   0.150 -0.1186  0.0549  1.0556
  774MPD2     C11471   1.825   1.788  13.596  1.4790  0.5082  0.2883
  774MPD2    C111472   1.700   1.757  13.570  0.2372  0.3473 -0.0054
  774MPD2    C211473   1.614   1.839  13.506 -1.2009  0.3149 -0.0411
  774MPD2    C311474   1.658   1.967  13.472 -0.3184  0.5288  0.2832
  774MPD2    C411475   1.790   2.003  13.498 -0.2455  0.2992 -0.5007
  774MPD2    C511476   1.875   1.908  13.555 -0.2047 -0.2648 -0.0499
  774MPD2     H11477   1.507   1.820  13.497 -1.3401  0.7322  0.6880
  774MPD2    H111478   1.835   2.099  13.476  1.8507  0.1033  2.9344
  774MPD2    H211479   1.894   1.718  13.641  2.0528  0.2846 -0.9378
  774MPD2    H311480   1.979   1.935  13.573  0.1720 -0.4948 -1.8546
  774MPD2     N11481   1.572   2.061  13.411  0.1273  0.3357  0.2275
  774MPD2    H511482   1.473   2.043  13.417  0.0197 -0.4578 -4.3141
  774MPD2    N111483   1.662   1.618  13.605  0.1650 -0.2337  0.7371
  774MPD2    H711484   1.729   1.557  13.649 -0.9554 -0.9497  1.4594
  775MPD2     C11485   2.745   2.741  15.638 -0.0509  0.3190 -0.0457
  775MPD2    C111486   2.708   2.859  15.692  0.3877 -0.1890 -0.6094
  775MPD2    C211487   2.719   2.973  15.618  0.1684 -0.6619 -0.2631
  775MPD2    C311488   2.784   2.975  15.491 -0.4306 -0.0864 -0.1725
  775MPD2    C411489   2.816   2.849  15.436  0.1601 -0.9175 -0.5789
  775MPD2    C511490   2.802   2.734  15.510 -0.6260 -0.5196  0.1227
  775MPD2     H11491   2.673   3.064  15.655 -0.7730 -0.4421 -1.9523
  775MPD2    H111492   2.872   2.843  15.343  2.0864 -1.4233  0.6366
  775MPD2    H211493   2.736   2.654  15.702  0.0668  0.1890 -0.2070
  775MPD2    H311494   2.824   2.639  15.462  1.0216  0.2812 -0.6635
  775MPD2     N11495   2.795   3.085  15.408 -0.7581 -0.7306 -0.0800
  775MPD2    H511496   2.844   3.079  15.320  2.3446 -1.5923  1.6896
  775MPD2    N111497   2.650   2.849  15.822  0.0158  0.0433  0.6599
  775MPD2    H711498   2.635   2.756  15.861 -0.2453  0.1612  0.8362
  776MPD2     C11499   1.423   2.777  12.290  0.1949 -0.3399 -0.5020
  776MPD2    C111500   1.475   2.814  12.166 -0.3558 -0.0036  0.5313
  776MPD2    C211501   1.440   2.935  12.112 -0.4902 -0.0939 -0.0623
  776MPD2    C311502   1.341   3.011  12.166 -0.2410  0.1085 -0.3680
  776MPD2    C411503   1.277   2.972  12.282  0.7426 -0.6624  0.2881
  776MPD2    C511504   1.326   2.860  12.340  0.1557 -0.3595 -0.1494
  776MPD2     H11505   1.494   2.970  12.025  1.6852 -1.3978  0.7664
  776MPD2    H111506   1.205   3.038  12.331  1.0166 -0.8572  0.9477
  776MPD2    H211507   1.458   2.687  12.339  0.6174 -1.3357 -2.6087
  776MPD2    H311508   1.273   2.832  12.430 -0.5258  2.7783  0.4339
  776MPD2     N11509   1.284   3.124  12.101  0.2509 -0.5618  0.1119
  776MPD2    H511510   1.211   3.174  12.150  0.2922 -0.7131  0.3241
  776MPD2    N111511   1.568   2.724  12.111  0.7881 -0.0198 -0.1967
  776MPD2    H711512   1.590   2.647  12.173 -0.7542 -0.3316 -0.0427
  777MPD2     C11513   2.214   0.894   0.856  0.3378 -0.0263  0.3258
  777MPD2    C111514   2.101   0.874   0.926 -0.1896 -0.4331  0.2853
  777MPD2    C211515   1.995   0.810   0.864 -0.2710  0.0313  0.0560
  777MPD2    C311516   2.003   0.776   0.726  0.4225 -0.5335 -0.3087
  777MPD2    C411517   2.122   0.811   0.655 -0.1163 -0.1028  0.3979
  777MPD2    C511518   2.228   0.870   0.723 -0.1052  0.0018 -0.0674
  777MPD2     H11519   1.899   0.796   0.911 -0.9302 -1.1897 -1.6550
  777MPD2    H111520   2.128   0.801   0.547  3.0648 -2.1782  0.7536
  777MPD2    H211521   2.302   0.947   0.893 -0.0942  0.6063  0.4490
  777MPD2    H311522   2.321   0.887   0.670 -0.3445 -0.5087 -0.6536
  777MPD2     N11523   1.893   0.715   0.666 -0.8401  0.4572 -0.4182
  777MPD2    H511524   1.825   0.675   0.730  0.9741 -4.3519 -1.4193
  777MPD2    N111525   2.089   0.927   1.060  0.0768  1.0663  0.6738
  777MPD2    H711526   2.164   0.988   1.090 -0.4464  1.4136  1.2726
  778MPD2     C11527   3.290   0.952  15.281 -0.2784  0.2515 -0.5782
  778MPD2    C111528   3.289   0.839  15.200 -0.1508 -0.2302  0.0477
  778MPD2    C211529   3.377   0.837  15.094 -0.4505  0.5420 -0.3973
  778MPD2    C311530   3.457   0.944  15.062 -1.0493  0.1278 -1.0868
  778MPD2    C411531   3.448   1.057  15.138 -0.1010 -0.2398 -0.3178
  778MPD2    C511532   3.358   1.059  15.238 -0.2722 -0.5124 -0.2229
  778MPD2     H11533   3.387   0.746  15.036 -0.1557  0.0288  0.4505
  778MPD2    H111534   3.518   1.140  15.132 -0.5895  0.1385 -0.7502
  778MPD2    H211535   3.242   0.969  15.377  0.8934  2.6731 -0.4027
  778MPD2    H311536   3.371   1.146  15.301  0.2792 -0.4356 -0.4456
  778MPD2     N11537   3.554   0.932  14.964  0.2678 -0.3885  0.0880
  778MPD2    H511538   3.556   0.856  14.896  1.2102 -0.5266  0.2662
  778MPD2    N111539   3.197   0.726  15.223 -0.8119  0.3835  0.0097
  778MPD2    H711540   3.205   0.646  15.161  1.4193  0.7375 -0.1824
  779MPD2     C11541   2.697   4.290  13.894 -0.8270 -0.3821 -0.1367
  779MPD2    C111542   2.825   4.338  13.907 -0.0316 -0.1831  0.2323
  779MPD2    C211543   2.851   4.474  13.897  0.6802 -0.8189 -0.6691
  779MPD2    C311544   2.744   4.560  13.890 -0.1093  0.0483  0.2346
  779MPD2    C411545   2.616   4.516  13.868  0.5609 -0.4535  0.9630
  779MPD2    C511546   2.597   4.383  13.871  0.1111 -0.5404  0.0937
  779MPD2     H11547   2.953   4.506  13.911 -0.0071  0.5388  1.3575
  779MPD2    H111548   2.541   4.588  13.837  0.6737 -1.5313 -1.7417
  779MPD2    H211549   2.666   4.186  13.903 -1.9636 -0.1803 -1.8334
  779MPD2    H311550   2.494   4.353  13.859 -1.1809  2.1394  4.4547
  779MPD2     N11551   2.781   4.691  13.904  0.2683 -0.4749 -0.1295
  779MPD2    H511552   2.878   4.707  13.930  0.8296 -2.9159 -0.6952
  779MPD2    N111553   2.939   4.255  13.930 -0.3248  0.2203 -0.4104
  779MPD2    H711554   3.028   4.302  13.918  1.3838 -2.8702  0.0733
  780MPD2     C11555   2.187   4.660   0.969 -0.9853 -0.1161  0.1160
  780MPD2    C111556   2.246   4.544   0.924  0.0182  0.1578 -0.0094
  780MPD2    C211557   2.336   4.547   0.821 -0.3917  0.2061  0.0588
  780MPD2    C311558   2.362   4.657   0.740 -0.4546  0.1017 -0.3814
  780MPD2    C411559   2.290   0.036   0.776  0.3197 -0.3679  0.5156
  780MPD2    C511560   2.215   0.032   0.890  0.1657  0.5939  0.1517
  780MPD2     H11561   2.376   4.453   0.783 -0.3114  0.6208 -0.8755
  780MPD2    H111562   2.297   0.131   0.725 -0.0473 -1.1756 -1.0481
  780MPD2    H211563   2.122   4.670   1.055 -0.1685  1.6897  0.5331
  780MPD2    H311564   2.161   0.122   0.918 -0.2169  0.2821  0.4244
  780MPD2     N11565   2.457   4.648   0.633 -0.9260  0.4121 -0.2683
  780MPD2    H511566   2.504   4.560   0.616  2.0343  1.6085  1.5468
  780MPD2    N111567   2.219   4.430   1.010  0.0259 -0.1033 -0.0649
  780MPD2    H711568   2.137   4.429   1.068  0.5692 -0.3138  0.6960
  781MPD2     C11569   4.549   2.395  12.337  0.2774  0.0101 -0.4506
  781MPD2    C111570   4.554   2.293  12.252  0.4648 -0.1334 -0.5389
  781MPD2    C211571   4.598   2.303  12.121  0.2560  0.2907  0.3823
  781MPD2    C311572   4.661   2.419  12.078 -0.1350 -0.4469  0.3137
  781MPD2    C411573   4.666   2.530  12.172  0.3594 -0.5931 -0.9500
  781MPD2    C511574   4.617   2.509  12.302  0.6649  0.1985  0.4453
  781MPD2     H11575   4.581   2.215  12.060  0.0084  0.9180 -0.4519
  781MPD2    H111576   4.716   2.622  12.144 -2.4841  0.9984 -0.8920
  781MPD2    H211577   4.500   2.394  12.434  1.5106 -2.7029  0.1407
  781MPD2    H311578   4.630   2.586  12.377  0.3876 -0.3363  1.0375
  781MPD2     N11579   4.703   2.448  11.943 -0.3735 -0.0790  0.2746
  781MPD2    H511580   4.734   2.543  11.923  2.3080 -1.0824 -0.3676
  781MPD2    N111581   4.498   2.166  12.287  0.2318 -0.7508  0.4264
  781MPD2    H711582   4.467   2.104  12.212  1.2404 -1.8514  0.9120
  782MPD2     C11583   2.334   3.035  10.157 -0.0712 -0.5564  0.3032
  782MPD2    C111584   2.365   2.951  10.260 -0.7112  0.7343 -0.9241
  782MPD2    C211585   2.363   2.991  10.391  0.1246  0.1793  0.3962
  782MPD2    C311586   2.320   3.119  10.429  0.1945 -0.0323 -0.4157
  782MPD2    C411587   2.276   3.203  10.328  0.1138 -0.2723 -0.5681
  782MPD2    C511588   2.288   3.159  10.199 -0.3256 -0.0431  0.7291
  782MPD2     H11589   2.396   2.917  10.463 -0.5548 -2.5515 -2.1123
  782MPD2    H111590   2.243   3.303  10.352 -0.9112 -0.4670 -1.1608
  782MPD2    H211591   2.333   3.008  10.052 -0.9979  0.3069  0.0804
  782MPD2    H311592   2.261   3.221  10.114 -0.6043  1.4279  1.8834
  782MPD2     N11593   2.323   3.164  10.562  0.0853 -0.0665 -0.4896
  782MPD2    H511594   2.366   3.101  10.629 -1.4601  0.1822  0.7290
  782MPD2    N111595   2.408   2.817  10.229  0.0259 -0.2511 -0.5899
  782MPD2    H711596   2.403   2.747  10.302  1.5946 -2.4133 -2.5660
  783MPD2     C11597   1.745   2.341  10.287  0.0295  0.2354  0.4985
  783MPD2    C111598   1.835   2.343  10.391 -0.1537 -0.3740 -0.3009
  783MPD2    C211599   1.974   2.336  10.359  0.3643  0.0848  0.1305
  783MPD2    C311600   2.017   2.358  10.228  0.2370 -0.3274 -0.7398
  783MPD2    C411601   1.926   2.369  10.129 -0.0201  0.3506 -0.1654
  783MPD2    C511602   1.791   2.365  10.161  0.7181 -0.0322  0.1431
  783MPD2     H11603   2.049   2.329  10.437 -0.9454 -0.7186  1.3153
  783MPD2    H111604   1.946   2.400  10.027  2.0423 -1.3198 -0.2873
  783MPD2    H211605   1.640   2.363  10.301  0.1580  0.6654  0.7872
  783MPD2    H311606   1.714   2.395  10.091  0.9008  2.5484  1.0619
  783MPD2     N11607   2.154   2.360  10.210 -0.3636  0.3629 -0.1086
  783MPD2    H511608   2.212   2.356  10.293  0.4880 -2.9987 -0.8934
  783MPD2    N111609   1.799   2.336  10.528  0.2476  0.4494  0.1169
  783MPD2    H711610   1.700   2.321  10.544 -0.0214  0.6747 -1.3713
  784MPD2     C11611   0.221   2.605   0.730  1.0088 -0.2645 -0.3196
  784MPD2    C111612   0.225   2.735   0.771  0.5806 -0.2484  0.3266
  784MPD2    C211613   0.112   2.817   0.746 -0.8875 -0.1519 -0.6175
  784MPD2    C311614   0.006   2.762   0.680 -0.0749  0.1936 -0.1537
  784MPD2    C411615   0.004   2.624   0.650  0.7678 -1.2544 -0.7740
  784MPD2    C511616   0.113   2.544   0.676  0.3093 -0.6693 -0.1615
  784MPD2     H11617   0.105   2.918   0.785 -3.8514 -0.4015 -0.4981
  784MPD2    H111618   4.658   2.566   0.606  1.0320 -0.7569 -1.8959
  784MPD2    H211619   0.310   2.543   0.733  0.4090 -0.9881  2.4444
  784MPD2    H311620   0.128   2.445   0.634 -2.4923 -1.3246  0.3699
  784MPD2     N11621   4.630   2.842   0.648 -0.7605 -0.3207 -0.1058
  784MPD2    H511622   4.633   2.943   0.657  1.1838 -0.6461  3.0457
  784MPD2    N111623   0.319   2.780   0.869 -0.3279 -0.3545  0.0504
  784MPD2    H711624   0.308   2.876   0.900 -0.0569 -0.3893  0.2541
  785MPD2     C11625   0.103   1.197  11.098  0.8736 -0.1162  0.1615
  785MPD2    C111626   0.044   1.274  11.004  0.1273  0.1446 -0.3264
  785MPD2    C211627   4.662   1.228  10.942  0.2467  0.3532  0.3394
  785MPD2    C311628   4.611   1.105  10.971 -0.4316 -0.1597 -0.1185
  785MPD2    C411629   4.665   1.033  11.079  0.1087  0.8442  0.5529
  785MPD2    C511630   0.043   1.084  11.135  0.4630 -0.5476  0.3522
  785MPD2     H11631   4.606   1.275  10.862  0.8162 -0.9753 -0.8341
  785MPD2    H111632   4.611   0.944  11.107 -0.8392  0.8627 -1.1803
  785MPD2    H211633   0.191   1.225  11.156  0.3380 -1.0349  1.4191
  785MPD2    H311634   0.083   1.025  11.217 -0.5147  1.2144  2.0902
  785MPD2     N11635   4.490   1.070  10.897 -0.6394  1.2321  0.6924
  785MPD2    H511636   4.465   1.146  10.834 -0.8025  1.1873  0.7014
  785MPD2    N111637   0.094   1.392  10.957 -0.4919 -0.0172 -0.2574
  785MPD2    H711638   0.029   1.448  10.903  0.1729  0.3346 -0.6956
  786MPD2     C11639   3.977   3.928  14.806 -0.0639 -0.2687  1.0131
  786MPD2    C111640   3.894   3.826  14.841 -0.3485 -0.3739  0.1898
  786MPD2    C211641   3.832   3.840  14.962 -0.3898 -0.2241 -0.5014
  786MPD2    C311642   3.852   3.940  15.054 -0.2982 -0.3489  0.3286
  786MPD2    C411643   3.944   4.031  15.021  1.2892  0.1783  0.6205
  786MPD2    C511644   4.005   4.025  14.898  0.8179  0.5075  0.7703
  786MPD2     H11645   3.756   3.769  14.992 -0.0707 -0.8948 -1.2636
  786MPD2    H111646   3.977   4.112  15.084 -0.0852  2.4566 -1.6163
  786MPD2    H211647   4.016   3.941  14.706 -0.5281 -0.1158  0.8537
  786MPD2    H311648   4.084   4.095  14.874  0.1291  1.5434  1.4673
  786MPD2     N11649   3.803   3.928  15.179 -0.4303  0.2249 -0.0511
  786MPD2    H511650   3.865   3.966  15.249 -0.1394 -0.9848  0.3541
  786MPD2    N111651   3.854   3.721  14.756 -0.8876 -0.4339  0.4093
  786MPD2    H711652   3.805   3.639  14.791 -1.2702 -0.1227  0.6080
  787MPD2     C11653   3.732   3.283  15.074 -0.1477  0.8404  0.1250
  787MPD2    C111654   3.768   3.228  14.953 -0.1807 -0.5958 -0.3656
  787MPD2    C211655   3.818   3.100  14.958 -0.5381  0.0742  0.5343
  787MPD2    C311656   3.833   3.025  15.070  0.0436 -0.2938  0.4966
  787MPD2    C411657   3.787   3.078  15.195 -0.4591  0.1500 -0.1463
  787MPD2    C511658   3.745   3.209  15.188 -0.9209  0.7053  0.0513
  787MPD2     H11659   3.869   3.055  14.874 -0.1326  0.5478  0.5331
  787MPD2    H111660   3.795   3.040  15.296 -0.2288 -0.1544 -0.2765
  787MPD2    H211661   3.696   3.385  15.083  0.7036  1.3302 -1.9609
  787MPD2    H311662   3.719   3.243  15.288  0.8992  0.0480  0.7507
  787MPD2     N11663   3.889   2.899  15.060  0.1791 -0.2290 -0.1452
  787MPD2    H511664   3.916   2.866  14.968  0.5559 -0.3912  0.0227
  787MPD2    N111665   3.742   3.301  14.834  0.9498 -0.0076  0.2316
  787MPD2    H711666   3.713   3.397  14.847  0.9667  0.0117  0.1231
  788MPD2     C11667   0.859   2.256   1.289 -0.0628  0.2700 -0.1869
  788MPD2    C111668   0.907   2.206   1.166  0.5119  0.7637 -0.9755
  788MPD2    C211669   0.936   2.296   1.066 -1.1199  0.3982 -0.7218
  788MPD2    C311670   0.925   2.435   1.092 -0.0829 -0.1790 -0.4131
  788MPD2    C411671   0.876   2.478   1.209 -0.0813  0.2359 -0.0272
  788MPD2    C511672   0.842   2.390   1.310  1.3330  0.1179  0.6537
  788MPD2     H11673   0.969   2.256   0.971  4.4096  0.0237  1.3789
  788MPD2    H111674   0.866   2.586   1.220 -2.4928 -0.0521  0.4565
  788MPD2    H211675   0.835   2.200   1.379  2.6492 -0.9064 -0.2034
  788MPD2    H311676   0.809   2.421   1.409 -0.2476  0.4397  0.0256
  788MPD2     N11677   0.942   2.531   0.990  0.3300 -0.0533  0.0624
  788MPD2    H511678   0.904   2.621   1.014  0.1954 -0.9425  3.2316
  788MPD2    N111679   0.926   2.065   1.143 -0.6765 -0.5220  0.3031
  788MPD2    H711680   0.985   2.042   1.064 -1.2329  2.6695 -1.0476
  789MPD2     C11681   1.247   1.858  16.959 -0.2367  0.1615  0.0299
  789MPD2    C111682   1.173   1.876  16.845  0.3680  0.2648  0.6083
  789MPD2    C211683   1.069   1.967  16.847 -0.1159 -0.1470  0.6849
  789MPD2    C311684   1.050   2.053  16.961 -0.6090  0.4881  0.0295
  789MPD2    C411685   1.136   2.042  17.069  0.2214  0.4073  0.6252
  789MPD2    C511686   1.231   1.942  17.072 -0.4165  0.5966 -0.1896
  789MPD2     H11687   1.003   1.980  16.762 -0.4971 -3.8829  0.4102
  789MPD2    H111688   1.124   2.099  17.160 -0.5004 -0.1198  0.8644
  789MPD2    H211689   1.333   1.793  16.966 -0.4325 -0.1798 -0.7658
  789MPD2    H311690   1.293   1.942  17.161  0.3694  0.8426 -0.7396
  789MPD2     N11691   0.942   2.144  16.966  0.0379  0.2096 -0.2251
  789MPD2    H511692   0.930   2.200  17.049 -1.0101  0.1238 -0.3268
  789MPD2    N111693   1.183   1.801  16.724  0.0353 -0.3110  0.5064
  789MPD2    H711694   1.119   1.830  16.650  0.4994  0.3430  0.3638
  790MPD2     C11695   2.164   3.950  13.312  0.0761  0.5871  0.3409
  790MPD2    C111696   2.089   3.834  13.311 -0.1183 -0.4179 -0.3071
  790MPD2    C211697   2.053   3.779  13.188 -0.0300  0.1736 -0.1505
  790MPD2    C311698   2.099   3.834  13.068 -0.0543 -0.4458  0.3296
  790MPD2    C411699   2.158   3.959  13.079 -0.4023  0.6920  0.9712
  790MPD2    C511700   2.200   4.015  13.195 -0.4574  0.8014 -0.5100
  790MPD2     H11701   2.018   3.676  13.179  1.0558 -0.1543 -0.7008
  790MPD2    H111702   2.173   4.022  12.993 -2.6483  0.2611  0.2555
  790MPD2    H211703   2.189   3.994  13.409  0.0123  0.4704  0.4104
  790MPD2    H311704   2.245   4.113  13.201  0.0492  0.6294 -1.4077
  790MPD2     N11705   2.085   3.766  12.946 -0.7781  0.2711  0.1972
  790MPD2    H511706   2.052   3.671  12.937 -1.0509  0.5451 -1.6750
  790MPD2    N111707   2.051   3.768  13.428  0.4534 -0.1187 -0.1055
  790MPD2    H711708   2.080   3.798  13.520  1.1118 -2.0626  0.3347
  791MPD2     C11709   1.538   3.619  12.545  0.2176 -0.6580  0.2087
  791MPD2    C111710   1.624   3.525  12.597 -0.0958 -0.0768  0.5105
  791MPD2    C211711   1.585   3.397  12.636  0.1605 -0.4388 -0.2248
  791MPD2    C311712   1.457   3.356  12.616  0.4957  0.5023 -0.2274
  791MPD2    C411713   1.372   3.455  12.565  0.2966  0.4519  0.3561
  791MPD2    C511714   1.411   3.583  12.536 -0.1424  0.3561  0.5989
  791MPD2     H11715   1.655   3.324  12.672  0.8683 -0.2535 -1.2252
  791MPD2    H111716   1.265   3.436  12.560  0.3054  0.6119 -0.5084
  791MPD2    H211717   1.570   3.714  12.505 -1.9945 -0.7929 -1.9335
  791MPD2    H311718   1.338   3.658  12.507  0.0372  0.3603  0.1672
  791MPD2     N11719   1.412   3.225  12.652  0.0969  0.4344  0.0289
  791MPD2    H511720   1.485   3.172  12.699  0.3340  0.8399  0.1204
  791MPD2    N111721   1.763   3.568  12.606  0.1025  0.0722  0.3446
  791MPD2    H711722   1.783   3.667  12.594 -2.3811  0.2567 -2.3207
  792MPD2     C11723   1.724   3.750  11.378  0.4496  0.1890 -0.1633
  792MPD2    C111724   1.671   3.763  11.255 -0.3565 -0.2358 -0.1110
  792MPD2    C211725   1.540   3.727  11.227  0.5192  0.2163  0.4102
  792MPD2    C311726   1.457   3.687  11.331 -0.0462  0.3226 -0.0572
  792MPD2    C411727   1.509   3.671  11.457  0.2984 -0.3255 -0.1508
  792MPD2    C511728   1.646   3.701  11.478  0.5032  0.0322 -0.1478
  792MPD2     H11729   1.490   3.758  11.137 -0.8938 -1.6662  0.5712
  792MPD2    H111730   1.446   3.635  11.538 -0.7820 -1.2303 -1.4069
  792MPD2    H211731   1.828   3.776  11.394  0.1860  0.9500  0.2677
  792MPD2    H311732   1.688   3.687  11.577  0.3878 -0.8493 -0.2257
  792MPD2     N11733   1.320   3.661  11.311  0.4361  0.5899  0.2987
  792MPD2    H511734   1.265   3.651  11.395  1.7270 -2.3283  0.7732
  792MPD2    N111735   1.761   3.803  11.146  0.0163 -0.1009 -0.6343
  792MPD2    H711736   1.858   3.810  11.173  0.1222  0.7532 -1.1949
  793MPD2     C11737   0.930   3.198  10.585 -0.1466 -0.6405  0.5726
  793MPD2    C111738   1.051   3.227  10.633  0.1394 -0.2296  0.2786
  793MPD2    C211739   1.054   3.321  10.731  0.2521  0.8610 -0.3154
  793MPD2    C311740   0.943   3.385  10.776 -0.7322 -0.1853  0.0044
  793MPD2    C411741   0.819   3.368  10.716 -0.5711 -0.3495 -0.4134
  793MPD2    C511742   0.818   3.276  10.618  0.3275  0.0897  0.1808
  793MPD2     H11743   1.148   3.337  10.782 -0.9298 -0.7983  2.4530
  793MPD2    H111744   0.727   3.420  10.738  0.9435  0.7900  3.2187
  793MPD2    H211745   0.912   3.117  10.516  0.4040  1.4326 -1.9768
  793MPD2    H311746   0.724   3.248  10.572 -0.0163  1.4974  0.0146
  793MPD2     N11747   0.962   3.477  10.893  0.0733  0.1877  0.3377
  793MPD2    H511748   1.055   3.479  10.935 -0.3768 -1.4962  1.3886
  793MPD2    N111749   1.174   3.157  10.601 -0.2276 -0.0476  0.0722
  793MPD2    H711750   1.261   3.197  10.636 -1.3950  1.7707  0.8445
  794MPD2     C11751   1.839   2.331  17.047  1.2870  0.0890  0.4452
  794MPD2    C111752   1.732   2.383  17.124  0.3642 -0.1009 -0.3288
  794MPD2    C211753   1.625   2.442  17.058 -0.5925  0.2604 -0.4932
  794MPD2    C311754   1.633   2.463  16.921 -0.2379 -0.3027 -0.1338
  794MPD2    C411755   1.741   2.408  16.843 -0.2053 -0.2398  0.4054
  794MPD2    C511756   1.838   2.339  16.909 -0.3903 -0.4787  0.4209
  794MPD2     H11757   1.545   2.483  17.118 -1.2214 -0.2545 -0.9818
  794MPD2    H111758   1.740   2.424  16.736  0.7962  0.1645  0.4557
  794MPD2    H211759   1.909   2.263  17.094  1.5874  0.0194 -0.1028
  794MPD2    H311760   1.918   2.280  16.865 -1.2051 -1.9775  0.9772
  794MPD2     N11761   1.552   2.546  16.852  0.1512  0.5459  0.1375
  794MPD2    H511762   1.561   2.555  16.751 -0.0427  0.4555  0.1143
  794MPD2    N111763   1.728   2.395  17.264 -0.1306  0.5449  0.1466
  794MPD2    H711764   1.640   2.425  17.304  0.7675  1.6820  1.2841
  795MPD2     C11765   4.401   0.014  13.265 -0.2081 -0.1286  0.0261
  795MPD2    C111766   4.330   4.724  13.385  0.2060 -0.2430 -0.1954
  795MPD2    C211767   4.373   4.622  13.464 -0.7548  0.3913 -0.0922
  795MPD2    C311768   4.493   4.553  13.436  0.1578  0.0668  0.3896
  795MPD2    C411769   4.549   4.565  13.321  0.6123  0.6154 -0.2075
  795MPD2    C511770   4.496   4.660  13.232 -0.0991  0.0929 -0.3173
  795MPD2     H11771   4.327   4.617  13.562  1.7828 -1.0480  1.0423
  795MPD2    H111772   4.637   4.504  13.303  0.4011 -0.4375  2.3035
  795MPD2    H211773   4.371   0.088  13.192  1.0716 -0.5687 -0.9382
  795MPD2    H311774   4.548   4.676  13.138  1.9860  1.5488  1.0889
  795MPD2     N11775   4.551   4.477  13.538 -0.4037 -0.2852 -0.6152
  795MPD2    H511776   4.525   4.488  13.635 -2.0081 -1.9957 -0.8597
  795MPD2    N111777   4.211   0.056  13.418  0.2747 -0.6179  0.9235
  795MPD2    H711778   4.164   0.022  13.502 -2.2874  0.8727  0.0813
  796MPD2     C11779   3.804   1.269  16.101  0.6681 -0.8050  0.4058
  796MPD2    C111780   3.925   1.333  16.078  0.1055 -0.2042 -0.1671
  796MPD2    C211781   3.923   1.464  16.033  0.1217  0.7515  0.5589
  796MPD2    C311782   3.805   1.509  15.982 -0.6523  0.1702 -0.3962
  796MPD2    C411783   3.688   1.441  15.999  0.6945  0.5157  0.4443
  796MPD2    C511784   3.682   1.319  16.062 -0.2738 -0.0705 -0.2078
  796MPD2     H11785   4.014   1.523  16.041  0.9367 -0.9317  3.6102
  796MPD2    H111786   3.589   1.470  15.966  0.6687 -0.6625 -0.4942
  796MPD2    H211787   3.789   1.174  16.151 -2.5960  0.8230  2.5706
  796MPD2    H311788   3.588   1.267  16.079 -1.4491  1.5631 -1.7271
  796MPD2     N11789   3.809   1.644  15.950  0.0720 -0.7755  0.0404
  796MPD2    H511790   3.898   1.692  15.959 -0.2610  0.1033 -1.4098
  796MPD2    N111791   4.044   1.261  16.115 -0.3642 -0.4695  0.7844
  796MPD2    H711792   4.026   1.170  16.156  1.6245 -0.9236  0.6561
  797MPD2     C11793   4.716   1.059  17.578  0.3033  0.3036 -0.3455
  797MPD2    C111794   4.723   1.191  17.594 -0.5351 -0.2722  0.2278
  797MPD2    C211795   4.679   1.274  17.497  0.0231  0.3707  0.1850
  797MPD2    C311796   4.641   1.227  17.371 -0.0323  0.3212 -0.3769
  797MPD2    C411797   4.625   1.091  17.356  0.4046  0.4446 -0.0061
  797MPD2    C511798   4.659   1.012  17.461 -0.4765  0.0656 -0.0750
  797MPD2     H11799   4.684   1.381  17.514  2.1850  0.0089  1.7059
  797MPD2    H111800   4.592   1.042  17.266 -0.8292 -0.9797  1.2264
  797MPD2    H211801   0.016   0.993  17.657 -0.7116 -1.0402 -1.0409
  797MPD2    H311802   4.636   0.906  17.453 -0.1229 -0.1259  1.5057
  797MPD2     N11803   4.640   1.306  17.256  0.5126  0.7114 -0.2885
  797MPD2    H511804   4.626   1.257  17.168  0.9042  2.2083 -1.1991
  797MPD2    N111805   0.016   1.244  17.721  0.4930  0.3226  0.2696
  797MPD2    H711806   4.728   1.343  17.725  0.4767  0.3148  0.3684
  798MPD2     C11807   0.319   1.865  17.434 -0.0926  0.0421 -0.5224
  798MPD2    C111808   0.230   1.760  17.415 -0.0943  0.7990 -0.4888
  798MPD2    C211809   0.208   1.672  17.518 -0.5122  0.2405 -0.7077
  798MPD2    C311810   0.265   1.696  17.639 -1.0234 -0.5787  0.3828
  798MPD2    C411811   0.355   1.798  17.658  0.1656 -0.3968 -0.0696
  798MPD2    C511812   0.386   1.883  17.551 -0.2763  0.2795  0.5770
  798MPD2     H11813   0.142   1.587  17.508 -0.7992  0.5339 -1.3276
  798MPD2    H111814   0.394   1.827   0.018  0.6016 -2.2056  0.2981
  798MPD2    H211815   0.323   1.946  17.362  2.2582  1.1444  0.8440
  798MPD2    H311816   0.461   1.960  17.564  0.5814 -0.3103 -0.8566
  798MPD2     N11817   0.235   1.607   0.005 -0.5109 -0.2785 -0.2386
  798MPD2    H511818   0.153   1.549  17.724 -0.9357  0.7115 -1.4694
  798MPD2    N111819   0.166   1.733  17.297  0.0391  0.9220 -0.1765
  798MPD2    H711820   0.099   1.660  17.316  0.5634 -0.2752 -2.9599
  799MPD2     C11821   3.783   2.229  14.950  0.8943  0.6731  0.1622
  799MPD2    C111822   3.722   2.112  14.912 -0.0791 -0.5242 -0.4173
  799MPD2    C211823   3.616   2.129  14.827 -0.4907 -0.9596 -0.5252
  799MPD2    C311824   3.572   2.247  14.787  0.4578 -0.3444  0.0374
  799MPD2    C411825   3.623   2.362  14.839 -0.5696 -0.1617  0.5000
  799MPD2    C511826   3.734   2.351  14.915 -0.0038  0.3744 -0.3232
  799MPD2     H11827   3.558   2.040  14.805 -0.4108 -1.4477  1.2227
  799MPD2    H111828   3.601   2.463  14.808 -0.3898  0.4554  2.3801
  799MPD2    H211829   3.848   2.236  15.036  1.4934  1.8667 -0.3830
  799MPD2    H311830   3.780   2.440  14.957  0.5808  0.6000 -1.4588
  799MPD2     N11831   3.465   2.255  14.697  0.1419 -0.3294 -0.4619
  799MPD2    H511832   3.430   2.350  14.685 -0.3709 -0.7390 -2.2445
  799MPD2    N111833   3.765   1.987  14.954 -0.4303 -0.8786  0.5499
  799MPD2    H711834   3.716   1.907  14.915 -0.0288 -1.0621  0.4226
  800MPD2     C11835   4.308   3.692  14.045 -0.2357 -0.1032  0.2993
  800MPD2    C111836   4.440   3.720  14.042 -0.7483  0.5752 -0.1826
  800MPD2    C211837   4.530   3.623  14.005 -0.4774  0.2985  0.1893
  800MPD2    C311838   4.485   3.500  13.960  0.1273 -0.3514 -0.1186
  800MPD2    C411839   4.347   3.472  13.956  0.6286 -0.1907  0.1098
  800MPD2    C511840   4.261   3.564  14.005 -0.3401 -0.6950  0.4999
  800MPD2     H11841   4.636   3.641  13.997 -0.5423  0.5263 -0.2145
  800MPD2    H111842   4.310   3.376  13.920  1.5727 -0.1909 -0.8655
  800MPD2    H211843   4.228   3.765  14.055 -0.0969  0.1820 -0.7668
  800MPD2    H311844   4.155   3.546  13.990 -0.4775  2.0100 -1.8181
  800MPD2     N11845   4.585   3.402  13.933 -0.2444  0.1429 -0.0540
  800MPD2    H511846   4.680   3.436  13.938 -0.1216 -0.3092  0.6257
  800MPD2    N111847   4.472   3.855  14.075 -0.2380 -0.4779  0.1091
  800MPD2    H711848   4.400   3.902  14.129 -1.3696 -1.7230 -0.3147
  801MPD2     C11849   4.363   4.691  14.079  0.1233 -0.1000 -0.6325
  801MPD2    C111850   4.353   4.572  14.143  0.6791  0.0749  0.0094
  801MPD2    C211851   4.266   4.562  14.253  1.4257  0.4379 -0.2282
  801MPD2    C311852   4.189   4.679  14.284 -0.2263  0.1543  0.6656
  801MPD2    C411853   4.211   0.063  14.222  1.0777  0.2073 -0.3341
  801MPD2    C511854   4.293   0.066  14.119 -0.1021 -0.1111 -0.5853
  801MPD2     H11855   4.243   4.468  14.302 -0.3425  1.5317  1.0534
  801MPD2    H111856   4.156   0.153  14.245 -0.5074 -1.2690  1.6890
  801MPD2    H211857   4.433   4.705  13.997 -0.6115 -1.3159 -1.4581
  801MPD2    H311858   4.305   0.162  14.072  0.9242  0.0104 -0.0822
  801MPD2     N11859   4.084   4.685  14.374  0.4784 -0.3269  0.0556
  801MPD2    H511860   4.020   0.030  14.378 -0.0120 -0.5668 -2.7286
  801MPD2    N111861   4.434   4.471  14.100 -0.0230  0.4103  0.0221
  801MPD2    H711862   4.509   4.497  14.036  0.5562 -0.5447  0.3110
  802MPD2     C11863   3.320   0.343  17.220 -0.6647 -0.0029  0.3086
  802MPD2    C111864   3.394   0.361  17.336 -0.0961 -0.2390 -0.1361
  802MPD2    C211865   3.456   0.249  17.399  0.7434  0.4058 -0.6637
  802MPD2    C311866   3.431   0.118  17.350  0.2383 -0.0171  0.6317
  802MPD2    C411867   3.352   0.105  17.242  0.0252 -0.4142 -0.1899
  802MPD2    C511868   3.294   0.215  17.193  0.0651 -1.2179 -0.1178
  802MPD2     H11869   3.510   0.271  17.490 -0.2744 -0.6069  0.1803
  802MPD2    H111870   3.323   0.009  17.200 -1.9817  0.5245 -0.9532
  802MPD2    H211871   3.261   0.422  17.175 -1.6891 -2.3698 -2.4298
  802MPD2    H311872   3.220   0.201  17.115 -0.2040  0.2956 -0.1338
  802MPD2     N11873   3.496   0.012  17.410  0.0066 -0.7945  0.0023
  802MPD2    H511874   3.572   0.036  17.473  0.1181 -0.3791 -0.2918
  802MPD2    N111875   3.394   0.490  17.398  0.1081 -0.2696 -0.0563
  802MPD2    H711876   3.413   0.494  17.497 -2.2969  0.8410  0.3703
  803MPD2     C11877   4.142   2.968  12.651  0.1080 -0.0110 -0.3215
  803MPD2    C111878   4.215   2.905  12.558  0.0046 -0.2846 -0.1803
  803MPD2    C211879   4.354   2.886  12.584  0.2317  0.2621 -0.0544
  803MPD2    C311880   4.414   2.932  12.699 -0.6478 -0.1367  0.1587
  803MPD2    C411881   4.344   2.997  12.791  0.0124  0.0070 -0.0123
  803MPD2    C511882   4.203   3.013  12.766 -0.6269 -0.5983 -0.0084
  803MPD2     H11883   4.401   2.823  12.509 -0.1709 -1.0043  0.7756
  803MPD2    H111884   4.386   3.036  12.884  0.9855 -0.1372 -0.3850
  803MPD2    H211885   4.034   2.973  12.646  0.1538  2.0124  0.8688
  803MPD2    H311886   4.126   3.054  12.830  1.0726 -1.5332  2.6520
  803MPD2     N11887   4.548   2.904  12.730  0.2587 -0.6301 -0.2613
  803MPD2    H511888   4.582   2.941  12.818  1.6285 -1.7311 -0.3271
  803MPD2    N111889   4.161   2.864  12.434  0.1200  0.2679 -0.0212
  803MPD2    H711890   4.223   2.819  12.368  0.2505  0.3845  0.0215
  804MPD2     C11891   4.400   4.670  17.045  0.2040  0.4581 -1.3904
  804MPD2    C111892   4.360   4.634  17.170  0.0415 -0.1632  0.6252
  804MPD2    C211893   4.431   4.699  17.272 -0.3946 -1.1439 -0.3808
  804MPD2    C311894   4.530   0.058  17.256 -0.4335 -0.1725  0.6706
  804MPD2    C411895   4.567   0.090  17.127 -0.8816  0.2151  0.1618
  804MPD2    C511896   4.503   0.024  17.031  0.4264 -0.2961  0.5449
  804MPD2     H11897   4.397   4.677  17.373 -0.2603  0.9447  0.1070
  804MPD2    H111898   4.638   0.168  17.105 -2.5435  2.1937  1.8296
  804MPD2    H211899   4.360   4.640  16.949 -0.0816 -0.8921 -0.8378
  804MPD2    H311900   4.524   0.059  16.930 -0.4242 -0.7539  0.2169
  804MPD2     N11901   4.591   0.121  17.366  0.8208  0.0462 -0.7994
  804MPD2    H511902   4.560   0.097  17.459  0.7513 -1.2562 -1.1526
  804MPD2    N111903   4.258   4.537  17.183  0.5572 -0.7912  0.7421
  804MPD2    H711904   4.227   4.503  17.273  0.1828  0.5639  1.1246
  805MPD2     C11905   3.627   3.031  15.658 -0.3622 -1.0389  0.2997
  805MPD2    C111906   3.719   2.958  15.584  0.0166 -0.2355 -0.0386
  805MPD2    C211907   3.855   2.949  15.624  0.0208  1.0324  0.2599
  805MPD2    C311908   3.892   3.023  15.728 -0.3935  0.1725  0.8698
  805MPD2    C411909   3.802   3.100  15.803 -0.2984  0.4995  0.7539
  805MPD2    C511910   3.668   3.106  15.765  0.2724 -0.4930  0.4666
  805MPD2     H11911   3.931   2.884  15.583  0.7857  1.6413  0.6869
  805MPD2    H111912   3.824   3.154  15.894 -1.4348  1.4181  0.4786
  805MPD2    H211913   3.519   3.024  15.647 -0.4688 -0.5547  1.0154
  805MPD2    H311914   3.608   3.167  15.831 -0.2704  0.0777 -0.5502
  805MPD2     N11915   4.022   2.994  15.777  0.0419 -0.5015 -0.4206
  805MPD2    H511916   4.086   2.951  15.710  4.0334  3.2493  1.0433
  805MPD2    N111917   3.686   2.888  15.464  0.3819 -0.1337 -0.4703
  805MPD2    H711918   3.757   2.844  15.407  2.1749 -0.0189  1.7117
  806MPD2     C11919   4.001   2.407   0.732  0.3514 -0.6290  0.0416
  806MPD2    C111920   4.072   2.525   0.729 -0.5156 -0.0433 -0.4052
  806MPD2    C211921   4.172   2.538   0.635 -0.0418 -0.5602  0.6016
  806MPD2    C311922   4.198   2.431   0.545 -0.3819 -0.5190  0.3441
  806MPD2    C411923   4.130   2.312   0.552  0.1399  0.1567  0.2410
  806MPD2    C511924   4.036   2.304   0.646  0.0771  0.8649 -0.4643
  806MPD2     H11925   4.219   2.634   0.622 -0.8223 -0.4613 -1.6432
  806MPD2    H111926   4.153   2.230   0.484 -0.9638 -0.6698  0.8693
  806MPD2    H211927   3.913   2.399   0.795  1.1460  2.4208  1.5533
  806MPD2    H311928   3.982   2.211   0.661 -1.5799  1.2682 -4.0185
  806MPD2     N11929   4.305   2.450   0.456  0.2368 -0.1901  0.2957
  806MPD2    H511930   4.364   2.532   0.473 -1.3413  1.0365 -0.1142
  806MPD2    N111931   4.037   2.631   0.824  0.3051  0.1467 -0.5609
  806MPD2    H711932   3.951   2.627   0.877  0.7223 -0.5442  0.0677
  807MPD2     C11933   4.243   2.765   1.611 -0.0458 -0.3522 -1.0388
  807MPD2    C111934   4.139   2.724   1.536  0.4165  0.4472  0.3247
  807MPD2    C211935   4.035   2.659   1.593  0.5106  0.0334  0.1552
  807MPD2    C311936   4.026   2.639   1.727  0.0568  0.3844 -0.0581
  807MPD2    C411937   4.141   2.667   1.799  0.4531 -0.7378  0.0946
  807MPD2    C511938   4.243   2.738   1.743 -0.7336  0.5045 -0.1249
  807MPD2     H11939   3.962   2.615   1.526 -0.3160  0.9566  0.4488
  807MPD2    H111940   4.146   2.660   1.907  0.1869  0.5327  0.1986
  807MPD2    H211941   4.316   2.832   1.568 -1.1665  1.1613 -0.5739
  807MPD2    H311942   4.315   2.776   1.814 -1.6512  0.1082  1.0204
  807MPD2     N11943   3.909   2.575   1.776  0.1130  0.0418 -0.3690
  807MPD2    H511944   3.835   2.550   1.712  0.5520  2.4107 -1.7979
  807MPD2    N111945   4.144   2.754   1.400 -0.0969 -0.1839 -0.4607
  807MPD2    H711946   4.220   2.811   1.366 -1.2077  0.5295 -1.7261
  808MPD2     C11947   0.195   3.643   9.812  0.7137  0.8023  0.1598
  808MPD2    C111948   0.074   3.701   9.840  0.3312  0.3606  0.0206
  808MPD2    C211949   0.068   3.839   9.819 -0.4290 -0.2472  0.5716
  808MPD2    C311950   0.164   3.909   9.755  0.0831  0.0664 -0.1208
  808MPD2    C411951   0.284   3.850   9.719  0.2619  0.2400 -0.0031
  808MPD2    C511952   0.294   3.719   9.746 -0.0251  0.1371  0.5192
  808MPD2     H11953   4.720   3.888   9.871 -1.0341 -0.9046  0.2327
  808MPD2    H111954   0.368   3.905   9.677  1.8382 -0.9276  1.6200
  808MPD2    H211955   0.213   3.540   9.841  1.8283  0.6324 -1.1574
  808MPD2    H311956   0.386   3.666   9.721  0.0079 -0.4482  1.8926
  808MPD2     N11957   0.153   4.049   9.750  0.2432 -0.4723  0.0718
  808MPD2    H511958   0.231   4.093   9.702  0.0364  0.2414  0.4000
  808MPD2    N111959   4.698   3.642   9.899  0.1248 -0.1632 -0.0907
  808MPD2    H711960   4.620   3.704   9.921  0.6706  0.2860  0.6071
  809MPD2     C11961   0.701   0.143   9.751  0.1768 -0.6278  0.1176
  809MPD2    C111962   0.701   0.025   9.680  0.0362 -0.2097 -0.1544
  809MPD2    C211963   0.587   4.680   9.688  0.8399  0.1555  0.5062
  809MPD2    C311964   0.468   4.713   9.750 -0.4112  0.2738  0.0876
  809MPD2    C411965   0.471   0.099   9.815 -0.4163 -0.7126 -0.8523
  809MPD2    C511966   0.582   0.179   9.813  0.2133  0.1355 -0.4589
  809MPD2     H11967   0.591   4.585   9.637 -0.2005 -0.0680  0.8374
  809MPD2    H111968   0.385   0.138   9.868  0.6577 -0.1667  0.4979
  809MPD2    H211969   0.779   0.218   9.755  0.0733 -0.5796  1.5451
  809MPD2    H311970   0.577   0.274   9.865 -0.0534 -0.5114  0.7024
  809MPD2     N11971   0.349   4.641   9.744 -1.2186 -0.5102 -0.0956
  809MPD2    H511972   0.279   4.660   9.815 -0.3248 -1.7725  1.1277
  809MPD2    N111973   0.813   4.710   9.613 -0.8531  0.7332 -0.7992
  809MPD2    H711974   0.800   4.623   9.562  1.9298  0.0496 -0.3656
  810MPD2     C11975   3.899   3.380  11.065 -0.1506 -0.3148  0.0767
  810MPD2    C111976   3.816   3.486  11.077 -0.9840  0.0969  0.5553
  810MPD2    C211977   3.859   3.605  11.127 -0.5653 -0.5736  0.1563
  810MPD2    C311978   3.994   3.621  11.155 -0.2621 -0.7663 -0.8023
  810MPD2    C411979   4.078   3.513  11.143 -0.1715 -0.2467  0.0059
  810MPD2    C511980   4.029   3.391  11.106 -0.1455 -0.1897 -0.2626
  810MPD2     H11981   3.796   3.692  11.111 -0.5570 -0.5057  0.4831
  810MPD2    H111982   4.185   3.518  11.163 -0.1357  3.6523 -1.1566
  810MPD2    H211983   3.872   3.283  11.024 -0.4106  0.3517 -1.3379
  810MPD2    H311984   4.096   3.306  11.096 -0.3307 -0.5216  1.3723
  810MPD2     N11985   4.055   3.747  11.193 -0.1687 -0.4032 -0.1017
  810MPD2    H511986   4.156   3.748  11.191 -0.0995 -1.4360  3.1684
  810MPD2    N111987   3.684   3.467  11.029  0.4746 -0.9596  0.0002
  810MPD2    H711988   3.655   3.373  11.001  1.4350 -1.0161 -0.8094
  811MPD2     C11989   3.042   3.568  10.375 -0.0869 -0.3119  0.6391
  811MPD2    C111990   3.155   3.626  10.428 -0.3480 -0.1521 -0.4399
  811MPD2    C211991   3.177   3.758  10.385  0.4772  0.2867  0.5508
  811MPD2    C311992   3.091   3.830  10.308  0.1302 -0.4268  0.3471
  811MPD2    C411993   2.977   3.768  10.263  0.4435 -0.3930 -0.2288
  811MPD2    C511994   2.959   3.636  10.292  0.4308 -0.0885 -0.6289
  811MPD2     H11995   3.249   3.821  10.435 -0.1789  2.2195 -0.9545
  811MPD2    H111996   2.904   3.820  10.203  0.1662  0.6705  1.0371
  811MPD2    H211997   3.017   3.465  10.397 -0.4411 -0.1111  1.1638
  811MPD2    H311998   2.879   3.585  10.240  0.4799  0.2865 -1.0702
  811MPD2     N11999   3.120   3.967  10.285  0.0090 -0.2348  0.6240
  811MPD2    H512000   3.203   4.002  10.332  0.6257 -1.3060  0.3218
  811MPD2    N112001   3.226   3.565  10.532 -0.0233 -0.0279  0.0965
  811MPD2    H712002   3.189   3.474  10.559  1.6819 -0.5784  0.6199
  812MPD2     C12003   2.261   3.069  12.197  0.2705  0.2957 -0.0307
  812MPD2    C112004   2.351   3.171  12.188  0.1894  0.6958 -0.5650
  812MPD2    C212005   2.469   3.164  12.259  0.0829  0.0173  0.6813
  812MPD2    C312006   2.482   3.076  12.364 -0.0105 -0.6983  0.2276
  812MPD2    C412007   2.375   2.982  12.380  0.0435  0.2104  0.0558
  812MPD2    C512008   2.269   2.977  12.295  0.7348 -0.3846  0.0803
  812MPD2     H12009   2.545   3.241  12.252  0.0636 -0.0277 -0.0157
  812MPD2    H112010   2.378   2.896  12.446 -1.2040 -0.5827 -0.9344
  812MPD2    H212011   2.175   3.062  12.131 -0.5244 -1.4252  1.1671
  812MPD2    H312012   2.197   2.897  12.305 -0.9119  1.1986  0.8407
  812MPD2     N12013   2.599   3.058  12.447  0.3520  0.9343  0.3085
  812MPD2    H512014   2.682   3.109  12.417  0.1216  0.3502 -1.3194
  812MPD2    N112015   2.316   3.286  12.109  0.1459 -0.1968 -0.7708
  812MPD2    H712016   2.217   3.305  12.111  0.3512  0.7819  0.0945
  813MPD2     C12017   1.869   4.544  13.145 -0.4351  0.3577 -0.7924
  813MPD2    C112018   1.820   4.666  13.165 -0.1157 -0.5023 -0.4851
  813MPD2    C212019   1.689   4.671  13.214  0.1227  0.0140  0.4163
  813MPD2    C312020   1.625   4.561  13.269  0.1341  0.0800 -0.6036
  813MPD2    C412021   1.681   4.440  13.247 -0.0448 -0.4666 -0.0271
  813MPD2    C512022   1.801   4.432  13.188 -0.4288  0.7323  0.3826
  813MPD2     H12023   1.638   0.032  13.216 -0.6951 -0.4598  2.0639
  813MPD2    H112024   1.624   4.361  13.293 -0.4387  0.4022  0.9635
  813MPD2    H212025   1.966   4.522  13.102  1.9807  3.9492  2.8359
  813MPD2    H312026   1.851   4.336  13.180  0.3065  0.9187  2.9097
  813MPD2     N12027   1.492   4.565  13.330 -1.1579 -0.4932  0.3112
  813MPD2    H512028   1.459   4.490  13.390  2.6410 -2.5076 -0.1155
  813MPD2    N112029   1.880   0.049  13.129 -0.0342  0.5796 -0.3153
  813MPD2    H712030   1.831   0.138  13.132 -0.4039  0.3120  1.3399
  814MPD2     C12031   2.229   1.331  12.527 -0.3531  0.2758 -0.7911
  814MPD2    C112032   2.327   1.335  12.433  0.8286 -0.2035 -0.3909
  814MPD2    C212033   2.403   1.450  12.420  0.3037 -0.2413  0.0550
  814MPD2    C312034   2.393   1.557  12.508 -0.8579 -0.5828 -0.0317
  814MPD2    C412035   2.300   1.553  12.602 -0.1935  0.0707 -0.2136
  814MPD2    C512036   2.220   1.441  12.608 -0.4381  0.4648 -0.1159
  814MPD2     H12037   2.472   1.451  12.337 -0.4758 -0.2198 -0.5922
  814MPD2    H112038   2.294   1.622  12.685 -2.2563  1.3835 -1.4608
  814MPD2    H212039   2.152   1.256  12.540  0.3027  0.0306  1.7571
  814MPD2    H312040   2.138   1.447  12.679 -0.2464  2.5384 -0.0606
  814MPD2     N12041   2.464   1.678  12.501  0.1336  0.1158 -0.4674
  814MPD2    H512042   2.441   1.755  12.563 -1.2006 -1.1290  0.5723
  814MPD2    N112043   2.358   1.227  12.345  0.3708  0.3542  0.2729
  814MPD2    H712044   2.439   1.232  12.284  1.5343 -1.8334  1.6368
  815MPD2     C12045   2.268   0.463  11.285 -0.4677 -0.1716  0.0009
  815MPD2    C112046   2.307   0.353  11.353 -0.0170  0.2721 -1.0749
  815MPD2    C212047   2.212   0.283  11.421  0.7469  0.1353  0.6815
  815MPD2    C312048   2.083   0.320  11.423 -0.3814 -0.1088 -0.4518
  815MPD2    C412049   2.042   0.430  11.351  0.6388  0.2488  0.0552
  815MPD2    C512050   2.134   0.501  11.280  0.3867  0.0049 -0.6910
  815MPD2     H12051   2.239   0.191  11.472  0.1244 -0.1613  0.4746
  815MPD2    H112052   1.940   0.466  11.352  0.6197  0.2887 -3.0784
  815MPD2    H212053   2.342   0.520  11.230 -1.5671  0.9570 -0.3169
  815MPD2    H312054   2.094   0.583  11.222  2.5250  1.4605 -0.1289
  815MPD2     N12055   2.003   0.266  11.527 -0.1839  0.2507  0.8763
  815MPD2    H512056   2.040   0.182  11.571  0.7237  1.9006  3.2806
  815MPD2    N112057   2.445   0.322  11.349  0.2561 -0.0614 -0.0124
  815MPD2    H712058   2.501   0.380  11.286 -1.9629  1.3629 -0.6611
  816MPD2     C12059   2.768   3.670  17.316 -1.1456 -0.2116  0.9774
  816MPD2    C112060   2.742   3.760  17.218 -0.2405  0.5655 -0.5733
  816MPD2    C212061   2.797   3.749  17.094 -0.4573 -0.1669  0.3635
  816MPD2    C312062   2.898   3.658  17.068 -0.3411  0.4371 -0.3351
  816MPD2    C412063   2.936   3.571  17.166  0.0834 -0.7412 -0.1175
  816MPD2    C512064   2.866   3.574  17.281 -0.7566  0.4604 -1.0819
  816MPD2     H12065   2.763   3.810  17.011  0.1898 -1.6159 -0.9574
  816MPD2    H112066   3.006   3.491  17.144 -0.9541 -2.0728  1.4252
  816MPD2    H212067   2.719   3.664  17.412  0.8057 -2.4664  1.8205
  816MPD2    H312068   2.886   3.496  17.353  0.5016  2.2777  0.5499
  816MPD2     N12069   2.946   3.653  16.935 -0.6388 -0.1467 -0.4988
  816MPD2    H512070   2.912   3.725  16.871 -0.2385 -0.2236 -0.7942
  816MPD2    N112071   2.642   3.855  17.256 -0.6202  0.4437 -0.4160
  816MPD2    H712072   2.601   3.867  17.348  0.9835  0.9033  0.2457
  817MPD2     C12073   2.419   1.357   9.652 -0.0224  0.4267 -0.1751
  817MPD2    C112074   2.330   1.320   9.554  0.9622 -0.1190 -0.5778
  817MPD2    C212075   2.236   1.414   9.512 -0.1221 -0.1443 -0.1195
  817MPD2    C312076   2.241   1.547   9.544 -0.0496  0.1100 -0.4424
  817MPD2    C412077   2.343   1.585   9.631  0.4884  0.4464 -0.9592
  817MPD2    C512078   2.430   1.493   9.677  1.2696  0.0336  0.7770
  817MPD2     H12079   2.165   1.369   9.443  0.4818 -2.3950  0.7328
  817MPD2    H112080   2.362   1.689   9.653 -1.2441 -0.1670  3.4591
  817MPD2    H212081   2.491   1.292   9.702 -1.7220 -0.7145  0.7822
  817MPD2    H312082   2.493   1.530   9.757  1.9682 -1.6259  0.9812
  817MPD2     N12083   2.145   1.635   9.496  0.2633  0.4338  0.3203
  817MPD2    H512084   2.065   1.589   9.453  0.9299  0.5769 -1.0704
  817MPD2    N112085   2.312   1.178   9.526  0.3167  0.0394  0.1819
  817MPD2    H712086   2.244   1.146   9.458  0.3384  0.1988  0.0839
  818MPD2     C12087   1.127   1.019   9.931 -0.0335  0.0706 -0.1900
  818MPD2    C112088   1.128   1.008  10.072 -0.7156 -0.0645 -0.1842
  818MPD2    C212089   1.176   0.890  10.119  0.2790 -0.0421 -0.3610
  818MPD2    C312090   1.202   0.786  10.032 -0.9097  0.4813 -0.1107
  818MPD2    C412091   1.207   0.804   9.894 -0.9964 -0.8773 -0.1307
  818MPD2    C512092   1.171   0.928   9.844 -0.1987 -0.4447 -0.1351
  818MPD2     H12093   1.166   0.874  10.225  1.9233 -0.5197 -0.2780
  818MPD2    H112094   1.238   0.723   9.828  1.5306 -0.4545  0.5299
  818MPD2    H212095   1.101   1.110   9.878  2.1464 -0.0490 -1.4497
  818MPD2    H312096   1.170   0.941   9.736 -1.3488 -0.5733 -0.1348
  818MPD2     N12097   1.239   0.652  10.068  0.0149  0.4512  0.5053
  818MPD2    H512098   1.243   0.583   9.994 -1.2290  0.7183  0.1869
  818MPD2    N112099   1.065   1.100  10.162  0.3306 -0.1864  0.3851
  818MPD2    H712100   1.067   1.069  10.259  0.3794 -1.2356  0.0477
  819MPD2     C12101   4.475   2.125  15.545  0.9221  0.5970 -0.0797
  819MPD2    C112102   4.449   2.014  15.619  0.9052 -0.5122  0.1423
  819MPD2    C212103   4.530   1.983  15.727 -0.0603  0.1610 -0.0111
  819MPD2    C312104   4.645   2.052  15.756 -0.3332 -0.2422  0.3338
  819MPD2    C412105   4.680   2.156  15.669 -0.0349  0.2035  0.5346
  819MPD2    C512106   4.596   2.186  15.565 -0.1477  0.0680  0.6030
  819MPD2     H12107   4.483   1.913  15.796 -0.1816 -0.2770 -0.5318
  819MPD2    H112108   0.044   2.201  15.666 -0.9597  2.1251 -1.6336
  819MPD2    H212109   4.407   2.159  15.469  1.3569  0.4178 -0.5479
  819MPD2    H312110   4.622   2.276  15.511  0.6204 -0.2551  0.4260
  819MPD2     N12111   4.732   1.994  15.851  0.0584 -0.2456  0.4119
  819MPD2    H512112   4.699   1.906  15.890 -2.0280  0.0717 -0.6281
  819MPD2    N112113   4.321   1.960  15.598 -0.0514 -0.0354 -0.4821
  819MPD2    H712114   4.266   2.000  15.522  0.7996 -3.2836 -2.7774
  820MPD2     C12115   3.470   2.133  15.168 -0.4298  0.1308  0.2582
  820MPD2    C112116   3.571   2.209  15.231 -0.2889  0.1855  0.7548
  820MPD2    C212117   3.660   2.148  15.313 -0.6506 -0.5228 -0.1562
  820MPD2    C312118   3.660   2.007  15.317  0.8938  0.5962 -0.1517
  820MPD2    C412119   3.563   1.931  15.253  0.3334  0.4878  0.2557
  820MPD2    C512120   3.467   1.996  15.183 -0.9680 -0.2862  0.0678
  820MPD2     H12121   3.722   2.211  15.375  0.9519 -3.6440  1.4035
  820MPD2    H112122   3.557   1.823  15.264 -0.3302  0.8227  3.0110
  820MPD2    H212123   3.388   2.180  15.114 -0.5992 -1.4805 -0.9162
  820MPD2    H312124   3.394   1.930  15.136 -3.4279  1.6317  1.1819
  820MPD2     N12125   3.750   1.938  15.407 -0.0076 -0.5758 -0.3593
  820MPD2    H512126   3.739   1.837  15.410  1.1184 -0.7171 -1.0176
  820MPD2    N112127   3.561   2.350  15.211 -0.1687 -0.4494 -0.0415
  820MPD2    H712128   3.483   2.361  15.147 -0.2127  0.3032  0.1395
  821MPD2     C12129   0.149   3.251  13.217  0.6724 -0.2073 -0.3242
  821MPD2    C112130   0.181   3.335  13.316  0.1133 -0.1854 -0.2807
  821MPD2    C212131   0.238   3.453  13.291 -0.1905  0.2331 -0.8410
  821MPD2    C312132   0.276   3.484  13.163 -0.0542 -0.2139  0.4328
  821MPD2    C412133   0.256   3.397  13.061 -0.1655 -0.2713  0.4383
  821MPD2    C512134   0.190   3.280  13.090  0.3116 -0.1989  0.4387
  821MPD2     H12135   0.253   3.522  13.373 -1.1303 -2.3474  1.4925
  821MPD2    H112136   0.285   3.428  12.962  2.2837 -2.9600  0.3047
  821MPD2    H212137   0.102   3.156  13.234  0.7251 -0.2889 -0.6358
  821MPD2    H312138   0.173   3.210  13.009  1.2492 -0.0974  0.1498
  821MPD2     N12139   0.365   3.596  13.140 -0.2320 -0.0913 -0.2622
  821MPD2    H512140   0.409   3.608  13.049  0.4676  3.9674  0.6392
  821MPD2    N112141   0.157   3.315  13.456  0.0498  0.1122  0.2275
  821MPD2    H712142   0.164   3.393  13.520  1.4623  1.8305 -2.0493
  822MPD2     C12143   0.329   3.828  15.917 -1.1508  0.6079  0.1288
  822MPD2    C112144   0.312   3.795  16.054 -0.4017 -0.1826 -0.2120
  822MPD2    C212145   0.207   3.855  16.127 -0.4671  0.0396 -0.2488
  822MPD2    C312146   0.127   3.959  16.075  0.1912 -0.1082  0.4895
  822MPD2    C412147   0.151   3.988  15.943  0.9722 -0.9119  0.1454
  822MPD2    C512148   0.247   3.926  15.871 -0.0326 -0.2070  0.5751
  822MPD2     H12149   0.206   3.831  16.232 -0.0521 -2.8521 -0.9146
  822MPD2    H112150   0.088   4.058  15.889  1.6799  0.3573  0.9714
  822MPD2    H212151   0.410   3.794  15.854 -1.4611 -1.3241  0.7990
  822MPD2    H312152   0.262   3.953  15.767 -3.1259 -1.1160 -0.0848
  822MPD2     N12153   0.037   4.030  16.160 -0.0468 -0.1422 -0.0052
  822MPD2    H512154   0.014   3.998  16.254  0.4717  1.6801  0.7471
  822MPD2    N112155   0.389   3.704  16.126 -0.8871 -0.4176 -0.2420
  822MPD2    H712156   0.357   3.679  16.220 -0.0902  0.4735  0.2649
  823MPD2     C12157   4.471   4.273  16.918 -0.2179 -0.6487 -0.5977
  823MPD2    C112158   4.524   4.188  16.831 -0.0641  0.9059 -0.7717
  823MPD2    C212159   4.528   4.057  16.875  0.0019  0.2028 -0.1223
  823MPD2    C312160   4.492   4.013  17.002 -0.2321 -0.9417  0.0878
  823MPD2    C412161   4.426   4.099  17.083 -0.0599 -0.3018 -0.5720
  823MPD2    C512162   4.429   4.234  17.042  0.6713 -0.2002 -0.0136
  823MPD2     H12163   4.576   3.985  16.810 -1.5139  0.4709 -1.5450
  823MPD2    H112164   4.389   4.075  17.182 -1.6981  1.5513 -0.7239
  823MPD2    H212165   4.471   4.379  16.899  1.3427 -0.6532 -0.6460
  823MPD2    H312166   4.399   4.306  17.117 -1.1389  0.1308 -1.0680
  823MPD2     N12167   4.492   3.875  17.037  0.1824  0.8138 -0.1391
  823MPD2    H512168   4.451   3.855  17.128  0.7919 -2.6745 -0.5981
  823MPD2    N112169   4.570   4.232  16.703  0.3504 -0.2724 -0.1661
  823MPD2    H712170   4.571   4.332  16.684 -0.5166 -0.6757 -2.2072
  824MPD2     C12171   0.972   3.056  16.093  0.4782  0.3713  0.0657
  824MPD2    C112172   0.860   3.107  16.028 -0.0855 -0.6530 -0.2072
  824MPD2    C212173   0.835   3.065  15.894 -0.3237 -0.0129 -0.0723
  824MPD2    C312174   0.913   2.966  15.835  0.6253  0.5761  0.1235
  824MPD2    C412175   1.026   2.917  15.899  0.3038  0.4399 -0.1211
  824MPD2    C512176   1.048   2.957  16.031  0.2106 -0.4193  0.2724
  824MPD2     H12177   0.747   3.098  15.841  1.1338  0.5522 -2.1443
  824MPD2    H112178   1.088   2.838  15.857  1.1072  1.5045 -0.9405
  824MPD2    H212179   0.989   3.077  16.198  0.2510 -1.3130  0.4394
  824MPD2    H312180   1.130   2.920  16.091 -1.4923 -1.6979  1.8171
  824MPD2     N12181   0.891   2.919  15.704  0.1812 -0.0603 -0.3976
  824MPD2    H512182   0.829   2.974  15.645 -0.7678 -0.0398  0.6030
  824MPD2    N112183   0.768   3.194  16.083 -0.3864  0.3748 -0.1783
  824MPD2    H712184   0.696   3.225  16.018  1.4033  1.9772 -1.4344
  825MPD2     C12185   1.260   2.814  14.926 -0.2355  0.2055 -0.4908
  825MPD2    C112186   1.193   2.896  15.023  0.6449 -0.1944  0.3927
  825MPD2    C212187   1.200   3.037  15.006 -0.7784  0.5604  0.1625
  825MPD2    C312188   1.265   3.094  14.903  0.0174  0.4231 -0.0184
  825MPD2    C412189   1.324   3.019  14.803  0.3623 -0.0640  0.9517
  825MPD2    C512190   1.329   2.884  14.827  1.1739  0.6322  0.6052
  825MPD2     H12191   1.163   3.094  15.090  0.5802  0.7244  0.6505
  825MPD2    H112192   1.375   3.065  14.719 -0.9283  0.3883  0.4126
  825MPD2    H212193   1.270   2.706  14.921 -0.7590  0.2358 -2.4265
  825MPD2    H312194   1.385   2.837  14.747  1.7166  3.6044 -0.7517
  825MPD2     N12195   1.279   3.236  14.892  0.3685 -0.2013  0.1023
  825MPD2    H512196   1.335   3.272  14.815  3.7185 -2.2201  1.5730
  825MPD2    N112197   1.117   2.828  15.126  0.0972 -0.6612 -0.0730
  825MPD2    H712198   1.123   2.726  15.130  2.5431 -0.5168 -0.3601
  826MPD2     C12199   0.575   3.263  13.754 -0.8759  0.5239  0.1517
  826MPD2    C112200   0.565   3.316  13.629 -0.4655  0.2056  0.3393
  826MPD2    C212201   0.531   3.447  13.621 -0.0792 -0.0656 -0.3816
  826MPD2    C312202   0.527   3.529  13.728 -0.8559  0.1740  0.2209
  826MPD2    C412203   0.544   3.478  13.851 -1.1656 -0.4874 -0.4146
  826MPD2    C512204   0.563   3.348  13.863 -0.0292 -0.3105  0.2108
  826MPD2     H12205   0.536   3.500  13.526 -0.3528 -0.4442 -0.6073
  826MPD2    H112206   0.530   3.541  13.937 -0.4125  0.9547 -1.3517
  826MPD2    H212207   0.606   3.164  13.787 -1.4735  0.7188  1.2961
  826MPD2    H312208   0.576   3.302  13.960 -0.5861  0.9244  0.8604
  826MPD2     N12209   0.497   3.668  13.731  0.4377 -0.6386 -0.2076
  826MPD2    H512210   0.474   3.706  13.823  2.3623  1.3503 -0.5624
  826MPD2    N112211   0.570   3.228  13.517  0.0432  0.2349  0.5718
  826MPD2    H712212   0.592   3.131  13.540  0.7751 -0.5291 -3.3366
  827MPD2     C12213   1.530   4.481   9.706  0.1421  0.1716  0.3731
  827MPD2    C112214   1.519   4.388   9.807 -0.2757  0.0862  0.3886
  827MPD2    C212215   1.485   4.257   9.778  0.1496 -0.0455  0.8028
  827MPD2    C312216   1.455   4.222   9.646  0.1359  0.3473  0.2492
  827MPD2    C412217   1.462   4.322   9.549  0.4298 -0.5604 -0.5673
  827MPD2    C512218   1.497   4.450   9.575 -0.0051 -0.1355 -0.2153
  827MPD2     H12219   1.466   4.190   9.861 -1.1266  0.0171  0.5615
  827MPD2    H112220   1.434   4.307   9.445 -0.7675 -1.8924 -0.0485
  827MPD2    H212221   1.559   4.584   9.722  0.5614  0.2119 -0.6964
  827MPD2    H312222   1.510   4.523   9.497  1.4174  0.3833  0.5123
  827MPD2     N12223   1.423   4.083   9.622 -0.2614  0.0894 -0.1014
  827MPD2    H512224   1.426   4.025   9.705  0.3968 -1.4806 -1.2231
  827MPD2    N112225   1.550   4.436   9.940  0.3857  0.0342 -0.7357
  827MPD2    H712226   1.601   4.524   9.939  0.4284  0.0291  1.2641
  828MPD2     C12227   0.187   4.318  11.939 -1.0378 -0.5464  0.3858
  828MPD2    C112228   0.079   4.389  11.989  0.6819  0.2752  0.4349
  828MPD2    C212229   0.053   4.520  11.957  0.6564 -0.0455 -0.3668
  828MPD2    C312230   0.141   4.584  11.869 -0.6331  0.2119  0.3513
  828MPD2    C412231   0.242   4.510  11.811 -0.0535 -0.9187  0.7410
  828MPD2    C512232   0.266   4.377  11.851 -0.3800  0.0454  0.1177
  828MPD2     H12233   4.692   4.567  11.976  0.1211 -0.6053 -1.6848
  828MPD2    H112234   0.311   4.559  11.744 -2.7255  0.6528 -0.8425
  828MPD2    H212235   0.209   4.216  11.969  2.7264  0.9365  2.5871
  828MPD2    H312236   0.353   4.325  11.811 -0.9370 -1.0067  0.2701
  828MPD2     N12237   0.124   4.722  11.824 -0.2558  0.6385  0.2906
  828MPD2    H512238   0.165   0.010  11.734 -0.2648 -2.6919 -0.5779
  828MPD2    N112239   4.717   4.330  12.072  0.2029  0.0332 -0.3214
  828MPD2    H712240   4.640   4.383  12.111 -0.4475 -1.8662  0.9970
  829MPD2     C12241   3.964   4.599  12.029  0.3428 -0.6754 -0.0077
  829MPD2    C112242   3.923   4.496  12.112 -0.7179  0.1589 -0.9397
  829MPD2    C212243   4.017   4.423  12.180  0.1202  0.2777 -0.3368
  829MPD2    C312244   4.154   4.461  12.168 -0.3841  0.3717  1.0692
  829MPD2    C412245   4.184   4.573  12.099  0.2201  0.5065  0.6770
  829MPD2    C512246   4.096   4.643  12.030  0.4947  1.1863 -0.4376
  829MPD2     H12247   3.991   4.337  12.241  1.7471  0.5281  0.7131
  829MPD2    H112248   4.285   4.610  12.084  0.5726 -0.3241  0.9987
  829MPD2    H212249   3.897   4.654  11.964  0.4602 -1.3632 -0.7175
  829MPD2    H312250   4.138   4.727  11.976  0.5231  1.7394  0.4343
  829MPD2     N12251   4.267   4.393  12.204  0.3871  0.0207 -0.3720
  829MPD2    H512252   4.353   4.428  12.164 -0.5203  0.6095 -1.8019
  829MPD2    N112253   3.784   4.463  12.094  0.0386  0.5510 -0.8097
  829MPD2    H712254   3.730   4.521  12.031  0.7558  0.3371 -1.6103
  830MPD2     C12255   0.734   2.150  16.298  0.2395  0.0661 -0.2268
  830MPD2    C112256   0.663   2.122  16.183 -0.0442 -0.1532 -0.0497
  830MPD2    C212257   0.662   2.225  16.082 -0.2665  0.5063  0.1193
  830MPD2    C312258   0.725   2.344  16.096 -0.5301 -0.2239  0.1018
  830MPD2    C412259   0.792   2.372  16.216 -0.3159  0.3031 -0.7872
  830MPD2    C512260   0.801   2.275  16.312  0.1332 -0.5351  0.0295
  830MPD2     H12261   0.594   2.215  15.999 -0.6387  2.2505  0.2171
  830MPD2    H112262   0.831   2.472  16.233 -2.7038  0.9885  0.7117
  830MPD2    H212263   0.752   2.080  16.378  1.7162  2.9955  2.0103
  830MPD2    H312264   0.844   2.296  16.409 -0.8496  1.6206 -0.0010
  830MPD2     N12265   0.721   2.452  16.008  0.0734  0.1725 -0.8412
  830MPD2    H512266   0.774   2.535  16.034 -1.3880  1.0166 -0.5857
  830MPD2    N112267   0.593   1.999  16.180 -0.0584 -0.3758 -0.1091
  830MPD2    H712268   0.580   1.948  16.267 -2.8830 -0.5965 -0.6782
  831MPD2     C12269   0.321   4.234  16.504  0.1829 -0.0848  1.1021
  831MPD2    C112270   0.350   4.116  16.434 -0.1160 -0.2099 -0.1813
  831MPD2    C212271   0.294   3.996  16.473 -0.4466  0.2408  0.3955
  831MPD2    C312272   0.196   3.994  16.572  0.0150 -0.1638  0.2022
  831MPD2    C412273   0.168   4.112  16.642  0.4088 -0.1606  0.0390
  831MPD2    C512274   0.239   4.222  16.616 -0.1678  0.4042  0.1357
  831MPD2     H12275   0.314   3.912  16.407 -1.2483 -2.2001  3.2881
  831MPD2    H112276   0.106   4.113  16.730 -1.0262  0.4627 -0.9798
  831MPD2    H212277   0.371   4.327  16.480  1.4192 -0.7657  1.0389
  831MPD2    H312278   0.212   4.306  16.680  1.6031  0.6106  0.6159
  831MPD2     N12279   0.116   3.877  16.601 -0.6472  0.0686  0.7648
  831MPD2    H512280   0.039   3.879  16.667 -0.9694 -1.1109  0.4237
  831MPD2    N112281   0.442   4.118  16.325 -0.3892 -0.3282 -0.2054
  831MPD2    H712282   0.457   4.210  16.286 -1.7424  0.2238  0.6027
  832MPD2     C12283   3.480   4.566  17.031  0.1106  0.1613 -0.0409
  832MPD2    C112284   3.462   4.685  16.968 -0.0277  0.0634  0.0723
  832MPD2    C212285   3.346   4.703  16.900 -0.1447 -0.1197 -0.1091
  832MPD2    C312286   3.257   4.604  16.883  0.9553  0.1381 -1.0292
  832MPD2    C412287   3.278   4.481  16.938  0.3473 -0.1349 -0.1380
  832MPD2    C512288   3.386   4.463  17.014 -0.3742 -0.1014 -0.1267
  832MPD2     H12289   3.334   0.066  16.853  1.8399  0.0192 -0.3452
  832MPD2    H112290   3.209   4.398  16.929 -0.6969  0.4238  2.5064
  832MPD2    H212291   3.564   4.533  17.091  1.9617  0.0016 -2.7332
  832MPD2    H312292   3.396   4.368  17.065  0.6794 -0.1027 -0.3480
  832MPD2     N12293   3.130   4.614  16.809 -0.4968 -0.3397 -0.4470
  832MPD2    H512294   3.070   4.533  16.809  0.6229 -1.1814 -0.4450
  832MPD2    N112295   3.562   0.047  16.991 -0.8005 -0.6038  0.4846
  832MPD2    H712296   3.637   0.034  17.059  2.2188  4.6292 -1.8289
  833MPD2     C12297   1.013   1.735  12.562  0.7114  0.1349 -0.0448
  833MPD2    C112298   0.988   1.851  12.496 -0.1187  0.0895 -0.6620
  833MPD2    C212299   1.086   1.894  12.410  0.2015  0.0623 -0.4553
  833MPD2    C312300   1.190   1.819  12.363 -0.0320  0.6392  0.3446
  833MPD2    C412301   1.218   1.702  12.424  0.5065 -0.7381  0.4681
  833MPD2    C512302   1.131   1.670  12.529  0.4461  0.8253 -0.5689
  833MPD2     H12303   1.069   1.991  12.365  3.0940 -0.1385 -1.9796
  833MPD2    H112304   1.294   1.632  12.394  2.1102  0.5085  1.6052
  833MPD2    H212305   0.955   1.698  12.646 -0.7270  0.0145 -1.1037
  833MPD2    H312306   1.148   1.572  12.573 -1.2795  0.3811 -0.8707
  833MPD2     N12307   1.264   1.867  12.249  0.3658  0.1230 -0.4282
  833MPD2    H512308   1.240   1.960  12.219  0.5079  0.2344 -0.1955
  833MPD2    N112309   0.873   1.934  12.510  0.4312 -0.5351 -0.4486
  833MPD2    H712310   0.875   2.025  12.465  2.1705  0.7509  2.2279
  834MPD2     C12311   0.980   1.612  11.342 -0.0711 -0.4236  0.2758
  834MPD2    C112312   0.958   1.745  11.373  0.4897  0.2425  0.1405
  834MPD2    C212313   1.047   1.809  11.464  0.2422  0.0793  0.5275
  834MPD2    C312314   1.143   1.747  11.542 -0.5317  0.0652 -0.5337
  834MPD2    C412315   1.159   1.612  11.520  0.4522 -0.0448  0.9517
  834MPD2    C512316   1.078   1.549  11.422  0.3422 -0.1263 -0.4102
  834MPD2     H12317   1.030   1.915  11.482  1.7372  0.1485  1.5148
  834MPD2    H112318   1.230   1.553  11.577 -0.8728 -0.6747  1.9393
  834MPD2    H212319   0.922   1.558  11.267  2.4100 -1.0047 -1.2385
  834MPD2    H312320   1.098   1.443  11.411  0.4724 -0.1513  0.0750
  834MPD2     N12321   1.203   1.818  11.654 -0.3584 -0.0325 -0.4529
  834MPD2    H512322   1.173   1.913  11.670 -0.3293  0.3625 -2.6569
  834MPD2    N112323   0.844   1.807  11.314  0.0889 -0.1930  0.2430
  834MPD2    H712324   0.777   1.748  11.268  1.1594  1.2585 -3.1760
  835MPD2     C12325   0.691   4.267  11.171 -0.6247 -0.3095  0.4269
  835MPD2    C112326   0.607   4.334  11.258 -1.0719 -0.8241  0.2751
  835MPD2    C212327   0.648   4.338  11.390  0.7828 -0.1606 -0.4768
  835MPD2    C312328   0.764   4.280  11.433  0.7156  0.4016  0.0274
  835MPD2    C412329   0.841   4.210  11.338 -0.1749 -0.3399 -0.4153
  835MPD2    C512330   0.799   4.197  11.206  0.4987 -0.2831 -0.1066
  835MPD2     H12331   0.580   4.393  11.454  1.7913 -2.4720  2.5833
  835MPD2    H112332   0.928   4.152  11.368 -2.1674 -1.3249  3.5243
  835MPD2    H212333   0.675   4.271  11.064 -0.1352  2.1158  0.4468
  835MPD2    H312334   0.858   4.159  11.123 -0.6767 -1.0232 -0.6045
  835MPD2     N12335   0.815   4.289  11.562 -0.1964 -0.4697 -0.1200
  835MPD2    H512336   0.909   4.253  11.569 -0.8570 -2.2201 -0.4085
  835MPD2    N112337   0.504   4.422  11.213  0.2431 -0.2417  0.4296
  835MPD2    H712338   0.461   4.485  11.279 -1.9700 -0.2721 -0.9702
  836MPD2     C12339   0.733   0.213  11.999  0.0293 -0.0371  0.1182
  836MPD2    C112340   0.738   0.100  12.072 -0.2667  0.3124 -0.7364
  836MPD2    C212341   0.694   0.096  12.202  0.3551  0.4348 -0.3165
  836MPD2    C312342   0.650   0.218  12.259  0.4399  1.1782  0.4181
  836MPD2    C412343   0.649   0.334  12.186 -0.6281 -0.2282 -0.2598
  836MPD2    C512344   0.687   0.334  12.055 -0.1113  0.0821 -0.4426
  836MPD2     H12345   0.698   4.733  12.250  0.1839  0.9542  0.7430
  836MPD2    H112346   0.607   0.428  12.220 -0.9578 -0.6381  0.4728
  836MPD2    H212347   0.770   0.223  11.898 -1.4140 -3.9582 -0.7775
  836MPD2    H312348   0.685   0.425  11.997 -2.9331  0.1820 -0.1994
  836MPD2     N12349   0.593   0.226  12.387  0.4883  0.4315 -0.2434
  836MPD2    H512350   0.558   0.319  12.409  1.3323  0.6863  0.0239
  836MPD2    N112351   0.779   4.721  11.996  1.0087 -0.6083  0.2105
  836MPD2    H712352   0.789   4.729  11.895 -0.9488  1.2348  0.1593
  837MPD2     C12353   3.419   4.558  10.648  0.2191  0.0480 -0.3459
  837MPD2    C112354   3.436   4.593  10.517  1.1210 -0.7060  0.4587
  837MPD2    C212355   3.452   4.729  10.486 -0.4626 -0.2566 -0.0199
  837MPD2    C312356   3.454   0.090  10.581 -0.3608 -0.5704 -0.3879
  837MPD2    C412357   3.463   0.054  10.712 -0.2822  0.0166 -0.0041
  837MPD2    C512358   3.444   4.658  10.741 -0.5736 -0.2406 -0.1679
  837MPD2     H12359   3.457   0.023  10.381 -1.0066  0.5653  0.1823
  837MPD2    H112360   3.456   0.120  10.798  0.1773 -0.1064  0.1294
  837MPD2    H212361   3.400   4.455  10.677 -0.1396  0.3042  0.3217
  837MPD2    H312362   3.434   4.641  10.848  1.4148  0.4941  0.1453
  837MPD2     N12363   3.446   0.225  10.530 -0.2552 -0.3847  0.3205
  837MPD2    H512364   3.445   0.235  10.429  1.4300  0.9673  0.4306
  837MPD2    N112365   3.400   4.508  10.409  0.4224  0.0352 -0.3269
  837MPD2    H712366   3.398   4.537  10.312  1.0401  2.4848  0.4017
  838MPD2     C12367   1.898   1.897  10.947 -0.3281 -0.0449 -0.0164
  838MPD2    C112368   1.924   1.946  11.074  0.0550 -0.1863  0.0728
  838MPD2    C212369   1.877   1.899  11.195 -0.4033 -0.4413  0.7891
  838MPD2    C312370   1.802   1.786  11.190 -0.3420 -0.1320  0.1053
  838MPD2    C412371   1.765   1.737  11.071  0.2111  0.4952 -0.6311
  838MPD2    C512372   1.804   1.795  10.949  0.3562  0.2109  0.4949
  838MPD2     H12373   1.906   1.945  11.289  0.6178 -3.8619  2.1244
  838MPD2    H112374   1.706   1.648  11.055  0.4124  0.7914 -3.1421
  838MPD2    H212375   1.914   1.940  10.848  1.1538  0.9888  0.6690
  838MPD2    H312376   1.774   1.755  10.852 -0.0601 -0.1731  0.7835
  838MPD2     N12377   1.766   1.727  11.314  0.1464  0.3004 -0.1612
  838MPD2    H512378   1.781   1.779  11.400  1.5367 -1.8023  0.8723
  838MPD2    N112379   2.015   2.045  11.083 -0.1808 -0.6000  0.8273
  838MPD2    H712380   2.047   2.071  11.176  1.3077  1.5815 -0.2949
  839MPD2     C12381   2.137   1.839  11.793  0.4621 -0.0746  0.3264
  839MPD2    C112382   2.185   1.782  11.671 -0.7092 -0.5835  0.1639
  839MPD2    C212383   2.218   1.863  11.566  0.2099  0.2089  0.2578
  839MPD2    C312384   2.217   1.999  11.581 -0.1077 -0.1952 -0.4187
  839MPD2    C412385   2.175   2.056  11.701 -0.5001 -1.0223 -0.4193
  839MPD2    C512386   2.133   1.973  11.807 -0.3661  0.3897  0.4049
  839MPD2     H12387   2.258   1.821  11.475  1.3668  0.5759  0.5945
  839MPD2    H112388   2.168   2.163  11.719 -0.4132 -1.0479 -0.2472
  839MPD2    H212389   2.108   1.784  11.881 -1.3215 -1.3864 -1.0781
  839MPD2    H312390   2.088   2.022  11.893 -1.6645  0.0047 -0.0614
  839MPD2     N12391   2.253   2.085  11.471  0.1334  0.1679 -0.2806
  839MPD2    H512392   2.225   2.182  11.479 -0.5692 -0.1389  0.9766
  839MPD2    N112393   2.210   1.637  11.657  0.8103 -0.1123  0.2823
  839MPD2    H712394   2.261   1.603  11.577 -0.8074 -2.0343  0.0727
  840MPD2     C12395   1.762   0.265  10.115  0.7780 -0.1961  0.2643
  840MPD2    C112396   1.847   0.174  10.175  0.6115 -0.7667  0.5784
  840MPD2    C212397   1.967   0.220  10.226 -0.3112  0.2522  0.2061
  840MPD2    C312398   1.996   0.354  10.234 -0.3566 -0.2569  0.4020
  840MPD2    C412399   1.908   0.445  10.174  0.1661  0.5670 -0.2614
  840MPD2    C512400   1.793   0.395  10.118 -0.1174 -0.3858  0.3261
  840MPD2     H12401   2.024   0.148  10.285 -0.8429  1.3049  2.0136
  840MPD2    H112402   1.924   0.551  10.185  1.3490  0.2531  1.0831
  840MPD2    H212403   1.675   0.228  10.062  0.6386  0.0473  0.3266
  840MPD2    H312404   1.713   0.460  10.084 -0.7300 -0.8329  0.9070
  840MPD2     N12405   2.107   0.406  10.310 -0.3853  0.2705  0.1365
  840MPD2    H512406   2.104   0.505  10.331  1.9918  0.0057  1.6658
  840MPD2    N112407   1.788   0.046  10.190  0.0610  0.1726 -0.2225
  840MPD2    H712408   1.704   0.018  10.141 -2.8528  1.3689  4.0115
  841MPD2     C12409   2.162   3.700  14.829 -0.0757  0.6094 -0.0303
  841MPD2    C112410   2.058   3.770  14.775 -0.1044 -0.5342 -0.7109
  841MPD2    C212411   2.059   3.907  14.807  0.0646 -0.3529 -0.2130
  841MPD2    C312412   2.157   3.975  14.880  0.2785 -0.1576 -0.7416
  841MPD2    C412413   2.258   3.898  14.927  0.0876 -0.0335  0.1373
  841MPD2    C512414   2.260   3.757  14.911 -0.1182  0.2441 -0.1679
  841MPD2     H12415   1.980   3.970  14.767  1.4885  1.2337 -0.5424
  841MPD2    H112416   2.332   3.938  14.996  0.4450  0.3271 -0.4570
  841MPD2    H212417   2.167   3.593  14.809 -1.1750  0.7703 -1.1964
  841MPD2    H312418   2.345   3.700  14.945 -0.4703  0.8810  1.7441
  841MPD2     N12419   2.138   4.113  14.903 -0.5739  0.2159 -0.6442
  841MPD2    H512420   2.046   4.154  14.892 -0.8599 -0.7014 -1.6264
  841MPD2    N112421   1.947   3.714  14.706 -0.9043  0.3539 -0.1640
  841MPD2    H712422   1.877   3.780  14.673  1.0298  2.3242 -0.3480
  842MPD2     C12423   2.570   0.169  16.757 -0.1608 -0.1712 -0.2578
  842MPD2    C112424   2.436   0.178  16.795 -0.0171 -0.3503  0.5197
  842MPD2    C212425   2.385   0.091  16.886 -0.3344 -0.3105 -0.5163
  842MPD2    C312426   2.472   0.014  16.965  0.2153 -0.9621  0.0949
  842MPD2    C412427   2.602   0.010  16.931 -0.3202 -0.3287 -0.2520
  842MPD2    C512428   2.651   0.079  16.827 -0.4233 -0.1448 -0.2025
  842MPD2     H12429   2.284   0.109  16.922 -0.2149 -1.8268  0.5673
  842MPD2    H112430   2.663   4.682  16.996 -0.8566 -0.0125  0.5435
  842MPD2    H212431   2.623   0.234  16.688  1.3053 -0.5893  0.4704
  842MPD2    H312432   2.754   0.075  16.796 -0.9965 -1.7290 -1.9104
  842MPD2     N12433   2.437   4.694  17.091  0.2019 -0.1169  0.4517
  842MPD2    H512434   2.507   4.652  17.151 -1.0080 -0.2995  1.7456
  842MPD2    N112435   2.364   0.285  16.743 -0.4261 -0.0714  0.0097
  842MPD2    H712436   2.422   0.350  16.692 -0.1780 -0.0922  0.2656
  843MPD2     C12437   4.550   1.915  17.374  0.7792 -0.1061  0.3954
  843MPD2    C112438   4.518   1.822  17.480  0.3466 -0.8073  0.4676
  843MPD2    C212439   4.602   1.829  17.596  0.1145  0.4066  0.7159
  843MPD2    C312440   4.699   1.928  17.605  0.6052 -0.0973 -0.4611
  843MPD2    C412441   4.730   2.003  17.497  0.0344  0.2631  0.6121
  843MPD2    C512442   4.662   1.986  17.378  0.0525  0.5884 -0.1922
  843MPD2     H12443   4.579   1.767  17.682  2.8680 -0.6552  0.6506
  843MPD2    H112444   0.089   2.057  17.497  1.9682 -3.1038  1.0611
  843MPD2    H212445   4.489   1.909  17.284  1.5552 -1.6218 -0.0356
  843MPD2    H312446   4.697   2.043  17.292  0.3591  1.4659  0.5214
  843MPD2     N12447   0.040   1.949  17.718  0.4323 -0.0891  0.3918
  843MPD2    H512448   0.102   2.029  17.723  0.3257 -0.1004  1.7686
  843MPD2    N112449   4.419   1.722  17.448 -1.0028 -0.4363 -0.1261
  843MPD2    H712450   4.366   1.737  17.363 -1.1039 -1.7604 -0.2950
  844MPD2     C12451   2.912   4.249  16.467 -0.0808 -0.4915  0.4935
  844MPD2    C112452   2.930   4.332  16.360 -0.2822 -0.1429  0.4145
  844MPD2    C212453   3.028   4.432  16.374 -0.3257 -0.2601  0.3765
  844MPD2    C312454   3.121   4.429  16.478  0.4566 -0.2753  0.1863
  844MPD2    C412455   3.099   4.350  16.588  0.0216  0.2316  0.6730
  844MPD2    C512456   2.989   4.266  16.579  0.0819 -0.5927 -0.1615
  844MPD2     H12457   3.049   4.502  16.294 -0.4569 -1.2964 -0.5672
  844MPD2    H112458   3.155   4.339  16.680  1.0726  1.1668  0.1397
  844MPD2    H212459   2.839   4.169  16.470 -0.0674 -0.5064  0.4029
  844MPD2    H312460   2.967   4.204  16.665  0.3275 -0.9909 -0.3842
  844MPD2     N12461   3.226   4.525  16.489  0.2607  0.1161 -0.1159
  844MPD2    H512462   3.224   4.610  16.433  0.3629 -0.7601 -1.4382
  844MPD2    N112463   2.864   4.316  16.238  0.5102 -0.0597 -0.0553
  844MPD2    H712464   2.858   4.393  16.172 -0.5905  1.1364  1.4584
  845MPD2     C12465   3.583   0.722  16.430 -0.4062  1.1649 -0.3864
  845MPD2    C112466   3.528   0.656  16.537  0.2887 -0.4348 -0.4593
  845MPD2    C212467   3.525   0.517  16.540 -0.8057 -0.1094 -0.3966
  845MPD2    C312468   3.571   0.445  16.436  0.0638  0.0180 -0.1840
  845MPD2    C412469   3.629   0.512  16.327  0.3595 -0.0514  0.1437
  845MPD2    C512470   3.632   0.647  16.327  0.5791 -0.8631  0.7558
  845MPD2     H12471   3.490   0.458  16.623 -0.3788  1.1233  0.6575
  845MPD2    H112472   3.665   0.462  16.238 -2.8012  1.7151 -2.0984
  845MPD2    H212473   3.587   0.829  16.421 -1.2048  1.0951 -1.5793
  845MPD2    H312474   3.667   0.700  16.239 -3.5630  1.9509  0.7804
  845MPD2     N12475   3.573   0.305  16.435 -0.4787  0.0955  0.2538
  845MPD2    H512476   3.634   0.247  16.378 -1.4139 -1.8639  1.2609
  845MPD2    N112477   3.508   0.728  16.661  0.1845  0.3772 -0.2983
  845MPD2    H712478   3.516   0.829  16.658  1.0331  0.3439  0.7167
  846MPD2     C12479   0.038   1.329  13.958 -0.0148  0.1656 -0.1017
  846MPD2    C112480   4.662   1.409  13.930 -0.3752  0.4375 -0.2904
  846MPD2    C212481   4.592   1.475  14.027  0.0971  0.2435  0.4857
  846MPD2    C312482   4.628   1.456  14.161  0.0160 -0.3002  0.0067
  846MPD2    C412483   0.001   1.369  14.187  0.4146  0.8968 -0.5897
  846MPD2    C512484   0.071   1.309  14.084  0.1704  0.1433 -0.6350
  846MPD2     H12485   4.513   1.539  13.989 -0.3041 -1.5322 -1.6304
  846MPD2    H112486   0.040   1.355  14.287  1.2509 -1.8269 -1.2856
  846MPD2    H212487   0.094   1.292  13.873 -1.5630  0.3135 -1.2140
  846MPD2    H312488   0.153   1.242  14.107  0.5897  0.3739 -1.4760
  846MPD2     N12489   4.556   1.516  14.272  0.4343  0.1777  0.2808
  846MPD2    H512490   4.572   1.481  14.366  2.0597 -0.7040 -0.3187
  846MPD2    N112491   4.624   1.438  13.791  0.0357 -0.5020 -0.1675
  846MPD2    H712492   4.562   1.518  13.787  1.2418  0.3860 -1.0819
  847MPD2     C12493   0.082   2.182  13.742 -0.5271 -0.7333  0.5467
  847MPD2    C112494   0.116   2.235  13.864 -0.0595 -0.6020 -0.2422
  847MPD2    C212495   0.239   2.195  13.923 -1.0478  0.0738  0.4619
  847MPD2    C312496   0.307   2.085  13.873  0.1745  0.0235 -0.3304
  847MPD2    C412497   0.268   2.033  13.750  0.9389 -0.0489 -0.3956
  847MPD2    C512498   0.164   2.084  13.679  0.6409  0.0945 -0.1209
  847MPD2     H12499   0.277   2.237  14.016 -1.0989  0.2544  0.4011
  847MPD2    H112500   0.318   1.950  13.701  0.0518  0.5195 -2.2803
  847MPD2    H212501   4.731   2.218  13.685 -0.9577 -2.0377  0.3574
  847MPD2    H312502   0.129   2.051  13.581  0.5647  1.1584 -0.4572
  847MPD2     N12503   0.418   2.036  13.942 -0.2899  0.5225 -0.0756
  847MPD2    H512504   0.437   2.086  14.028  1.9151 -0.7951  0.2156
  847MPD2    N112505   0.040   2.326  13.935 -0.4947  0.4501  0.2977
  847MPD2    H712506   0.081   2.362  14.021  1.6730 -2.8648  0.6405
  848MPD2     C12507   2.897   0.273  16.101  0.3907  0.6708  0.1968
  848MPD2    C112508   2.910   0.321  16.231  0.2610  0.1890  0.0079
  848MPD2    C212509   2.943   0.446  16.260  0.0145  0.3300  0.0700
  848MPD2    C312510   2.981   0.534  16.152  0.4593  0.8354 -0.4554
  848MPD2    C412511   2.985   0.483  16.023  0.6022  0.3659  0.3574
  848MPD2    C512512   2.928   0.356  16.001  0.4116  0.4190  0.7001
  848MPD2     H12513   2.940   0.481  16.362 -3.3550 -0.5967  0.2963
  848MPD2    H112514   3.018   0.539  15.937 -1.4311  0.3078 -0.4748
  848MPD2    H212515   2.858   0.177  16.070 -1.6094  0.8393  2.2077
  848MPD2    H312516   2.915   0.325  15.898  1.4594 -0.4150  0.8153
  848MPD2     N12517   3.025   0.666  16.182  0.6112  0.3133  0.0134
  848MPD2    H512518   2.991   0.695  16.273  1.6199  4.0038 -0.8073
  848MPD2    N112519   2.878   0.238  16.339 -0.1710  0.3908  0.7231
  848MPD2    H712520   2.896   0.286  16.426  0.4589  0.4260  0.5781
  849MPD2     C12521   1.754   0.516  14.620 -0.0524  0.0076 -0.5505
  849MPD2    C112522   1.830   0.404  14.610  0.6920 -0.0573  0.6313
  849MPD2    C212523   1.932   0.384  14.706  0.0474  0.1083  0.3591
  849MPD2    C312524   1.953   0.474  14.801 -0.3644  0.1915 -0.3966
  849MPD2    C412525   1.863   0.578  14.817  0.0660 -0.2443  0.6289
  849MPD2    C512526   1.761   0.598  14.726 -0.3218 -0.5161 -0.3960
  849MPD2     H12527   2.007   0.307  14.692 -0.7641 -0.3833 -1.3307
  849MPD2    H112528   1.882   0.653  14.894 -0.1357 -0.2805  0.7143
  849MPD2    H212529   1.680   0.527  14.541 -1.2566  1.1494  0.7270
  849MPD2    H312530   1.703   0.687  14.745  0.2759 -0.1382 -0.3244
  849MPD2     N12531   2.065   0.452  14.888 -0.5389 -0.3922 -0.1833
  849MPD2    H512532   2.133   0.380  14.868  0.9789  1.2231 -0.7264
  849MPD2    N112533   1.820   0.335  14.493 -0.0992  0.3984 -0.2748
  849MPD2    H712534   1.753   0.358  14.421  0.8505 -0.3464 -1.3831
  850MPD2     C12535   0.037   3.500  15.128  0.2689  0.0066  0.4683
  850MPD2    C112536   0.118   3.456  15.231  0.2443  0.1242  0.1915
  850MPD2    C212537   0.241   3.413  15.202 -0.1039 -0.5506  0.8649
  850MPD2    C312538   0.294   3.444  15.078  0.5390 -0.3071  0.4347
  850MPD2    C412539   0.221   3.495  14.976  0.1933 -1.1872  0.1720
  850MPD2    C512540   0.086   3.516  14.998 -0.5035 -0.1900 -0.2302
  850MPD2     H12541   0.298   3.368  15.283  1.3540  0.9249  0.6727
  850MPD2    H112542   0.259   3.528  14.880 -0.8337 -1.4025 -0.3079
  850MPD2    H212543   4.665   3.517  15.140 -0.0280 -0.6653 -1.0971
  850MPD2    H312544   0.021   3.557  14.922 -2.4033  0.9726  2.0380
  850MPD2     N12545   0.432   3.428  15.059  0.1201  0.2861  0.0472
  850MPD2    H512546   0.466   3.485  14.981 -0.6756 -1.6031 -1.6874
  850MPD2    N112547   0.093   3.477  15.371  0.5199 -0.1836 -0.5371
  850MPD2    H712548   0.170   3.465  15.436 -0.2785  0.4950  0.5365
  851MPD2     C12549   0.301   3.326  16.179  0.0136  0.1677 -0.4149
  851MPD2    C112550   0.302   3.317  16.044  0.3936  0.4729  0.4013
  851MPD2    C212551   0.365   3.216  15.980 -0.5309  0.2421 -0.3068
  851MPD2    C312552   0.426   3.111  16.049 -0.0670 -0.7515 -0.5999
  851MPD2    C412553   0.428   3.120  16.182 -0.0286  0.8490 -0.0056
  851MPD2    C512554   0.368   3.230  16.246 -0.4956 -0.5976  0.6329
  851MPD2     H12555   0.364   3.213  15.871 -1.9770  0.7104 -0.3026
  851MPD2    H112556   0.476   3.045  16.244 -0.4961  0.0944 -0.5789
  851MPD2    H212557   0.265   3.414  16.231  1.4271  0.0200  0.7985
  851MPD2    H312558   0.372   3.242  16.353  0.2838  1.6051  0.3548
  851MPD2     N12559   0.487   3.016  15.966 -0.1289  0.0571 -0.9594
  851MPD2    H512560   0.468   3.023  15.866 -0.9687  0.4863 -0.7693
  851MPD2    N112561   0.218   3.405  15.973  0.3528  0.5182  0.4375
  851MPD2    H712562   0.150   3.455  16.029 -0.9855 -0.0518 -0.6786
  852MPD2     C12563   4.621   0.692  10.235 -0.5580  0.3717  0.5552
  852MPD2    C112564   4.637   0.816  10.279  0.0767 -0.0760 -0.7283
  852MPD2    C212565   0.002   0.898  10.227  1.1300 -0.7844  0.3929
  852MPD2    C312566   0.076   0.854  10.123  0.0599 -0.6642 -0.3414
  852MPD2    C412567   0.066   0.729  10.081  0.5853 -0.0362 -0.2357
  852MPD2    C512568   4.709   0.643  10.141 -0.1174  0.0728  0.2740
  852MPD2     H12569   0.005   1.001  10.260  0.3439 -0.3643 -0.8681
  852MPD2    H112570   0.129   0.681  10.007 -0.6938  0.3452 -1.5480
  852MPD2    H212571   4.552   0.621  10.281 -1.7793  0.6250 -0.8856
  852MPD2    H312572   4.697   0.545  10.098 -2.0376  0.7829 -0.7906
  852MPD2     N12573   0.152   0.954  10.064  0.0130  0.3320  0.4207
  852MPD2    H512574   0.157   1.041  10.116  1.0984 -0.1344  1.0820
  852MPD2    N112575   4.559   0.866  10.390  1.0923  0.3902 -0.4021
  852MPD2    H712576   4.585   0.960  10.416  1.5017  0.0756  0.3044
  853MPD2     C12577   1.044   0.375  12.360 -0.0087  0.4879  0.6818
  853MPD2    C112578   1.133   0.484  12.371  0.4570  0.3426  0.1717
  853MPD2    C212579   1.213   0.521  12.260  0.4471 -0.2701 -0.3554
  853MPD2    C312580   1.202   0.449  12.140  0.0702  0.8723 -0.0886
  853MPD2    C412581   1.117   0.343  12.135 -0.1905 -0.2409 -0.0272
  853MPD2    C512582   1.036   0.308  12.240  0.1313 -0.3011 -0.7326
  853MPD2     H12583   1.286   0.601  12.270 -2.4174  2.5196 -1.4969
  853MPD2    H112584   1.102   0.291  12.041 -0.5028  1.3339 -0.8543
  853MPD2    H212585   0.984   0.340  12.443 -0.4759 -0.5124 -0.0867
  853MPD2    H312586   0.956   0.235  12.231 -0.2269 -0.3696  2.9316
  853MPD2     N12587   1.281   0.472  12.025 -0.7799  0.0140  0.4734
  853MPD2    H512588   1.271   0.403  11.952 -1.6076 -0.6815  1.2449
  853MPD2    N112589   1.135   0.547  12.491  0.2533  0.0217 -0.8054
  853MPD2    H712590   1.067   0.511  12.556  1.3371 -0.8136 -0.1485
  854MPD2     C12591   3.020   1.439  13.066  0.1431 -0.4542  0.4325
  854MPD2    C112592   3.109   1.494  12.977 -0.4044  0.1351  0.6636
  854MPD2    C212593   3.239   1.439  12.957 -0.6123 -0.2625  0.1946
  854MPD2    C312594   3.284   1.328  13.028  0.4747 -0.0902  0.3683
  854MPD2    C412595   3.192   1.281  13.119 -0.2971  0.0907 -0.4765
  854MPD2    C512596   3.068   1.328  13.130 -0.1292  0.3048 -0.1510
  854MPD2     H12597   3.305   1.480  12.881 -1.0699  1.1615  0.5769
  854MPD2    H112598   3.215   1.193  13.179 -0.1152 -0.3917 -1.2410
  854MPD2    H212599   2.917   1.471  13.083  0.8048  0.7654  2.1489
  854MPD2    H312600   3.005   1.279  13.204 -2.5703  2.0213 -1.0968
  854MPD2     N12601   3.417   1.271  13.019 -0.0065 -0.4128  0.8800
  854MPD2    H512602   3.429   1.191  13.080 -0.9123 -0.2621  1.2565
  854MPD2    N112603   3.053   1.596  12.897  0.1434  0.0574 -0.8694
  854MPD2    H712604   2.958   1.626  12.917  0.1480 -0.2479 -0.3798
  855MPD2     C12605   3.756   1.032  13.751 -0.1053  0.1690 -0.1418
  855MPD2    C112606   3.847   0.978  13.664  0.2682 -0.0541 -0.0677
  855MPD2    C212607   3.847   1.025  13.539 -0.5860  0.5449 -0.5907
  855MPD2    C312608   3.761   1.133  13.499  0.2509 -0.4349  0.6947
  855MPD2    C412609   3.684   1.192  13.592  0.6989  0.5794  0.2465
  855MPD2    C512610   3.677   1.137  13.714 -0.3984  0.1345 -0.3369
  855MPD2     H12611   3.918   0.980  13.470 -0.3710  0.1564 -0.1167
  855MPD2    H112612   3.609   1.267  13.569 -1.8407 -2.3879 -1.0948
  855MPD2    H212613   3.742   0.995  13.852 -1.7414  1.5394  0.1234
  855MPD2    H312614   3.614   1.179  13.791 -1.0115 -0.9455 -0.2439
  855MPD2     N12615   3.757   1.186  13.368 -0.2587  0.0116  0.5067
  855MPD2    H512616   3.683   1.255  13.354  0.6566  0.8687 -0.0937
  855MPD2    N112617   3.925   0.862  13.702  0.1308  0.2255  0.4251
  855MPD2    H712618   3.968   0.814  13.623 -1.6886 -3.3764  1.6490
  856MPD2     C12619   1.414   1.585  14.002  0.3066  0.4633  0.2786
  856MPD2    C112620   1.436   1.711  13.957 -0.6399  0.3291  0.7237
  856MPD2    C212621   1.333   1.776  13.886 -0.0675  0.4087  0.1785
  856MPD2    C312622   1.211   1.712  13.863  0.5671 -0.2952 -0.1952
  856MPD2    C412623   1.199   1.582  13.901  0.3739  0.1491  0.1274
  856MPD2    C512624   1.292   1.527  13.982  0.5495 -1.0003  0.3024
  856MPD2     H12625   1.349   1.880  13.860 -0.8280  1.0494  2.2484
  856MPD2    H112626   1.104   1.535  13.877 -0.3199  3.0518 -2.9492
  856MPD2    H212627   1.477   1.522  14.064  1.1531  1.2836  0.2339
  856MPD2    H312628   1.273   1.436  14.037  2.4028 -1.2246  0.5626
  856MPD2     N12629   1.104   1.769  13.780 -0.1423 -0.2454  0.4431
  856MPD2    H512630   1.028   1.706  13.754 -0.3386  0.3110 -0.3427
  856MPD2    N112631   1.561   1.768  13.978 -0.4529 -0.0492  0.0365
  856MPD2    H712632   1.574   1.865  13.949  1.3855 -0.1261  0.6186
  857MPD2     C12633   2.635   3.936  13.135 -0.9322  0.2299  0.1997
  857MPD2    C112634   2.768   3.965  13.152  0.1794 -1.0265 -0.3853
  857MPD2    C212635   2.811   4.096  13.170 -0.3432  0.3198 -0.8426
  857MPD2    C312636   2.718   4.196  13.159  0.3746  0.0359  0.2038
  857MPD2    C412637   2.591   4.170  13.133 -0.1101 -0.7333  0.2658
  857MPD2    C512638   2.551   4.041  13.117 -1.0105 -0.7239 -0.8365
  857MPD2     H12639   2.914   4.122  13.190 -0.2047  0.0583 -1.2091
  857MPD2    H112640   2.516   4.248  13.123 -1.3272 -2.1052 -1.4252
  857MPD2    H212641   2.594   3.839  13.110 -0.8614  0.2660 -0.0557
  857MPD2    H312642   2.446   4.016  13.108 -1.3932  1.8567 -3.8078
  857MPD2     N12643   2.761   4.328  13.166  0.6057 -0.0708  0.1227
  857MPD2    H512644   2.860   4.347  13.172  1.0245 -2.3404  0.3987
  857MPD2    N112645   2.850   3.849  13.148 -0.4111  0.7791 -0.2938
  857MPD2    H712646   2.809   3.760  13.120 -0.4661  0.4660  0.7744
  858MPD2     C12647   3.244   3.134  16.491 -0.7001 -0.2664  0.1736
  858MPD2    C112648   3.374   3.094  16.478 -0.7676  0.5840 -0.1415
  858MPD2    C212649   3.451   3.115  16.590  0.1503 -0.3215 -0.0832
  858MPD2    C312650   3.413   3.169  16.713  0.4015  0.0787  0.2774
  858MPD2    C412651   3.282   3.216  16.721  0.1623  0.6342 -0.8169
  858MPD2    C512652   3.208   3.197  16.608 -0.2083 -0.4202 -1.0655
  858MPD2     H12653   3.557   3.092  16.583  0.3086 -0.1448  1.8174
  858MPD2    H112654   3.242   3.256  16.814 -0.6792  1.8695 -1.7247
  858MPD2    H212655   3.179   3.113  16.407  0.5782  1.0838 -1.1613
  858MPD2    H312656   3.112   3.247  16.613  0.0062 -0.0528 -0.6099
  858MPD2     N12657   3.484   3.169  16.826  0.2955  0.1958 -0.0719
  858MPD2    H512658   3.438   3.212  16.906 -3.0905 -3.2784 -0.1355
  858MPD2    N112659   3.409   3.018  16.366 -0.2112  0.4078  0.5117
  858MPD2    H712660   3.350   3.017  16.283 -2.5513  3.4832  2.1457
  859MPD2     C12661   2.043   0.688  15.762 -0.1796 -0.0123 -0.1128
  859MPD2    C112662   2.009   0.651  15.634  0.5484  0.2641 -0.1625
  859MPD2    C212663   1.892   0.577  15.613 -0.2073  0.0018 -0.4004
  859MPD2    C312664   1.813   0.536  15.719 -0.1524 -0.3324  0.6670
  859MPD2    C412665   1.841   0.581  15.844 -0.0725 -0.6730 -0.5378
  859MPD2    C512666   1.960   0.649  15.860  0.5611 -0.0240 -0.2028
  859MPD2     H12667   1.858   0.560  15.512 -1.4267 -2.6682  0.4633
  859MPD2    H112668   1.787   0.545  15.931 -0.3104 -1.0761 -0.8503
  859MPD2    H212669   2.134   0.745  15.772  0.6796 -2.0044  3.1604
  859MPD2    H312670   1.995   0.676  15.959  0.2672 -0.8685  0.1347
  859MPD2     N12671   1.711   0.443  15.716 -0.1494  0.0798  0.1948
  859MPD2    H512672   1.669   0.415  15.804  2.0971  2.6263  2.0685
  859MPD2    N112673   2.108   0.676  15.535 -0.4707 -0.2336 -0.8604
  859MPD2    H712674   2.197   0.718  15.560 -0.5433 -0.8775  0.4381
  860MPD2     C12675   4.648   1.850  11.860  0.0082  0.0435 -1.0309
  860MPD2    C112676   4.661   1.725  11.903  0.0723 -0.0959  0.4829
  860MPD2    C212677   4.552   1.640  11.887 -0.3300  0.1339 -0.2146
  860MPD2    C312678   4.435   1.675  11.831 -0.2306  0.4946 -0.0644
  860MPD2    C412679   4.423   1.805  11.792 -0.1604  0.0679  0.5985
  860MPD2    C512680   4.523   1.892  11.801  0.0582  0.2516 -0.6115
  860MPD2     H12681   4.551   1.535  11.915 -0.2917  0.0721 -0.4426
  860MPD2    H112682   4.325   1.831  11.754  0.0899  0.1307 -0.0154
  860MPD2    H212683   4.718   1.931  11.877 -0.4317  0.5026 -1.4345
  860MPD2    H312684   4.525   1.996  11.773  1.4820  0.4219  0.1006
  860MPD2     N12685   4.330   1.578  11.836  0.2806  0.9403  0.1874
  860MPD2    H512686   4.346   1.497  11.895 -3.6205  1.4298  1.8936
  860MPD2    N112687   0.041   1.684  11.968  0.1824 -0.4477  0.1401
  860MPD2    H712688   0.054   1.589  12.002 -2.0990 -0.8811 -0.2230
  861MPD2     C12689   2.874   3.762  11.480  0.0027 -0.1471  0.2432
  861MPD2    C112690   2.955   3.834  11.394 -0.2985  0.4002  0.0212
  861MPD2    C212691   2.912   3.864  11.268  0.3595 -0.2606 -0.1356
  861MPD2    C312692   2.789   3.827  11.220 -0.1398  0.2189  0.1316
  861MPD2    C412693   2.709   3.754  11.311 -0.5554 -0.1578  0.5918
  861MPD2    C512694   2.751   3.716  11.438  0.2275  0.7654 -0.1905
  861MPD2     H12695   2.984   3.906  11.200  1.2327 -0.1301  0.8704
  861MPD2    H112696   2.609   3.720  11.288 -1.3758  0.0416  3.8775
  861MPD2    H212697   2.886   3.750  11.588 -2.6305 -0.1343  0.5399
  861MPD2    H312698   2.685   3.661  11.505 -1.2726 -0.6212 -2.8025
  861MPD2     N12699   2.734   3.861  11.093 -0.6477 -0.2544 -0.0816
  861MPD2    H512700   2.638   3.836  11.071  0.4812 -0.0911 -5.2213
  861MPD2    N112701   3.084   3.886  11.437 -0.0523 -0.1359 -0.2509
  861MPD2    H712702   3.137   3.948  11.377 -0.1230  0.9324  0.7956
  862MPD2     C12703   2.155   3.660  10.736 -0.3939  0.8039 -0.2311
  862MPD2    C112704   2.215   3.710  10.849  0.0710 -0.5697 -1.0048
  862MPD2    C212705   2.164   3.681  10.978 -0.2635 -0.0125 -0.1903
  862MPD2    C312706   2.062   3.594  10.993 -0.0385 -0.0585 -0.6008
  862MPD2    C412707   2.006   3.536  10.882 -0.0459  0.7487 -0.1938
  862MPD2    C512708   2.055   3.571  10.756 -0.1728  0.1933  0.0411
  862MPD2     H12709   2.209   3.717  11.070  1.0302 -0.3412 -0.7034
  862MPD2    H112710   1.944   3.447  10.877  0.1276  0.5397  1.4825
  862MPD2    H212711   2.198   3.673  10.638 -1.5056  0.4508 -0.7683
  862MPD2    H312712   2.014   3.511  10.675  1.0998  0.1547 -0.5709
  862MPD2     N12713   2.011   3.548  11.120 -0.6913 -0.0723  0.0056
  862MPD2    H512714   1.953   3.465  11.119  0.5379 -0.9183 -1.0095
  862MPD2    N112715   2.339   3.782  10.843  0.2311 -0.3112  0.3041
  862MPD2    H712716   2.379   3.798  10.935 -1.8611 -2.1990  1.5326
  863MPD2     C12717   1.589   1.875  17.258 -0.5729  0.0269 -0.1841
  863MPD2    C112718   1.661   1.937  17.157 -0.3869 -0.2328 -0.6423
  863MPD2    C212719   1.799   1.901  17.151  0.8079 -0.1299 -0.0093
  863MPD2    C312720   1.863   1.820  17.243  0.4438 -0.2734  0.1091
  863MPD2    C412721   1.787   1.773  17.350 -1.0917 -0.3816 -0.0602
  863MPD2    C512722   1.651   1.792  17.356 -0.5631 -0.6568 -0.4930
  863MPD2     H12723   1.849   1.941  17.064  0.2539  0.0227 -0.2578
  863MPD2    H112724   1.838   1.741  17.439 -1.7023 -0.6005  0.2071
  863MPD2    H212725   1.481   1.873  17.264 -0.5737 -0.8911 -0.4929
  863MPD2    H312726   1.600   1.749  17.442 -0.9529  0.0093 -0.3977
  863MPD2     N12727   2.002   1.794  17.243  0.2909 -0.7227  0.2256
  863MPD2    H512728   2.024   1.729  17.317  2.2913  0.9461  1.0894
  863MPD2    N112729   1.592   2.017  17.053 -0.0467 -0.1047 -0.3329
  863MPD2    H712730   1.495   2.043  17.070 -0.7699 -1.9158 -1.7568
  864MPD2     C12731   2.475   2.805  17.224 -0.4551 -0.0322 -0.6497
  864MPD2    C112732   2.541   2.740  17.122 -0.5408  0.7191  0.2458
  864MPD2    C212733   2.597   2.817  17.016  0.0055  0.1155  0.6021
  864MPD2    C312734   2.583   2.958  17.016 -0.2056 -0.7484  0.6561
  864MPD2    C412735   2.544   3.016  17.130  0.4128  0.7957  0.7489
  864MPD2    C512736   2.478   2.939  17.228 -0.1937  0.1274  0.0332
  864MPD2     H12737   2.643   2.771  16.929 -2.5989 -3.1228  0.9390
  864MPD2    H112738   2.539   3.124  17.129 -1.7917  0.7017  1.3404
  864MPD2    H212739   2.424   2.762  17.309  0.7398  1.2860  0.7261
  864MPD2    H312740   2.448   2.982  17.323 -3.3064 -0.3705 -0.7443
  864MPD2     N12741   2.607   3.041  16.900  0.1498 -0.6145  0.1000
  864MPD2    H512742   2.602   3.140  16.921 -0.7535 -0.5796 -0.2740
  864MPD2    N112743   2.539   2.601  17.133  0.5084 -0.5399 -0.2028
  864MPD2    H712744   2.478   2.564  17.206 -0.8342 -1.6771 -1.8872
  865MPD2     C12745   2.483   3.489  16.197  0.5949 -0.6066 -0.3922
  865MPD2    C112746   2.481   3.385  16.283 -0.2170  0.8484 -0.0805
  865MPD2    C212747   2.498   3.411  16.419 -0.0606 -0.1692 -0.4817
  865MPD2    C312748   2.519   3.538  16.466 -0.1319 -0.1281  0.6328
  865MPD2    C412749   2.508   3.648  16.379  0.0166  0.0710 -0.3658
  865MPD2    C512750   2.482   3.617  16.246 -0.0177  0.6679 -0.4253
  865MPD2     H12751   2.495   3.327  16.487  0.4829  0.4443  0.3012
  865MPD2    H112752   2.525   3.750  16.410 -1.0726 -0.5888  2.3961
  865MPD2    H212753   2.456   3.479  16.092 -0.5276 -0.6961 -0.0947
  865MPD2    H312754   2.473   3.696  16.172 -0.4755 -0.5314 -1.6420
  865MPD2     N12755   2.551   3.562  16.602 -0.0617  0.4408 -0.6149
  865MPD2    H512756   2.536   3.656  16.636 -0.0272 -0.2451  1.3044
  865MPD2    N112757   2.462   3.256  16.224 -0.2714 -0.0019  0.1608
  865MPD2    H712758   2.445   3.257  16.124  1.4959  0.0479 -0.1477
  866MPD2     C12759   3.650   4.295  11.481  0.8582 -0.1175  0.4323
  866MPD2    C112760   3.596   4.179  11.446  0.2012 -0.7193 -0.6049
  866MPD2    C212761   3.482   4.175  11.364 -0.5074 -0.1910 -0.1755
  866MPD2    C312762   3.429   4.297  11.318 -0.0522 -0.3076 -0.7048
  866MPD2    C412763   3.495   4.413  11.346 -0.3048  0.2028 -0.0551
  866MPD2    C512764   3.596   4.411  11.433  0.8832  0.7803  0.2187
  866MPD2     H12765   3.434   4.079  11.348 -1.3406  0.3780 -1.1191
  866MPD2    H112766   3.452   4.510  11.324 -2.7956 -1.4926 -2.6471
  866MPD2    H212767   3.737   4.303  11.545  1.2849 -0.0748 -0.1501
  866MPD2    H312768   3.629   4.511  11.460  0.1466  0.3506  2.6929
  866MPD2     N12769   3.305   4.296  11.245 -0.5188  0.2132 -0.3677
  866MPD2    H512770   3.286   4.390  11.214 -0.5416 -0.1539 -1.4546
  866MPD2    N112771   3.670   4.064  11.485  0.8611 -0.2575  0.3225
  866MPD2    H712772   3.753   4.084  11.540  0.0667  0.6782  1.1654
  867MPD2     C12773   1.053   3.257  16.554 -0.3447  1.0993  0.0464
  867MPD2    C112774   1.093   3.197  16.675  0.2054 -0.6224  0.2831
  867MPD2    C212775   1.100   3.280  16.785  0.3874  0.0962 -0.4106
  867MPD2    C312776   1.054   3.413  16.779  0.4240  0.8416 -0.3824
  867MPD2    C412777   1.005   3.460  16.657  0.3241  0.3766  0.2019
  867MPD2    C512778   1.000   3.383  16.547 -1.2634 -0.6796 -0.2247
  867MPD2     H12779   1.148   3.241  16.874  1.1510 -0.6580 -1.1636
  867MPD2    H112780   0.966   3.561  16.653 -0.6843  0.0220  1.1081
  867MPD2    H212781   1.049   3.208  16.458  0.6605  2.8019 -0.8650
  867MPD2    H312782   0.955   3.425  16.458  1.5273 -0.1697 -1.4184
  867MPD2     N12783   1.059   3.485  16.900 -0.1691  0.0048 -0.6013
  867MPD2    H512784   1.111   3.442  16.976 -0.8186  0.2251 -0.0377
  867MPD2    N112785   1.120   3.060  16.670  0.0721 -0.7032 -0.6419
  867MPD2    H712786   1.103   3.014  16.581  1.5401 -0.8671 -0.8310
  868MPD2     C12787   2.836   2.475  13.133  0.0529 -0.0259 -0.1535
  868MPD2    C112788   2.925   2.411  13.209 -0.0440  0.5768 -0.2141
  868MPD2    C212789   2.880   2.382  13.340  0.3659 -0.0869 -0.0689
  868MPD2    C312790   2.752   2.412  13.384  0.2416  0.4886  0.2137
  868MPD2    C412791   2.662   2.475  13.299  0.4545  0.9564 -0.1035
  868MPD2    C512792   2.708   2.509  13.174  0.7176  0.2995  0.5485
  868MPD2     H12793   2.952   2.350  13.414 -0.7496 -0.7041  0.7523
  868MPD2    H112794   2.556   2.494  13.316  0.9676  3.4195  0.3160
  868MPD2    H212795   2.848   2.518  13.034  0.2104  1.5116  0.5428
  868MPD2    H312796   2.635   2.555  13.108  3.0584 -0.7505 -2.7938
  868MPD2     N12797   2.711   2.376  13.509 -0.0759  0.3654 -0.5113
  868MPD2    H512798   2.784   2.335  13.567  0.9386  1.0110 -1.3380
  868MPD2    N112799   3.058   2.392  13.159 -0.1005 -0.2121 -0.2244
  868MPD2    H712800   3.086   2.435  13.072 -1.7441 -2.8867 -2.0683
  869MPD2     C12801   3.754   0.023   0.014  0.1807 -0.0021  0.5219
  869MPD2    C112802   3.734   0.114   0.107  0.5055 -0.6951  0.1823
  869MPD2    C212803   3.843   0.180   0.158 -0.0261 -0.2415  0.9339
  869MPD2    C312804   3.969   0.160   0.110  0.3976  0.3874  0.2998
  869MPD2    C412805   3.988   0.060   0.012  0.4999  0.6685  0.0176
  869MPD2    C512806   3.878   4.725  17.705 -0.1193  0.3398 -0.3085
  869MPD2     H12807   3.824   0.258   0.231  1.2957  0.0261  0.9825
  869MPD2    H112808   4.085   0.043  17.703  0.7100 -0.2798  0.8016
  869MPD2    H212809   3.671   4.706  17.702 -0.5670  1.0899  0.6490
  869MPD2    H312810   3.884   4.640  17.638 -1.2325 -0.2595  0.3566
  869MPD2     N12811   4.075   0.234   0.168  0.1651 -0.3455 -0.6903
  869MPD2    H512812   4.045   0.304   0.236  0.8972  0.0443 -0.7733
  869MPD2    N112813   3.596   0.146   0.131  0.2134 -0.3244  0.0945
  869MPD2    H712814   3.532   0.085   0.083 -0.3834 -0.0312  0.5237
  870MPD2     C12815   2.796   3.849   1.166  0.6579 -0.0956 -0.5504
  870MPD2    C112816   2.841   3.725   1.148 -0.0754  0.0744  0.3258
  870MPD2    C212817   2.815   3.657   1.029 -0.5650  0.6145 -0.0994
  870MPD2    C312818   2.745   3.724   0.930  0.3403  0.3052 -0.3542
  870MPD2    C412819   2.687   3.847   0.958  0.2450 -0.5004 -0.4671
  870MPD2    C512820   2.725   3.911   1.071  0.6336 -0.2044  0.3272
  870MPD2     H12821   2.858   3.560   1.010 -1.2590 -0.1839  2.3751
  870MPD2    H112822   2.633   3.908   0.888  1.5438  0.7435 -0.3976
  870MPD2    H212823   2.811   3.901   1.261  1.0427 -1.4094  0.1074
  870MPD2    H312824   2.677   4.002   1.105  0.1527 -0.3901  0.1412
  870MPD2     N12825   2.725   3.667   0.803 -0.4079 -0.3535 -0.3918
  870MPD2    H512826   2.759   3.575   0.779 -1.1615 -0.4144 -1.2153
  870MPD2    N112827   2.896   3.661   1.261 -0.7208 -0.5457  0.5325
  870MPD2    H712828   2.907   3.714   1.347 -3.9244  3.3309 -1.4338
  871MPD2     C12829   4.412   3.196  16.595  0.8908 -1.1930 -0.5369
  871MPD2    C112830   4.507   3.213  16.683 -0.0376  0.0584  0.6204
  871MPD2    C212831   4.625   3.141  16.669 -0.7654 -0.4478  0.8462
  871MPD2    C312832   4.640   3.044  16.568  0.3814 -0.0796  0.1698
  871MPD2    C412833   4.535   3.014  16.483  0.3222 -0.2943 -0.1034
  871MPD2    C512834   4.422   3.093  16.495  0.4035  0.0745 -0.6410
  871MPD2     H12835   4.710   3.165  16.732 -2.8658  0.1233  3.4726
  871MPD2    H112836   4.545   2.944  16.401 -0.9992  0.8856 -1.2511
  871MPD2    H212837   4.329   3.265  16.597  0.0922 -2.1273 -2.0838
  871MPD2    H312838   4.344   3.081  16.421  1.4152 -2.4672 -1.2988
  871MPD2     N12839   0.037   2.996  16.552  0.5929  1.0651  0.4590
  871MPD2    H512840   0.111   3.043  16.602 -0.2008  1.2343  1.4775
  871MPD2    N112841   4.496   3.307  16.791  0.1634  0.5436  0.6514
  871MPD2    H712842   4.417   3.370  16.798  0.5760  1.1348  0.0161
  872MPD2     C12843   1.028   1.055  13.489 -0.1600  0.2402 -0.1804
  872MPD2    C112844   1.088   1.073  13.610 -0.2177  0.7634  0.4076
  872MPD2    C212845   1.017   1.049  13.727  0.7230  0.0516  0.4654
  872MPD2    C312846   0.886   1.012  13.717  0.1366 -0.2601 -0.4902
  872MPD2    C412847   0.829   0.997  13.596  0.2758 -0.4374  0.5830
  872MPD2    C512848   0.897   1.026  13.485 -0.2653 -0.2345  0.0142
  872MPD2     H12849   1.055   1.068  13.827  0.8407 -0.8410  0.5902
  872MPD2    H112850   0.726   0.964  13.588 -0.2092  1.1889  0.2073
  872MPD2    H212851   1.080   1.067  13.395 -0.5210 -2.6494 -0.7322
  872MPD2    H312852   0.850   1.014  13.387  0.4357  0.7441 -0.4447
  872MPD2     N12853   0.817   0.984  13.837 -0.1275 -0.3902 -0.2079
  872MPD2    H512854   0.879   0.966  13.915  0.8656 -0.7418 -1.0911
  872MPD2    N112855   1.221   1.122  13.629 -0.1960  0.1744  1.0181
  872MPD2    H712856   1.260   1.146  13.719  0.1714 -0.0424  0.9162
  873MPD2     C12857   2.879   0.846   1.090  0.1791 -0.2165 -0.5642
  873MPD2    C112858   2.771   0.920   1.130  0.5367  0.0634  0.5102
  873MPD2    C212859   2.645   0.861   1.133  0.0461 -0.1046  0.3669
  873MPD2    C312860   2.633   0.726   1.110 -1.4615 -0.2811 -0.6702
  873MPD2    C412861   2.742   0.652   1.073  0.3741  0.5587  0.3127
  873MPD2    C512862   2.866   0.711   1.063 -0.5537  0.0426 -0.2711
  873MPD2     H12863   2.559   0.922   1.154 -0.0562 -0.4834  1.0457
  873MPD2    H112864   2.731   0.545   1.061  1.9342  0.1315  2.5429
  873MPD2    H212865   2.974   0.896   1.074  0.4265 -0.7909 -0.8906
  873MPD2    H312866   2.951   0.654   1.029  0.6041 -0.2726  3.1782
  873MPD2     N12867   2.507   0.655   1.119  0.0978 -0.0182  0.6880
  873MPD2    H512868   2.509   0.561   1.080  2.3839  0.0070  0.7423
  873MPD2    N112869   2.792   1.062   1.149  0.5753 -0.5348  0.2464
  873MPD2    H712870   2.890   1.088   1.145  0.2973  0.3203 -1.1259
  874MPD2     C12871   2.389   1.119  16.530 -0.4615 -0.1001 -0.0739
  874MPD2    C112872   2.448   0.994  16.545 -0.6094 -0.7039 -0.4427
  874MPD2    C212873   2.577   0.979  16.491  0.0272 -0.0366 -0.6137
  874MPD2    C312874   2.635   1.086  16.427  0.6437  0.5855 -0.3579
  874MPD2    C412875   2.575   1.211  16.411  0.6970 -0.1430 -0.0029
  874MPD2    C512876   2.449   1.221  16.458 -0.4204 -0.2831 -0.3975
  874MPD2     H12877   2.629   0.885  16.498 -2.5251 -1.4769 -0.9714
  874MPD2    H112878   2.605   1.301  16.358 -0.0541  0.6062  0.8413
  874MPD2    H212879   2.292   1.146  16.569 -1.6189  0.2011 -3.1960
  874MPD2    H312880   2.392   1.313  16.443 -2.1704 -1.6303 -1.9186
  874MPD2     N12881   2.770   1.057  16.388 -0.7152  0.0713  0.5475
  874MPD2    H512882   2.802   0.961  16.395 -0.0270  0.1572 -1.4575
  874MPD2    N112883   2.375   0.895  16.609  0.1563  0.0237 -0.5580
  874MPD2    H712884   2.290   0.927  16.653  1.0045  1.5077 -0.0040
  875MPD2     C12885   3.573   4.226  14.309 -0.6024  0.1462  0.7024
  875MPD2    C112886   3.437   4.211  14.343  0.3372  0.5984  0.2277
  875MPD2    C212887   3.389   4.243  14.470  0.4744 -0.2972 -0.1238
  875MPD2    C312888   3.478   4.293  14.563  0.1634 -0.0882 -0.4928
  875MPD2    C412889   3.611   4.302  14.534 -0.5616  0.4783  0.8060
  875MPD2    C512890   3.654   4.274  14.410  0.0484 -0.2532  0.6322
  875MPD2     H12891   3.284   4.224  14.492  0.7532 -0.0408  1.4779
  875MPD2    H112892   3.687   4.322  14.610 -1.2644  0.3578  1.5442
  875MPD2    H212893   3.613   4.193  14.214 -0.8100 -0.9573  0.9951
  875MPD2    H312894   3.760   4.259  14.395 -0.2484 -1.2851 -0.4683
  875MPD2     N12895   3.444   4.314  14.702 -0.0673 -0.2708 -0.7972
  875MPD2    H512896   3.518   4.342  14.765 -1.7400 -0.1300  1.1100
  875MPD2    N112897   3.337   4.149  14.262  0.0163 -0.0719 -0.3375
  875MPD2    H712898   3.241   4.162  14.290  0.2180  0.5727  0.0591
  876MPD2     C12899   1.998   0.400  16.504 -0.3440 -0.0876 -0.4193
  876MPD2    C112900   2.091   0.389  16.404  0.6923  1.2177  0.2428
  876MPD2    C212901   2.104   0.264  16.349 -1.1108 -0.4916  0.2716
  876MPD2    C312902   2.025   0.166  16.387  1.0535 -0.4752 -0.5819
  876MPD2    C412903   1.936   0.177  16.487  0.2916 -0.3513  0.2287
  876MPD2    C512904   1.915   0.297  16.547 -1.0578 -0.3175  0.5178
  876MPD2     H12905   2.175   0.252  16.267  0.2500 -0.2348  1.4066
  876MPD2    H112906   1.867   0.097  16.510 -1.8508  1.8143  1.2502
  876MPD2    H212907   1.982   0.496  16.552  1.6111 -0.8531  1.7641
  876MPD2    H312908   1.842   0.310  16.625 -1.0258  1.0247  0.3329
  876MPD2     N12909   2.051   0.045  16.321  0.2139 -0.2962  0.6598
  876MPD2    H512910   2.132   0.044  16.259 -0.2449  1.7021  0.0437
  876MPD2    N112911   2.165   0.510  16.366  0.0988  0.4073  0.0952
  876MPD2    H712912   2.144   0.589  16.427 -0.5195  0.4627 -0.1891
  877MPD2     C12913   2.108   1.042  15.848  0.1375  0.1079 -0.6098
  877MPD2    C112914   2.237   1.040  15.883 -0.7117 -0.7006 -0.1230
  877MPD2    C212915   2.335   1.083  15.794  0.4571 -0.9260  0.1177
  877MPD2    C312916   2.305   1.126  15.670 -0.8149  0.7146  0.1974
  877MPD2    C412917   2.172   1.122  15.629  0.1617 -0.2252  0.3656
  877MPD2    C512918   2.084   1.075  15.717 -0.0762  0.7594  0.0800
  877MPD2     H12919   2.437   1.075  15.829  1.0367  0.8336 -1.1567
  877MPD2    H112920   2.122   1.137  15.534  0.3011 -0.2210  0.2928
  877MPD2    H212921   2.018   1.015  15.901 -0.5178 -1.2313 -2.4022
  877MPD2    H312922   1.978   1.075  15.693 -0.8565 -0.7437  3.4261
  877MPD2     N12923   2.400   1.157  15.569 -0.1712  0.4824 -0.3971
  877MPD2    H512924   2.366   1.185  15.478 -1.5274  0.2791  0.0519
  877MPD2    N112925   2.280   1.003  16.009 -0.0578 -0.1053  0.1887
  877MPD2    H712926   2.379   1.010  16.033  0.0962  1.1597 -0.8552
  878MPD2     C12927   1.781   0.493  13.530  0.3146  0.6279  0.5093
  878MPD2    C112928   1.909   0.441  13.539 -0.1900  0.2970 -0.6693
  878MPD2    C212929   1.954   0.393  13.666 -0.0476  0.0861  0.5575
  878MPD2    C312930   1.874   0.412  13.774  0.0011  0.6783 -0.4715
  878MPD2    C412931   1.746   0.472  13.763  0.5455 -0.5595  0.3147
  878MPD2    C512932   1.703   0.509  13.640 -0.0684  0.0923 -0.2106
  878MPD2     H12933   2.046   0.337  13.680 -0.0245 -0.1130 -0.3461
  878MPD2    H112934   1.684   0.486  13.851  1.7704 -2.4120  1.4654
  878MPD2    H212935   1.746   0.516  13.430 -2.8026  0.3759  1.5261
  878MPD2    H312936   1.600   0.543  13.642 -0.2309 -0.1906 -3.2471
  878MPD2     N12937   1.932   0.364  13.887  0.7353 -0.0691  0.3370
  878MPD2    H512938   2.013   0.305  13.874 -0.8831 -2.5034  1.3203
  878MPD2    N112939   1.988   0.449  13.420 -0.7476 -0.3136 -0.8444
  878MPD2    H712940   1.953   0.505  13.343 -0.3253 -0.2209 -0.9697
  879MPD2     C12941   2.638   1.294   0.148 -0.4078 -0.5598  0.5227
  879MPD2    C112942   2.707   1.187   0.092  0.4977  0.0852 -0.9986
  879MPD2    C212943   2.674   1.148  17.702  0.0606 -0.7783  0.1663
  879MPD2    C312944   2.587   1.232  17.627  0.9134  0.4847 -0.3909
  879MPD2    C412945   2.538   1.348  17.679  0.3495  0.1413 -0.1720
  879MPD2    C512946   2.555   1.378   0.077 -0.2359 -0.4996  0.8472
  879MPD2     H12947   2.720   1.059  17.661  1.9820  1.0718 -1.7427
  879MPD2    H112948   2.482   1.415  17.614  0.4138  0.7097  0.3544
  879MPD2    H212949   2.643   1.323   0.252  0.0787 -3.3048  1.2597
  879MPD2    H312950   2.499   1.458   0.125 -0.4733 -0.0689 -0.1506
  879MPD2     N12951   2.543   1.203  17.499  0.4639 -0.3144 -0.5052
  879MPD2    H512952   2.505   1.282  17.449  0.6240 -0.1415 -0.3527
  879MPD2    N112953   2.803   1.118   0.172 -0.7233 -0.1508 -0.1007
  879MPD2    H712954   2.817   1.152   0.266  1.2072 -0.1999 -0.3693
  880MPD2     C12955   3.602   3.096   0.300 -0.2049  0.5217  0.1543
  880MPD2    C112956   3.686   3.201   0.281  0.4271 -0.5165 -0.2012
  880MPD2    C212957   3.813   3.174   0.333  0.1216 -0.4522 -0.2925
  880MPD2    C312958   3.856   3.061   0.393  0.6516  0.4514 -0.6942
  880MPD2    C412959   3.767   2.953   0.397  0.5081  0.5024  0.5768
  880MPD2    C512960   3.647   2.967   0.336 -0.5283  0.3718 -0.1929
  880MPD2     H12961   3.890   3.249   0.316 -1.1374  0.0609 -3.6110
  880MPD2    H112962   3.791   2.853   0.433  2.2023  1.4359  2.0105
  880MPD2    H212963   3.497   3.111   0.279 -0.2392  0.5410  0.3433
  880MPD2    H312964   3.581   2.881   0.333 -1.4505  1.0722 -0.1185
  880MPD2     N12965   3.990   3.061   0.450 -0.1604  0.3988 -0.5565
  880MPD2    H512966   4.045   3.145   0.437 -0.3922  0.4055 -1.5273
  880MPD2    N112967   3.645   3.327   0.228 -0.6395  0.3825 -0.3459
  880MPD2    H712968   3.552   3.328   0.187 -1.1783  0.3937  0.9026
  881MPD2     C12969   3.915   4.342  17.624  0.6340  0.3433  0.6073
  881MPD2    C112970   3.957   4.218  17.582 -0.0786 -0.0412  0.1978
  881MPD2    C212971   3.885   4.110  17.616 -0.7903  0.6403 -0.4067
  881MPD2    C312972   3.788   4.112  17.712  0.4566 -0.1746  0.2602
  881MPD2    C412973   3.766   4.236   0.035  0.4576  0.3484 -0.1477
  881MPD2    C512974   3.833   4.348  17.729 -0.8567  0.2521 -0.1186
  881MPD2     H12975   3.909   4.018  17.563  0.9098  0.1707  1.1973
  881MPD2    H112976   3.692   4.242   0.114  2.3549 -0.3008  1.7092
  881MPD2    H212977   3.970   4.430  17.595 -2.2191  1.5307 -1.1486
  881MPD2    H312978   3.815   4.442   0.041  0.1882 -0.7897  2.2684
  881MPD2     N12979   3.717   4.000   0.032  0.6547  0.2897  0.3581
  881MPD2    H512980   3.648   4.022   0.103 -0.1106  0.5954 -0.4760
  881MPD2    N112981   4.029   4.225  17.464  0.0809  0.1725 -0.2686
  881MPD2    H712982   4.056   4.319  17.436  0.7993 -0.0402 -0.2934
  882MPD2     C12983   2.656   1.457  14.821 -0.2793 -0.0798 -0.1275
  882MPD2    C112984   2.576   1.397  14.913 -0.3993  0.3200 -0.4217
  882MPD2    C212985   2.449   1.355  14.872 -0.4283  0.3252  0.1228
  882MPD2    C312986   2.410   1.361  14.740  0.1162 -0.3822  0.1650
  882MPD2    C412987   2.495   1.411  14.648 -0.5519  0.2876 -0.2169
  882MPD2    C512988   2.613   1.458  14.688 -0.2151  0.2911  0.5271
  882MPD2     H12989   2.373   1.328  14.945  0.3709  1.1749  1.2756
  882MPD2    H112990   2.462   1.421  14.545  2.6427 -0.6672 -1.3060
  882MPD2    H212991   2.754   1.497  14.844  1.1884 -2.7041 -1.8290
  882MPD2    H312992   2.673   1.505  14.611 -0.7787 -0.8314 -0.5868
  882MPD2     N12993   2.275   1.325  14.719 -0.5429  0.8211  0.0957
  882MPD2    H512994   2.227   1.291  14.801  0.8240  0.8737  0.9197
  882MPD2    N112995   2.619   1.406  15.052  0.6429  0.0334 -0.6822
  882MPD2    H712996   2.715   1.423  15.080  2.0395 -1.9753 -4.1690
  883MPD2     C12997   4.607   0.563  16.174 -0.5051 -0.0445  0.9976
  883MPD2    C112998   4.651   0.661  16.083 -0.9247  0.3895 -0.0014
  883MPD2    C212999   4.731   0.765  16.130  0.9511 -0.1533 -0.1598
  883MPD2    C313000   0.034   0.765  16.266 -0.1005  0.5479 -0.4061
  883MPD2    C413001   4.721   0.667  16.344  0.7289 -0.2973 -0.2483
  883MPD2    C513002   4.635   0.568  16.302  0.4983  0.4099 -0.2217
  883MPD2     H13003   0.020   0.850  16.068  1.9348  0.0025  0.4232
  883MPD2    H113004   0.005   0.664  16.450  1.0123 -2.9215 -0.3496
  883MPD2    H213005   4.556   0.474  16.139  0.7346  0.4514 -2.0168
  883MPD2    H313006   4.597   0.498  16.376  1.5656 -0.8545 -0.8696
  883MPD2     N13007   0.123   0.869  16.316  0.0246  0.2155 -0.5349
  883MPD2    H513008   0.135   0.947  16.252 -2.1415  2.7591  2.1843
  883MPD2    N113009   4.617   0.654  15.946  0.5270  0.6203 -0.9459
  883MPD2    H713010   4.663   0.719  15.883  0.7864 -0.0481 -1.4460
  884MPD2     C13011   1.479   1.857  15.426 -0.2991 -0.2167 -0.8003
  884MPD2    C113012   1.482   1.955  15.328 -0.1267  0.0585  1.1594
  884MPD2    C213013   1.362   1.980  15.270 -0.2011 -0.0260 -0.2569
  884MPD2    C313014   1.241   1.919  15.299  0.8301 -0.3041  0.1857
  884MPD2    C413015   1.240   1.833  15.405  0.2056 -0.0337 -0.6017
  884MPD2    C513016   1.357   1.809  15.467 -0.0220 -0.4059  0.1126
  884MPD2     H13017   1.365   2.061  15.198 -0.2338  2.1700  2.2071
  884MPD2    H113018   1.150   1.782  15.436  0.8896 -0.1549  1.1639
  884MPD2    H213019   1.564   1.824  15.486  0.3723  0.0368 -1.6137
  884MPD2    H313020   1.359   1.736  15.548  2.2973 -0.7442 -0.2446
  884MPD2     N13021   1.129   1.956  15.221 -0.7043  0.5100  0.1979
  884MPD2    H513022   1.138   2.035  15.158 -1.4066  1.1581  0.9089
  884MPD2    N113023   1.595   2.026  15.283  0.3851  0.5225 -0.0253
  884MPD2    H713024   1.578   2.098  15.214  1.7592  2.7443  1.9536
  885MPD2     C13025   4.505   1.882   0.413 -0.4206  0.1373 -0.1303
  885MPD2    C113026   4.551   2.015   0.427 -0.2410  0.0498  0.1199
  885MPD2    C213027   4.557   2.099   0.320  0.0996 -0.5422 -0.0029
  885MPD2    C313028   4.493   2.059   0.204 -0.1452  0.2175 -0.6041
  885MPD2    C413029   4.439   1.935   0.193  0.8379  0.0647 -0.3580
  885MPD2    C513030   4.442   1.843   0.299  0.3705  0.2356  0.5621
  885MPD2     H13031   4.597   2.199   0.333  1.7258 -0.8787 -2.3572
  885MPD2    H113032   4.400   1.895   0.100 -0.7188 -0.8755  0.6961
  885MPD2    H213033   4.522   1.804   0.486 -2.2739  0.8450  1.0391
  885MPD2    H313034   4.397   1.745   0.298  1.0168 -0.0543 -0.2204
  885MPD2     N13035   4.489   2.144   0.095  0.6412  0.5214 -0.1602
  885MPD2    H513036   4.546   2.227   0.107  1.0302  0.3768 -1.0749
  885MPD2    N113037   4.600   2.052   0.558 -0.5468  0.0565  0.0814
  885MPD2    H713038   4.591   1.984   0.633 -2.3789  0.0854 -0.1169
  886MPD2     C13039   0.954   0.591  15.371 -0.5514 -0.0638 -0.2763
  886MPD2    C113040   1.025   0.656  15.472 -0.0446 -0.5972  0.1473
  886MPD2    C213041   1.082   0.775  15.435  0.2752 -0.2434  0.3763
  886MPD2    C313042   1.088   0.829  15.311 -0.2762  0.5715 -0.1627
  886MPD2    C413043   1.028   0.760  15.211  0.3135 -0.6410  0.6772
  886MPD2    C513044   0.963   0.638  15.244 -0.0899  0.2957 -0.1935
  886MPD2     H13045   1.129   0.833  15.514  1.6216 -0.1564 -0.4797
  886MPD2    H113046   1.021   0.792  15.108  0.3898  0.2517  0.9479
  886MPD2    H213047   0.916   0.489  15.377  1.6196 -0.7469  2.0488
  886MPD2    H313048   0.922   0.581  15.160 -2.4768  1.2565  0.3157
  886MPD2     N13049   1.149   0.960  15.286  0.0670  0.3357 -0.7940
  886MPD2    H513050   1.203   0.999  15.363  0.2558 -0.2159 -0.6455
  886MPD2    N113051   1.014   0.609  15.603 -0.1426  0.5328 -0.1511
  886MPD2    H713052   1.055   0.662  15.679  1.5156 -0.5488 -0.2937
  887MPD2     C13053   1.145   0.862  16.250 -0.3554  0.2502 -1.2242
  887MPD2    C113054   1.145   0.844  16.116  0.0177 -0.4469 -0.2441
  887MPD2    C213055   1.212   0.943  16.040 -0.7498 -0.0301  1.3309
  887MPD2    C313056   1.265   1.064  16.092 -0.2336 -0.5998  0.2705
  887MPD2    C413057   1.253   1.082  16.228  0.1231 -0.6929  0.4396
  887MPD2    C513058   1.200   0.979  16.301  0.3048 -0.2389  0.0196
  887MPD2     H13059   1.196   0.931  15.934  0.9182  0.2188  1.0562
  887MPD2    H113060   1.277   1.177  16.275 -2.5764 -0.5559  1.5678
  887MPD2    H213061   1.098   0.797  16.322 -0.3321  0.5838 -0.9049
  887MPD2    H313062   1.198   0.997  16.408  0.7104  2.9381 -0.5131
  887MPD2     N13063   1.311   1.167  16.013  0.1817  0.8648 -0.4282
  887MPD2    H513064   1.343   1.252  16.057 -0.8652  0.5675  0.8879
  887MPD2    N113065   1.088   0.737  16.047  0.0270 -0.1354  0.1206
  887MPD2    H713066   1.089   0.740  15.945  0.8551 -2.4498  0.0568
  888MPD2     C13067   3.488   0.436  15.029 -0.3273  0.1937 -0.0388
  888MPD2    C113068   3.449   0.454  15.161 -0.1980 -0.4662  0.7932
  888MPD2    C213069   3.513   0.556  15.232 -0.2318 -0.2058 -0.1639
  888MPD2    C313070   3.620   0.631  15.184 -0.1372 -0.8728 -0.4748
  888MPD2    C413071   3.654   0.603  15.052 -0.0488  0.7465 -0.0594
  888MPD2    C513072   3.598   0.502  14.977  0.2870 -0.1906 -0.5850
  888MPD2     H13073   3.474   0.563  15.333  1.2621  0.0685  0.3878
  888MPD2    H113074   3.733   0.657  15.000  1.1460 -0.4861  0.4807
  888MPD2    H213075   3.455   0.345  14.981  2.0938 -1.6322  1.7636
  888MPD2    H313076   3.631   0.483  14.876 -0.5080 -0.4670 -0.7822
  888MPD2     N13077   3.671   0.743  15.249 -0.4268  0.0387  0.1075
  888MPD2    H513078   3.629   0.778  15.334  0.9468  0.4155  0.6347
  888MPD2    N113079   3.342   0.382  15.223  0.1637 -0.8226  0.0263
  888MPD2    H713080   3.323   0.391  15.322  1.2834  1.6332  0.0196
  889MPD2     C13081   2.549   0.420  13.065  0.1480  0.1303  0.0544
  889MPD2    C113082   2.528   0.316  13.154 -0.5711 -0.7007 -0.2228
  889MPD2    C213083   2.465   0.356  13.277  0.1341  0.4366 -0.4126
  889MPD2    C313084   2.424   0.489  13.312 -0.1349 -0.2896  0.0283
  889MPD2    C413085   2.425   0.579  13.208 -0.2136  0.0805  0.8251
  889MPD2    C513086   2.483   0.536  13.092  0.3296  0.4784  0.6764
  889MPD2     H13087   2.456   0.285  13.358  0.8988 -1.1877 -1.7520
  889MPD2    H113088   2.378   0.677  13.213 -1.1609 -0.3335  0.0521
  889MPD2    H213089   2.606   0.410  12.973  0.3064  3.2432 -0.1914
  889MPD2    H313090   2.483   0.603  13.008 -1.1735 -1.5954 -0.9734
  889MPD2     N13091   2.368   0.511  13.436 -0.3837 -0.0485 -0.1307
  889MPD2    H513092   2.382   0.444  13.512  0.3234  1.1643  0.8099
  889MPD2    N113093   2.602   0.195  13.147  0.0179  0.1408 -0.3288
  889MPD2    H713094   2.578   0.131  13.222 -0.0448  1.0898  0.4729
  890MPD2     C13095   2.309   2.128  14.677 -0.7795 -0.1004  0.3443
  890MPD2    C113096   2.420   2.185  14.739 -0.3260  0.0126  0.1458
  890MPD2    C213097   2.452   2.145  14.870  0.0518  0.2684  0.6075
  890MPD2    C313098   2.371   2.056  14.938 -0.2259  0.0230  0.1374
  890MPD2    C413099   2.264   1.998  14.875 -0.3389 -0.1587 -0.1533
  890MPD2    C513100   2.234   2.041  14.750  0.0710 -0.1632  0.2426
  890MPD2     H13101   2.539   2.194  14.914  0.4444  0.4918 -0.4078
  890MPD2    H113102   2.198   1.926  14.923 -1.0780  1.4799  1.3162
  890MPD2    H213103   2.272   2.164  14.581 -0.8092 -0.3134  0.2752
  890MPD2    H313104   2.141   2.001  14.713  0.4862 -1.7437  0.8813
  890MPD2     N13105   2.407   2.013  15.066  0.4190  0.1204  0.0361
  890MPD2    H513106   2.500   2.032  15.102  0.3557 -1.3079  0.9715
  890MPD2    N113107   2.491   2.282  14.660  0.3512 -0.0736 -0.0557
  890MPD2    H713108   2.463   2.286  14.563  0.5873  1.9255 -0.0327
  891MPD2     C13109   0.602   0.911  16.694 -0.0463  0.2860  0.1817
  891MPD2    C113110   0.579   0.783  16.731  0.4589  0.1550 -0.0034
  891MPD2    C213111   0.638   0.741  16.851  0.5960  0.6809  0.0255
  891MPD2    C313112   0.714   0.821  16.933 -0.1838  0.4593  0.0921
  891MPD2    C413113   0.735   0.947  16.890 -0.4606 -0.4296  0.1937
  891MPD2    C513114   0.685   0.986  16.769  0.4108  0.0689 -0.2809
  891MPD2     H13115   0.621   0.644  16.897  2.3060  0.1437 -0.5012
  891MPD2    H113116   0.781   1.027  16.947 -0.6604  1.8619 -2.8541
  891MPD2    H213117   0.561   0.942  16.599  1.0917  0.6757 -0.1816
  891MPD2    H313118   0.700   1.090  16.745 -1.4855 -0.1235 -2.2907
  891MPD2     N13119   0.757   0.777  17.056  0.6806 -0.2962 -0.0656
  891MPD2    H513120   0.754   0.678  17.077 -0.1182 -0.5839 -1.5622
  891MPD2    N113121   0.503   0.702  16.645 -0.0812 -0.9100  0.0088
  891MPD2    H713122   0.463   0.746  16.563  0.6032  1.2212  0.8221
  892MPD2     C13123   1.544   1.754  14.998 -0.6667  0.6346  0.1094
  892MPD2    C113124   1.501   1.681  14.887 -0.8416  0.2774 -0.5356
  892MPD2    C213125   1.580   1.590  14.826 -0.9356 -0.1524 -0.0535
  892MPD2    C313126   1.704   1.572  14.879  0.2790  0.3404 -0.2000
  892MPD2    C413127   1.744   1.642  14.985  0.4085 -0.1901  0.0435
  892MPD2    C513128   1.672   1.738  15.044 -0.2609 -0.5048 -0.3294
  892MPD2     H13129   1.542   1.536  14.739  0.7279 -1.9445  0.3419
  892MPD2    H113130   1.842   1.629  15.031  0.5910  1.9383  0.2508
  892MPD2    H213131   1.479   1.819  15.055 -1.1085  1.3243 -1.2036
  892MPD2    H313132   1.717   1.796  15.123 -0.9804  0.6439 -0.7519
  892MPD2     N13133   1.801   1.470  14.836 -0.4626  0.0538  0.2924
  892MPD2    H513134   1.891   1.480  14.882  0.0824  2.3897 -1.2924
  892MPD2    N113135   1.380   1.707  14.827 -0.3728  0.6234 -0.3199
  892MPD2    H713136   1.348   1.646  14.752 -0.9687 -0.1612  0.5724
  893MPD2     C13137   2.221   0.055   1.453  0.1664  0.7236 -0.9087
  893MPD2    C113138   2.321   0.113   1.372 -0.6435 -0.5417 -0.0475
  893MPD2    C213139   2.342   0.254   1.391 -0.1615 -0.2126 -0.4895
  893MPD2    C313140   2.284   0.319   1.498  0.2777 -0.3240 -0.3155
  893MPD2    C413141   2.184   0.263   1.569  0.0322  0.2420 -0.0997
  893MPD2    C513142   2.164   0.131   1.550 -0.4158 -0.0646  0.1204
  893MPD2     H13143   2.406   0.312   1.326 -1.2789 -0.0681 -1.4515
  893MPD2    H113144   2.139   0.308   1.656  0.3760  0.2142  0.0902
  893MPD2    H213145   2.205   4.683   1.441 -0.2501  0.7322 -0.4390
  893MPD2    H313146   2.089   0.082   1.612 -0.9332  0.8047  0.1919
  893MPD2     N13147   2.313   0.453   1.539 -0.1926 -0.1983  0.3972
  893MPD2    H513148   2.267   0.482   1.626 -0.4294 -0.5249  0.3812
  893MPD2    N113149   2.385   0.029   1.271  0.0904 -0.1426 -0.4250
  893MPD2    H713150   2.348   4.669   1.269 -0.3443 -0.0375  2.4297
  894MPD2     C13151   1.158   1.794   1.447  0.4223 -0.5527 -0.5664
  894MPD2    C113152   1.093   1.915   1.454  0.1732  0.0056  0.6566
  894MPD2    C213153   1.136   2.022   1.385 -0.0408  0.4516 -0.1571
  894MPD2    C313154   1.253   2.016   1.319  0.2751  1.6150 -0.2632
  894MPD2    C413155   1.319   1.892   1.311 -0.0094  0.4184 -0.2576
  894MPD2    C513156   1.273   1.783   1.375  0.6812 -0.1846 -0.2302
  894MPD2     H13157   1.086   2.118   1.389 -0.8484 -0.0186  1.0707
  894MPD2    H113158   1.416   1.880   1.263  0.1913 -2.3379  0.8123
  894MPD2    H213159   1.125   1.708   1.504 -2.1604 -1.0635 -2.8122
  894MPD2    H313160   1.328   1.689   1.371 -2.5364 -2.0771 -0.2386
  894MPD2     N13161   1.304   2.137   1.268  0.6913  0.3977 -0.0660
  894MPD2    H513162   1.256   2.226   1.280  0.3596  0.4151 -1.4954
  894MPD2    N113163   0.976   1.922   1.533 -0.4336 -0.0726  0.2841
  894MPD2    H713164   0.911   1.998   1.518 -0.7550 -0.2519  0.7854
  895MPD2     C13165   0.404   0.376  13.729 -0.3984  0.5871 -0.1112
  895MPD2    C113166   0.338   0.445  13.628 -0.2714  0.1114  0.6553
  895MPD2    C213167   0.317   0.373  13.507 -0.0994  0.7601 -0.7178
  895MPD2    C313168   0.385   0.260  13.471  0.2772 -0.2715 -0.1490
  895MPD2    C413169   0.454   0.204  13.574 -0.0378  0.5951  0.2467
  895MPD2    C513170   0.457   0.254  13.698 -0.2157  0.0990  0.2285
  895MPD2     H13171   0.259   0.417  13.426  0.4532  2.0871 -0.3925
  895MPD2    H113172   0.508   0.112  13.559 -0.7639  0.2252 -0.0903
  895MPD2    H213173   0.417   0.418  13.828  3.8343 -1.9721  0.4429
  895MPD2    H313174   0.508   0.195  13.773 -1.0630 -2.4448 -1.1795
  895MPD2     N13175   0.386   0.214  13.337  0.5454 -0.3795 -0.4137
  895MPD2    H513176   0.305   0.243  13.284 -0.3452 -2.4225 -0.1720
  895MPD2    N113177   0.297   0.581  13.629  0.4422 -0.2457 -0.2442
  895MPD2    H713178   0.250   0.616  13.546  3.2250  3.4910 -0.2357
  896MPD2     C13179   2.605   2.108   0.861 -0.5077 -0.0005 -0.2815
  896MPD2    C113180   2.570   2.239   0.859  0.9854 -0.2473  0.1552
  896MPD2    C213181   2.444   2.286   0.822  0.1879  0.3019  0.0026
  896MPD2    C313182   2.355   2.186   0.783 -0.4496  0.6888 -0.4708
  896MPD2    C413183   2.387   2.052   0.806 -0.6124  0.2714 -0.0046
  896MPD2    C513184   2.508   2.012   0.848  0.0485 -1.0034 -0.8824
  896MPD2     H13185   2.423   2.392   0.824 -1.6418 -0.0516 -0.5806
  896MPD2    H113186   2.311   1.975   0.804  1.8090 -2.1415  1.4573
  896MPD2    H213187   2.707   2.074   0.877 -0.4306  1.2046  1.6733
  896MPD2    H313188   2.529   1.909   0.875 -0.7382 -1.2850 -1.3357
  896MPD2     N13189   2.225   2.209   0.732  0.6067  0.1737 -0.1944
  896MPD2    H513190   2.170   2.123   0.727  0.3912  0.1662  2.3023
  896MPD2    N113191   2.668   2.329   0.891  0.4568 -0.0190 -0.3017
  896MPD2    H713192   2.765   2.318   0.865 -0.0221 -2.9935 -0.8060
  897MPD2     C13193   3.882   0.521  11.129 -0.8685 -0.4019 -0.0133
  897MPD2    C113194   3.779   0.578  11.062  0.1513  0.2794  0.7918
  897MPD2    C213195   3.653   0.550  11.101 -0.0613 -0.6756 -0.1434
  897MPD2    C313196   3.620   0.451  11.191  0.1135  0.2798  0.3023
  897MPD2    C413197   3.725   0.400  11.263  0.0789 -0.3387  0.4934
  897MPD2    C513198   3.849   0.429  11.225 -0.2070  0.5999 -0.3905
  897MPD2     H13199   3.569   0.585  11.043  1.9212  0.3193 -2.3815
  897MPD2    H113200   3.707   0.327  11.341  1.3335 -2.6471 -1.3964
  897MPD2    H213201   3.983   0.525  11.090  0.3876 -3.5634  2.9454
  897MPD2    H313202   3.933   0.371  11.262 -0.0206  1.1936  0.1186
  897MPD2     N13203   3.486   0.422  11.219  0.2610 -0.1510 -0.4512
  897MPD2    H513204   3.408   0.466  11.172  0.4745  0.7016 -0.0043
  897MPD2    N113205   3.807   0.664  10.953 -1.0523 -0.1609  0.7438
  897MPD2    H713206   3.901   0.700  10.943 -1.0306 -0.5530 -0.5122
  898MPD2     C13207   0.526   1.086   0.387 -0.3540  0.5130 -0.4669
  898MPD2    C113208   0.656   1.127   0.371 -0.1228  0.2227  0.2569
  898MPD2    C213209   0.680   1.212   0.258  0.6820 -0.3592  0.4953
  898MPD2    C313210   0.582   1.239   0.162 -0.5638 -0.2935 -0.1066
  898MPD2    C413211   0.458   1.181   0.175 -0.3692  0.2678  0.5563
  898MPD2    C513212   0.434   1.110   0.287 -0.7486  0.7887  0.4295
  898MPD2     H13213   0.775   1.262   0.244  1.2395 -1.6510 -0.3292
  898MPD2    H113214   0.379   1.181   0.100  1.0776  0.6090 -0.9704
  898MPD2    H213215   0.486   1.022   0.464  0.3340 -0.5491 -0.9927
  898MPD2    H313216   0.339   1.058   0.293  0.0715 -0.7429  0.1206
  898MPD2     N13217   0.616   1.324   0.052  0.6172 -0.2275  0.1394
  898MPD2    H513218   0.714   1.350   0.045  0.8159 -0.6989  1.1847
  898MPD2    N113219   0.761   1.089   0.461  0.0820 -0.1475 -0.1210
  898MPD2    H713220   0.846   1.143   0.447 -1.1028  1.7942  0.2495
  899MPD2     C13221   2.066   1.169  17.235 -0.5216  0.3067  0.4668
  899MPD2    C113222   2.147   1.250  17.318 -0.3660  0.7014 -0.2939
  899MPD2    C213223   2.141   1.229  17.455 -0.1339  0.5480 -0.4864
  899MPD2    C313224   2.040   1.157  17.514 -0.0582  0.0328  0.0429
  899MPD2    C413225   1.963   1.080  17.431  0.8758  0.3152  0.1095
  899MPD2    C513226   1.974   1.087  17.290 -0.1984 -0.0043 -0.3365
  899MPD2     H13227   2.196   1.302  17.513  2.0114 -1.7507  0.4082
  899MPD2    H113228   1.890   1.021  17.484 -1.2545  0.5565 -2.5700
  899MPD2    H213229   2.077   1.175  17.127 -1.6542 -1.3189  0.2635
  899MPD2    H313230   1.919   1.030  17.217 -0.2166  0.7695 -0.9248
  899MPD2     N13231   2.009   1.158  17.648  0.5342  0.3984  0.9183
  899MPD2    H513232   1.916   1.126  17.674 -0.1692  1.7315  0.0633
  899MPD2    N113233   2.213   1.355  17.251  0.4181  0.2491 -0.4292
  899MPD2    H713234   2.194   1.376  17.154 -0.8848  0.4828 -0.1264
  900MPD2     C13235   1.527   2.293  12.033  0.3771 -0.3539  0.6619
  900MPD2    C113236   1.476   2.352  12.146  0.4323 -0.2249 -0.0281
  900MPD2    C213237   1.387   2.459  12.132  0.7851 -0.4156 -0.3512
  900MPD2    C313238   1.349   2.501  12.003  0.3800 -0.5481  0.2302
  900MPD2    C413239   1.387   2.436  11.888  0.7206  0.1439 -0.0962
  900MPD2    C513240   1.485   2.337  11.905  0.6548 -0.0142 -0.5423
  900MPD2     H13241   1.344   2.516  12.213 -1.7310 -0.6792 -1.5103
  900MPD2    H113242   1.365   2.465  11.786  1.8534  1.9564  0.1677
  900MPD2    H213243   1.598   2.213  12.049  0.2499 -0.0920  2.5169
  900MPD2    H313244   1.529   2.289  11.819  0.7878  0.4466 -0.7290
  900MPD2     N13245   1.254   2.608  12.003 -0.1070  0.4849  0.4781
  900MPD2    H513246   1.201   2.629  12.086 -3.0775  0.5184 -1.4283
  900MPD2    N113247   1.536   2.321  12.267  1.1986  0.2022  0.3300
  900MPD2    H713248   1.606   2.247  12.263  0.5096 -0.5121  1.6329
  901MPD2     C13249   1.281   1.542  12.848 -0.3080 -0.4554  0.1936
  901MPD2    C113250   1.366   1.525  12.745 -0.3947 -0.1937  0.1969
  901MPD2    C213251   1.434   1.637  12.696 -0.0332  0.3713 -0.1627
  901MPD2    C313252   1.400   1.763  12.738  0.3986  0.3368 -0.2573
  901MPD2    C413253   1.309   1.778  12.837 -0.3365  0.3594 -0.3835
  901MPD2    C513254   1.255   1.664  12.888  0.4466  0.1701  0.5822
  901MPD2     H13255   1.501   1.613  12.614  0.8906  0.4214  0.5731
  901MPD2    H113256   1.272   1.871  12.876 -2.2647  0.3671 -2.2108
  901MPD2    H213257   1.234   1.461  12.903  0.3655 -1.1669 -0.2859
  901MPD2    H313258   1.184   1.681  12.969 -1.5988  0.9399 -1.3800
  901MPD2     N13259   1.454   1.867  12.666  0.3869  0.5817  0.9725
  901MPD2    H513260   1.530   1.841  12.605  0.7566 -0.5148  1.9013
  901MPD2    N113261   1.401   1.395  12.705  0.0114 -0.3559 -0.0410
  901MPD2    H713262   1.334   1.323  12.731 -1.3643  1.1094  0.4897
  902MPD2     C13263   0.656   0.957  12.786 -0.8026 -0.3166 -0.6976
  902MPD2    C113264   0.632   1.032  12.676 -0.1542  0.4321  0.3588
  902MPD2    C213265   0.690   0.998  12.555  0.7005 -0.4701  0.0022
  902MPD2    C313266   0.759   0.878  12.541  0.9922  0.0886 -0.8051
  902MPD2    C413267   0.773   0.799  12.651 -0.0183 -0.2594 -0.4191
  902MPD2    C513268   0.715   0.836  12.767  0.4790 -0.3598  0.3193
  902MPD2     H13269   0.681   1.061  12.468  1.7686  0.5066  0.6022
  902MPD2    H113270   0.806   0.696  12.655  1.1802  0.0649 -1.7984
  902MPD2    H213271   0.619   0.984  12.884  1.6321  0.5590 -0.0221
  902MPD2    H313272   0.727   0.775  12.856  1.6306 -1.4691 -0.6218
  902MPD2     N13273   0.804   0.837  12.416 -0.0009  0.1998 -0.2784
  902MPD2    H513274   0.807   0.912  12.348 -0.7650  1.0763  0.6666
  902MPD2    N113275   0.567   1.151  12.701  0.5415  0.3217 -0.1791
  902MPD2    H713276   0.568   1.190  12.795 -3.6960 -0.5705  0.2322
  903MPD2     C13277   1.035   1.256  11.817 -0.0501 -0.5596  0.0965
  903MPD2    C113278   0.972   1.194  11.923  0.9384  0.2263  0.9068
  903MPD2    C213279   0.856   1.251  11.974  0.1850 -0.2517  0.5035
  903MPD2    C313280   0.800   1.360  11.910 -0.3084  0.3260  0.0803
  903MPD2    C413281   0.869   1.425  11.810  0.1247 -0.7629  0.5201
  903MPD2    C513282   0.988   1.373  11.769 -0.2382  0.2701  0.1214
  903MPD2     H13283   0.803   1.202  12.055 -1.9447  0.5866 -0.3965
  903MPD2    H113284   0.839   1.515  11.758 -0.9855 -1.3217  0.1863
  903MPD2    H213285   1.125   1.210  11.778  0.2775  0.9793 -0.9855
  903MPD2    H313286   1.041   1.427  11.692 -0.0444  1.3320  1.0017
  903MPD2     N13287   0.673   1.405  11.961 -0.4655  0.2175  0.1495
  903MPD2    H513288   0.637   1.347  12.036  0.5642 -0.2485  0.2737
  903MPD2    N113289   1.012   1.066  11.964 -0.5708 -0.5387 -0.4120
  903MPD2    H713290   1.080   1.012  11.911 -0.5946 -0.9257 -0.0374
  904MPD2     C13291   0.640   0.068  14.008 -0.5347 -0.6122 -0.7724
  904MPD2    C113292   0.607   0.137  14.125  0.1405  0.3224  0.2562
  904MPD2    C213293   0.702   0.147  14.226 -0.1269  0.2229 -0.3432
  904MPD2    C313294   0.824   0.087  14.215 -0.5538  0.2064 -0.0381
  904MPD2    C413295   0.859   0.020  14.100  0.1651 -0.0553 -0.6103
  904MPD2    C513296   0.767   0.018  13.996 -0.4561  0.6831  0.0333
  904MPD2     H13297   0.668   0.191  14.319  0.1626 -2.2764  0.9260
  904MPD2    H113298   0.958   4.715  14.079 -0.1250 -2.8005  3.2619
  904MPD2    H213299   0.568   0.048  13.928 -1.4970  1.1339 -0.3568
  904MPD2    H313300   0.784   4.687  13.912 -0.3699 -1.4648  1.7326
  904MPD2     N13301   0.912   0.101  14.326  0.2862  0.4386  0.4116
  904MPD2    H513302   0.877   0.150  14.408 -1.8971  0.6598 -0.6667
  904MPD2    N113303   0.470   0.161  14.160 -0.3855  0.0506 -0.3192
  904MPD2    H713304   0.443   0.194  14.252  1.5957  1.7428 -0.3379
  905MPD2     C13305   4.630   0.359  13.598  0.9263 -0.6689  0.2690
  905MPD2    C113306   0.001   0.282  13.646 -0.5146  0.1200  0.5914
  905MPD2    C213307   0.056   0.183  13.570  0.2854  0.3195  0.3154
  905MPD2    C313308   0.007   0.156  13.439 -0.0337  0.4710 -0.1236
  905MPD2    C413309   4.632   0.223  13.395  0.2091 -0.4297 -0.1207
  905MPD2    C513310   4.581   0.325  13.472  0.4722  0.2669 -0.7103
  905MPD2     H13311   0.146   0.130  13.601  0.6066  0.5156 -0.2945
  905MPD2    H113312   4.611   0.216  13.289  0.7329  0.5611 -0.2849
  905MPD2    H213313   4.587   0.446  13.646 -1.0236 -0.3916 -1.9925
  905MPD2    H313314   4.494   0.375  13.431 -2.4279 -2.8631  1.6320
  905MPD2     N13315   0.077   0.058  13.361 -0.3083  0.6029 -0.1086
  905MPD2    H513316   0.134   4.721  13.406 -0.1094 -0.2460 -1.7008
  905MPD2    N113317   0.067   0.308  13.773  0.1771 -0.6126  0.2034
  905MPD2    H713318   0.153   0.262  13.799 -0.4716 -1.8992  0.0697
  906MPD2     C13319   2.006   0.416  10.944 -0.8613 -0.2728 -0.4997
  906MPD2    C113320   2.138   0.377  10.946 -0.4187  0.2777  0.5515
  906MPD2    C213321   2.174   0.259  11.018 -0.0753 -0.5730 -0.6861
  906MPD2    C313322   2.084   0.197  11.091  0.7330 -0.1270 -0.1045
  906MPD2    C413323   1.950   0.242  11.089  0.0644 -0.6614  0.1490
  906MPD2    C513324   1.914   0.352  11.016  0.5810  0.3568  0.1304
  906MPD2     H13325   2.276   0.222  11.017 -0.0983 -0.6589  0.0449
  906MPD2    H113326   1.875   0.189  11.147 -2.3152  3.0105  0.4508
  906MPD2    H213327   1.962   0.485  10.872  0.5885 -1.7465 -2.7837
  906MPD2    H313328   1.814   0.392  11.023  0.7227  0.3037  2.3384
  906MPD2     N13329   2.108   0.080  11.155  0.2524  0.1812  0.3001
  906MPD2    H513330   2.031   0.044  11.211 -0.4201  0.4551 -0.4461
  906MPD2    N113331   2.227   0.424  10.854 -0.3484  0.2098 -0.3885
  906MPD2    H713332   2.309   0.366  10.841 -0.3745  0.6545 -2.4579
  907MPD2     C13333   1.472   3.839  15.434 -0.0954 -0.7567 -0.5335
  907MPD2    C113334   1.473   3.709  15.380 -0.0019 -0.0355  0.1093
  907MPD2    C213335   1.534   3.612  15.461 -0.9042  0.2700  0.2830
  907MPD2    C313336   1.583   3.640  15.593  0.1492  0.3727 -0.0494
  907MPD2    C413337   1.575   3.771  15.633 -0.0628  0.0393  0.0096
  907MPD2    C513338   1.526   3.875  15.550 -0.3915 -0.1438  0.1560
  907MPD2     H13339   1.559   3.517  15.416 -1.5056  1.0352 -1.6793
  907MPD2    H113340   1.604   3.806  15.731  0.9298 -0.8286  0.0263
  907MPD2    H213341   1.420   3.919  15.382  1.2675  0.9345  0.7008
  907MPD2    H313342   1.522   3.979  15.579  0.9540  0.1309 -0.6188
  907MPD2     N13343   1.630   3.540  15.675 -0.6347  0.0580 -0.2296
  907MPD2    H513344   1.610   3.446  15.643  2.2560 -0.9417  0.9237
  907MPD2    N113345   1.422   3.671  15.252 -0.0912 -0.6208 -0.4465
  907MPD2    H713346   1.442   3.574  15.227 -0.2283 -1.5007  2.7603
  908MPD2     C13347   3.589   0.637   9.973  0.2409  0.1741 -1.0132
  908MPD2    C113348   3.592   0.536  10.071 -0.3495  0.0256 -0.0622
  908MPD2    C213349   3.652   0.558  10.190 -0.1235 -0.8502  0.3784
  908MPD2    C313350   3.707   0.679  10.219 -0.7227 -0.4605 -0.5459
  908MPD2    C413351   3.710   0.777  10.126 -0.1447  0.2928  0.0733
  908MPD2    C513352   3.658   0.757  10.001  0.2974 -0.5932  0.2839
  908MPD2     H13353   3.665   0.482  10.266  0.3850  0.4080  1.5524
  908MPD2    H113354   3.744   0.878  10.143  0.0011 -0.0400  1.8143
  908MPD2    H213355   3.539   0.635   9.877  0.5859 -0.9837 -1.1710
  908MPD2    H313356   3.646   0.847   9.942 -2.5533  1.2764  3.7557
  908MPD2     N13357   3.764   0.686  10.343 -0.1474  0.2765  0.0624
  908MPD2    H513358   3.742   0.607  10.403  3.1298 -0.1310  0.7365
  908MPD2    N113359   3.533   0.413  10.030 -1.3102 -0.8546 -0.4855
  908MPD2    H713360   3.513   0.412   9.930  0.4887 -2.1431 -0.8268
  909MPD2     C13361   3.648   2.902  11.869  0.1887 -0.0930  0.0859
  909MPD2    C113362   3.746   3.001  11.899 -0.2594  1.0486 -0.4585
  909MPD2    C213363   3.734   3.080  12.011 -0.8337 -0.1790  0.2177
  909MPD2    C313364   3.624   3.064  12.094 -0.2188  0.2348 -0.4623
  909MPD2    C413365   3.528   2.970  12.068 -0.5170 -0.0452 -0.1000
  909MPD2    C513366   3.539   2.897  11.953 -0.6026  0.0951 -0.2061
  909MPD2     H13367   3.811   3.150  12.040 -0.0864 -1.1937  0.7126
  909MPD2    H113368   3.439   2.951  12.126  1.0993  0.8051  2.6736
  909MPD2    H213369   3.652   2.837  11.782 -0.1896  0.7121 -0.5375
  909MPD2    H313370   3.464   2.819  11.940  0.2761 -0.7882 -0.0070
  909MPD2     N13371   3.616   3.155  12.204  0.2232 -0.3290  0.5291
  909MPD2    H513372   3.681   3.232  12.205 -0.5911  0.3633  0.6047
  909MPD2    N113373   3.856   3.021  11.817 -0.1279  0.2364  0.0867
  909MPD2    H713374   3.917   3.100  11.837 -0.1324  0.3939 -0.5215
  910MPD2     C13375   1.204   4.219  15.816 -1.2217 -0.3584 -0.2344
  910MPD2    C113376   1.128   4.123  15.753 -0.0530  0.2862  0.1230
  910MPD2    C213377   1.048   4.154  15.647  0.3132 -0.8531  0.5867
  910MPD2    C313378   1.042   4.285  15.605 -0.6974 -0.3550  0.0456
  910MPD2    C413379   1.124   4.381  15.667  0.1592  0.7147 -0.2504
  910MPD2    C513380   1.205   4.348  15.775  0.7521  0.2425 -0.5760
  910MPD2     H13381   0.982   4.085  15.596  1.0477 -0.8055 -0.4271
  910MPD2    H113382   1.136   4.483  15.631  0.0648 -0.1325 -2.6708
  910MPD2    H213383   1.278   4.179  15.885 -2.0112  1.5090  1.7039
  910MPD2    H313384   1.264   4.425  15.824 -2.1259  1.2625  1.2751
  910MPD2     N13385   0.968   4.338  15.497 -0.0743  0.6040  0.0039
  910MPD2    H513386   0.976   4.438  15.487 -2.3647  0.6827 -1.0136
  910MPD2    N113387   1.140   3.987  15.777  0.0275 -0.2319  0.3558
  910MPD2    H713388   1.100   3.927  15.705 -0.0457  1.2990 -0.8968
  911MPD2     C13389   3.652   4.370  16.227  0.9862 -0.0329 -0.0336
  911MPD2    C113390   3.726   4.487  16.244 -0.3676 -0.4169 -0.7720
  911MPD2    C213391   3.675   4.606  16.211 -0.1352  0.4711  0.1224
  911MPD2    C313392   3.544   4.615  16.177 -0.1871 -0.5033  0.7317
  911MPD2    C413393   3.474   4.499  16.170  0.4340 -0.4761  0.0942
  911MPD2    C513394   3.528   4.374  16.182 -0.3863  0.4805 -0.0536
  911MPD2     H13395   3.735   4.696  16.207 -1.1010  0.9874 -2.7114
  911MPD2    H113396   3.376   4.501  16.124  0.1327  2.2562  0.8218
  911MPD2    H213397   3.718   4.284  16.220  1.3480  0.1277  1.3432
  911MPD2    H313398   3.481   4.284  16.143 -0.4868 -0.0496  1.2850
  911MPD2     N13399   3.476   0.003  16.140  0.2420  0.3740 -0.7472
  911MPD2    H513400   3.378   0.001  16.114  0.4807  0.1057 -1.6371
  911MPD2    N113401   3.861   4.469  16.273 -0.0191  0.3763 -0.4226
  911MPD2    H713402   3.890   4.372  16.267  0.1458  0.5059 -1.5876
  912MPD2     C13403   2.930   0.068  15.631 -0.1140  0.0692  0.0448
  912MPD2    C113404   2.997   0.026  15.739 -0.1604  0.0534  0.5657
  912MPD2    C213405   2.963   4.636  15.788  0.4535 -0.1859 -0.1293
  912MPD2    C313406   2.885   4.550  15.713  0.2829  0.3190 -0.4940
  912MPD2    C413407   2.822   4.591  15.600 -0.2934  0.1727  0.0459
  912MPD2    C513408   2.854   4.716  15.558  0.4090 -0.0145  0.6369
  912MPD2     H13409   2.991   4.606  15.889 -0.5707  0.4756  0.3522
  912MPD2    H113410   2.754   4.529  15.542 -1.9095  2.4612 -0.4911
  912MPD2    H213411   2.930   0.175  15.613 -0.2969  0.0392 -0.1357
  912MPD2    H313412   2.799   0.019  15.473 -0.6353 -1.2617  0.7572
  912MPD2     N13413   2.849   4.426  15.776  0.8009 -0.0368 -0.1665
  912MPD2    H513414   2.900   4.419  15.863 -1.2272  1.7442  1.1513
  912MPD2    N113415   3.084   0.118  15.796 -0.1944 -0.1024 -0.0495
  912MPD2    H713416   3.101   0.206  15.748  1.8358 -0.7464 -0.5239
  913MPD2     C13417   3.392   1.546  10.607 -0.0664  0.0430 -0.0902
  913MPD2    C113418   3.490   1.605  10.678  0.0185 -0.2046 -0.3716
  913MPD2    C213419   3.597   1.668  10.607  0.4091 -0.1890  0.3295
  913MPD2    C313420   3.595   1.677  10.468  0.2681  0.2703  0.1266
  913MPD2    C413421   3.490   1.616  10.401 -0.1371  0.0933 -0.4620
  913MPD2    C513422   3.396   1.547  10.468  0.3391 -0.3222  0.0709
  913MPD2     H13423   3.682   1.708  10.661  0.1405  1.2100 -0.2777
  913MPD2    H113424   3.469   1.633  10.296  2.4748 -0.0876 -0.9924
  913MPD2    H213425   3.308   1.499  10.657  1.8837 -1.8668  1.4064
  913MPD2    H313426   3.309   1.514  10.413 -0.4970  2.0657 -0.0391
  913MPD2     N13427   3.688   1.750  10.387  0.1901 -0.0993 -0.7104
  913MPD2    H513428   3.675   1.762  10.287 -0.1201  1.4135 -0.4876
  913MPD2    N113429   3.481   1.606  10.818  0.0499  0.1659  0.8790
  913MPD2    H713430   3.415   1.540  10.857  0.3991 -0.2403  0.7919
  914MPD2     C13431   1.777   1.058  11.854 -0.5869  0.0655 -0.2259
  914MPD2    C113432   1.714   1.168  11.906 -0.5551 -0.6984 -0.9084
  914MPD2    C213433   1.683   1.173  12.041  0.5363 -0.0882  0.3066
  914MPD2    C313434   1.709   1.068  12.134 -0.1123  0.6374  0.3872
  914MPD2    C413435   1.775   0.962  12.086  0.0722  0.5898  0.0523
  914MPD2    C513436   1.806   0.960  11.946 -0.8992 -0.3445  0.0123
  914MPD2     H13437   1.628   1.259  12.078  1.3155  1.5826 -2.3466
  914MPD2    H113438   1.799   0.881  12.154  3.1448  0.9086 -0.6881
  914MPD2    H213439   1.822   1.051  11.755 -0.4373  0.4792 -0.1889
  914MPD2    H313440   1.856   0.872  11.908 -0.4378  0.0780 -0.3535
  914MPD2     N13441   1.652   1.084  12.260  0.5260  0.2087  0.8042
  914MPD2    H513442   1.581   1.156  12.259 -1.1890 -1.5049 -0.5901
  914MPD2    N113443   1.692   1.285  11.829 -0.2244  0.1247  0.0492
  914MPD2    H713444   1.649   1.368  11.868 -1.0713  0.1950 -1.0396
  915MPD2     C13445   0.035   1.219  15.923  0.4131  0.7755 -0.4011
  915MPD2    C113446   4.636   1.206  15.905  0.5337 -0.6421 -0.0082
  915MPD2    C213447   4.543   1.309  15.942 -0.0419 -0.3024  0.4566
  915MPD2    C313448   4.591   1.434  15.974 -0.3432 -0.3568  0.1829
  915MPD2    C413449   4.732   1.453  15.983  0.2246 -0.0544  0.3485
  915MPD2    C513450   0.079   1.344  15.965 -0.7394 -0.0364 -0.5118
  915MPD2     H13451   4.436   1.295  15.937 -0.1957  0.6948  1.0657
  915MPD2    H113452   0.037   1.549  16.014  1.6479 -1.1232  1.8205
  915MPD2    H213453   0.106   1.144  15.891 -0.1833 -0.1549  0.4430
  915MPD2    H313454   0.185   1.365  15.956 -0.6411 -0.4385 -0.2663
  915MPD2     N13455   4.493   1.529  16.014 -0.1640 -0.1147  0.1741
  915MPD2    H513456   4.399   1.494  16.025 -1.1608  2.5569  0.2227
  915MPD2    N113457   4.600   1.076  15.855 -0.6635 -0.5222  0.3707
  915MPD2    H713458   4.679   1.016  15.833 -0.2961 -1.1895  3.4531
  916MPD2     C13459   2.387   0.049  15.798 -0.8742 -1.0300 -0.0241
  916MPD2    C113460   2.316   4.665  15.779 -0.9169 -0.0869  0.2087
  916MPD2    C213461   2.344   4.582  15.667  0.3398 -0.4611 -0.2397
  916MPD2    C313462   2.433   4.620  15.569 -0.2396 -0.6582 -0.0186
  916MPD2    C413463   2.510   0.006  15.588 -0.2143  0.6854  0.3408
  916MPD2    C513464   2.485   0.080  15.702 -0.7291  0.0450  0.6666
  916MPD2     H13465   2.289   4.490  15.651 -1.3344  0.2796  1.2475
  916MPD2    H113466   2.589   0.048  15.528  0.2904 -1.6859 -0.6615
  916MPD2    H213467   2.380   0.119  15.880  0.7406 -0.6306 -0.2285
  916MPD2    H313468   2.544   0.171  15.711 -2.9524  1.2784  2.5952
  916MPD2     N13469   2.448   4.544  15.454 -0.4013  0.1911 -0.4382
  916MPD2    H513470   2.387   4.465  15.439 -0.3467 -0.2205  1.4974
  916MPD2    N113471   2.221   4.642  15.881 -0.9957  0.4114 -0.1880
  916MPD2    H713472   2.224   4.694  15.968 -0.9907 -2.9589  1.8368
  917MPD2     C13473   2.651   2.096  11.208 -0.6666 -0.1650  0.3504
  917MPD2    C113474   2.658   2.166  11.333 -0.7894 -1.1616  0.1022
  917MPD2    C213475   2.660   2.305  11.326  0.2024  0.7614 -0.1241
  917MPD2    C313476   2.632   2.374  11.206 -0.5386  0.0144 -0.1813
  917MPD2    C413477   2.629   2.305  11.092 -0.0539 -0.6029 -0.9833
  917MPD2    C513478   2.635   2.174  11.091 -0.3726 -0.1281  0.2184
  917MPD2     H13479   2.672   2.361  11.418 -0.9606 -1.6446  1.4968
  917MPD2    H113480   2.612   2.353  10.996  0.3914  0.4295 -0.5462
  917MPD2    H213481   2.653   1.988  11.204 -0.2088 -0.0220 -3.1666
  917MPD2    H313482   2.613   2.121  10.999 -0.1179  0.4362 -0.1712
  917MPD2     N13483   2.632   2.517  11.208 -0.3455  0.3651  0.1298
  917MPD2    H513484   2.611   2.558  11.117 -0.6677 -0.1091 -0.0102
  917MPD2    N113485   2.643   2.096  11.461  0.1322 -0.3378  0.1522
  917MPD2    H713486   2.644   1.995  11.463  3.1062 -0.3140  0.9204
  918MPD2     C13487   2.520   2.579  12.326  0.0509 -1.1703 -0.0023
  918MPD2    C113488   2.628   2.559  12.247 -0.7969 -0.6734 -0.3736
  918MPD2    C213489   2.624   2.461  12.154 -0.3472  0.6804 -0.4561
  918MPD2    C313490   2.526   2.367  12.150 -0.1648  1.0384 -0.0401
  918MPD2    C413491   2.413   2.385  12.232 -0.3214 -0.7316  0.1182
  918MPD2    C513492   2.410   2.494  12.317 -0.0076  0.3955 -0.6987
  918MPD2     H13493   2.714   2.443  12.097 -0.0606  1.6638 -0.3250
  918MPD2    H113494   2.330   2.316  12.237 -1.4280  0.5736 -0.2218
  918MPD2    H213495   2.532   2.658  12.400  0.9003 -0.4455 -0.9281
  918MPD2    H313496   2.323   2.506  12.380 -0.8181  0.7173 -1.8836
  918MPD2     N13497   2.525   2.263  12.049 -0.6989 -0.0423 -0.2532
  918MPD2    H513498   2.612   2.264  11.996 -0.8868  1.4967 -0.5404
  918MPD2    N113499   2.741   2.638  12.267  0.2175 -0.3161  0.0685
  918MPD2    H713500   2.809   2.631  12.192 -0.8553  0.1699 -0.9452
  919MPD2     C13501   3.563   1.437  11.641 -0.3012  0.4364 -0.2749
  919MPD2    C113502   3.457   1.356  11.592  0.1135 -0.9323 -0.3283
  919MPD2    C213503   3.367   1.418  11.507 -0.1640 -0.7238  0.6399
  919MPD2    C313504   3.366   1.550  11.468 -0.1499 -0.1019 -0.0522
  919MPD2    C413505   3.466   1.627  11.524 -0.7193 -0.6264 -0.1501
  919MPD2    C513506   3.564   1.574  11.608 -0.4719  0.1551 -0.2993
  919MPD2     H13507   3.292   1.343  11.483 -0.6962  0.1483 -0.4220
  919MPD2    H113508   3.468   1.732  11.496 -2.9065 -0.4541  0.3522
  919MPD2    H213509   3.642   1.401  11.707 -0.2923 -0.5096 -0.8045
  919MPD2    H313510   3.645   1.636  11.644  0.8085 -1.1731 -0.8981
  919MPD2     N13511   3.274   1.613  11.381  0.7204  0.2761 -0.3602
  919MPD2    H513512   3.295   1.701  11.336 -0.5890  0.5141 -0.4793
  919MPD2    N113513   3.444   1.220  11.623 -0.3244 -0.0035  0.4807
  919MPD2    H713514   3.356   1.178  11.595  0.1187 -0.2111 -0.5903
  920MPD2     C13515   3.293   2.222  10.627  0.4171  0.0421 -1.1239
  920MPD2    C113516   3.159   2.187  10.634 -0.1939 -0.0048 -0.6682
  920MPD2    C213517   3.119   2.085  10.711 -0.5388  0.1568 -0.4939
  920MPD2    C313518   3.204   2.025  10.804 -0.5312  0.1773 -0.2677
  920MPD2    C413519   3.338   2.066  10.807  0.2077  0.4607 -0.0571
  920MPD2    C513520   3.384   2.159  10.718  0.1633 -0.1828 -0.0351
  920MPD2     H13521   3.015   2.056  10.703 -1.2032  1.6709  2.3754
  920MPD2    H113522   3.411   2.017  10.869 -0.6776 -2.3630 -1.2300
  920MPD2    H213523   3.333   2.277  10.543  2.0510  0.6796  0.0623
  920MPD2    H313524   3.490   2.179  10.706 -0.6317  3.9960 -0.1484
  920MPD2     N13525   3.152   1.921  10.885  0.4060 -0.3467  0.0669
  920MPD2    H513526   3.055   1.896  10.873  0.2150 -1.5417  3.9360
  920MPD2    N113527   3.056   2.243  10.552  0.1799  0.0159  0.1635
  920MPD2    H713528   2.962   2.208  10.567  0.4932 -1.2350 -0.8381
  921MPD2     C13529   4.556   0.309  16.739  0.1634 -0.3843  0.0492
  921MPD2    C113530   4.633   0.269  16.639 -0.5185  0.6664 -0.3924
  921MPD2    C213531   4.566   0.175  16.555  0.3047 -0.6661 -0.4828
  921MPD2    C313532   4.432   0.134  16.578 -0.2292 -0.3316  0.1803
  921MPD2    C413533   4.359   0.183  16.685 -1.0838  0.6197 -0.1356
  921MPD2    C513534   4.426   0.268  16.769  0.3956 -0.1064 -0.0174
  921MPD2     H13535   4.611   0.126  16.469 -2.3712 -0.6597 -1.8723
  921MPD2    H113536   4.253   0.165  16.695 -0.5990 -2.8900 -1.3389
  921MPD2    H213537   4.596   0.365  16.823  1.2448 -1.0660 -0.0143
  921MPD2    H313538   4.390   0.300  16.866 -1.1123  0.7597 -0.8674
  921MPD2     N13539   4.363   0.040  16.498  0.2042  0.5055  0.3938
  921MPD2    H513540   4.278   0.000  16.538 -0.0878  1.0998  0.3628
  921MPD2    N113541   0.031   0.315  16.621 -0.7683 -0.0062 -0.0546
  921MPD2    H713542   0.068   0.377  16.693  0.7121 -2.2160  1.1221
  922MPD2     C13543   0.356   3.739  17.440 -0.0609  0.0889  0.1231
  922MPD2    C113544   0.339   3.666  17.555 -0.6449  0.0023  0.2017
  922MPD2    C213545   0.341   3.533  17.548 -0.7109  0.0402  0.4114
  922MPD2    C313546   0.345   3.469  17.427  0.1180 -0.1000  0.3169
  922MPD2    C413547   0.362   3.543  17.310 -0.4205  0.1506 -0.1207
  922MPD2    C513548   0.376   3.677  17.320 -0.1642 -0.3159 -0.1327
  922MPD2     H13549   0.321   3.472  17.635  1.9577  0.6716  1.4452
  922MPD2    H113550   0.365   3.506  17.209 -0.3779  0.3677 -0.1982
  922MPD2    H213551   0.348   3.847  17.434  1.6208  0.2361  0.3342
  922MPD2    H313552   0.395   3.730  17.227 -1.9077  2.0591  0.8837
  922MPD2     N13553   0.344   3.325  17.416 -0.0648 -0.0522 -0.4094
  922MPD2    H513554   0.367   3.279  17.503 -1.0943 -0.5398 -0.4009
  922MPD2    N113555   0.304   3.710  17.683  0.3009  0.1991  0.1219
  922MPD2    H713556   0.295   3.638   0.017 -0.7338 -0.2044 -0.4299
  923MPD2     C13557   1.714   0.010   9.306 -0.1434 -0.9661  0.5583
  923MPD2    C113558   1.687   0.130   9.373  0.1570  0.2025  0.3960
  923MPD2    C213559   1.782   0.176   9.464 -0.7206  0.0021  0.4181
  923MPD2    C313560   1.903   0.113   9.485 -0.6451  0.9151 -0.3242
  923MPD2    C413561   1.925   4.730   9.424  0.0666 -0.1007 -0.0944
  923MPD2    C513562   1.835   4.687   9.332  0.7023  0.6810 -0.5295
  923MPD2     H13563   1.762   0.266   9.520 -2.0299  1.2447 -2.0102
  923MPD2    H113564   2.010   4.664   9.441  0.9451  0.4380 -2.3199
  923MPD2    H213565   1.645   4.702   9.233  0.1240 -0.2842 -0.0957
  923MPD2    H313566   1.865   4.601   9.272  0.9179  0.7901 -0.5767
  923MPD2     N13567   2.004   0.159   9.576  0.2421 -0.2403  0.2217
  923MPD2    H513568   2.087   0.102   9.589 -0.5341 -0.9942  1.7844
  923MPD2    N113569   1.571   0.205   9.343  0.4903 -0.6518 -0.0204
  923MPD2    H713570   1.520   0.186   9.257 -0.1069  2.6720 -0.4201
  924MPD2     C13571   1.934   2.814  15.441  0.2992 -0.3704 -0.3961
  924MPD2    C113572   1.858   2.791  15.554 -0.2819 -0.5460  0.0288
  924MPD2    C213573   1.870   2.880  15.658  0.0126 -0.0406  0.2535
  924MPD2    C313574   1.935   3.003  15.631 -0.3110  0.3905  0.5865
  924MPD2    C413575   2.014   3.018  15.522 -0.2614  0.4152  0.0739
  924MPD2    C513576   2.017   2.918  15.427  0.9818 -0.2387 -0.4538
  924MPD2     H13577   1.805   2.859  15.743 -1.6345  1.2629 -0.6945
  924MPD2    H113578   2.068   3.110  15.504  0.6374 -0.5225 -1.9591
  924MPD2    H213579   1.940   2.741  15.361 -2.1605 -2.0345  0.9217
  924MPD2    H313580   2.076   2.932  15.338  0.4198  0.9050 -0.6365
  924MPD2     N13581   1.932   3.118  15.714  0.0677  0.6710  0.2076
  924MPD2    H513582   1.976   3.201  15.677  0.6985 -0.9909 -2.8399
  924MPD2    N113583   1.761   2.685  15.559 -1.0607 -0.5108 -0.8997
  924MPD2    H713584   1.724   2.646  15.472  1.4791 -1.2363 -1.6438
  925MPD2     C13585   0.977   0.985  14.536  0.5702  0.2243 -0.3180
  925MPD2    C113586   0.839   0.974  14.545 -0.1604 -0.1304  0.2442
  925MPD2    C213587   0.794   0.973  14.676  0.1628 -0.2417 -0.3158
  925MPD2    C313588   0.875   0.967  14.789  0.4254  0.2824  1.1581
  925MPD2    C413589   1.012   0.980  14.772 -0.5912  0.1290  0.6415
  925MPD2    C513590   1.061   0.994  14.644  0.0613 -0.3274 -0.4949
  925MPD2     H13591   0.688   0.956  14.687  0.0632  0.7630  0.3004
  925MPD2    H113592   1.076   0.956  14.856  2.4143  3.2964 -0.7575
  925MPD2    H213593   1.027   1.000  14.441  0.9440 -0.8552 -0.2856
  925MPD2    H313594   1.166   0.993  14.620 -0.1282 -1.0425 -1.2786
  925MPD2     N13595   0.817   0.938  14.916  0.4371 -0.1387 -0.0953
  925MPD2    H513596   0.884   0.941  14.992 -1.7681 -1.2567  1.9185
  925MPD2    N113597   0.748   0.964  14.433 -0.4012 -0.1854 -0.4362
  925MPD2    H713598   0.651   0.939  14.453 -0.4511 -0.0002 -0.4507
  926MPD2     C13599   3.983   4.289  13.601 -0.7983  0.0304  0.1791
  926MPD2    C113600   3.900   4.352  13.513  0.1727 -0.1565 -0.3415
  926MPD2    C213601   3.946   4.399  13.397 -0.1194 -0.0347 -0.1998
  926MPD2    C313602   4.082   4.386  13.363 -0.1476 -0.1973 -0.3928
  926MPD2    C413603   4.160   4.321  13.455  0.1920 -0.2818 -0.4295
  926MPD2    C513604   4.114   4.281  13.572  0.0008  0.1825  0.3382
  926MPD2     H13605   3.862   4.435  13.339 -0.6312  0.4581  0.8498
  926MPD2    H113606   4.262   4.301  13.425 -0.5639 -5.3972  0.2796
  926MPD2    H213607   3.959   4.255  13.701 -1.9356 -1.2922 -0.5531
  926MPD2    H313608   4.167   4.213  13.637  1.6526  0.9796 -0.1680
  926MPD2     N13609   4.137   4.436  13.236 -0.3583  0.0571 -0.5816
  926MPD2    H513610   4.234   4.414  13.217 -0.1578 -1.2378  1.8930
  926MPD2    N113611   3.764   4.381  13.540 -0.2945 -0.3024  0.1068
  926MPD2    H713612   3.720   4.433  13.465  0.1136 -1.3004 -0.8199
  927MPD2     C13613   3.862   0.990  17.468 -0.6357  0.0707  0.4014
  927MPD2    C113614   3.841   1.128  17.467  0.7274  0.0074 -0.2002
  927MPD2    C213615   3.873   1.198  17.348  0.6843 -0.5640 -0.1903
  927MPD2    C313616   3.942   1.128  17.248 -0.2405 -0.3774 -0.2053
  927MPD2    C413617   3.979   0.996  17.259  0.0531  0.6629 -0.5015
  927MPD2    C513618   3.935   0.921  17.370  0.0775  0.6820 -0.1496
  927MPD2     H13619   3.847   1.302  17.334 -0.7925 -1.1077 -1.4264
  927MPD2    H113620   4.047   0.947  17.191  2.6082  0.8637  1.8989
  927MPD2    H213621   3.804   0.932  17.540  1.0591  0.1790  1.8476
  927MPD2    H313622   3.953   0.815  17.381  1.1345  0.8175 -0.6009
  927MPD2     N13623   3.974   1.208  17.138 -0.0869  0.0196 -0.5758
  927MPD2    H513624   3.958   1.308  17.146 -0.3192 -0.3674  3.7623
  927MPD2    N113625   3.775   1.182  17.589  0.3664 -0.5203 -0.1209
  927MPD2    H713626   3.743   1.112  17.655 -1.2227  0.0336 -0.3199
  928MPD2     C13627   0.929   0.648   0.755  0.1750  0.7108  0.4358
  928MPD2    C113628   1.040   0.661   0.835 -0.4553  0.0817  0.8001
  928MPD2    C213629   1.165   0.653   0.770 -0.7363  0.0642 -0.1478
  928MPD2    C313630   1.178   0.626   0.633 -0.2256  0.0234  1.2310
  928MPD2    C413631   1.062   0.616   0.554 -1.0455 -0.2685 -0.1996
  928MPD2    C513632   0.938   0.638   0.619 -0.4558  0.2780  0.6759
  928MPD2     H13633   1.256   0.661   0.829 -0.5251  0.6788 -0.5622
  928MPD2    H113634   1.064   0.600   0.446 -0.7371 -3.6922  0.3087
  928MPD2    H213635   0.833   0.642   0.804 -0.2465 -2.8102 -0.8059
  928MPD2    H313636   0.857   0.627   0.547  0.4646 -0.7570 -0.2050
  928MPD2     N13637   1.301   0.612   0.560  0.8095 -0.3659  0.3611
  928MPD2    H513638   1.293   0.592   0.461 -0.0880 -0.6941  0.5023
  928MPD2    N113639   1.016   0.655   0.979  0.0117 -0.8836  0.0010
  928MPD2    H713640   0.918   0.657   1.005 -0.3320 -0.1488 -1.3459
  929MPD2     C13641   1.898   0.180  10.708  0.3542  0.6076 -0.1422
  929MPD2    C113642   1.777   0.111  10.724 -0.0409  0.7587  0.2304
  929MPD2    C213643   1.673   0.143  10.635  0.1171 -0.4456  0.6322
  929MPD2    C313644   1.689   0.238  10.534  0.3543  0.2070  0.5101
  929MPD2    C413645   1.805   0.302  10.524 -0.3593 -0.3073  0.2409
  929MPD2    C513646   1.911   0.273  10.608  1.1594 -0.4874 -0.7049
  929MPD2     H13647   1.572   0.107  10.651 -1.1696  1.2099 -3.7683
  929MPD2    H113648   1.816   0.377  10.446 -1.8168 -0.7516 -0.3984
  929MPD2    H213649   1.970   0.182  10.789  1.4014  0.6195 -1.0651
  929MPD2    H313650   1.999   0.335  10.595  0.4539  0.1375 -2.5632
  929MPD2     N13651   1.589   0.285  10.454 -0.4956 -0.2422  0.1803
  929MPD2    H513652   1.609   0.377  10.415  1.4026 -0.0124  1.7010
  929MPD2    N113653   1.759   0.030  10.839 -0.4058 -0.0820 -0.4367
  929MPD2    H713654   1.844   0.021  10.893 -0.4134 -2.3148 -0.8066
  930MPD2     C13655   4.002   1.674  14.425 -0.1427 -0.6460  0.0558
  930MPD2    C113656   3.882   1.730  14.403 -0.5876  0.0092 -0.9551
  930MPD2    C213657   3.800   1.689  14.301 -0.7089  0.4453 -0.2160
  930MPD2    C313658   3.839   1.589  14.215  0.3535  0.1752 -0.7359
  930MPD2    C413659   3.962   1.526  14.238 -0.6192  0.1016  0.1505
  930MPD2    C513660   4.034   1.565  14.349  0.2299 -0.1165 -0.7067
  930MPD2     H13661   3.720   1.759  14.276 -0.0160  1.2630 -0.1335
  930MPD2    H113662   4.003   1.462  14.160  0.2643 -0.6916  1.2639
  930MPD2    H213663   4.071   1.699  14.504 -0.7076 -2.4475  1.1236
  930MPD2    H313664   4.128   1.515  14.367 -0.5599 -0.3666  2.7005
  930MPD2     N13665   3.785   1.554  14.093  0.0301  0.0533 -0.0416
  930MPD2    H513666   3.840   1.481  14.049 -0.5872  0.1406 -0.9679
  930MPD2    N113667   3.843   1.842  14.480  0.2908  0.1920  0.1093
  930MPD2    H713668   3.755   1.882  14.450 -0.2269 -0.8007  0.3026
  931MPD2     C13669   3.588   0.787   0.285  0.2545 -0.4123  0.7574
  931MPD2    C113670   3.577   0.913   0.356 -0.0832  0.5154  1.2261
  931MPD2    C213671   3.545   0.916   0.489 -0.0184  0.6104 -0.6852
  931MPD2    C313672   3.543   0.799   0.563 -0.5632 -0.4764  0.2391
  931MPD2    C413673   3.549   0.679   0.489 -0.2729  0.6060 -0.3212
  931MPD2    C513674   3.563   0.669   0.356  0.4566  0.1160 -0.2355
  931MPD2     H13675   3.555   1.012   0.539 -0.5626 -0.8391  2.2162
  931MPD2    H113676   3.532   0.582   0.534  1.6460  0.5530  0.3034
  931MPD2    H213677   3.615   0.774   0.181 -1.6007  3.6331 -0.2295
  931MPD2    H313678   3.558   0.567   0.320 -0.6373  0.4835 -1.1249
  931MPD2     N13679   3.544   0.794   0.705  0.2162  0.0072 -0.3357
  931MPD2    H513680   3.555   0.707   0.756  0.4240  0.1051 -0.2108
  931MPD2    N113681   3.596   1.031   0.280 -0.2326  0.5089  0.0784
  931MPD2    H713682   3.629   1.023   0.185  1.5409  1.4737  0.6119
  932MPD2     C13683   0.131   1.711  11.212  0.1932  0.0159  0.8709
  932MPD2    C113684   0.251   1.656  11.237  0.3737  0.7008 -0.8906
  932MPD2    C213685   0.259   1.527  11.290  0.0168 -0.3673  0.5750
  932MPD2    C313686   0.147   1.460  11.324 -0.6694  0.0762 -0.2037
  932MPD2    C413687   0.030   1.522  11.303 -0.1362 -0.6362  0.0559
  932MPD2    C513688   0.023   1.649  11.247 -0.1309 -0.2500  0.4367
  932MPD2     H13689   0.353   1.472  11.289 -0.6633 -1.4689 -1.8567
  932MPD2    H113690   4.675   1.465  11.322 -1.6006  1.4574 -0.4627
  932MPD2    H213691   0.112   1.811  11.175  2.9092  0.0519 -0.4080
  932MPD2    H313692   4.665   1.698  11.220  0.7289  0.5216 -1.0864
  932MPD2     N13693   0.147   1.322  11.367  0.2065 -0.3861  0.2901
  932MPD2    H513694   0.057   1.276  11.366  0.9728 -1.8671 -1.4005
  932MPD2    N113695   0.375   1.721  11.212  0.7027  0.2568  0.3039
  932MPD2    H713696   0.461   1.675  11.238 -1.0146 -2.4374  1.1835
  933MPD2     C13697   0.616   0.186   1.153  0.6430  0.6397  0.0803
  933MPD2    C113698   0.621   0.294   1.239 -0.4498  0.1101  0.3250
  933MPD2    C213699   0.506   0.331   1.307 -0.1629  0.4950  0.2015
  933MPD2    C313700   0.385   0.267   1.278  0.7285 -0.8728 -0.5129
  933MPD2    C413701   0.378   0.164   1.188 -0.8759  0.5224  0.2127
  933MPD2    C513702   0.501   0.124   1.133  0.1689  0.1508  0.0235
  933MPD2     H13703   0.519   0.402   1.389 -1.6150 -0.2909  1.1119
  933MPD2    H113704   0.292   0.103   1.162 -1.0472  0.7985  0.1345
  933MPD2    H213705   0.705   0.165   1.095 -0.1048  1.0202 -1.2160
  933MPD2    H313706   0.499   0.041   1.062  1.5728 -0.6692  0.9466
  933MPD2     N13707   0.267   0.317   1.340 -0.6536  0.2152 -0.8293
  933MPD2    H513708   0.264   0.398   1.401  0.6681 -2.3641  2.6025
  933MPD2    N113709   0.740   0.370   1.243  0.1501  0.1191 -0.3415
  933MPD2    H713710   0.818   0.356   1.180  0.0814  0.3445 -0.4758
  934MPD2     C13711   2.819   2.781   1.721 -0.2294  0.3891 -0.2475
  934MPD2    C113712   2.907   2.720   1.631 -0.1707 -0.9864 -0.9250
  934MPD2    C213713   2.860   2.623   1.543  0.2178  0.2095  0.4310
  934MPD2    C313714   2.723   2.581   1.553  0.0089  0.3647  0.5817
  934MPD2    C413715   2.637   2.639   1.644 -0.3115 -0.5128  0.0231
  934MPD2    C513716   2.689   2.737   1.727  0.2068 -0.3716  0.6477
  934MPD2     H13717   2.923   2.569   1.473  1.7959 -0.9317  2.7293
  934MPD2    H113718   2.532   2.616   1.659 -1.0257  2.7240 -0.0728
  934MPD2    H213719   2.847   2.855   1.795 -0.6944 -0.3868  0.7050
  934MPD2    H313720   2.623   2.777   1.803 -0.3556 -1.1885  0.5837
  934MPD2     N13721   2.676   2.478   1.467 -0.5309  0.0164 -0.1109
  934MPD2    H513722   2.582   2.442   1.476 -0.9515  0.5297 -2.3466
  934MPD2    N113723   3.046   2.750   1.645 -0.0322 -0.2718 -0.0255
  934MPD2    H713724   3.117   2.685   1.613  0.8103  0.0583  1.1710
  935MPD2     C13725   3.116   1.656   1.157  0.2876  1.2617 -0.3733
  935MPD2    C113726   2.986   1.646   1.109 -0.0731  0.2323 -0.1476
  935MPD2    C213727   2.900   1.751   1.139 -0.2303 -1.1653 -0.2696
  935MPD2    C313728   2.930   1.856   1.210  0.5320  0.1714  0.0661
  935MPD2    C413729   3.051   1.851   1.277  0.9282  0.0477 -0.0691
  935MPD2    C513730   3.141   1.750   1.249 -0.4766 -0.2269  0.2558
  935MPD2     H13731   2.795   1.736   1.115 -0.4885 -1.9832  1.3349
  935MPD2    H113732   3.081   1.925   1.350  1.2551  0.4803 -0.6438
  935MPD2    H213733   3.197   1.587   1.135 -1.0346  0.1679 -1.7657
  935MPD2    H313734   3.233   1.752   1.307  0.5489 -0.7793 -1.3423
  935MPD2     N13735   2.840   1.960   1.244  0.0466  0.6620  0.2672
  935MPD2    H513736   2.873   2.029   1.311  0.6509 -1.0897  1.7965
  935MPD2    N113737   2.940   1.544   1.027  0.1327 -0.6780  0.0178
  935MPD2    H713738   2.849   1.549   0.982  2.0405  3.3826 -3.4530
  936MPD2     C13739   1.063   4.574  12.401  0.8567  0.0925 -0.2273
  936MPD2    C113740   1.164   4.512  12.469 -0.3863 -0.1523 -0.5909
  936MPD2    C213741   1.227   4.572  12.575  0.1865 -0.4316 -0.1389
  936MPD2    C313742   1.179   4.695  12.624 -0.3651 -0.4492  0.0710
  936MPD2    C413743   1.071   0.015  12.558 -0.0838 -0.0977  0.1803
  936MPD2    C513744   1.013   4.695  12.450 -0.3072  0.7450 -0.3507
  936MPD2     H13745   1.311   4.523  12.623  0.4525 -0.2874 -0.4563
  936MPD2    H113746   1.021   0.104  12.593 -1.1428 -1.1405  1.2884
  936MPD2    H213747   1.024   4.540  12.305  0.0859  0.5646 -0.0768
  936MPD2    H313748   0.932   0.009  12.397 -0.3056  0.7626 -0.3370
  936MPD2     N13749   1.239   0.031  12.726 -0.2901  0.0605  0.1453
  936MPD2    H513750   1.196   0.121  12.747  2.6502  1.1944  1.3406
  936MPD2    N113751   1.198   4.378  12.446 -0.3506  0.2399 -0.3071
  936MPD2    H713752   1.264   4.347  12.517 -0.0277  2.5308  0.4009
  937MPD2     C13753   4.103   0.942  11.748  0.1660  0.0824 -0.9425
  937MPD2    C113754   3.998   1.030  11.731 -0.3176  0.4325 -0.6422
  937MPD2    C213755   4.027   1.151  11.661  0.2920  0.3742 -0.6742
  937MPD2    C313756   4.157   1.192  11.640  0.2605 -0.4964  0.2538
  937MPD2    C413757   4.259   1.115  11.691  0.4383  0.5318 -0.7626
  937MPD2    C513758   4.228   0.989  11.736  0.0751 -0.3326  0.5022
  937MPD2     H13759   3.953   1.219  11.621  1.1097  1.6322 -0.0593
  937MPD2    H113760   4.365   1.134  11.678  0.9440 -0.5774  1.6647
  937MPD2    H213761   4.088   0.835  11.758 -3.2970  0.8629  1.7431
  937MPD2    H313762   4.311   0.921  11.755  1.2571  1.0006  0.1537
  937MPD2     N13763   4.176   1.319  11.585  0.4282  0.4284 -0.0231
  937MPD2    H513764   4.095   1.375  11.561  0.5135  0.6074  0.1057
  937MPD2    N113765   3.862   0.982  11.722  0.6018 -0.8014 -0.1913
  937MPD2    H713766   3.790   1.047  11.692  0.1950 -0.2692  1.9498
  938MPD2     C13767   0.778   1.323   0.698 -0.2774  0.9611 -0.2501
  938MPD2    C113768   0.903   1.368   0.733 -1.3796  0.0466  0.2394
  938MPD2    C213769   0.935   1.373   0.869  0.1184  0.3061  0.3667
  938MPD2    C313770   0.844   1.330   0.965  0.7930 -0.2612 -0.4337
  938MPD2    C413771   0.717   1.296   0.924  0.3943  0.1315  0.7323
  938MPD2    C513772   0.689   1.282   0.789  0.4585  0.3939 -0.9102
  938MPD2     H13773   1.033   1.412   0.893 -0.9589  3.4915 -0.5187
  938MPD2    H113774   0.638   1.252   0.984  0.8478 -0.2852  1.0201
  938MPD2    H213775   0.764   1.306   0.592 -0.3591  0.7480 -0.2047
  938MPD2    H313776   0.594   1.246   0.752  1.3209 -1.2759 -1.4656
  938MPD2     N13777   0.874   1.317   1.104 -0.3156 -0.4038  0.3732
  938MPD2    H513778   0.802   1.278   1.164 -0.7182 -1.7299 -0.9683
  938MPD2    N113779   0.994   1.417   0.638  0.4300 -0.4908 -0.3925
  938MPD2    H713780   1.058   1.486   0.677  1.1308 -0.8865 -0.8607
  939MPD2     C13781   2.561   2.737   0.775 -0.3296 -0.5157 -0.0686
  939MPD2    C113782   2.626   2.856   0.776 -0.0867 -0.4339  0.7653
  939MPD2    C213783   2.693   2.908   0.659 -0.4577  0.6635 -0.3857
  939MPD2    C313784   2.700   2.830   0.545 -0.3648 -0.8403  0.0261
  939MPD2    C413785   2.640   2.704   0.547 -0.2530  0.1601  0.0174
  939MPD2    C513786   2.571   2.664   0.655  0.0574  0.1775  0.4706
  939MPD2     H13787   2.744   3.003   0.666  1.2664 -0.4308  2.2786
  939MPD2    H113788   2.647   2.637   0.462 -0.7357  0.0256  0.0817
  939MPD2    H213789   2.512   2.696   0.862  0.7405 -0.5956  0.5026
  939MPD2    H313790   2.524   2.567   0.648 -0.0262  0.2649 -0.2647
  939MPD2     N13791   2.768   2.885   0.435  0.1275  0.1386 -0.3087
  939MPD2    H513792   2.820   2.971   0.447  1.2658 -0.6218  0.2168
  939MPD2    N113793   2.620   2.926   0.900 -0.0095 -0.4832  0.1685
  939MPD2    H713794   2.551   2.889   0.965  0.6053  0.1317  1.1771
  940MPD2     C13795   2.155   4.368  13.538  0.2657  0.6940  0.4746
  940MPD2    C113796   2.080   4.304  13.439 -0.5954  0.1761  0.0506
  940MPD2    C213797   2.119   4.314  13.312  0.3281 -0.7896 -0.1843
  940MPD2    C313798   2.234   4.383  13.277 -0.0673 -0.3014  0.5859
  940MPD2    C413799   2.307   4.442  13.374  0.0455  0.6750  0.2980
  940MPD2    C513800   2.268   4.433  13.501 -0.0608  0.3318  0.9898
  940MPD2     H13801   2.069   4.262  13.231  0.3092 -0.0464 -0.6458
  940MPD2    H113802   2.398   4.501  13.361  0.0394  0.4514 -0.7043
  940MPD2    H213803   2.128   4.379  13.643 -0.7564  2.0232  0.0696
  940MPD2    H313804   2.318   4.491  13.578  1.1277 -1.0038  1.2128
  940MPD2     N13805   2.275   4.399  13.147  0.3482 -0.0533  0.4460
  940MPD2    H513806   2.370   4.434  13.141  0.6164 -0.3867  2.8377
  940MPD2    N113807   1.955   4.233  13.468  0.2700  0.3346  0.3881
  940MPD2    H713808   1.898   4.199  13.392 -0.7163 -0.5583  1.5193
  941MPD2     C13809   0.885   3.269  10.271 -0.4054  0.1263 -0.7600
  941MPD2    C113810   0.984   3.223  10.196 -0.1211 -0.1986 -0.0474
  941MPD2    C213811   0.958   3.121  10.109 -0.1788 -0.2683  0.5090
  941MPD2    C313812   0.842   3.052  10.103  0.3215  0.4137 -0.0108
  941MPD2    C413813   0.743   3.093  10.190 -0.3381 -0.3809  0.0374
  941MPD2    C513814   0.765   3.203  10.269 -0.3147 -0.0637 -0.8560
  941MPD2     H13815   1.043   3.090  10.049  1.0993 -0.2304  2.3156
  941MPD2    H113816   0.644   3.050  10.183  0.1103 -1.2713 -0.7964
  941MPD2    H213817   0.880   3.356  10.336  1.6716  0.9333 -1.6702
  941MPD2    H313818   0.689   3.244  10.335 -0.0314 -1.3244  0.2461
  941MPD2     N13819   0.819   2.944  10.020  0.1830 -0.1728  0.0576
  941MPD2    H513820   0.730   2.900  10.038 -0.4282  0.4488 -1.4412
  941MPD2    N113821   1.111   3.294  10.207  0.3087  0.5872  0.3951
  941MPD2    H713822   1.120   3.370  10.275 -2.3600  1.0641  0.2280
  942MPD2     C13823   0.568   4.279   9.902  0.1783 -0.3003 -0.3457
  942MPD2    C113824   0.523   4.157   9.850 -0.8371  0.4774  0.7117
  942MPD2    C213825   0.573   4.119   9.724 -0.3696 -0.2686  0.4160
  942MPD2    C313826   0.654   4.201   9.650  0.1079 -0.7397  0.1756
  942MPD2    C413827   0.691   4.322   9.709  0.4914 -0.3096  0.0249
  942MPD2    C513828   0.644   4.358   9.825  0.2123 -0.2186 -0.0987
  942MPD2     H13829   0.554   4.022   9.679 -0.4195 -0.3100  0.5257
  942MPD2    H113830   0.757   4.397   9.666 -0.8258  1.1014  0.4657
  942MPD2    H213831   0.530   4.323   9.994  1.5240  0.9859 -0.3990
  942MPD2    H313832   0.680   4.448   9.873  1.7347 -1.7080  1.5284
  942MPD2     N13833   0.703   4.183   9.520 -0.5328 -0.6795  0.2844
  942MPD2    H513834   0.773   4.245   9.481 -1.4966  0.4180  0.3100
  942MPD2    N113835   0.436   4.074   9.928 -0.6859 -0.0914 -0.3363
  942MPD2    H713836   0.414   3.980   9.896 -0.5021 -0.8138  1.6429
  943MPD2     C13837   0.052   3.359  10.339  0.4089  0.0443  1.0479
  943MPD2    C113838   4.683   3.265  10.363 -0.3859  0.1682  0.4019
  943MPD2    C213839   4.568   3.323  10.424 -0.8161 -0.0253  0.6359
  943MPD2    C313840   4.556   3.459  10.456  0.5649 -0.2268 -0.3999
  943MPD2    C413841   4.657   3.544  10.425  0.7323  0.2648 -0.3339
  943MPD2    C513842   0.036   3.490  10.370 -0.1815 -0.2157 -0.1708
  943MPD2     H13843   4.484   3.257  10.443 -2.0354  1.5698  0.7933
  943MPD2    H113844   4.656   3.647  10.459  0.6135  1.2142 -3.1948
  943MPD2    H213845   0.148   3.335  10.295 -0.7989 -1.5822 -0.6994
  943MPD2    H313846   0.114   3.556  10.337 -0.0153  0.4401  1.5351
  943MPD2     N13847   4.441   3.520  10.508 -0.6410  0.0591 -0.4618
  943MPD2    H513848   4.442   3.622  10.504  1.1230 -0.0411 -2.4152
  943MPD2    N113849   4.696   3.132  10.320  0.2219  0.1389 -0.9403
  943MPD2    H713850   0.043   3.102  10.268 -0.5822 -2.0925 -0.9069
  944MPD2     C13851   3.633   2.196  11.126 -0.0852 -0.5878  0.1673
  944MPD2    C113852   3.723   2.270  11.203  0.7832 -0.4668  0.2261
  944MPD2    C213853   3.683   2.391  11.253 -0.5836  0.0616  0.3360
  944MPD2    C313854   3.553   2.435  11.222 -0.7391  0.4623  0.1313
  944MPD2    C413855   3.471   2.360  11.148  0.4661  0.5489  0.3965
  944MPD2    C513856   3.509   2.239  11.103 -0.3732 -0.1564  0.3760
  944MPD2     H13857   3.749   2.450  11.315  0.3378 -0.2381 -0.3564
  944MPD2    H113858   3.379   2.402  11.109 -0.6402 -0.5555  1.8484
  944MPD2    H213859   3.668   2.101  11.086  1.6655  0.4565 -0.7953
  944MPD2    H313860   3.450   2.179  11.034 -1.6107  0.6075  0.7714
  944MPD2     N13861   3.520   2.570  11.265  0.4054  0.3224  0.8615
  944MPD2    H513862   3.593   2.632  11.299 -0.6170  1.3153  1.2500
  944MPD2    N113863   3.855   2.222  11.216  0.1933  0.3524  0.6716
  944MPD2    H713864   3.878   2.138  11.164  0.9667  0.7561  0.3582
    1TMC1    C113865   2.418   3.109  14.216 -0.7405  0.5528 -0.6999
    1TMC1    C213866   2.355   3.220  14.162  0.5241 -0.3840  0.1878
    1TMC1    C313867   2.250   3.187  14.075 -0.4222  0.3631  0.1786
    1TMC1    C413868   2.414   2.982  14.161  0.8421 -0.4446  0.1672
    1TMC1    C513869   2.322   2.965  14.060  0.6594  0.5752  0.1156
    1TMC1    C613870   2.235   3.065  14.017 -0.5417  0.5868  0.3364
    1TMC1     C13871   2.520   3.130  14.315  0.2740 -0.0900  0.1712
    1TMC1     O13872   2.587   3.030  14.344 -0.1926 -0.4699  0.6978
    1TMC1     H13873   2.374   3.315  14.209  0.1100 -1.0774  1.7396
    1TMC1    H113874   2.474   2.901  14.201  0.5706 -2.2831 -3.0975
    1TMC1    H213875   2.163   3.043  13.940  0.5127  1.2101 -0.8400
    1TMC1    C713876   2.307   2.834  14.007 -0.2872  0.3072 -0.1255
    1TMC1    C813877   2.157   3.285  14.035  0.0450 -0.4384 -0.4079
    1TMC1    O113878   2.243   2.818  13.906  0.4155 -0.2235  0.5184
    1TMC1    O213879   2.046   3.254  13.990  0.2047  0.5193  0.3672
    1TMC1    O313880   2.329   2.745  14.107 -0.3378  0.2341  0.0755
    1TMC1    H313881   2.360   2.792  14.188  1.0898  0.2141 -0.4600
    1TMC1    O513882   2.195   3.403  14.091  0.0951  0.0118 -0.2762
    1TMC1    H513883   2.124   3.470  14.103  0.2784  0.2335 -0.4316
    2MPD2     C13884   2.813   3.431  14.614  0.3475  0.2017  0.6535
    2MPD2    C113885   2.723   3.507  14.550 -0.1971  0.1884 -0.0173
    2MPD2    C213886   2.631   3.446  14.468  0.2191 -0.1936  0.4368
    2MPD2    C313887   2.630   3.311  14.443 -0.2747 -0.3232 -0.1616
    2MPD2    C413888   2.724   3.228  14.516 -0.0809 -0.9110  0.1890
    2MPD2    C513889   2.820   3.295  14.591  0.1461  0.0851 -0.1734
    2MPD2     H13890   2.555   3.507  14.421  1.7445  2.8787  1.9880
    2MPD2    H113891   2.725   3.120  14.516  0.4232 -0.8997  2.0155
    2MPD2    H213892   2.888   3.464  14.686  2.2285  0.6535 -1.5193
    2MPD2    H313893   2.902   3.245  14.641  0.0846  0.5642  0.4161
    2MPD2     N13894   2.532   3.260  14.350  0.3377 -0.7938 -0.4580
    2MPD2    H513895   2.469   3.333  14.320 -0.8403 -2.0591 -1.0276
    2MPD2    N113896   2.724   3.647  14.553  0.7404  0.5620 -0.2558
    2MPD2    H713897   2.654   3.706  14.509 -1.4705 -1.6109  0.3633
    3TMC2    C113898   2.815   3.857  14.569 -1.1083 -0.0679 -0.4464
    3TMC2    C213899   2.910   3.930  14.516 -0.1816 -0.2153 -0.2282
    3TMC2    C313900   2.880   4.051  14.473  0.3182 -0.4553  0.3182
    3TMC2    C413901   2.688   3.908  14.595 -0.6832  0.5402 -1.0713
    3TMC2    C513902   2.659   4.034  14.546  0.1152 -0.1195  0.3447
    3TMC2    C613903   2.757   4.107  14.484  0.4374 -0.0870 -0.6088
    3TMC2     C13904   2.841   3.716  14.589 -0.4287 -0.6119 -0.4895
    3TMC2     O13905   2.954   3.671  14.606  0.2016  0.0476 -0.0383
    3TMC2     H13906   3.010   3.889  14.530 -0.6863 -1.1830  0.5633
    3TMC2    H113907   2.609   3.846  14.636  0.6358 -2.1074 -2.6212
    3TMC2    H213908   2.752   4.207  14.444  0.3887 -0.9967 -2.8511
    3TMC2    C713909   2.525   4.083  14.563  0.1620  0.2111  0.2337
    3TMC2    C813910   2.990   4.140  14.451  0.6541 -0.0452  0.3577
    3TMC2    O113911   2.455   4.020  14.643 -0.4257 -0.0679  0.1968
    3TMC2    O213912   2.978   4.267  14.463 -0.2511  0.0474 -0.2597
    3TMC2    O513913   3.048   4.089  14.343 -0.8214  0.3171  0.3046
    3TMC2    H513914   3.036   3.994  14.322 -1.4677  0.9214 -2.0462
    4TMC2    C113915   1.970   4.452  13.893  0.2380  0.5799 -0.2254
    4TMC2    C213916   1.955   4.578  13.850 -0.4002 -0.4412 -0.0166
    4TMC2    C313917   2.071   4.662  13.850 -0.0988 -0.5102 -0.1728
    4TMC2    C413918   2.080   4.412  13.969  0.8443 -0.7029 -0.3871
    4TMC2    C513919   2.173   4.506  13.989 -1.0537 -0.0593 -0.0837
    4TMC2    C613920   2.176   4.634  13.932  0.1519  0.2914 -0.3124
    4TMC2     C13921   1.847   4.390  13.944  0.3236  0.5776 -0.0030
    4TMC2     O13922   1.865   4.332  14.047  0.0043 -0.6260 -0.1138
    4TMC2     H13923   1.871   4.614  13.791  0.2150 -1.2910 -1.4029
    4TMC2    H113924   2.088   4.318  14.023 -1.6206 -1.1048 -0.6999
    4TMC2    H213925   2.242   4.711  13.970  1.0796  0.3792 -2.0791
    4TMC2    C713926   2.256   4.480  14.106 -0.0024  0.1249 -0.3327
    4TMC2    C813927   2.055   0.055  13.786  0.7434 -0.2278 -0.6395
    4TMC2    O113928   2.378   4.473  14.090 -0.9473  0.0756  0.0169
    4TMC2    O213929   1.940   0.091  13.776 -0.3540 -0.3417 -0.2158
    4TMC2    O513930   2.168   0.130  13.796  0.7365 -0.2707  0.0045
    4TMC2    H513931   2.247   0.073  13.784  3.2672  3.2415  0.0583
    5MPD2     C13932   1.365   4.234  13.908  0.0632  0.3104  0.6015
    5MPD2    C113933   1.393   4.307  13.796  0.0300  0.3504  0.0827
    5MPD2    C213934   1.516   4.362  13.786 -0.2554 -0.0139  0.4728
    5MPD2    C313935   1.614   4.345  13.886  0.8068 -0.3789  0.5443
    5MPD2    C413936   1.591   4.256  13.988  0.2150 -0.4479 -0.3288
    5MPD2    C513937   1.463   4.214  14.003  0.4861  0.1393  0.3988
    5MPD2     H13938   1.546   4.428  13.706  0.6057 -2.1546 -0.9704
    5MPD2    H113939   1.668   4.233  14.061  0.3863 -0.6092 -0.5606
    5MPD2    H213940   1.266   4.192  13.925  0.2711 -1.3018 -2.1661
    5MPD2    H313941   1.433   4.153  14.088 -0.3288  0.9718  0.7105
    5MPD2     N13942   1.739   4.407  13.860 -0.4341 -0.4738 -0.0489
    5MPD2    H513943   1.743   4.463  13.776  0.9080  0.9817  0.9840
    5MPD2    N113944   1.289   4.311  13.702  0.2933 -1.2049  0.7097
    5MPD2    H713945   1.204   4.269  13.737  0.0967 -2.3562 -1.1570
    6MPD1     C13946   0.676   1.323  13.178 -0.0403 -0.1764 -0.5438
    6MPD1    C113947   0.732   1.248  13.078  0.8788  0.6723  0.4893
    6MPD1    C213948   0.740   1.112  13.097  0.3548 -0.0442  0.7814
    6MPD1    C313949   0.674   1.049  13.207 -0.8134 -0.2462 -0.1733
    6MPD1    C413950   0.605   1.131  13.294  0.7088 -0.5110 -0.2602
    6MPD1    C513951   0.597   1.262  13.271  0.6136 -0.3944 -0.0615
    6MPD1     H13952   0.790   1.051  13.023  2.6233  1.7135  0.8590
    6MPD1    H113953   0.549   1.087  13.376  0.8711  1.5519  0.9754
    6MPD1    H213954   0.672   1.431  13.172  0.0373 -0.3113 -2.8330
    6MPD1    H313955   0.533   1.322  13.335  0.9340 -1.0115  0.8400
    6MPD1     N13956   0.663   0.907  13.223  0.0441 -0.3644  0.0197
    6MPD1    H513957   0.586   0.879  13.283 -1.2633  2.5697 -0.3087
    6MPD1    N113958   0.806   1.313  12.974  0.0262 -0.0525 -0.4409
    6MPD1    H613959   0.894   1.352  13.009  0.1979  0.5009 -1.5030
    6MPD1    H713960   0.851   1.245  12.914  0.5427 -0.5012  0.4496
    7MPD2     C13961   0.846   0.336  13.698 -0.1544 -0.6213 -0.2148
    7MPD2    C113962   0.792   0.267  13.588 -0.0469  0.1822  0.5338
    7MPD2    C213963   0.815   0.132  13.575 -0.0956  0.5956 -0.7467
    7MPD2    C313964   0.883   0.052  13.672 -0.2628 -0.3067 -0.4437
    7MPD2    C413965   0.934   0.123  13.778 -0.5347 -0.1681 -0.3431
    7MPD2    C513966   0.910   0.262  13.799  0.4425  1.3511  0.1422
    7MPD2     H13967   0.767   0.085  13.490 -4.3067  1.3174  1.2419
    7MPD2    H113968   0.983   0.074  13.861  1.4877  0.1131 -1.3614
    7MPD2    H213969   0.820   0.441  13.700 -1.3620 -0.9530  1.2839
    7MPD2    H313970   0.931   0.315  13.891  0.5308  0.4356  0.6487
    7MPD2     N13971   0.915   4.647  13.656  0.0534  0.4249 -1.1210
    7MPD2    H513972   0.964   4.604  13.733 -0.0039  0.7661 -0.8915
    7MPD2    N113973   0.725   0.331  13.474 -0.1419 -0.0013 -0.2654
    7MPD2    H713974   0.691   0.270  13.400  2.1769 -2.6184  0.8326
    8TMC3    C113975   0.938   4.435  13.535  0.2725  0.2168  0.1094
    8TMC3    C213976   1.064   4.420  13.593 -0.1182  0.0771  0.8821
    8TMC3    C313977   1.170   4.380  13.515 -0.0815  0.5400  0.3819
    8TMC3    C413978   0.928   4.387  13.399  0.0099 -0.2634  0.2342
    8TMC3    C513979   1.035   4.354  13.320 -0.1462 -0.5999 -0.0184
    8TMC3    C613980   1.157   4.348  13.384  0.1119  1.0691  0.0493
    8TMC3     C13981   0.882   4.571  13.542 -0.0604  0.9182  0.1993
    8TMC3     O13982   0.824   4.598  13.440  0.4691  0.3464 -0.4956
    8TMC3     H13983   1.081   4.460  13.692  1.8450  1.5408 -0.0557
    8TMC3    H113984   0.832   4.402  13.351 -0.1745 -0.8898  0.4152
    8TMC3    H213985   1.250   4.322  13.334  1.3062  3.5386  1.0087
    8TMC3    C713986   1.034   4.433  13.197  0.6636  0.2452 -0.2675
    8TMC3    C813987   1.297   4.358  13.574  0.5062 -0.6966 -0.4877
    8TMC3    O113988   1.128   4.422  13.118  0.1334  0.1604  0.5390
    8TMC3    O213989   1.395   4.392  13.512  0.6625 -0.1693 -0.3565
    9TMC3    C113990   0.727   0.683  13.180 -0.2071 -0.9293 -0.3499
    9TMC3    C213991   0.738   0.593  13.075  0.3722 -1.0640  0.0700
    9TMC3    C313992   0.711   0.460  13.111  0.3810 -0.4957 -0.3173
    9TMC3    C413993   0.681   0.649  13.303  0.2358 -0.2980 -0.4768
    9TMC3    C513994   0.657   0.514  13.328  0.0690 -0.6548 -0.3248
    9TMC3    C613995   0.659   0.426  13.232  0.2941  0.6000  0.0938
    9TMC3     C13996   0.733   0.823  13.140 -0.8875 -0.4638 -0.9140
    9TMC3     O13997   0.813   0.847  13.049 -0.3120 -0.0193  0.1982
    9TMC3     H13998   0.778   0.618  12.977 -0.8297 -2.3505 -0.7348
    9TMC3    H113999   0.675   0.720  13.385 -1.1240 -2.0474  0.9264
    9TMC3    H214000   0.615   0.328  13.247  1.4639 -0.2593 -2.1258
    9TMC3    C714001   0.699   0.464  13.461  0.2068  0.1719 -0.0029
    9TMC3    C814002   0.761   0.349  13.032 -0.3467 -0.0721  0.6875
    9TMC3    O114003   0.722   0.554  13.538 -0.5430  0.0933 -0.2404
    9TMC3    O214004   0.777   0.366  12.909 -0.2483  0.3482  0.0215
   10MPD2     C14005   0.958   4.613  12.978  0.1257  0.1418 -0.3855
   10MPD2    C114006   0.934   4.637  13.108  0.1514 -0.1578  0.2285
   10MPD2    C214007   0.876   0.021  13.148 -0.0299  0.2406 -0.0175
   10MPD2    C314008   0.849   0.119  13.056  0.4716  0.1679 -0.0854
   10MPD2    C414009   0.873   0.096  12.926  0.4589  1.0143 -0.1986
   10MPD2    C514010   0.929   4.708  12.884  0.5141 -0.4118  0.6381
   10MPD2     H14011   0.861   0.048  13.252  2.2274 -0.4682  0.5029
   10MPD2    H114012   0.844   0.165  12.847 -2.4805 -0.2892 -0.2821
   10MPD2    H214013   0.988   4.513  12.948  1.2934  1.0307 -2.1831
   10MPD2    H314014   0.940   4.682  12.780  0.8013  1.4040  0.2226
   10MPD2     N14015   0.795   0.237  13.109 -0.3466  0.1041  0.8136
   10MPD2    H514016   0.809   0.258  13.207  1.8041  0.7299  0.3800
   10MPD2    N114017   0.960   4.545  13.211 -0.1388  0.5434  0.3009
   10MPD2    H714018   0.909   4.561  13.297  1.3753  0.9921  1.1147
   11MPD2     C14019   2.269   4.223  14.557 -0.0151 -0.1586  0.2953
   11MPD2    C114020   2.362   4.240  14.457  0.1410 -0.5233 -0.1652
   11MPD2    C214021   2.339   4.315  14.341 -0.5088  0.3508  0.2883
   11MPD2    C314022   2.215   4.367  14.329 -0.3785 -0.7008 -0.6052
   11MPD2    C414023   2.115   4.334  14.416  0.3012  0.3600 -0.5762
   11MPD2    C514024   2.143   4.275  14.540 -0.2318  0.6589  0.8743
   11MPD2     H14025   2.417   4.328  14.267  0.9238 -0.6262  1.6228
   11MPD2    H114026   2.021   4.386  14.405 -0.2639 -0.0671  2.2486
   11MPD2    H214027   2.282   4.163  14.647 -2.1486  1.9497  2.0037
   11MPD2    H314028   2.067   4.261  14.616 -1.4751 -2.4368 -0.9295
   11MPD2     N14029   2.175   4.442  14.216  0.2511 -0.8596 -0.5865
   11MPD2    H514030   2.076   4.462  14.215 -0.2593 -3.3248  0.2238
   11MPD2    N114031   2.486   4.171  14.463  0.3223 -0.2564 -0.1415
   11MPD2    H714032   2.545   4.208  14.389 -1.4474  2.0930 -0.3703
    1MPD1     C14033   4.702   0.659  17.420  0.5734  0.0808  0.8436
    1MPD1    C114034   4.653   0.659  17.548 -0.9690  0.3490  0.6603
    1MPD1    C214035   0.003   0.686  17.652  0.5700  0.1860 -0.0005
    1MPD1    C314036   0.129   0.732  17.625  0.2347 -0.0993 -0.5463
    1MPD1    C414037   0.169   0.752  17.494  0.0865 -0.5467  0.5139
    1MPD1    C514038   0.090   0.707  17.392 -0.4110 -0.3366 -0.5090
    1MPD1     H14039   4.708   0.659   0.016 -1.3256  1.5199 -0.1928
    1MPD1    H114040   0.264   0.802  17.477 -1.1596  1.9685  0.8718
    1MPD1    H214041   4.635   0.620  17.344 -0.1770  2.7052  0.1467
    1MPD1    H314042   0.110   0.720  17.286 -0.0275 -1.3467 -0.5582
    1MPD1     N14043   0.234   0.768  17.719  0.0894  0.4741 -0.0236
    1MPD1    H514044   0.310   0.829  17.691  0.6850 -0.6328 -0.8582
    1MPD1    N114045   4.527   0.598  17.573  0.7523  0.1431  0.0541
    1MPD1    H614046   4.469   0.630  17.495  1.5753  0.0543 -0.5854
    1MPD1    H714047   4.485   0.648  17.651 -0.3201 -1.8139  0.7210
    2MPD1     C14048   0.549   0.548   1.018  0.6643  0.7551 -0.3835
    2MPD1    C114049   0.609   0.665   0.977 -0.3907 -0.1455 -0.4918
    2MPD1    C214050   0.600   0.697   0.845  0.2393  0.3467  1.1159
    2MPD1    C314051   0.533   0.622   0.745  0.2366 -0.0774 -0.1508
    2MPD1    C414052   0.484   0.499   0.787  0.1891  0.1768 -0.7458
    2MPD1    C514053   0.491   0.472   0.921  0.1209  0.2585 -0.3873
    2MPD1     H14054   0.644   0.794   0.823 -0.1588 -0.1056 -1.6310
    2MPD1    H114055   0.428   0.433   0.723 -0.7734  0.3549 -0.0780
    2MPD1    H214056   0.546   0.518   1.122 -0.7971 -2.4005 -1.3548
    2MPD1    H314057   0.441   0.380   0.949 -1.5644  1.0203 -0.8552
    2MPD1     N14058   0.514   0.668   0.614 -0.3368 -0.4384  0.9250
    2MPD1    H514059   0.560   0.757   0.598  1.4226 -1.3984  0.6497
    2MPD1    N114060   0.702   0.727   1.063 -0.3147 -0.3645 -0.0855
    2MPD1    H614061   0.727   0.825   1.052  1.1411 -0.6712  0.4642
    2MPD1    H714062   0.679   0.712   1.161 -0.3720 -1.1230 -0.2163
    3TMC3    C114063   0.453   0.691   0.392 -0.0430 -0.0601  0.5963
    3TMC3    C214064   0.576   0.738   0.350 -0.8114  0.6933 -0.4572
    3TMC3    C314065   0.581   0.803   0.228  0.2983  0.4478  0.4775
    3TMC3    C414066   0.345   0.691   0.314 -0.2651  0.3411  0.5124
    3TMC3    C514067   0.353   0.747   0.191 -1.0670  0.2488  0.0541
    3TMC3    C614068   0.471   0.800   0.141  0.2372  0.6539  0.5098
    3TMC3     C14069   0.454   0.607   0.512  0.3996  0.5814 -0.3440
    3TMC3     O14070   0.384   0.504   0.512 -0.1575  0.2519 -0.4732
    3TMC3     H14071   0.660   0.732   0.419 -1.3263  1.4071  0.2265
    3TMC3    H114072   0.257   0.640   0.350  1.2128 -0.6247  2.8181
    3TMC3    H214073   0.486   0.821   0.035  0.3940 -0.3720  0.3310
    3TMC3    C714074   0.244   0.706   0.105  0.2916  0.2528  0.3486
    3TMC3    C814075   0.702   0.864   0.182  0.0767 -0.1259 -0.2469
    3TMC3    O114076   0.175   0.615   0.150 -0.7251 -0.3837  0.2434
    3TMC3    O214077   0.798   0.842   0.243  0.2822  0.6068  0.0925
    4MPD1     C14078   1.004   1.115  17.587  0.2600 -0.0016  0.3817
    4MPD1    C114079   0.876   1.123  17.543 -0.0083 -0.3065 -0.0583
    4MPD1    C214080   0.781   1.069  17.623 -0.4302 -1.0182 -0.1204
    4MPD1    C314081   0.804   0.995   0.000  0.5982 -0.2262  0.0706
    4MPD1    C414082   0.937   0.997   0.032  0.1796 -0.8954  0.3228
    4MPD1    C514083   1.041   1.050  17.702  0.7823 -0.1356  0.0093
    4MPD1     H14084   0.683   1.065  17.575  0.6905  0.3360 -2.5190
    4MPD1    H114085   0.961   0.951   0.127  0.2273 -2.0250 -0.2342
    4MPD1    H214086   1.079   1.170  17.530 -0.4732 -0.2816 -0.8581
    4MPD1    H314087   1.140   1.033   0.004  1.6778 -0.2878 -2.3023
    4MPD1     N14088   0.694   0.929   0.061 -0.1281 -0.5240  0.1750
    4MPD1    H514089   0.601   0.939   0.021  0.2942 -0.6520 -0.8453
    4MPD1    N114090   0.852   1.200  17.433  0.2684 -0.4404  0.6301
    4MPD1    H614091   0.769   1.171  17.383  0.7651  1.0866 -1.0777
    4MPD1    H714092   0.931   1.198  17.368  0.0169 -0.5517  0.3312
    1TCq1    O114093   1.175   1.099  11.161  0.3846  0.0147  0.4624
    1TCq1    C114094   1.107   1.199  11.227 -0.0179 -0.2631  0.5847
    1TCq1    O214095   1.049   1.293  11.174 -0.1149 -0.3945 -0.1402
    1TCq1    C214096   1.075   1.161  11.359 -0.1747 -0.2289 -0.1215
    1TCq1    C314097   1.156   1.071  11.429 -0.3173 -0.1098  0.0884
    1TCq1    C414098   1.109   1.032  11.556  0.4278 -0.4493 -0.1211
    1TCq1    C514099   0.971   1.034  11.587  0.2909 -0.4552 -0.0507
    1TCq1    C614100   0.895   1.120  11.508  0.1704 -0.1525  0.9808
    1TCq1    C714101   0.949   1.191  11.400 -0.4038 -0.0033  0.4327
    1TCq1    C814102   0.768   1.166  11.567 -0.4836 -0.6936  0.4517
    1TCq1    O414103   0.711   1.258  11.511  0.2932  0.2508  0.0027
    1TCq1    C914104   1.174   0.915  11.614 -0.4453  0.7836  0.2606
    1TCq1    O514105   1.147   0.891  11.733 -0.1094  0.3524 -0.3254
    1TCq1    O614106   1.226   0.829  11.541  0.2924 -0.0073  1.0064
    1TCq1    H114107   1.189   1.018  11.214  2.5201  2.5327  3.7811
    1TCq1    H214108   1.261   1.048  11.416  0.0404  1.5257  0.1341
    1TCq1    H314109   0.940   0.972  11.670  0.1675  0.8217  0.8577
    1TCq1    H414110   0.891   1.254  11.333 -1.4302 -1.9283 -0.5038
    2MPD1     C14111   0.372   1.118  11.889 -0.1568  0.1477  0.8891
    2MPD1    C114112   0.463   1.014  11.908 -0.2058  0.1901 -0.0783
    2MPD1    C214113   0.582   1.008  11.831  0.5375 -0.2457 -0.4380
    2MPD1    C314114   0.616   1.109  11.743 -0.2794 -0.0498 -0.2444
    2MPD1    C414115   0.528   1.217  11.735 -0.2434  0.5230 -0.3524
    2MPD1    C514116   0.408   1.218  11.799 -0.5610  0.0995 -0.1034
    2MPD1     H14117   0.655   0.927  11.835  2.6091  1.5651 -1.5991
    2MPD1    H114118   0.551   1.305  11.676 -1.6871 -0.9322 -3.0828
    2MPD1    H214119   0.273   1.120  11.931 -0.1440  1.0751  0.8761
    2MPD1    H314120   0.347   1.306  11.783  2.3482  2.0338 -0.4768
    2MPD1     N14121   0.735   1.089  11.674 -0.4854  0.5137  0.3030
    2MPD1    H514122   0.793   1.007  11.690 -1.3838 -0.3951 -1.1251
    2MPD1    N114123   0.418   0.892  11.970 -0.2918  0.2551 -0.6138
    2MPD1    H614124   0.348   0.903  12.043  2.8053  0.0844  2.3740
    2MPD1    H714125   0.501   0.848  12.009 -0.3418  0.6583 -0.0503
    1TMC1    C114126   3.624   1.861   0.375  0.1836  0.3173 -0.1942
    1TMC1    C214127   3.701   1.758   0.331  0.3829 -0.1455 -0.1394
    1TMC1    C314128   3.715   1.756   0.189 -0.4281  0.1061 -0.4706
    1TMC1    C414129   3.540   1.939   0.300 -0.9285 -0.1013  0.0850
    1TMC1    C514130   3.559   1.920   0.168 -0.5751 -0.5082  0.2063
    1TMC1    C614131   3.643   1.839   0.103 -0.1249  0.2633  0.5006
    1TMC1     C14132   3.645   1.905   0.514 -0.7427 -0.4291 -0.1525
    1TMC1     O14133   3.711   1.827   0.587  0.0457  0.3099 -0.6206
    1TMC1     H14134   3.769   1.699   0.390 -2.0101 -2.6088  0.1309
    1TMC1    H114135   3.470   2.011   0.340 -0.6618  0.5962 -0.7143
    1TMC1    H214136   3.658   1.850  17.734 -0.0058  2.3421  0.7251
    1TMC1    C714137   3.464   2.001   0.097  0.2130  0.0682  0.1438
    1TMC1    C814138   3.829   1.681   0.137 -0.2528 -0.2251 -1.0196
    1TMC1    O114139   3.417   2.105   0.144  0.2012 -0.1236 -0.5185
    1TMC1    O214140   3.844   1.568   0.174  0.9632  0.8714 -0.4633
    1TMC1    O314141   3.393   1.914   0.026 -0.0412  0.4240 -0.5014
    1TMC1    H314142   3.423   1.822   0.040  0.3655  0.5933 -0.2726
    1TMC1    O514143   3.860   1.726   0.017 -0.1205  0.0094 -0.1837
    1TMC1    H514144   3.867   1.822   0.036  3.0884 -0.5394  1.3097
    2MPD1     C14145   3.685   2.270   0.869 -0.6212  0.2844  0.5410
    2MPD1    C114146   3.630   2.321   0.754  0.0671 -0.8110  0.0477
    2MPD1    C214147   3.590   2.240   0.656  0.3526  0.4583  0.0951
    2MPD1    C314148   3.627   2.107   0.655 -0.2531 -0.6851  0.4023
    2MPD1    C414149   3.690   2.060   0.769 -0.1146 -0.5148  0.0624
    2MPD1    C514150   3.716   2.140   0.878  0.5600  0.1570  0.1693
    2MPD1     H14151   3.529   2.265   0.570 -1.2861 -2.1527  0.4805
    2MPD1    H114152   3.726   1.958   0.766 -1.4086 -0.9947  0.9301
    2MPD1    H214153   3.694   2.336   0.955 -2.0852  0.6407  0.4085
    2MPD1    H314154   3.775   2.101   0.961  1.4445 -0.8421 -0.9171
    2MPD1     N14155   3.602   2.031   0.535 -0.3131  0.1080 -0.9570
    2MPD1    H514156   3.552   2.076   0.459  0.0426 -0.7694 -1.7140
    2MPD1    N114157   3.584   2.453   0.751 -0.1766  1.0945  0.0709
    2MPD1    H614158   3.580   2.494   0.658 -1.0726 -1.4019 -0.9857
    2MPD1    H714159   3.642   2.518   0.804  0.0455  2.1458 -1.4881
    1MPD1     C14160   3.080   4.574  12.558 -0.1595 -0.4369 -0.0125
    1MPD1    C114161   2.961   4.646  12.568  0.0676  0.1307 -0.4024
    1MPD1    C214162   2.942   0.014  12.475  0.2427 -0.6124  0.1644
    1MPD1    C314163   3.029   0.033  12.376  0.1069  0.7461 -0.1074
    1MPD1    C414164   3.148   4.698  12.371  0.8101  0.0275  0.5698
    1MPD1    C514165   3.167   4.595  12.456 -0.2705 -0.4259  0.2389
    1MPD1     H14166   2.859   0.084  12.471  1.8763  1.2479 -0.9826
    1MPD1    H114167   3.219   4.703  12.290 -1.6905  1.3225 -1.5194
    1MPD1    H214168   3.100   4.491  12.624 -0.4934  1.5479  2.6257
    1MPD1    H314169   3.258   4.542  12.431  0.1465  0.0205  0.8137
    1MPD1     N14170   3.005   0.153  12.297  0.4937  0.2585 -0.2213
    1MPD1    H514171   2.924   0.213  12.311  1.3685  1.4260 -0.2323
    1MPD1    N114172   2.867   4.610  12.668  0.0237  0.0948 -0.3197
    1MPD1    H614173   2.807   4.689  12.693 -0.8155 -1.3201  2.1484
    1MPD1    H714174   2.913   4.566  12.747  1.9472  2.1070 -0.2986
    2MPD1     C14175   1.605   0.800  10.421  0.0502 -0.6914  0.2043
    2MPD1    C114176   1.697   0.705  10.442 -0.1905  0.3358 -0.1319
    2MPD1    C214177   1.826   0.723  10.400 -0.5341 -0.1320  0.8308
    2MPD1    C314178   1.863   0.845  10.348  0.4045 -0.0756  0.0364
    2MPD1    C414179   1.765   0.937  10.318  0.1232 -0.1410 -0.4339
    2MPD1    C514180   1.638   0.919  10.356  0.3826 -0.2208 -0.7806
    2MPD1     H14181   1.893   0.639  10.410 -2.2442 -1.4119  1.5506
    2MPD1    H114182   1.775   1.019  10.248 -1.5701 -0.2128 -0.7749
    2MPD1    H214183   1.505   0.772  10.454 -0.0657 -0.9987 -0.4054
    2MPD1    H314184   1.563   0.995  10.334  0.4329 -0.0941 -0.5198
    2MPD1     N14185   1.997   0.878  10.316  0.1588  0.1276  0.1198
    2MPD1    H514186   2.016   0.976  10.296  2.5973 -0.2970  0.3469
    2MPD1    N114187   1.653   0.582  10.486  0.4929  0.4566  0.1780
    2MPD1    H614188   1.726   0.534  10.539  0.0393  0.2594  0.6177
    2MPD1    H714189   1.567   0.592  10.539  0.2711  0.4793 -0.1880
    3MPD1     C14190   2.617   1.594  10.012 -0.8393  0.0743 -0.4673
    3MPD1    C114191   2.703   1.502  10.067  0.2960  0.7360  0.7427
    3MPD1    C214192   2.650   1.385  10.124 -0.4602  0.1225  0.5211
    3MPD1    C314193   2.518   1.363  10.140 -0.2460 -0.0564  0.5768
    3MPD1    C414194   2.429   1.453  10.088  0.1295  0.1483 -0.0884
    3MPD1    C514195   2.484   1.575  10.041 -0.4711 -0.4110  0.1250
    3MPD1     H14196   2.718   1.307  10.157 -0.3177  1.0589  2.4062
    3MPD1    H114197   2.321   1.445  10.092  0.2147 -0.0056  1.7122
    3MPD1    H214198   2.637   1.681   9.950  1.2665  0.0775  0.2099
    3MPD1    H314199   2.410   1.640   9.996 -0.8249 -0.3601  0.7721
    3MPD1     N14200   2.487   1.233  10.193  0.2576  0.9705  0.2179
    3MPD1    H514201   2.569   1.178  10.216 -0.2298 -0.4961 -1.6257
    3MPD1    N114202   2.838   1.502  10.015 -0.1181 -0.5518  0.7210
    3MPD1    H614203   2.866   1.598   9.997  2.4168 -1.3653  0.4430
    3MPD1    H714204   2.894   1.462  10.090  0.8011  1.1332  0.9422
    4MPD2     C14205   2.541   0.526  11.767  0.4827  0.7167 -0.1802
    4MPD2    C114206   2.672   0.563  11.775 -0.3359 -0.0065 -0.3895
    4MPD2    C214207   2.724   0.640  11.672  0.0752  0.5871  0.6332
    4MPD2    C314208   2.658   0.656  11.549  0.0066 -0.1104 -0.7637
    4MPD2    C414209   2.539   0.588  11.537 -0.0576  0.0385 -0.0911
    4MPD2    C514210   2.475   0.530  11.646 -0.1705  0.0286 -0.3015
    4MPD2     H14211   2.829   0.667  11.679  0.2496  0.7178 -2.9465
    4MPD2    H114212   2.481   0.592  11.445 -3.0499  0.8288  1.8157
    4MPD2    H214213   2.485   0.480  11.847 -0.0903 -0.4626 -1.2629
    4MPD2    H314214   2.375   0.496  11.623  0.1148  1.1135 -3.2235
    4MPD2     N14215   2.699   0.736  11.436 -0.3478  0.3841 -0.1599
    4MPD2    H514216   2.634   0.752  11.360 -0.0863  0.8670 -0.2814
    4MPD2    N114217   2.748   0.543  11.896 -0.1797  0.2782  0.9129
    4MPD2    H714218   2.837   0.591  11.896  1.5757 -2.9693  1.3519
    5TMC3    C114219   2.848   0.468  12.087  0.6588  0.5836  0.0801
    5TMC3    C214220   2.893   0.354  12.139 -0.6721 -0.2423  0.4182
    5TMC3    C314221   3.030   0.324  12.140 -0.6537  0.0814 -0.0855
    5TMC3    C414222   2.939   0.562  12.040 -0.4212 -0.4058  0.4828
    5TMC3    C514223   3.071   0.519  12.023 -0.4334 -0.3193 -0.2212
    5TMC3    C614224   3.119   0.396  12.064  0.4436 -0.1838 -0.1037
    5TMC3     C14225   2.731   0.466  12.003 -0.2629  0.1186  1.1153
    5TMC3     O14226   2.641   0.389  12.026 -0.0021 -0.2944  0.0207
    5TMC3     H14227   2.819   0.284  12.177 -0.4196  0.3031  1.9302
    5TMC3    H114228   2.907   0.664  12.021 -0.0546 -0.2222  0.8391
    5TMC3    H214229   3.224   0.368  12.056  0.7065  0.5853  0.6914
    5TMC3    C714230   3.125   0.590  11.910  0.2872  1.2012 -0.4999
    5TMC3    C814231   3.090   0.207  12.205 -0.0554 -0.5702  0.1263
    5TMC3    O114232   3.045   0.661  11.852 -0.4175  0.1255 -0.1043
    5TMC3    O214233   3.213   0.189  12.188  1.2133 -0.4307 -0.1286
    6TMC3    C114234   2.237   0.856  10.312 -0.2308 -0.0570 -0.1532
    6TMC3    C214235   2.244   0.980  10.260  0.2385 -0.1695  0.1059
    6TMC3    C314236   2.362   1.054  10.276  0.5264 -0.1713 -0.4206
    6TMC3    C414237   2.348   0.801  10.375  0.2820  0.2398 -0.1665
    6TMC3    C514238   2.461   0.874  10.394  0.0804 -0.2042  0.8043
    6TMC3    C614239   2.467   1.005  10.351 -0.4045 -0.5062  0.1752
    6TMC3     C14240   2.103   0.798  10.330 -0.4091  0.2318 -0.9447
    6TMC3     O14241   2.102   0.690  10.383 -0.7698 -0.2660  0.1996
    6TMC3     H14242   2.171   1.012  10.186  0.9517  0.7780 -0.1825
    6TMC3    H114243   2.352   0.703  10.420 -2.4001 -0.3261 -1.1909
    6TMC3    H214244   2.550   1.069  10.380 -2.5760  1.8541  1.1475
    6TMC3    C714245   2.553   0.838  10.505  0.3247  0.5089  0.4422
    6TMC3    C814246   2.362   1.183  10.213  0.5341 -0.3478  0.3248
    6TMC3    O114247   2.503   0.818  10.614  0.3720 -0.3067 -0.0109
    6TMC3    O214248   2.255   1.237  10.186 -0.2039 -0.5558 -0.4624
    7MPD2     C14249   3.410   0.646  11.488  0.0321  0.2783  0.2921
    7MPD2    C114250   3.277   0.678  11.517 -0.2104 -0.3455 -0.1460
    7MPD2    C214251   3.228   0.644  11.641  0.4419  0.5227  0.2858
    7MPD2    C314252   3.302   0.583  11.740 -0.6899  0.6336 -0.9389
    7MPD2    C414253   3.434   0.554  11.710 -0.6999 -0.0446  0.2811
    7MPD2    C514254   3.482   0.580  11.584 -0.3100 -0.5468  0.3771
    7MPD2     H14255   3.124   0.675  11.651  0.3346  0.9960 -2.3331
    7MPD2    H114256   3.494   0.500  11.783 -1.8337 -2.0398 -0.2502
    7MPD2    H214257   3.464   0.682  11.401 -0.3725 -0.9765 -0.4752
    7MPD2    H314258   3.579   0.540  11.557  0.1256 -0.5089  1.9020
    7MPD2     N14259   3.246   0.547  11.867 -0.4754 -0.4825  0.4001
    7MPD2    H514260   3.297   0.467  11.904  1.4922  0.1365 -0.9416
    7MPD2    N114261   3.181   0.732  11.423  0.1682 -0.1422 -0.9125
    7MPD2    H714262   3.087   0.746  11.458 -0.2993 -0.5158 -2.0143
    8TMC3    C114263   3.087   0.834  11.229  0.4689 -0.6661  0.5052
    8TMC3    C214264   3.038   0.773  11.110 -0.1827 -0.1412  0.4542
    8TMC3    C314265   2.906   0.756  11.092 -0.3504  0.5101  0.1840
    8TMC3    C414266   3.000   0.892  11.311  0.1619  0.0857  0.4933
    8TMC3    C514267   2.864   0.863  11.300 -0.1815  0.0678  0.8984
    8TMC3    C614268   2.814   0.799  11.185  0.9255 -0.1142  0.1764
    8TMC3     C14269   3.206   0.774  11.290 -0.4027 -0.0967 -0.0491
    8TMC3     O14270   3.308   0.744  11.223 -0.3518 -0.5933 -0.2496
    8TMC3     H14271   3.108   0.730  11.039 -1.0250  1.4114 -1.2978
    8TMC3    H114272   3.041   0.940  11.399  1.6292 -0.6315  0.1970
    8TMC3    H214273   2.708   0.802  11.164  1.2023 -0.2763 -1.2526
    8TMC3    C714274   2.830   0.790  11.429 -0.2165 -0.0455 -0.8552
    8TMC3    C814275   2.855   0.759  10.958  0.6309  0.5012 -0.7939
    8TMC3    O114276   2.924   0.778  11.510 -0.1012  0.2980 -0.2212
    8TMC3    O214277   2.738   0.720  10.935  0.0090 -0.1484 -0.1282
    9MPD2     C14278   3.035   0.865  10.664  0.7652  0.0474  0.4329
    9MPD2    C114279   2.921   0.828  10.732  0.2068  0.8192  0.2788
    9MPD2    C214280   2.797   0.824  10.667  0.6320  0.5785 -0.3102
    9MPD2    C314281   2.799   0.859  10.537 -0.0033  0.4911 -0.3550
    9MPD2    C414282   2.912   0.883  10.469  0.1658 -0.2450 -0.1851
    9MPD2    C514283   3.027   0.887  10.529  0.3334 -0.5584 -0.0059
    9MPD2     H14284   2.704   0.807  10.719  1.2565  0.8557  0.8959
    9MPD2    H114285   2.910   0.892  10.361 -1.4929  1.9650  0.0465
    9MPD2    H214286   3.129   0.882  10.715 -0.2771  3.1080  1.3265
    9MPD2    H314287   3.121   0.900  10.477  0.1260  2.4787  0.3920
    9MPD2     N14288   2.683   0.863  10.461  0.2895 -0.7450  0.0249
    9MPD2    H514289   2.690   0.874  10.361  0.4816  1.4837  0.2763
    9MPD2    N114290   2.948   0.809  10.873  0.7002 -0.3731  0.1017
    9MPD2    H714291   3.031   0.851  10.913 -1.1518  2.8214  0.6120
    1MPD1     C14292   1.594   4.569  16.038 -0.1911 -0.1474 -0.0061
    1MPD1    C114293   1.659   4.687  16.028 -0.0887 -0.3650 -0.2125
    1MPD1    C214294   1.730   4.713  15.915 -0.3451  0.5060 -0.3298
    1MPD1    C314295   1.737   4.622  15.811  0.1993  0.1307 -0.5103
    1MPD1    C414296   1.670   4.505  15.819  0.6042  0.5425  0.3929
    1MPD1    C514297   1.601   4.477  15.934 -0.1852 -0.6439  0.4292
    1MPD1     H14298   1.783   0.073  15.909  0.4185 -0.0422 -2.3107
    1MPD1    H114299   1.682   4.431  15.741 -0.2065  0.3614  0.4395
    1MPD1    H214300   1.537   4.536  16.124  1.5730  1.9857  1.9813
    1MPD1    H314301   1.555   4.380  15.948 -1.3499  0.0381  1.2878
    1MPD1     N14302   1.823   4.643  15.693 -0.9880 -0.1906 -0.2213
    1MPD1    H514303   1.833   4.573  15.621 -3.0646 -1.4115  0.6763
    1MPD1    N114304   1.638   0.058  16.124 -0.1810 -0.4379 -0.4756
    1MPD1    H614305   1.619   0.023  16.218 -0.0197  0.9592  0.0843
    1MPD1    H714306   1.715   0.125  16.124  0.2480 -0.9211  0.3511
    2TMC2    C114307   2.101   4.579  15.411 -0.3578  0.1165  0.5643
    2TMC2    C214308   2.156   4.688  15.348  1.0456  0.0255  0.1070
    2TMC2    C314309   2.125   0.081  15.397  0.0828 -0.1619  0.0678
    2TMC2    C414310   2.019   4.598  15.520 -0.0284  0.0165 -0.3212
    2TMC2    C514311   1.990   4.726  15.563 -0.3202  0.0063  0.2000
    2TMC2    C614312   2.035   0.105  15.495 -0.0288 -0.4191 -0.0725
    2TMC2     C14313   2.126   4.447  15.361  0.4244 -0.4244  0.2360
    2TMC2     O14314   2.236   4.435  15.307  0.2812 -0.3934  0.3187
    2TMC2     H14315   2.233   4.665  15.274 -2.4934 -1.1573 -3.2034
    2TMC2    H114316   2.015   4.513  15.587 -2.2831 -0.1298 -0.6505
    2TMC2    H214317   2.007   0.207  15.520  1.2916 -0.2121  0.5395
    2TMC2    C714318   1.906   0.018  15.681 -0.3597  0.2961 -0.5904
    2TMC2    C814319   2.193   0.199  15.344  0.4743  0.3754 -0.3215
    2TMC2    O114320   1.925   0.118  15.747 -0.5499  0.7905 -0.6130
    2TMC2    O214321   2.159   0.310  15.380 -0.4830  0.3232 -0.7000
    2TMC2    O514322   2.311   0.162  15.288 -0.0875 -0.2023 -0.2079
    2TMC2    H514323   2.309   0.069  15.258 -0.4367  0.7768 -3.1639
    3MPD1     C14324   2.023   3.950  15.326  0.3337  0.4111  0.2875
    3MPD1    C114325   1.912   4.015  15.376  0.1466 -0.5238 -0.3236
    3MPD1    C214326   1.909   4.152  15.385  0.3082 -0.5574  1.2296
    3MPD1    C314327   2.028   4.214  15.351 -0.4450  0.1321 -0.4812
    3MPD1    C414328   2.139   4.151  15.305  0.2190  0.1093  0.4390
    3MPD1    C514329   2.136   4.015  15.290 -0.2664 -0.0081 -1.2434
    3MPD1     H14330   1.829   4.207  15.432  0.2341  2.6631 -2.6224
    3MPD1    H114331   2.224   4.210  15.275 -0.9497  1.7920  0.4518
    3MPD1    H214332   2.023   3.842  15.313 -2.9382  0.4116  0.1993
    3MPD1    H314333   2.219   3.952  15.259  2.2305  3.6334 -1.9580
    3MPD1     N14334   2.028   4.356  15.383  0.1217 -0.3876 -0.3605
    3MPD1    H514335   1.946   4.391  15.433  0.4329 -0.1085 -0.0520
    3MPD1    N114336   1.794   3.945  15.395  0.1115  0.0915 -0.2341
    3MPD1    H614337   1.721   3.987  15.453  0.9930  0.9309  0.2708
    3MPD1    H714338   1.809   3.851  15.431 -0.9430  0.9570  2.4832
    1TMC1    C114339   0.845   3.399  12.796 -0.3766 -0.2847 -0.1000
    1TMC1    C214340   0.721   3.450  12.823  0.8358  0.1556  0.0704
    1TMC1    C314341   0.670   3.539  12.733 -0.4032  0.4321 -1.0409
    1TMC1    C414342   0.922   3.448  12.693 -0.2377  0.2644 -0.5209
    1TMC1    C514343   0.875   3.551  12.626 -0.3090 -0.4848 -0.0340
    1TMC1    C614344   0.752   3.605  12.647  0.2263  0.7106 -0.1814
    1TMC1     C14345   0.894   3.312  12.898 -0.1782 -0.4144 -0.1590
    1TMC1     O14346   0.989   3.242  12.859 -0.3576  0.0478 -0.1695
    1TMC1     H14347   0.658   3.407  12.900  0.3087 -3.4716 -2.3831
    1TMC1    H114348   1.021   3.416  12.663  0.1801  1.1232 -0.0567
    1TMC1    H214349   0.727   3.703  12.607  0.5746 -0.1961 -2.6346
    1TMC1    C714350   0.966   3.599  12.518  0.6653 -0.6546  0.1842
    1TMC1    C814351   0.544   3.609  12.773  0.3809 -0.5368 -0.3632
    1TMC1    O114352   1.082   3.562  12.508  0.2688  0.1384 -0.8547
    1TMC1    O214353   0.493   3.595  12.884  0.5783  0.5135  0.3523
    1TMC1    O314354   0.889   3.656  12.423  0.3618 -0.6959 -0.9394
    1TMC1    H314355   0.804   3.607  12.420 -0.0882  0.1410 -2.0675
    1TMC1    O514356   0.497   3.681  12.673 -0.1340  0.1822 -0.6789
    1TMC1    H514357   0.527   3.660  12.582 -2.7301  0.1070 -1.5256
    2MPD2     C14358   0.988   3.177  13.140 -0.4347  0.1082  0.0249
    2MPD2    C114359   0.910   3.293  13.140  0.2017 -0.5871 -0.7260
    2MPD2    C214360   0.868   3.355  13.253 -0.5018  0.5972  0.1574
    2MPD2    C314361   0.905   3.303  13.373  0.1021  0.5965 -0.2139
    2MPD2    C414362   0.982   3.188  13.379  0.5716 -0.1954 -0.0394
    2MPD2    C514363   1.018   3.129  13.262  0.3923 -0.6545 -0.4091
    2MPD2     H14364   0.800   3.440  13.248  1.2586  2.0056 -0.0693
    2MPD2    H114365   1.024   3.149  13.471  1.2829  2.7009  0.8727
    2MPD2    H214366   1.022   3.121  13.053 -0.8898 -2.8629  1.7435
    2MPD2    H314367   1.089   3.046  13.267 -0.9137 -1.8095 -1.0645
    2MPD2     N14368   0.875   3.377  13.485 -0.2379 -0.2182 -0.2691
    2MPD2    H514369   0.834   3.469  13.468  0.2293 -0.1331 -0.9252
    2MPD2    N114370   0.867   3.361  13.021  0.1968  0.2044 -0.8576
    2MPD2    H714371   0.827   3.454  13.031 -1.4025 -0.7807  1.9938
    3TCq1    O114372   0.955   3.614  14.131 -0.0481  0.7841  0.1310
    3TCq1    C114373   0.972   3.510  14.051 -0.2044 -0.6720  0.2219
    3TCq1    O214374   1.066   3.433  14.056  0.4590 -0.8732 -0.3661
    3TCq1    C214375   0.922   3.539  13.918  0.3293 -0.3733 -0.5356
    3TCq1    C314376   0.902   3.672  13.876 -0.3359 -0.2110 -0.7546
    3TCq1    C414377   0.887   3.693  13.741 -0.7785 -0.2852  0.0120
    3TCq1    C514378   0.880   3.595  13.649 -0.4205 -0.4436  0.2932
    3TCq1    C614379   0.890   3.467  13.697 -0.3612 -1.2714 -0.4744
    3TCq1    C714380   0.921   3.443  13.828  0.5337  0.1368  0.7055
    3TCq1    C814381   0.921   3.351  13.614  0.3248 -0.3148 -0.3041
    3TCq1    O414382   0.961   3.248  13.666 -0.2684 -0.1149  0.1784
    3TCq1    C914383   0.862   3.830  13.703  0.4111  0.1386  0.6150
    3TCq1    O514384   0.844   3.848  13.577  0.0729  0.0162  0.1669
    3TCq1    O614385   0.851   3.920  13.796  0.4270 -0.2968 -0.5535
    3TCq1    H114386   0.894   3.681  14.092 -1.2981 -0.6202 -0.3220
    3TCq1    H214387   0.897   3.756  13.944 -1.4382 -0.7664 -0.1434
    3TCq1    H314388   0.861   3.616  13.544 -1.8754  2.3534  1.0946
    3TCq1    H414389   0.949   3.344  13.862 -0.6682 -0.2016  0.7285
    1MPD2     C14390   0.603   4.183  14.775  0.8058 -0.1657  0.0570
    1MPD2    C114391   0.512   4.083  14.801 -0.6080 -0.6640 -0.0337
    1MPD2    C214392   0.523   4.006  14.915 -1.3155  0.0229  0.7712
    1MPD2    C314393   0.632   4.019  14.992  0.6908 -0.3539  0.0423
    1MPD2    C414394   0.732   4.112  14.958 -0.4822  0.7511  0.5555
    1MPD2    C514395   0.717   4.194  14.851  0.2228 -0.1329  0.0109
    1MPD2     H14396   0.446   3.935  14.945  0.8715 -2.8935 -0.5518
    1MPD2    H114397   0.818   4.122  15.024 -2.6126  5.4216  2.6075
    1MPD2    H214398   0.595   4.253  14.693  0.9806 -0.2071  0.0032
    1MPD2    H314399   0.800   4.260  14.829  0.5525 -0.5844 -0.0876
    1MPD2     N14400   0.645   3.937  15.109  0.0703 -0.3327 -0.6723
    1MPD2    H514401   0.733   3.945  15.160 -0.9629 -1.0427  1.2377
    1MPD2    N114402   0.399   4.074  14.719 -0.2795  0.1099 -0.1346
    1MPD2    H714403   0.390   4.135  14.638 -1.7620  1.1320  0.8156
    2TMC3    C114404   0.195   3.995  14.626 -0.2530 -0.5752 -0.4792
    2TMC3    C214405   0.105   3.894  14.659 -0.1970  0.2113  0.4796
    2TMC3    C314406   4.703   3.913  14.650 -0.1543  0.0422  0.3245
    2TMC3    C414407   0.153   4.123  14.596 -0.4025 -0.3354 -0.2391
    2TMC3    C514408   0.017   4.135  14.602 -0.5055  0.1994  0.1425
    2TMC3    C614409   4.665   4.033  14.614 -0.3972  0.4044 -0.1543
    2TMC3     C14410   0.302   3.977  14.723  0.3883  0.5308  0.5395
    2TMC3     O14411   0.290   3.876  14.789 -0.1619 -0.5554  0.6808
    2TMC3     H14412   0.145   3.793  14.654 -0.6281 -0.0272  1.9744
    2TMC3    H114413   0.223   4.195  14.555  0.0917 -1.5206 -1.4527
    2TMC3    H214414   4.559   4.056  14.615 -1.0576 -2.7139 -0.6322
    2TMC3    C714415   4.688   4.254  14.542 -0.1974  0.4818 -0.1589
    2TMC3    C814416   4.640   3.890  14.777 -0.2017 -0.6220 -0.0573
    2TMC3    O114417   4.581   4.245  14.487  0.1147  0.2211  0.0413
    2TMC3    O214418   4.521   3.893  14.794  0.0413  0.0475 -0.2551
    3TCq1    O114419   0.097   0.700  14.774  0.6921 -0.2985 -0.0328
    3TCq1    C114420   0.209   0.644  14.833 -0.7210  0.0075 -0.9965
    3TCq1    O214421   0.282   0.702  14.916  0.2091  0.6776 -0.1892
    3TCq1    C214422   0.228   0.513  14.778  0.1590  0.4246 -0.5582
    3TCq1    C314423   0.354   0.466  14.775  0.0667  0.3533  0.1211
    3TCq1    C414424   0.375   0.337  14.743  0.6737 -0.3429  0.2718
    3TCq1    C514425   0.274   0.253  14.728  0.2499  0.4077 -0.7891
    3TCq1    C614426   0.144   0.303  14.730  1.1998 -0.4868  0.1334
    3TCq1    C714427   0.120   0.430  14.753  0.3600 -0.3743 -0.0520
    3TCq1    C814428   0.033   0.225  14.678 -0.3517 -0.1190 -0.5739
    3TCq1    O414429   4.687   0.291  14.616  0.3589  1.0026 -0.4148
    3TCq1    C914430   0.513   0.294  14.720  0.3786  0.0864  0.1898
    3TCq1    O514431   0.531   0.201  14.641 -0.4376  0.4797  0.2096
    3TCq1    O614432   0.584   0.342  14.809 -0.3181  0.4140 -0.0309
    3TCq1    H114433   0.070   0.650  14.694  0.7393  0.5716 -0.5928
    3TCq1    H214434   0.446   0.519  14.797  0.0298  0.2486  0.5239
    3TCq1    H314435   0.289   0.151  14.696  0.3603  0.0503  0.3956
    3TCq1    H414436   0.017   0.461  14.772  0.1066 -1.0040 -0.3958
    4MPD2     C14437   4.632   0.017  14.519  0.8850 -0.4867  0.0839
    4MPD2    C114438   4.731   4.723  14.616 -0.5152 -0.2869  0.1684
    4MPD2    C214439   0.043   4.596  14.628  0.1050 -0.1655 -0.6870
    4MPD2    C314440   4.716   4.497  14.550  0.0402  0.5758  0.5543
    4MPD2    C414441   4.620   4.526  14.455  0.5122 -0.0058 -0.7252
    4MPD2    C514442   4.583   4.656  14.435  0.1533 -0.1902  0.5871
    4MPD2     H14443   0.125   4.576  14.696 -0.0651  0.4720 -0.2974
    4MPD2    H114444   4.570   4.453  14.393 -1.4978  1.2705 -0.6282
    4MPD2    H214445   4.601   0.118  14.495  0.1621 -0.4381  1.2289
    4MPD2    H314446   4.501   4.676  14.366  0.1678 -1.6758  0.1348
    4MPD2     N14447   0.017   4.365  14.579 -0.5981 -0.3544 -0.7627
    4MPD2    H514448   0.099   4.348  14.636 -0.3790 -3.2817 -1.9502
    4MPD2    N114449   0.061   0.087  14.690  0.0137 -0.4209 -0.4441
    4MPD2    H714450   0.127   0.058  14.761 -0.2499 -2.3792 -1.0021
    5TMC2    C114451   0.391   3.774  15.439 -0.1539  0.3364 -0.1952
    5TMC2    C214452   0.445   3.873  15.518 -1.0390  0.4762 -0.3418
    5TMC2    C314453   0.569   3.923  15.484 -0.6172 -0.0489  0.1958
    5TMC2    C414454   0.459   3.728  15.332 -0.0246 -0.5118  0.3554
    5TMC2    C514455   0.575   3.792  15.293 -0.8063 -0.5741 -0.6798
    5TMC2    C614456   0.632   3.893  15.367 -0.1732 -0.1378 -0.4037
    5TMC2     C14457   0.249   3.783  15.412  0.7415  0.2078  0.0785
    5TMC2     O14458   0.174   3.798  15.506  0.1566  0.6393  0.1799
    5TMC2     H14459   0.387   3.917  15.598  1.8023  3.8207 -0.1227
    5TMC2    H114460   0.424   3.640  15.279  0.9775 -0.7752  0.1203
    5TMC2    H214461   0.730   3.937  15.350 -0.2618 -0.0733 -0.7691
    5TMC2    C714462   0.563   3.834  15.157  0.3322 -0.0779  0.1456
    5TMC2    C814463   0.646   3.934  15.606 -0.2195  0.2127  0.4335
    5TMC2    O114464   0.459   3.794  15.107  0.0057  0.2072  0.4707
    5TMC2    O214465   0.598   3.879  15.703  0.0592  0.1966  0.7207
    5TMC2    O514466   0.775   3.946  15.574 -0.1713 -0.1606  0.5286
    5TMC2    H514467   0.773   4.028  15.520  0.1601  0.2355  1.1200
    6MPD2     C14468   4.606   3.847  15.071  0.0013 -0.7958  0.4058
    6MPD2    C114469   4.724   3.851  15.005  0.3133 -0.2163 -0.5634
    6MPD2    C214470   0.104   3.845  15.078  0.3156  0.7400  0.1206
    6MPD2    C314471   0.105   3.825  15.214 -0.5120 -0.2041 -0.2691
    6MPD2    C414472   4.716   3.824  15.277  0.3158 -0.4083 -0.7452
    6MPD2    C514473   4.601   3.833  15.206 -0.7332  0.6695 -0.1378
    6MPD2     H14474   0.204   3.839  15.037  0.1995  0.1386 -0.0659
    6MPD2    H114475   4.709   3.786  15.379  2.1566 -2.2255 -1.3015
    6MPD2    H214476   4.510   3.836  15.021  0.3397  0.6005 -0.5737
    6MPD2    H314477   4.504   3.839  15.254 -0.7203  0.5015 -0.0869
    6MPD2     N14478   0.231   3.795  15.275 -0.1318  0.1911  0.8602
    6MPD2    H514479   0.317   3.804  15.222 -0.9917  0.7044 -0.4711
    6MPD2    N114480   0.008   3.865  14.867 -0.5564 -0.8702  0.1980
    6MPD2    H714481   0.102   3.869  14.827 -0.4056 -0.6346  0.5749
  945NH3     N114482   2.494   1.582   8.528  0.0743 -0.0403  0.0031
  945NH3     H214483   2.457   1.595   8.434 -0.6479  0.0552  0.3012
  945NH3     H314484   2.408   1.571   8.581 -1.4150 -0.4931 -2.4858
  945NH3     H414485   2.523   1.677   8.545 -1.0091  0.4844 -1.0340
  946SOD     NA14486   4.611   2.744  14.849 -0.8152  0.1808  0.3273
  947SOD     NA14487   0.673   4.294  12.554  0.2386  0.4359  0.3562
  948SOD     NA14488   2.526   1.826   2.887  0.0115 -0.1856 -0.0720
  949SOD     NA14489   1.590   2.253   8.439 -0.0618 -0.2917  0.3917
  950SOD     NA14490   3.490   1.397  12.097  0.0389 -0.1837  0.5262
  951SOD     NA14491   1.891   3.063  15.040 -0.3745 -0.1216  0.2031
  952SOD     NA14492   1.689   4.377   7.775 -0.0281  0.5562  0.1602
  953SOD     NA14493   1.853   1.823  16.751 -0.0430 -0.2291  0.5263
  954SOL     OW14494   1.754   3.424   5.525 -0.0010  0.1700  0.1581
  954SOL    HW114495   1.797   3.503   5.557 -0.0494 -0.1753  1.0787
  954SOL    HW214496   1.821   3.379   5.475 -0.5075  1.3836 -1.5976
  955SOL     OW14497   0.904   0.626   4.772  0.3842 -0.1615 -0.4062
  955SOL    HW114498   0.886   0.579   4.690 -0.6732  0.8422 -0.7419
  955SOL    HW214499   0.988   0.589   4.799  0.6106 -0.4901 -1.5626
  956SOL     OW14500   0.847   2.222   9.196 -0.1800  0.1698  0.5538
  956SOL    HW114501   0.915   2.239   9.130 -0.3488  0.2544  0.4012
  956SOL    HW214502   0.791   2.160   9.148  1.9391  0.6030 -2.4795
  957SOL     OW14503   2.794   3.063   3.073 -0.5207  0.5579  0.5356
  957SOL    HW114504   2.752   2.988   3.117  1.0974  0.4894  1.9642
  957SOL    HW214505   2.862   3.094   3.133 -0.5482  0.6331  0.5272
  958SOL     OW14506   0.072   3.136  17.164  0.4333 -0.5770 -0.0510
  958SOL    HW114507   0.037   3.161  17.078  0.6704 -0.1609 -0.0235
  958SOL    HW214508   0.164   3.160  17.148  0.4233 -0.3854  0.1852
  959SOL     OW14509   1.998   0.243   2.082  0.6387  0.3919 -0.2339
  959SOL    HW114510   2.037   0.330   2.084 -1.8825  1.4934  0.8998
  959SOL    HW214511   2.004   0.229   1.987 -0.8849 -1.3534 -0.0653
  960SOL     OW14512   2.878   4.702   1.333 -0.0397 -0.7667 -0.2253
  960SOL    HW114513   2.816   4.734   1.399  0.8286  2.0969 -0.8274
  960SOL    HW214514   2.911   4.636   1.394  0.8216  0.4897  0.6499
  961SOL     OW14515   1.692   0.461  10.768  0.1992  0.0879  0.0177
  961SOL    HW114516   1.728   0.384  10.725  0.2220  0.8516 -1.3058
  961SOL    HW214517   1.601   0.435  10.783 -0.4574  1.4174 -1.7299
  962SOL     OW14518   3.728   1.668   7.195  0.1580 -0.2277  0.0600
  962SOL    HW114519   3.701   1.646   7.106  0.8424  1.2630 -0.5193
  962SOL    HW214520   3.805   1.717   7.166  1.1147 -2.1498 -0.6785
  963SOL     OW14521   3.453   1.997   7.485 -0.6908 -0.0783 -0.3701
  963SOL    HW114522   3.424   1.931   7.422 -1.7866 -0.1288  0.1839
  963SOL    HW214523   3.535   2.026   7.446 -1.8745  0.9535 -2.0393
  964SOL     OW14524   0.575   1.747   6.147 -0.0760 -0.3835 -0.1695
  964SOL    HW114525   0.616   1.704   6.072 -0.8283  0.0561 -0.8361
  964SOL    HW214526   0.534   1.825   6.110  0.6664  0.5305  0.9596
  965SOL     OW14527   0.714   4.669   2.003 -0.1302  0.0146 -0.4465
  965SOL    HW114528   0.677   4.678   1.915 -1.6670  0.3644  0.2392
  965SOL    HW214529   0.661   4.597   2.036  2.7391 -1.1691  1.5212
  966SOL     OW14530   4.091   4.484   4.230 -0.4373  0.1651  0.1502
  966SOL    HW114531   4.141   4.402   4.242 -0.9506 -0.0779  0.6174
  966SOL    HW214532   4.151   4.542   4.277  1.9098 -0.1797 -2.4085
  967SOL     OW14533   1.735   2.849  17.057  0.3862  0.4493  0.3072
  967SOL    HW114534   1.804   2.783  17.061 -0.4776 -0.3649  1.5407
  967SOL    HW214535   1.724   2.856  16.962  1.3752  1.9111  0.2989
  968SOL     OW14536   1.117   1.213   4.768 -0.0330  0.4136  0.7163
  968SOL    HW114537   1.129   1.163   4.687 -3.4644  3.1415 -1.4661
  968SOL    HW214538   1.094   1.300   4.736 -2.0928 -0.0189  1.0444
  969SOL     OW14539   0.515   0.342   2.999 -0.1588  0.0358 -0.0016
  969SOL    HW114540   0.567   0.417   2.969 -1.3902  0.4136 -1.1704
  969SOL    HW214541   0.544   0.340   3.090 -1.8767 -1.4574  0.5019
  970SOL     OW14542   1.494   3.132   1.761 -0.4444 -0.5687 -0.3565
  970SOL    HW114543   1.535   3.076   1.695 -0.3539  0.0804 -0.8488
  970SOL    HW214544   1.457   3.210   1.719 -1.7546 -0.2638  1.3700
  971SOL     OW14545   2.115   1.134   4.276  0.1235 -0.3008 -0.1374
  971SOL    HW114546   2.162   1.058   4.311  1.3241  0.1799 -0.7276
  971SOL    HW214547   2.117   1.194   4.350  0.2957  0.3375 -0.6631
  972SOL     OW14548   4.018   4.658   7.197  0.0607 -0.5637  0.0819
  972SOL    HW114549   4.042   4.678   7.287  0.3743 -0.2035 -0.0834
  972SOL    HW214550   4.106   4.639   7.164  0.1995  1.1828 -0.5270
  973SOL     OW14551   0.417   2.252   3.379 -0.0263  0.6074  0.1737
  973SOL    HW114552   0.322   2.258   3.390 -0.2208 -0.4299 -1.0161
  973SOL    HW214553   0.430   2.265   3.286  1.7821 -1.6015  0.1172
  974SOL     OW14554   0.196   4.727   9.981 -0.7257  0.1184 -0.0486
  974SOL    HW114555   0.217   0.060  10.045 -0.3078  0.3770 -0.4595
  974SOL    HW214556   0.201   4.648  10.034 -4.8114 -1.9762 -2.7723
  975SOL     OW14557   3.985   2.387   6.920 -0.4753  0.0401  0.9925
  975SOL    HW114558   3.919   2.350   6.861 -1.1700 -1.2897  2.5858
  975SOL    HW214559   3.989   2.322   6.991  0.4022 -0.7377  0.2234
  976SOL     OW14560   0.648   4.036   1.618  0.1095 -0.2462 -0.3594
  976SOL    HW114561   0.641   4.101   1.548 -0.0166 -0.9160 -0.9711
  976SOL    HW214562   0.707   4.086   1.675  0.5438 -2.2505  0.9355
  977SOL     OW14563   2.969   4.394  11.840 -0.0496  0.7383 -0.2873
  977SOL    HW114564   3.008   4.468  11.793  0.4281 -0.0337 -1.1032
  977SOL    HW214565   2.989   4.330  11.772 -0.8140  0.1302  0.0671
  978SOL     OW14566   0.795   0.240   7.702 -0.0742  0.5832  0.0161
  978SOL    HW114567   0.730   0.182   7.744  1.8825 -3.2131 -2.2465
  978SOL    HW214568   0.743   0.296   7.644 -1.7591 -1.1310 -0.1245
  979SOL     OW14569   0.265   0.918   7.964  0.2046 -0.2892 -0.2693
  979SOL    HW114570   0.226   0.833   7.985  0.1313 -0.7164 -2.0835
  979SOL    HW214571   0.319   0.931   8.042 -0.6299  1.0545  0.0826
  980SOL     OW14572   2.527   1.979   5.732 -0.3610 -0.1362 -0.2632
  980SOL    HW114573   2.500   1.905   5.678  1.3395  0.0456 -1.3716
  980SOL    HW214574   2.500   2.052   5.675 -2.0558 -0.9823 -0.5367
  981SOL     OW14575   3.507   4.368   5.774  0.2883  0.2620 -0.0991
  981SOL    HW114576   3.523   4.277   5.800  0.9971 -0.0008 -1.4349
  981SOL    HW214577   3.540   4.367   5.684  2.0141 -0.8319  0.5496
  982SOL     OW14578   3.733   0.032   4.644 -0.2360  0.2083 -0.5260
  982SOL    HW114579   3.665   0.081   4.689  1.2888  2.2571 -0.4623
  982SOL    HW214580   3.776   4.729   4.721  2.5118  0.5299 -1.9012
  983SOL     OW14581   2.465   1.252   8.711 -0.5887  0.0615 -0.4960
  983SOL    HW114582   2.525   1.281   8.642 -0.4438  1.5168  0.2458
  983SOL    HW214583   2.461   1.159   8.691  1.2566  0.3150 -2.0747
  984SOL     OW14584   1.443   1.318  16.597  1.1756  0.8313 -0.0065
  984SOL    HW114585   1.462   1.252  16.530 -1.6783  0.3963 -0.4004
  984SOL    HW214586   1.347   1.321  16.595  1.1051  0.3020  2.6516
  985SOL     OW14587   3.151   1.751  16.793 -0.0674 -0.3699  0.0586
  985SOL    HW114588   3.116   1.680  16.846  0.6291  0.7732  2.0610
  985SOL    HW214589   3.073   1.807  16.792 -0.1536 -0.5493 -1.8305
  986SOL     OW14590   3.879   1.993  17.722  0.0772  0.3690  0.9514
  986SOL    HW114591   3.965   2.009   0.023 -0.6471 -0.2086  2.8106
  986SOL    HW214592   3.833   2.071   0.015  0.2747  0.6324  0.5706
  987SOL     OW14593   1.496   0.961   9.774 -0.3909  0.4497  0.5693
  987SOL    HW114594   1.507   0.883   9.720  0.7532  1.8364 -1.1955
  987SOL    HW214595   1.514   0.931   9.863 -0.7461  2.0123  1.1768
  988SOL     OW14596   0.078   4.652   8.192 -0.2627  0.5904  0.0546
  988SOL    HW114597   0.076   4.588   8.264 -0.8469  0.8691  0.2894
  988SOL    HW214598   0.152   4.705   8.221  0.4363 -0.0841 -0.4883
  989SOL     OW14599   4.428   0.697   9.080  0.4284  0.1743 -0.3838
  989SOL    HW114600   4.430   0.777   9.133  1.4478  1.0775 -1.8012
  989SOL    HW214601   4.346   0.664   9.117  0.8381 -0.2879  0.1133
  990SOL     OW14602   0.453   3.860  16.715 -0.0699  0.3900  0.2804
  990SOL    HW114603   0.428   3.936  16.664  1.4649  1.6338  1.3661
  990SOL    HW214604   0.461   3.791  16.649 -2.5645  1.2030 -0.8464
  991SOL     OW14605   3.917   1.041  16.277  0.3610 -0.2301 -0.2354
  991SOL    HW114606   3.828   1.060  16.306  0.7275 -0.5808  1.1285
  991SOL    HW214607   3.959   1.061  16.361  0.0476 -1.3252  0.1797
  992SOL     OW14608   3.491   3.359   7.409 -0.1765 -0.1180 -0.1494
  992SOL    HW114609   3.499   3.435   7.468 -2.9311  0.6741 -0.7876
  992SOL    HW214610   3.405   3.319   7.424 -0.1622  0.2240  0.8888
  993SOL     OW14611   3.566   0.188   7.382  0.1237 -0.0582 -0.0153
  993SOL    HW114612   3.569   0.107   7.331  1.6174  1.1768 -1.8957
  993SOL    HW214613   3.599   0.251   7.318  0.3925  0.5824  0.7483
  994SOL     OW14614   1.903   0.324  15.259 -0.2240 -0.1548 -0.2397
  994SOL    HW114615   1.870   0.389  15.322 -2.0738 -1.3175 -0.0191
  994SOL    HW214616   1.995   0.348  15.268  0.0296 -1.2412  0.0152
  995SOL     OW14617   3.755   1.622   1.664  0.2074 -0.0153  0.1640
  995SOL    HW114618   3.737   1.592   1.753 -0.0185 -0.3843 -0.0080
  995SOL    HW214619   3.716   1.709   1.669 -0.8238 -0.4004 -1.2631
  996SOL     OW14620   4.544   0.781   3.812  0.3469  0.2624  0.0991
  996SOL    HW114621   4.601   0.730   3.869  0.0809 -1.1162 -0.8770
  996SOL    HW214622   4.469   0.798   3.870 -0.0668 -2.4304  0.3631
  997SOL     OW14623   2.419   1.442   6.511 -0.8327 -0.0149 -0.2683
  997SOL    HW114624   2.347   1.502   6.492 -2.0663 -0.6709  2.2236
  997SOL    HW214625   2.415   1.365   6.454 -2.1598  1.4547 -2.1639
  998SOL     OW14626   0.046   3.057  15.055 -0.4682  0.5258 -0.2312
  998SOL    HW114627   4.697   3.091  15.022 -1.6900  0.8136  3.1079
  998SOL    HW214628   0.022   2.965  15.060 -1.5982  0.6958 -2.7344
  999SOL     OW14629   3.824   4.085   3.155 -0.2289  0.0610  0.4901
  999SOL    HW114630   3.839   3.990   3.148 -0.3226  0.0558  0.3498
  999SOL    HW214631   3.837   4.103   3.248  0.2543  1.3615  0.1625
 1000SOL     OW14632   0.853   3.761  13.315 -0.3959 -0.4469 -0.2595
 1000SOL    HW114633   0.777   3.703  13.318 -0.3104 -0.5278  0.3328
 1000SOL    HW214634   0.845   3.804  13.401 -0.2330 -1.9417  0.5040
 1001SOL     OW14635   3.159   3.467  15.535  0.7504 -0.3059  0.1013
 1001SOL    HW114636   3.089   3.509  15.585  0.5702 -0.3795 -0.0885
 1001SOL    HW214637   3.191   3.540  15.482  0.4123  1.4299  2.2785
 1002SOL     OW14638   0.254   1.408   4.890 -0.2518  0.0599  0.2433
 1002SOL    HW114639   0.250   1.494   4.931  0.8338 -0.7278  1.9966
 1002SOL    HW214640   0.182   1.352   4.919 -1.6836  1.3146 -0.9160
 1003SOL     OW14641   0.224   1.058   4.341 -0.2555  0.1849  0.0672
 1003SOL    HW114642   0.264   1.106   4.269  1.9727 -0.0638  1.1160
 1003SOL    HW214643   0.225   0.972   4.299 -0.4507 -0.7137  1.8763
 1004SOL     OW14644   4.027   1.671   2.167  0.5213  0.5380 -0.2535
 1004SOL    HW114645   4.035   1.635   2.255  1.8253  3.1524  0.6851
 1004SOL    HW214646   3.932   1.682   2.172  0.6695  1.5619  0.3935
 1005SOL     OW14647   4.386   3.644   3.813  1.0273 -0.0360  0.3008
 1005SOL    HW114648   4.309   3.605   3.773  1.1412 -0.9626  0.9797
 1005SOL    HW214649   4.354   3.724   3.855  1.4095  0.8861 -1.1529
 1006SOL     OW14650   3.923   3.473   3.275  0.4177  0.5820 -0.4510
 1006SOL    HW114651   3.899   3.555   3.231 -0.5761  1.2362  1.2987
 1006SOL    HW214652   4.018   3.476   3.288  0.4129  1.0371 -0.5220
 1007SOL     OW14653   2.562   0.219  15.331 -0.6714  0.1205 -0.0250
 1007SOL    HW114654   2.583   0.133  15.368 -2.4697  0.1759  1.1278
 1007SOL    HW214655   2.467   0.225  15.329 -0.5377  2.4693  0.5401
 1008SOL     OW14656   0.407   0.123   5.291  0.7379 -0.2014  0.6913
 1008SOL    HW114657   0.455   0.093   5.214  0.3612 -1.6297  1.0267
 1008SOL    HW214658   0.465   0.191   5.326  0.2527 -0.0198  1.1344
 1009SOL     OW14659   1.005   1.939   9.214  0.2828 -0.0478 -0.0537
 1009SOL    HW114660   1.087   1.936   9.164 -0.4519 -0.1141 -1.2668
 1009SOL    HW214661   0.977   2.029   9.229 -0.1781 -0.4319  1.3520
 1010SOL     OW14662   4.144   0.869   0.620 -0.1402  0.1774 -0.4188
 1010SOL    HW114663   4.168   0.786   0.579 -0.5217  0.5768 -1.4482
 1010SOL    HW214664   4.208   0.877   0.690 -1.4228 -0.0206  0.7844
 1011SOL     OW14665   3.916   4.176  16.355  0.2615  0.4083  0.4389
 1011SOL    HW114666   3.877   4.169  16.442  0.0340 -1.0499  0.2288
 1011SOL    HW214667   3.994   4.121  16.364  0.3112  0.0380 -2.2375
 1012SOL     OW14668   2.708   2.118   9.035  0.6467  0.3679  0.5666
 1012SOL    HW114669   2.722   2.165   9.117 -1.1870 -1.6116  2.0050
 1012SOL    HW214670   2.793   2.074   9.026 -0.1697 -1.0969  0.0550
 1013SOL     OW14671   0.107   4.700  14.950  0.1803 -0.1921  0.7066
 1013SOL    HW114672   0.120   4.624  15.008  0.9473 -0.3602  0.3137
 1013SOL    HW214673   0.194   4.703  14.910  0.8385  0.3850  2.1754
 1014SOL     OW14674   4.564   2.700  10.902  0.2044  0.0205 -0.6151
 1014SOL    HW114675   4.607   2.726  10.984  0.2770 -0.7910 -0.3940
 1014SOL    HW214676   4.481   2.661  10.927  0.1533  0.8008  0.4527
 1015SOL     OW14677   3.954   4.014  10.356  0.1210 -0.0198  0.2390
 1015SOL    HW114678   3.993   3.945  10.411 -0.4775 -1.2740 -0.9160
 1015SOL    HW214679   3.860   4.001  10.369 -0.0216  0.3130 -0.4980
 1016SOL     OW14680   3.274   3.849   3.784  0.0164  0.3170 -0.0942
 1016SOL    HW114681   3.248   3.883   3.699 -0.9268 -0.2224 -0.0206
 1016SOL    HW214682   3.201   3.791   3.806  0.4202 -1.0288 -2.3270
 1017SOL     OW14683   4.399   2.509   8.650 -0.5359 -0.3119 -0.0936
 1017SOL    HW114684   4.392   2.605   8.647 -2.0059 -0.3808  1.7115
 1017SOL    HW214685   4.349   2.486   8.728 -0.3805 -1.3318 -0.2944
 1018SOL     OW14686   1.488   2.624   6.758 -0.0069  0.3153  0.0740
 1018SOL    HW114687   1.445   2.617   6.673 -2.0776  2.4137  0.9423
 1018SOL    HW214688   1.421   2.588   6.816 -0.1838 -0.3158 -0.5216
 1019SOL     OW14689   3.260   1.314   9.289 -0.3263 -0.5200  0.1005
 1019SOL    HW114690   3.262   1.368   9.210  1.4982  2.3836  2.1286
 1019SOL    HW214691   3.261   1.382   9.356 -0.7402  1.9279 -2.3567
 1020SOL     OW14692   2.636   4.509   4.028 -0.2423  0.0574  0.2550
 1020SOL    HW114693   2.717   4.561   4.026  0.3105 -0.8077 -0.1015
 1020SOL    HW214694   2.658   4.441   4.090 -1.7853 -2.5972 -2.1076
 1021SOL     OW14695   2.071   3.858   1.655  0.1105 -0.4679 -0.2878
 1021SOL    HW114696   1.983   3.854   1.693 -0.5164  2.1360 -1.4691
 1021SOL    HW214697   2.085   3.951   1.636  0.9568 -0.7587 -1.0788
 1022SOL     OW14698   3.386   0.910   7.818  0.2771 -0.1365 -0.8175
 1022SOL    HW114699   3.389   0.848   7.745  1.4129 -1.0489  0.0024
 1022SOL    HW214700   3.351   0.983   7.768  0.2616  0.9344  0.7455
 1023SOL     OW14701   0.670   3.983  10.954 -0.1640  0.3249  0.1221
 1023SOL    HW114702   0.633   3.970  11.041  1.2521 -0.3250  0.6241
 1023SOL    HW214703   0.751   3.933  10.955 -1.0609 -1.0062  3.1827
 1024SOL     OW14704   1.456   2.900   4.347  0.5415  0.1599 -0.3631
 1024SOL    HW114705   1.543   2.860   4.349  0.7533  0.5838 -1.4633
 1024SOL    HW214706   1.406   2.858   4.417 -1.6460 -1.2104 -2.7872
 1025SOL     OW14707   0.398   1.046   3.334  0.0194 -0.2554 -0.3325
 1025SOL    HW114708   0.491   1.061   3.317 -0.5089  0.9114 -2.2843
 1025SOL    HW214709   0.372   1.126   3.380 -1.2469 -0.9240  0.1204
 1026SOL     OW14710   0.214   3.747   7.187 -0.1253  0.4070  0.1699
 1026SOL    HW114711   0.177   3.715   7.105 -2.8004 -3.4076  2.8299
 1026SOL    HW214712   0.206   3.842   7.179 -1.0133  0.3643  0.5109
 1027SOL     OW14713   0.508   0.315   6.944 -0.0968 -0.1850  0.0396
 1027SOL    HW114714   0.578   0.351   6.998 -1.2871  1.6428  0.4015
 1027SOL    HW214715   0.552   0.309   6.859 -0.3615 -0.8681 -0.0497
 1028SOL     OW14716   3.162   2.806  15.713  0.0378  0.3191 -0.0982
 1028SOL    HW114717   3.127   2.896  15.718  1.4649  0.9339 -1.2589
 1028SOL    HW214718   3.183   2.812  15.620  2.4509  0.4494  0.4555
 1029SOL     OW14719   1.801   0.275   8.794  0.1218 -0.0641 -0.6656
 1029SOL    HW114720   1.747   0.280   8.715  0.1398  1.8049 -0.5626
 1029SOL    HW214721   1.879   0.324   8.768  1.3389  0.0059  3.0964
 1030SOL     OW14722   0.598   1.489   6.295  0.2824 -0.2714 -0.2104
 1030SOL    HW114723   0.569   1.560   6.238 -0.4016  0.4701  1.0874
 1030SOL    HW214724   0.584   1.414   6.237  0.4043 -0.5323  0.0956
 1031SOL     OW14725   3.636   0.533   7.950  0.1898 -0.5775  0.0864
 1031SOL    HW114726   3.679   0.604   7.997 -0.2291 -0.2846  0.0277
 1031SOL    HW214727   3.679   0.456   7.989 -1.2912 -2.0480 -1.1882
 1032SOL     OW14728   4.640   1.781   9.933 -0.1101  0.5224 -0.2875
 1032SOL    HW114729   4.662   1.720   9.862  0.4480  2.8458 -2.1268
 1032SOL    HW214730   4.624   1.709   9.993 -1.3033  2.6663  1.9839
 1033SOL     OW14731   2.537   3.545   1.798 -0.1258 -0.7420  0.1538
 1033SOL    HW114732   2.618   3.582   1.763 -0.1569 -0.8696 -0.0522
 1033SOL    HW214733   2.573   3.480   1.858  0.7805 -0.5437 -0.1698
 1034SOL     OW14734   3.644   4.473   6.396 -0.3789  0.1484 -0.0164
 1034SOL    HW114735   3.611   4.471   6.306  2.1299  0.4764 -0.9322
 1034SOL    HW214736   3.647   4.383   6.430 -1.7525  0.1804  0.2065
 1035SOL     OW14737   4.255   2.858   8.169  0.4373 -0.1631 -0.0944
 1035SOL    HW114738   4.188   2.802   8.208  1.1920 -2.2161 -1.7215
 1035SOL    HW214739   4.234   2.946   8.199 -0.7809  0.1478 -1.8750
 1036SOL     OW14740   2.110   3.340   9.447 -0.1526 -0.0468 -0.1255
 1036SOL    HW114741   2.112   3.432   9.473  1.7985 -0.2747  0.5409
 1036SOL    HW214742   2.148   3.350   9.360  0.6980  1.5015  0.4185
 1037SOL     OW14743   1.362   4.469  14.131 -0.2652  0.0217 -0.0457
 1037SOL    HW114744   1.412   4.468  14.213  1.1152  0.7458 -0.8759
 1037SOL    HW214745   1.426   4.491  14.063 -1.4008 -1.2267 -1.5329
 1038SOL     OW14746   4.258   4.484   2.171  0.1728  0.0239 -0.1148
 1038SOL    HW114747   4.343   4.479   2.127  0.2395  0.2747 -0.0149
 1038SOL    HW214748   4.249   4.578   2.188  0.3547 -0.0343  0.2962
 1039SOL     OW14749   3.540   2.426  10.703 -0.2747  0.3638  0.1045
 1039SOL    HW114750   3.573   2.417  10.614  0.8249 -2.1214  0.7685
 1039SOL    HW214751   3.616   2.442  10.759 -0.3359 -2.6169  1.0074
 1040SOL     OW14752   3.925   4.006   4.216  0.3103 -0.7188  0.0453
 1040SOL    HW114753   3.935   4.089   4.264  1.1473 -2.1779  2.3762
 1040SOL    HW214754   3.992   3.948   4.251  0.9238 -1.0196 -1.6444
 1041SOL     OW14755   1.664   1.138  12.992 -0.0154 -0.3425 -0.0512
 1041SOL    HW114756   1.700   1.225  13.010  1.3699 -1.0565  0.6140
 1041SOL    HW214757   1.694   1.132  12.902  1.9483 -0.5334  0.6196
 1042SOL     OW14758   0.929   2.114   6.293 -0.2482 -0.9046 -0.1848
 1042SOL    HW114759   0.946   2.128   6.200  2.6600 -2.3822  0.1009
 1042SOL    HW214760   1.019   2.122   6.325 -0.8286  1.4406  0.8278
 1043SOL     OW14761   0.646   3.293   6.121  0.0461 -0.4010 -0.2914
 1043SOL    HW114762   0.604   3.248   6.194  1.9014 -0.6797  0.6047
 1043SOL    HW214763   0.737   3.286   6.149 -0.1211 -2.4341 -0.2386
 1044SOL     OW14764   2.074   3.864   9.862 -0.4091 -0.6144 -0.4645
 1044SOL    HW114765   1.985   3.859   9.899  0.2486  1.2508  1.3399
 1044SOL    HW214766   2.122   3.858   9.945 -0.2346  0.7811 -0.4624
 1045SOL     OW14767   3.237   4.598   3.622  0.1701 -0.5738  0.4856
 1045SOL    HW114768   3.190   4.603   3.705 -2.1453  4.0893 -1.0694
 1045SOL    HW214769   3.188   4.542   3.562  0.5422 -0.6346  0.2349
 1046SOL     OW14770   4.423   1.193   9.431  0.3901 -0.1507  0.0821
 1046SOL    HW114771   4.390   1.271   9.386 -2.3607 -0.7019  1.1081
 1046SOL    HW214772   4.516   1.193   9.407  0.6414 -1.3094  1.0142
 1047SOL     OW14773   0.940   4.121   6.221 -0.3558  0.4346 -0.1203
 1047SOL    HW114774   0.877   4.125   6.150  0.2379  0.6128 -0.6390
 1047SOL    HW214775   0.930   4.208   6.260 -1.0798  0.6270 -0.7470
 1048SOL     OW14776   0.846   3.197   7.995  0.7713  0.3949 -0.4657
 1048SOL    HW114777   0.855   3.190   8.090  1.3393 -1.3093 -0.6605
 1048SOL    HW214778   0.800   3.280   7.983 -0.5098 -0.3766 -0.8838
 1049SOL     OW14779   0.621   3.126   9.752 -0.2985  0.1770 -0.0242
 1049SOL    HW114780   0.612   3.073   9.831 -0.1210 -0.5336 -0.4805
 1049SOL    HW214781   0.708   3.166   9.758 -0.2317  0.0410 -0.0757
 1050SOL     OW14782   2.086   3.703  16.291 -0.0061 -0.1876 -0.1348
 1050SOL    HW114783   2.021   3.670  16.229  0.9485 -1.5353 -0.4345
 1050SOL    HW214784   2.132   3.764  16.233  3.7244 -0.9212  2.0535
 1051SOL     OW14785   0.185   4.048   8.209 -0.0467  0.4243  0.0110
 1051SOL    HW114786   0.206   4.108   8.138  1.7246 -1.8582 -1.4178
 1051SOL    HW214787   0.147   4.116   8.264  2.3144  1.2266  0.6678
 1052SOL     OW14788   4.212   2.778   9.480 -0.1048  0.0687 -0.4507
 1052SOL    HW114789   4.122   2.792   9.509  0.4578 -1.0073  1.8707
 1052SOL    HW214790   4.260   2.850   9.522 -3.0727  1.5172  0.4834
 1053SOL     OW14791   1.911   4.570   0.821 -0.3406 -0.4268 -0.9598
 1053SOL    HW114792   1.897   4.558   0.915  1.3979  0.8587 -0.5446
 1053SOL    HW214793   1.860   4.649   0.804 -0.3774 -0.6275 -1.7750
 1054SOL     OW14794   2.878   3.699   2.815 -0.4301 -0.3088 -0.4694
 1054SOL    HW114795   2.795   3.681   2.769  0.1186 -2.6427 -0.5385
 1054SOL    HW214796   2.937   3.695   2.740 -0.2141 -1.7373 -0.2102
 1055SOL     OW14797   2.110   2.486   6.947  0.0229 -0.6484  0.5329
 1055SOL    HW114798   2.189   2.434   6.961 -0.4409 -0.9894  1.9529
 1055SOL    HW214799   2.143   2.574   6.930 -1.1164 -0.1892  0.6844
 1056SOL     OW14800   3.776   4.257   8.717 -1.1446 -0.1719 -0.5345
 1056SOL    HW114801   3.796   4.209   8.797  0.9856  0.0355 -0.9460
 1056SOL    HW214802   3.824   4.337   8.737 -0.6750 -0.5953  0.0165
 1057SOL     OW14803   0.213   0.368   5.536  0.0950  0.6503 -0.3289
 1057SOL    HW114804   0.169   0.393   5.455  0.7526 -0.1161 -0.9249
 1057SOL    HW214805   0.276   0.439   5.548  0.8929  0.2613 -2.2981
 1058SOL     OW14806   2.509   2.616   5.419  0.2431  0.5137 -0.5732
 1058SOL    HW114807   2.602   2.626   5.437  0.3898 -1.6518 -0.1969
 1058SOL    HW214808   2.507   2.642   5.327  0.3258  1.9146 -0.1878
 1059SOL     OW14809   2.075   4.367   5.140 -0.0838  0.1460 -0.3766
 1059SOL    HW114810   2.059   4.456   5.170  1.3934 -0.0318  0.9127
 1059SOL    HW214811   2.119   4.365   5.055 -0.2076  0.5029 -0.4488
 1060SOL     OW14812   2.513   3.321   4.238  0.2693 -0.0220  0.4875
 1060SOL    HW114813   2.570   3.327   4.315 -0.4097  1.1690  0.9042
 1060SOL    HW214814   2.501   3.229   4.217  0.5662  0.3752 -1.3995
 1061SOL     OW14815   1.455   3.387   0.922  0.5132 -0.1951 -0.3013
 1061SOL    HW114816   1.445   3.294   0.905  0.2163  0.0629 -1.5317
 1061SOL    HW214817   1.527   3.407   0.862 -0.0889 -0.6783 -1.1908
 1062SOL     OW14818   4.641   1.944   8.854 -0.2248 -0.0689  0.1390
 1062SOL    HW114819   4.669   2.023   8.807  1.4188 -0.2549  0.7952
 1062SOL    HW214820   4.546   1.954   8.853  0.1554  3.4957  0.1900
 1063SOL     OW14821   2.079   3.498   7.502  0.6439 -0.1855  0.5697
 1063SOL    HW114822   2.049   3.455   7.582  3.0466  1.2029  2.2306
 1063SOL    HW214823   2.115   3.419   7.462 -0.5296  0.0665 -0.9931
 1064SOL     OW14824   2.645   3.337   3.020  0.1478  0.2681  0.4822
 1064SOL    HW114825   2.602   3.287   3.090  1.4619 -1.2727  0.1804
 1064SOL    HW214826   2.734   3.308   3.038  0.2673  0.2863 -0.0851
 1065SOL     OW14827   1.641   3.904  15.961 -0.0019  0.0078 -0.1343
 1065SOL    HW114828   1.612   3.896  16.052  0.4948 -1.1171 -0.0731
 1065SOL    HW214829   1.633   3.812  15.936 -0.1335  0.2287 -0.8841
 1066SOL     OW14830   3.387   4.384   4.489 -0.0100  0.2036 -0.3406
 1066SOL    HW114831   3.477   4.367   4.461 -0.4886  1.6056 -2.7625
 1066SOL    HW214832   3.334   4.311   4.458  1.2878 -1.2148  0.8270
 1067SOL     OW14833   3.159   0.128   0.650  0.1137 -0.1069 -0.0886
 1067SOL    HW114834   3.173   0.037   0.673  1.3569  0.2104  0.3684
 1067SOL    HW214835   3.250   0.156   0.639 -0.1496  1.2091  1.0177
 1068SOL     OW14836   0.693   2.852   7.803  0.0810 -0.3179 -0.2385
 1068SOL    HW114837   0.677   2.765   7.838  0.5307 -0.4814 -0.4482
 1068SOL    HW214838   0.785   2.870   7.819 -0.3216  1.5222  0.0004
 1069SOL     OW14839   3.044   0.910   6.987  0.0884  0.0770  0.0090
 1069SOL    HW114840   3.062   0.820   7.015 -1.0005 -0.5751 -1.3670
 1069SOL    HW214841   2.974   0.939   7.045  0.9487 -0.3304  1.2504
 1070SOL     OW14842   3.211   2.840  15.458  0.8674  0.0615 -0.2465
 1070SOL    HW114843   3.172   2.885  15.383 -1.7508  1.0611  1.7219
 1070SOL    HW214844   3.295   2.886  15.464  1.0395 -0.6130  2.4201
 1071SOL     OW14845   1.798   3.966   2.519 -0.2889 -0.0785 -0.2708
 1071SOL    HW114846   1.872   3.916   2.553 -0.8369 -1.0870 -0.5696
 1071SOL    HW214847   1.797   4.039   2.581 -0.1441 -1.2792  1.1454
 1072SOL     OW14848   1.603   0.702   2.412  0.6877  0.2363 -0.6287
 1072SOL    HW114849   1.586   0.781   2.464  0.1255 -0.3397  0.0602
 1072SOL    HW214850   1.516   0.664   2.406 -0.2295  2.6052 -2.4363
 1073SOL     OW14851   3.664   0.043   5.991  0.0843  0.2629 -0.3407
 1073SOL    HW114852   3.650   4.684   5.976 -1.3076  0.5656 -0.9019
 1073SOL    HW214853   3.640   0.053   6.083  0.5143 -2.8403  0.1112
 1074SOL     OW14854   1.562   3.297   2.571 -0.0424 -0.5322  0.2787
 1074SOL    HW114855   1.520   3.214   2.593  0.9460 -0.9117  0.7690
 1074SOL    HW214856   1.594   3.284   2.482  4.4141  0.3674  1.7431
 1075SOL     OW14857   3.254   0.938   9.431 -0.1310  0.6325 -0.2207
 1075SOL    HW114858   3.323   0.997   9.465 -1.2847  1.9580 -0.1620
 1075SOL    HW214859   3.279   0.933   9.339  0.0063  0.2717 -0.1609
 1076SOL     OW14860   4.306   1.984  16.675  0.1370  0.1274  0.8688
 1076SOL    HW114861   4.223   1.937  16.676  1.2496 -1.9005 -0.3862
 1076SOL    HW214862   4.274   2.059  16.724 -2.2646 -0.2753 -0.0987
 1077SOL     OW14863   0.923   1.279  14.674  0.1625 -0.1314  0.1136
 1077SOL    HW114864   0.994   1.279  14.737  0.5765  0.7326 -0.3638
 1077SOL    HW214865   0.889   1.194  14.703  0.0778  0.4720  1.7724
 1078SOL     OW14866   4.286   3.091   7.903 -0.3087  0.1036 -0.2776
 1078SOL    HW114867   4.320   3.180   7.911 -2.4788  0.9449 -0.3341
 1078SOL    HW214868   4.312   3.073   7.812 -0.7076  0.7568 -0.5237
 1079SOL     OW14869   4.017   2.795  12.903  0.2636  0.2680  0.1880
 1079SOL    HW114870   4.054   2.748  12.829 -0.2716  0.9331 -0.4992
 1079SOL    HW214871   4.098   2.800  12.954  1.4167  2.7861 -1.8854
 1080SOL     OW14872   4.516   2.902   9.384 -0.3691  0.1394 -0.2108
 1080SOL    HW114873   4.522   2.825   9.441  2.7046  0.8828  0.4343
 1080SOL    HW214874   4.505   2.871   9.294 -1.3582  0.6293 -0.2653
 1081SOL     OW14875   1.828   2.074   7.509  0.1188  0.4841 -0.4118
 1081SOL    HW114876   1.837   2.074   7.604  0.1976 -0.1933 -0.4179
 1081SOL    HW214877   1.919   2.067   7.481 -0.0791  0.7557 -1.1028
 1082SOL     OW14878   1.348   1.171   2.026  0.0811  0.2973  0.0945
 1082SOL    HW114879   1.298   1.167   2.107 -1.9736 -1.1754 -1.2495
 1082SOL    HW214880   1.433   1.202   2.058 -0.2910  0.9209  0.4626
 1083SOL     OW14881   0.153   1.315   2.079 -0.7514  0.0908  0.1048
 1083SOL    HW114882   0.100   1.335   2.002 -0.0584 -0.4384 -0.5133
 1083SOL    HW214883   0.214   1.389   2.076 -1.3382  0.6650  2.5859
 1084SOL     OW14884   0.683   4.127  12.028  0.0007  0.1299  0.2549
 1084SOL    HW114885   0.611   4.186  12.052  0.0021 -0.1043  0.8479
 1084SOL    HW214886   0.730   4.127  12.112 -1.9867  2.4454  1.3569
 1085SOL     OW14887   4.318   2.353  10.021 -0.2232  0.1523 -0.0932
 1085SOL    HW114888   4.258   2.301  10.074 -0.4356  0.6446  0.1556
 1085SOL    HW214889   4.367   2.410  10.081 -0.4585 -0.5907  0.8147
 1086SOL     OW14890   2.278   0.721  11.037  0.2911  0.2970  0.0274
 1086SOL    HW114891   2.346   0.761  10.984  2.5457 -2.1407  1.0601
 1086SOL    HW214892   2.200   0.738  10.983 -1.1411 -0.1631  1.9552
 1087SOL     OW14893   2.174   0.070   5.516 -0.2228 -0.2169  0.5026
 1087SOL    HW114894   2.230   0.125   5.461 -0.3188  1.7008  2.3327
 1087SOL    HW214895   2.233   0.058   5.590  2.9974  0.9695 -1.8432
 1088SOL     OW14896   1.818   0.919  16.116  0.3347  0.0912 -0.5429
 1088SOL    HW114897   1.902   0.894  16.076 -1.2447 -1.4574 -2.8407
 1088SOL    HW214898   1.763   0.953  16.046 -0.1479 -1.4511 -0.9128
 1089SOL     OW14899   1.629   0.151   4.263 -0.0873 -0.1973  0.8547
 1089SOL    HW114900   1.712   0.110   4.240 -0.4621 -0.2029 -0.5123
 1089SOL    HW214901   1.568   0.080   4.239  1.5819 -1.8308  1.4733
 1090SOL     OW14902   2.346   2.858   8.423  0.6449 -0.9253 -0.0527
 1090SOL    HW114903   2.314   2.930   8.369 -1.0071 -0.6900  1.2646
 1090SOL    HW214904   2.368   2.787   8.361 -0.6911 -1.8089  0.4927
 1091SOL     OW14905   1.562   4.214   0.909  0.1181 -0.1940 -0.2539
 1091SOL    HW114906   1.498   4.249   0.846 -0.1587 -2.2138 -1.0957
 1091SOL    HW214907   1.611   4.164   0.844 -0.9536 -1.2521 -0.2578
 1092SOL     OW14908   0.544   3.502   5.598 -0.0123  0.1431  0.4358
 1092SOL    HW114909   0.623   3.495   5.545 -1.2461  1.0419 -1.5221
 1092SOL    HW214910   0.534   3.594   5.621 -0.3897  0.1810  0.1142
 1093SOL     OW14911   0.010   2.697  13.248  0.2405 -0.0842  0.1672
 1093SOL    HW114912   4.704   2.691  13.161  0.2201  0.2159  0.1546
 1093SOL    HW214913   0.100   2.666  13.234  0.7011  0.6164  1.5995
 1094SOL     OW14914   3.398   4.408   2.263  0.2277  0.1512  0.1483
 1094SOL    HW114915   3.427   4.425   2.352 -0.8243  1.0641  0.3194
 1094SOL    HW214916   3.402   4.499   2.234 -0.3618  0.1087 -0.0732
 1095SOL     OW14917   0.104   0.126   2.441  0.2820 -0.2509  0.4577
 1095SOL    HW114918   0.049   0.152   2.515 -0.7765 -2.4690  0.4523
 1095SOL    HW214919   0.194   0.142   2.471 -0.4044 -0.1942  2.4938
 1096SOL     OW14920   2.585   2.947   8.563 -0.0798 -0.0075 -0.1923
 1096SOL    HW114921   2.509   2.912   8.516  1.6344 -1.5839 -1.7963
 1096SOL    HW214922   2.649   2.896   8.514 -0.4650 -0.1027 -0.5993
 1097SOL     OW14923   0.628   3.877  11.209  0.6652 -0.0238 -0.2428
 1097SOL    HW114924   0.601   3.787  11.228 -2.1188  1.0676  0.9556
 1097SOL    HW214925   0.612   3.917  11.294 -0.8364  0.9923 -1.0021
 1098SOL     OW14926   0.214   2.966   3.621 -0.0823 -0.0952  0.8114
 1098SOL    HW114927   0.263   2.906   3.564 -1.6792 -0.5161 -0.1376
 1098SOL    HW214928   0.217   3.051   3.578 -0.4745 -1.3216 -1.6364
 1099SOL     OW14929   1.246   1.721   9.930 -0.4197  0.0448 -0.1688
 1099SOL    HW114930   1.324   1.775   9.918 -1.3414  1.0042 -1.9127
 1099SOL    HW214931   1.278   1.667  10.002  0.9360  1.5113  0.3270
 1100SOL     OW14932   2.114   3.252   6.890 -0.1378  0.5322 -0.5128
 1100SOL    HW114933   2.120   3.335   6.937 -0.6029 -1.4845  3.1552
 1100SOL    HW214934   2.076   3.267   6.804  1.0712 -0.7290 -1.2742
 1101SOL     OW14935   3.453   1.907   3.617 -0.1812  0.1495 -0.0326
 1101SOL    HW114936   3.495   1.823   3.597  1.1815  0.6378  0.7792
 1101SOL    HW214937   3.429   1.939   3.530  2.5284  1.6718 -0.2125
 1102SOL     OW14938   3.186   2.077   6.655  0.0177  0.0126 -0.5009
 1102SOL    HW114939   3.126   2.135   6.703  1.9961  0.6885  1.1831
 1102SOL    HW214940   3.175   1.991   6.697 -0.7111 -0.2721 -1.2811
 1103SOL     OW14941   0.836   2.214   5.323 -0.0302  0.1055 -0.4891
 1103SOL    HW114942   0.825   2.133   5.375  3.2990 -0.2122 -0.2886
 1103SOL    HW214943   0.816   2.180   5.236 -2.5005 -1.7814  0.7849
 1104SOL     OW14944   3.349   2.082   4.283  0.0468  0.4328  0.6957
 1104SOL    HW114945   3.406   2.149   4.245  0.1078 -0.5911 -1.0540
 1104SOL    HW214946   3.370   2.092   4.376  3.1687 -1.4163  0.1991
 1105SOL     OW14947   2.812   2.653  15.022  0.1400  0.3151 -0.6320
 1105SOL    HW114948   2.774   2.740  15.004  1.9797  1.5393  1.3240
 1105SOL    HW214949   2.739   2.597  15.048  0.9091  0.0736  1.0312
 1106SOL     OW14950   2.405   1.161   3.134  0.0105 -0.0882  0.8387
 1106SOL    HW114951   2.369   1.242   3.170  0.9911 -0.9327  3.7333
 1106SOL    HW214952   2.378   1.165   3.043  0.7059  2.0012  0.7301
 1107SOL     OW14953   4.704   2.504   7.931  0.4651 -0.4014 -0.0493
 1107SOL    HW114954   4.705   2.588   7.978  0.4079 -1.5149  1.9391
 1107SOL    HW214955   4.631   2.521   7.871  0.5669 -0.2084 -0.1187
 1108SOL     OW14956   4.583   2.706   9.584  0.5265  0.0863  0.1503
 1108SOL    HW114957   4.649   2.642   9.610  0.6003  0.0676 -0.0836
 1108SOL    HW214958   4.614   2.791   9.617 -0.0327  0.8569 -1.3307
 1109SOL     OW14959   3.053   2.678   7.152  0.3350  0.0133  0.6716
 1109SOL    HW114960   3.142   2.652   7.129  0.7309  1.8063  0.1581
 1109SOL    HW214961   3.011   2.594   7.172 -0.8953  1.1562  2.8578
 1110SOL     OW14962   2.922   4.579   9.189 -0.5276  0.0211  0.2534
 1110SOL    HW114963   2.914   4.646   9.257 -1.0017  0.0920  0.1299
 1110SOL    HW214964   2.840   4.533   9.207  0.2154 -0.8843  1.3583
 1111SOL     OW14965   0.803   4.071   5.168  0.3884 -0.0657  0.5062
 1111SOL    HW114966   0.853   3.995   5.138  1.0960  0.5186  0.1997
 1111SOL    HW214967   0.787   4.058   5.262 -0.1728 -1.4355  0.2280
 1112SOL     OW14968   0.550   1.716   3.112 -0.1508  0.1216  0.0592
 1112SOL    HW114969   0.563   1.698   3.019  1.4991  2.6110 -0.1845
 1112SOL    HW214970   0.530   1.810   3.104 -1.3557 -0.0693  0.7779
 1113SOL     OW14971   1.649   0.678   4.251  0.0740  0.1978 -0.0320
 1113SOL    HW114972   1.732   0.666   4.297 -0.0101 -0.3993 -0.0330
 1113SOL    HW214973   1.617   0.588   4.257  0.4835 -0.1696 -3.4771
 1114SOL     OW14974   2.314   2.361   7.410  0.1711 -0.5196 -0.1915
 1114SOL    HW114975   2.227   2.384   7.442  0.1995  1.8672 -1.8394
 1114SOL    HW214976   2.307   2.397   7.322 -3.1156  0.4933  0.4948
 1115SOL     OW14977   3.192   0.264  16.347 -0.1066  0.3011  0.1693
 1115SOL    HW114978   3.207   0.348  16.305 -0.7565 -0.8824 -2.4133
 1115SOL    HW214979   3.253   0.275  16.420 -0.5066 -0.9741  0.6981
 1116SOL     OW14980   0.110   1.447  12.685  0.0432 -0.2236  0.4894
 1116SOL    HW114981   0.081   1.473  12.598  1.6082 -0.5630 -0.1246
 1116SOL    HW214982   0.199   1.480  12.672  0.4721 -2.5059 -2.0864
 1117SOL     OW14983   1.456   1.188   5.856 -0.2113  0.6064  0.4899
 1117SOL    HW114984   1.544   1.223   5.867 -0.7090  1.4753  1.7659
 1117SOL    HW214985   1.420   1.213   5.942 -2.7135  1.1286 -0.7131
 1118SOL     OW14986   4.306   3.991   2.670 -0.1274 -0.3525  0.4973
 1118SOL    HW114987   4.347   3.953   2.592  1.3630  0.1657  1.0285
 1118SOL    HW214988   4.379   4.020   2.724 -0.9183  1.1311  0.7604
 1119SOL     OW14989   4.131   4.475   6.635 -0.4510 -0.2308  0.0126
 1119SOL    HW114990   4.078   4.555   6.634 -1.0879 -0.7076 -3.1617
 1119SOL    HW214991   4.166   4.473   6.546  0.5022 -1.7375  0.4220
 1120SOL     OW14992   1.295   4.617  17.225  0.4072 -0.6671 -0.1577
 1120SOL    HW114993   1.333   4.704  17.211  0.7805 -1.0104 -1.2789
 1120SOL    HW214994   1.244   4.604  17.145  1.8061 -1.5358 -0.9144
 1121SOL     OW14995   0.469   4.251  12.121  0.3366  0.4409 -0.1543
 1121SOL    HW114996   0.435   4.172  12.078  3.2863 -0.1774 -1.3426
 1121SOL    HW214997   0.397   4.308  12.094  1.0843  1.3900 -0.1172
 1122SOL     OW14998   2.741   0.165  13.423 -0.1727  0.1860  0.4322
 1122SOL    HW114999   2.685   0.192  13.496 -0.6620  1.9789 -0.5862
 1122SOL    HW215000   2.778   0.083  13.454  0.6402  1.1456  2.0043
 1123SOL     OW15001   1.052   1.250   5.777  0.1629  0.4329 -0.1619
 1123SOL    HW115002   1.088   1.161   5.775 -0.0563  0.3697 -1.2425
 1123SOL    HW215003   1.024   1.255   5.869 -0.9350  0.6788 -0.5142
 1124SOL     OW15004   0.559   0.395   6.160  0.2454  0.2676 -0.3210
 1124SOL    HW115005   0.523   0.307   6.170  2.5834 -0.4499  1.7023
 1124SOL    HW215006   0.484   0.453   6.146  1.3159  1.7389  0.1199
 1125SOL     OW15007   2.119   3.005   1.546 -0.4917  0.1574 -0.1602
 1125SOL    HW115008   2.109   3.054   1.627 -1.5196  0.4044 -0.4320
 1125SOL    HW215009   2.212   2.986   1.553  0.1691  2.2218 -3.2335
 1126SOL     OW15010   2.642   0.321   1.684 -0.0563 -0.2755  0.5857
 1126SOL    HW115011   2.703   0.249   1.669  0.1317  0.1345 -0.5859
 1126SOL    HW215012   2.581   0.288   1.749  0.0128 -1.1634  0.1955
 1127SOL     OW15013   2.574   4.582  14.476 -0.3812 -0.1030  0.0710
 1127SOL    HW115014   2.547   4.607  14.388 -2.4673 -0.5417  0.5851
 1127SOL    HW215015   2.613   4.663  14.510 -1.0945  1.2874 -2.4823
 1128SOL     OW15016   3.780   1.495   7.741 -0.0965  0.0553 -0.0344
 1128SOL    HW115017   3.733   1.511   7.660 -0.9803 -0.7741  0.3103
 1128SOL    HW215018   3.735   1.548   7.806  1.3290 -0.3125  1.2511
 1129SOL     OW15019   3.167   1.741  15.161  0.3083  0.0118  0.6115
 1129SOL    HW115020   3.168   1.760  15.255 -2.1517  0.4298  0.5462
 1129SOL    HW215021   3.121   1.657  15.165 -0.1169  0.1433 -1.6381
 1130SOL     OW15022   2.665   1.365  12.833  0.0475 -0.2416 -0.1115
 1130SOL    HW115023   2.664   1.436  12.897 -1.3327  2.5572 -3.2563
 1130SOL    HW215024   2.704   1.402  12.754 -0.9137 -0.3207 -0.6275
 1131SOL     OW15025   4.579   4.227   8.544  0.2778 -1.4903 -0.6835
 1131SOL    HW115026   4.484   4.219   8.535  0.3103 -3.0302  0.3308
 1131SOL    HW215027   4.586   4.251   8.636 -1.3955  0.6751 -1.1218
 1132SOL     OW15028   3.652   1.432   6.179 -0.1589 -0.1972  0.1148
 1132SOL    HW115029   3.692   1.391   6.102  0.0233 -3.1151  1.7732
 1132SOL    HW215030   3.571   1.465   6.141  2.1000  1.4689 -3.2868
 1133SOL     OW15031   4.012   2.655   9.164  0.4492 -0.4867  0.4161
 1133SOL    HW115032   3.966   2.681   9.084 -2.3681 -1.6210  1.6735
 1133SOL    HW215033   4.047   2.740   9.191 -1.0964 -0.1648  1.3895
 1134SOL     OW15034   4.413   1.501   5.050  0.0332  0.0591  0.0491
 1134SOL    HW115035   4.352   1.428   5.053  1.2318 -0.8434  2.0075
 1134SOL    HW215036   4.424   1.524   4.957  3.5138  0.5883  0.5767
 1135SOL     OW15037   2.396   2.378   8.944  0.2830  0.0432  0.0881
 1135SOL    HW115038   2.403   2.446   9.012 -0.1322 -1.1274  1.2984
 1135SOL    HW215039   2.304   2.391   8.920  0.3130 -1.3392 -0.7278
 1136SOL     OW15040   2.947   1.259   3.323  0.6136 -0.1785  0.6336
 1136SOL    HW115041   2.908   1.330   3.272 -1.3575 -0.6624  1.4662
 1136SOL    HW215042   2.877   1.245   3.387  0.0405 -2.8130 -0.5976
 1137SOL     OW15043   0.292   3.423   5.751  0.1471 -0.4783 -0.0751
 1137SOL    HW115044   0.346   3.403   5.828  0.0396 -1.1689 -0.1811
 1137SOL    HW215045   0.369   3.460   5.707  0.7607 -2.3050 -0.5193
 1138SOL     OW15046   2.953   4.204  11.583  0.0484  0.2677  0.4769
 1138SOL    HW115047   2.894   4.172  11.515 -0.4261  0.7944  0.6464
 1138SOL    HW215048   2.948   4.131  11.645  0.0867  0.3951  0.6281
 1139SOL     OW15049   3.456   0.975   6.460  0.8765 -0.8351  0.3480
 1139SOL    HW115050   3.500   1.060   6.461 -0.8163  0.0771 -1.4815
 1139SOL    HW215051   3.373   0.992   6.504  0.5214 -1.7642  0.0479
 1140SOL     OW15052   4.088   0.461  15.095 -0.3817 -0.2727  0.3236
 1140SOL    HW115053   4.068   0.465  15.188  2.0743  2.0741  0.7400
 1140SOL    HW215054   4.043   0.539  15.062  3.4036  1.1522 -1.4865
 1141SOL     OW15055   1.812   1.424   6.283  0.4068 -0.2282 -0.3607
 1141SOL    HW115056   1.739   1.439   6.224 -0.0988  1.5386  0.7172
 1141SOL    HW215057   1.871   1.373   6.227  0.3958  0.7135 -1.2233
 1142SOL     OW15058   0.885   3.575   6.594 -0.0243 -0.5886 -0.0529
 1142SOL    HW115059   0.889   3.483   6.622 -0.2015 -0.0745  1.6518
 1142SOL    HW215060   0.806   3.592   6.543  1.0217 -0.7178 -1.7060
 1143SOL     OW15061   0.338   1.864   4.478  0.1601  0.2736 -0.4991
 1143SOL    HW115062   0.372   1.812   4.405 -1.1370 -0.4361 -0.6126
 1143SOL    HW215063   0.348   1.954   4.447 -0.1144  1.1181  1.7999
 1144SOL     OW15064   0.904   2.527   2.829 -0.1643 -0.3609  0.2242
 1144SOL    HW115065   0.863   2.470   2.764  0.6106 -0.4992 -0.1426
 1144SOL    HW215066   0.836   2.527   2.896 -1.0128  0.0609 -0.6474
 1145SOL     OW15067   2.185   3.839   3.785 -0.1933 -0.4428  0.2997
 1145SOL    HW115068   2.124   3.765   3.786 -0.6199 -0.1255 -1.4841
 1145SOL    HW215069   2.203   3.849   3.692 -0.1007 -1.0158  0.2572
 1146SOL     OW15070   4.038   0.111   4.014 -0.4735  0.5812 -0.4047
 1146SOL    HW115071   4.076   0.029   4.046  1.8828  1.5129 -0.8466
 1146SOL    HW215072   3.950   0.080   3.992 -0.7063  0.4963  0.6218
 1147SOL     OW15073   4.394   3.185  10.779 -0.4343 -0.4270  0.2018
 1147SOL    HW115074   4.399   3.250  10.709  4.1402 -0.6968  0.2316
 1147SOL    HW215075   4.413   3.103  10.733  0.3586  0.0457 -0.3174
 1148SOL     OW15076   0.332   1.767   5.698 -0.6725 -0.2422 -0.2215
 1148SOL    HW115077   0.240   1.753   5.718 -1.0149  1.1172 -0.8774
 1148SOL    HW215078   0.336   1.859   5.723 -3.6323 -0.7941  2.1677
 1149SOL     OW15079   3.482   4.721   3.620 -0.6889 -0.3125 -0.4525
 1149SOL    HW115080   3.556   4.664   3.598  0.1964  0.6887 -0.0936
 1149SOL    HW215081   3.408   4.661   3.633 -0.9959  0.1666  0.0143
 1150SOL     OW15082   3.382   3.468   0.662  0.0810 -0.3863 -0.1362
 1150SOL    HW115083   3.409   3.554   0.629  0.8909  0.1553  1.9590
 1150SOL    HW215084   3.310   3.491   0.721  1.6891  0.9153  1.2995
 1151SOL     OW15085   2.841   0.453   1.591 -0.1295  0.1816  0.1425
 1151SOL    HW115086   2.887   0.371   1.573  2.2626  2.0679 -2.3822
 1151SOL    HW215087   2.754   0.416   1.607  0.3807 -1.6094 -1.2455
 1152SOL     OW15088   3.748   0.796   4.337  0.3835 -0.2645 -0.3150
 1152SOL    HW115089   3.819   0.743   4.373 -1.0567 -1.2123  1.0661
 1152SOL    HW215090   3.800   0.875   4.319 -0.7319  0.6358  0.4263
 1153SOL     OW15091   1.179   2.098   2.726  0.1255  0.4346  0.3996
 1153SOL    HW115092   1.136   2.150   2.658 -0.3263  0.5336  0.7544
 1153SOL    HW215093   1.114   2.105   2.797 -2.8945 -1.2853 -2.1956
 1154SOL     OW15094   2.801   0.108   3.496 -0.0140 -0.0492  0.4270
 1154SOL    HW115095   2.847   0.110   3.413 -1.4658  0.7436 -0.3703
 1154SOL    HW215096   2.829   0.024   3.533 -1.5144  0.7392  3.3830
 1155SOL     OW15097   3.789   3.336   9.875 -0.6914  0.6160  0.0133
 1155SOL    HW115098   3.741   3.402   9.825  1.7254  1.6053 -1.0142
 1155SOL    HW215099   3.776   3.258   9.820  1.5624 -0.1115  0.5123
 1156SOL     OW15100   2.453   2.992   6.237  0.0187 -0.5738 -0.4263
 1156SOL    HW115101   2.426   3.079   6.266  0.0654 -0.4370 -0.8035
 1156SOL    HW215102   2.537   3.009   6.195  0.4951 -1.3253  0.2279
 1157SOL     OW15103   4.446   0.681  16.786 -0.7782  0.1183  0.5827
 1157SOL    HW115104   4.428   0.766  16.745  0.2003  0.1606  0.2590
 1157SOL    HW215105   4.536   0.660  16.765 -0.7716 -0.0007  0.7318
 1158SOL     OW15106   3.229   1.960   6.371 -0.3283  0.2240  0.2799
 1158SOL    HW115107   3.213   1.995   6.459  2.8532  1.1096  0.5152
 1158SOL    HW215108   3.167   1.888   6.372 -1.0592  0.8176 -1.6722
 1159SOL     OW15109   1.491   0.667   6.094  0.5184  0.3661 -0.2148
 1159SOL    HW115110   1.476   0.762   6.094  1.4846  0.5090 -1.8794
 1159SOL    HW215111   1.404   0.633   6.113  0.3489  0.5990 -0.5610
 1160SOL     OW15112   0.337   2.569   2.524  0.5168  0.0432  0.1321
 1160SOL    HW115113   0.350   2.533   2.612 -1.3379 -1.9619 -0.4257
 1160SOL    HW215114   0.375   2.497   2.475  0.9877 -0.3135  1.0123
 1161SOL     OW15115   3.408   1.360   6.865 -0.4714 -0.1469  0.0216
 1161SOL    HW115116   3.365   1.393   6.944  0.7253 -0.4289  0.7823
 1161SOL    HW215117   3.459   1.285   6.896  1.6900  1.1737 -0.3326
 1162SOL     OW15118   1.649   3.550  10.730  0.3642  0.1932  0.3294
 1162SOL    HW115119   1.634   3.550  10.636 -2.1144  0.5490  0.7353
 1162SOL    HW215120   1.560   3.544  10.764  0.4565 -0.2879  0.4877
 1163SOL     OW15121   0.619   0.689   9.324 -0.1040  0.0029 -0.1325
 1163SOL    HW115122   0.611   0.731   9.409 -0.1629 -1.1777  0.4465
 1163SOL    HW215123   0.552   0.621   9.335  0.2039  0.2473  3.1910
 1164SOL     OW15124   0.647   3.578  17.457 -0.3254  0.4702 -0.2527
 1164SOL    HW115125   0.561   3.606  17.426 -0.7769  0.2984  0.8401
 1164SOL    HW215126   0.689   3.596  17.373  0.4150  0.8074  0.1861
 1165SOL     OW15127   4.731   3.605   3.215 -0.8976  0.0160 -0.4812
 1165SOL    HW115128   0.022   3.694   3.189 -0.3672 -0.8003 -2.7260
 1165SOL    HW215129   0.082   3.571   3.243 -1.2263  0.6675  1.3140
 1166SOL     OW15130   1.992   3.159  17.633 -0.2614  0.2522 -0.1938
 1166SOL    HW115131   2.029   3.136  17.548 -0.8421 -0.8218 -0.1510
 1166SOL    HW215132   1.961   3.070  17.650  1.9580  0.4492  4.6168
 1167SOL     OW15133   0.913   3.211  15.040  0.2385  0.2283 -0.0726
 1167SOL    HW115134   0.936   3.128  15.082  3.4496  2.3436  2.3663
 1167SOL    HW215135   1.001   3.246  15.049 -0.0548  1.8688 -3.5232
 1168SOL     OW15136   0.799   4.217   0.846 -0.1856  0.1108  0.6968
 1168SOL    HW115137   0.846   4.163   0.782 -1.0944 -0.6035  0.6328
 1168SOL    HW215138   0.842   4.299   0.821  1.2045 -0.0083  2.6645
 1169SOL     OW15139   0.341   2.467   4.646 -0.0986 -0.5322 -0.3393
 1169SOL    HW115140   0.367   2.518   4.569  0.2830 -2.1745 -1.3204
 1169SOL    HW215141   0.247   2.482   4.654 -0.0157  1.0802 -2.5291
 1170SOL     OW15142   0.539   4.070   0.366 -0.1686  0.3915  0.0870
 1170SOL    HW115143   0.568   4.161   0.357 -2.2476  0.9464 -1.1396
 1170SOL    HW215144   0.588   4.026   0.295  0.6372  1.6886 -0.1684
 1171SOL     OW15145   3.330   1.169   3.596 -0.6149 -0.1565 -0.4440
 1171SOL    HW115146   3.403   1.176   3.533 -1.0662 -0.0197 -0.9549
 1171SOL    HW215147   3.260   1.157   3.532 -1.0499 -1.5346  0.3012
 1172SOL     OW15148   4.091   0.257   7.295 -0.2692  0.2471 -0.1046
 1172SOL    HW115149   4.065   0.176   7.338  2.6409 -0.8712 -0.4383
 1172SOL    HW215150   4.086   0.322   7.366  1.9939 -0.9576  1.1549
 1173SOL     OW15151   0.989   2.923  14.450  0.1138 -0.1824 -0.3995
 1173SOL    HW115152   1.083   2.933  14.466  0.5379 -2.4588 -1.4197
 1173SOL    HW215153   0.990   2.836  14.409 -0.1366 -0.6165  0.5184
 1174SOL     OW15154   3.237   0.729   8.763 -0.6395 -0.2154 -0.1258
 1174SOL    HW115155   3.216   0.818   8.791  2.2338  0.8522 -1.3032
 1174SOL    HW215156   3.238   0.747   8.669  1.1049 -1.1178 -0.2934
 1175SOL     OW15157   1.657   4.015   1.937 -0.0233 -0.2157 -0.0042
 1175SOL    HW115158   1.709   3.985   2.012  0.1207 -2.0944 -0.8682
 1175SOL    HW215159   1.581   4.048   1.986 -0.9597 -0.5049 -1.2613
 1176SOL     OW15160   2.202   3.050  17.486 -0.0755 -0.4306  0.7932
 1176SOL    HW115161   2.221   3.019  17.574  0.3512 -0.2911  0.7508
 1176SOL    HW215162   2.276   3.109  17.476  0.2149 -1.4420 -3.4335
 1177SOL     OW15163   2.780   2.815  16.437  0.7386 -0.3779  0.0181
 1177SOL    HW115164   2.802   2.765  16.516  1.8575  0.8980  0.5226
 1177SOL    HW215165   2.686   2.798  16.442  0.1970  2.7806  0.6697
 1178SOL     OW15166   0.314   4.127   6.214  0.1486 -0.3318  0.2209
 1178SOL    HW115167   0.404   4.156   6.228 -0.0918  0.1732  0.7310
 1178SOL    HW215168   0.298   4.148   6.122  2.0943  1.5530  0.3062
 1179SOL     OW15169   0.398   3.098  10.487  0.2911 -0.7945  0.3404
 1179SOL    HW115170   0.351   3.051  10.418  1.6091  1.2645 -1.9420
 1179SOL    HW215171   0.337   3.077  10.558 -4.6241  0.6340 -3.4236
 1180SOL     OW15172   4.257   3.995  12.742  0.0598 -0.1902 -0.1019
 1180SOL    HW115173   4.281   3.939  12.816 -0.4090  0.2807  0.4068
 1180SOL    HW215174   4.314   3.964  12.672 -0.8196 -0.8274 -0.5227
 1181SOL     OW15175   1.711   4.103   0.646 -0.2238  0.0869  0.1026
 1181SOL    HW115176   1.799   4.067   0.655 -0.0848  0.0454 -1.4722
 1181SOL    HW215177   1.714   4.149   0.562 -0.2234 -1.2486 -0.6224
 1182SOL     OW15178   4.234   3.087   4.985 -0.6729 -0.1808 -0.4370
 1182SOL    HW115179   4.267   3.079   4.896 -0.1066  1.2249 -0.3584
 1182SOL    HW215180   4.161   3.025   4.984  0.3786 -1.4351  0.6053
 1183SOL     OW15181   4.318   4.370   8.283 -0.1098 -0.1485 -0.2229
 1183SOL    HW115182   4.247   4.381   8.221 -1.2631 -0.7360  0.9926
 1183SOL    HW215183   4.359   4.302   8.229 -1.0879 -0.0508 -1.0855
 1184SOL     OW15184   2.418   4.099  13.859  0.2412  0.0530  0.0172
 1184SOL    HW115185   2.346   4.060  13.908  0.2404  0.0268 -0.0048
 1184SOL    HW215186   2.391   4.095  13.767  1.3077 -0.3663 -0.2749
 1185SOL     OW15187   3.457   0.897   3.854  0.0585  0.4579 -0.3159
 1185SOL    HW115188   3.453   0.987   3.889 -0.8749  0.1052  0.4859
 1185SOL    HW215189   3.392   0.860   3.914 -0.1949  2.2242  0.5348
 1186SOL     OW15190   3.182   2.485   3.150 -0.2081  0.0456  0.4546
 1186SOL    HW115191   3.159   2.521   3.064  2.6377  2.2140  0.6215
 1186SOL    HW215192   3.226   2.559   3.191 -1.6628  1.2639 -0.1707
 1187SOL     OW15193   2.949   0.645   3.294 -0.6521 -0.1271 -0.3617
 1187SOL    HW115194   2.905   0.584   3.353 -0.5045 -1.0957 -1.2524
 1187SOL    HW215195   3.030   0.596   3.279 -1.2427 -0.8593 -1.1144
 1188SOL     OW15196   0.908   1.609   5.700  0.2773  0.0433  0.1340
 1188SOL    HW115197   0.872   1.520   5.700  0.9545 -0.2457 -1.1420
 1188SOL    HW215198   0.945   1.617   5.788 -0.6146  1.2070  0.4032
 1189SOL     OW15199   0.128   1.221   9.269 -0.1333  0.2560 -0.2082
 1189SOL    HW115200   0.073   1.179   9.202 -0.0880 -1.1028  0.6202
 1189SOL    HW215201   0.210   1.236   9.221 -0.3163  2.2098  0.0912
 1190SOL     OW15202   2.240   4.026   8.036  0.1831  0.0327  0.0672
 1190SOL    HW115203   2.250   4.110   7.991 -2.3899  0.8876  1.1117
 1190SOL    HW215204   2.204   4.046   8.123 -0.5466 -1.0108 -0.0091
 1191SOL     OW15205   2.264   2.997   7.533  0.4593  1.0660  0.4682
 1191SOL    HW115206   2.248   2.925   7.594  0.6167  0.2596 -0.4383
 1191SOL    HW215207   2.359   3.008   7.531  0.5274  0.5610  1.0830
 1192SOL     OW15208   2.721   1.058  14.096 -0.2085 -0.0987  0.0409
 1192SOL    HW115209   2.683   0.975  14.069 -1.6716  0.9356 -1.0538
 1192SOL    HW215210   2.686   1.117  14.029  0.7346  1.0070  0.5073
 1193SOL     OW15211   0.296   1.821   3.464 -0.0949  0.0057 -0.2253
 1193SOL    HW115212   0.210   1.804   3.502  0.0360  0.3360  0.2172
 1193SOL    HW215213   0.355   1.783   3.530 -0.7740 -0.4986  0.0852
 1194SOL     OW15214   2.768   4.664   2.791  0.1463  0.4422  0.1119
 1194SOL    HW115215   2.796   4.680   2.701  0.1669  1.0299  0.2209
 1194SOL    HW215216   2.822   4.589   2.812  0.0159 -0.5048 -3.0668
 1195SOL     OW15217   0.488   4.365   8.903  0.6217 -0.5146 -0.5629
 1195SOL    HW115218   0.473   4.366   8.808  0.5564 -0.5607 -0.5525
 1195SOL    HW215219   0.399   4.382   8.934 -0.2227 -1.7228 -2.3378
 1196SOL     OW15220   4.123   1.515   0.410  0.0114 -0.0920 -0.0864
 1196SOL    HW115221   4.113   1.608   0.427  2.7811 -0.3668  3.0573
 1196SOL    HW215222   4.170   1.524   0.327  0.2390 -2.1604 -0.1775
 1197SOL     OW15223   4.578   0.101  14.976  0.0582  0.3113  0.0541
 1197SOL    HW115224   4.672   0.086  14.989  0.3172  0.4174 -1.5875
 1197SOL    HW215225   4.578   0.196  14.987 -0.8819  0.4003 -0.6862
 1198SOL     OW15226   2.943   1.080  11.059  0.5597  0.1998  0.3150
 1198SOL    HW115227   3.031   1.052  11.082  1.1698  2.1300  0.2897
 1198SOL    HW215228   2.956   1.167  11.021 -3.2753 -0.1015 -1.7848
 1199SOL     OW15229   0.026   2.640   4.889  0.6176 -0.8729 -0.6922
 1199SOL    HW115230   0.104   2.650   4.943 -0.1886  2.1557 -0.0885
 1199SOL    HW215231   4.695   2.619   4.956  0.4018 -1.8360 -1.2134
 1200SOL     OW15232   1.771   2.463   4.240  0.1163 -0.4168 -0.2585
 1200SOL    HW115233   1.849   2.507   4.273  1.2257 -2.0038 -0.7873
 1200SOL    HW215234   1.711   2.466   4.315  0.1630 -0.1429 -0.2347
 1201SOL     OW15235   3.394   1.137  12.439  0.0613 -0.2408 -0.6252
 1201SOL    HW115236   3.308   1.128  12.397 -0.4635 -1.2883  0.6618
 1201SOL    HW215237   3.456   1.126  12.367  1.1356 -0.1418  0.2953
 1202SOL     OW15238   4.134   4.466  12.543  0.6876  0.5886 -0.5422
 1202SOL    HW115239   4.133   4.403  12.472 -5.1477 -0.8582  0.7831
 1202SOL    HW215240   4.080   4.424  12.611  0.0699 -0.6139 -1.7716
 1203SOL     OW15241   1.253   2.412   6.384 -0.9218  0.4371 -0.5342
 1203SOL    HW115242   1.181   2.458   6.340 -1.6479  0.5868  0.7986
 1203SOL    HW215243   1.256   2.325   6.345  0.9251  1.1298 -1.9164
 1204SOL     OW15244   0.416   0.038   6.869 -0.7141  0.1399  0.1179
 1204SOL    HW115245   0.428   0.104   6.937 -2.6634  1.6129 -0.9783
 1204SOL    HW215246   0.505   0.002   6.865 -0.6978  0.4476 -1.9998
 1205SOL     OW15247   3.471   1.441  15.193 -0.1352  0.1035  0.0073
 1205SOL    HW115248   3.429   1.501  15.255 -0.1266 -0.1882  0.2953
 1205SOL    HW215249   3.546   1.408  15.244 -0.4358 -0.8442 -0.1604
 1206SOL     OW15250   4.383   0.939  16.652 -0.1802  0.1250 -0.2096
 1206SOL    HW115251   4.449   1.000  16.617  0.7206  0.6571  2.3402
 1206SOL    HW215252   4.352   0.978  16.734 -1.1996 -1.0772 -0.0276
 1207SOL     OW15253   2.432   1.891   8.700 -0.0112  0.1277 -0.4034
 1207SOL    HW115254   2.453   1.976   8.738  1.1657 -0.3758  0.0641
 1207SOL    HW215255   2.386   1.921   8.622  1.3729 -0.0861 -1.3102
 1208SOL     OW15256   3.664   2.999   5.810  0.0592 -0.7296 -0.1264
 1208SOL    HW115257   3.742   2.982   5.757 -0.7456  0.2892 -1.6502
 1208SOL    HW215258   3.705   2.987   5.895  1.0479 -0.2889 -0.5416
 1209SOL     OW15259   1.153   3.282  17.138  0.3175  0.2048  0.0046
 1209SOL    HW115260   1.161   3.188  17.120  0.1077  0.1598  0.1447
 1209SOL    HW215261   1.082   3.280  17.202  0.3588  0.5188  0.0591
 1210SOL     OW15262   1.759   3.273   6.509 -0.4572  0.3229  0.4076
 1210SOL    HW115263   1.750   3.180   6.490 -2.3644  0.6552 -0.3427
 1210SOL    HW215264   1.733   3.280   6.600  0.4616  0.2356  0.6743
 1211SOL     OW15265   1.711   4.261   6.986  0.0327 -0.1234  0.0110
 1211SOL    HW115266   1.684   4.200   6.917 -1.4649  2.1884 -1.4111
 1211SOL    HW215267   1.738   4.192   7.048  0.4655  1.5264  1.6526
 1212SOL     OW15268   3.644   3.562  14.868  0.0361 -0.3994 -0.1990
 1212SOL    HW115269   3.567   3.570  14.925 -0.6255  1.4533 -1.3661
 1212SOL    HW215270   3.609   3.606  14.791  0.3296  2.1033  1.1107
 1213SOL     OW15271   3.758   0.209   0.858 -0.3673 -0.3862 -0.0929
 1213SOL    HW115272   3.690   0.276   0.847  0.8156  0.4962 -1.9731
 1213SOL    HW215273   3.764   0.200   0.953  1.4886 -1.7765 -0.3294
 1214SOL     OW15274   0.798   3.647   3.716 -0.2691 -0.3237  0.3348
 1214SOL    HW115275   0.887   3.612   3.725 -0.4491 -0.8577  0.0451
 1214SOL    HW215276   0.749   3.567   3.734 -3.0154  1.3649  0.3270
 1215SOL     OW15277   1.095   1.874  10.757  0.4161  0.1207  0.5788
 1215SOL    HW115278   1.016   1.842  10.800  0.5954 -2.8362 -1.2220
 1215SOL    HW215279   1.122   1.789  10.722 -0.8028  0.4148 -1.0630
 1216SOL     OW15280   3.523   0.124   9.003  0.3032  0.0412  0.6677
 1216SOL    HW115281   3.528   0.108   9.098 -1.2720 -0.2482  0.6973
 1216SOL    HW215282   3.609   0.158   8.977  1.2726 -0.7793  2.7679
 1217SOL     OW15283   0.001   2.201  15.208  0.7028 -0.2691 -0.4050
 1217SOL    HW115284   0.015   2.294  15.193 -0.4591  0.1352  1.0443
 1217SOL    HW215285   0.068   2.184  15.274  1.1091 -2.6711 -1.4016
 1218SOL     OW15286   2.853   4.453   5.343  0.0033  0.1698 -0.5573
 1218SOL    HW115287   2.767   4.485   5.316  0.9174  1.4009 -1.9963
 1218SOL    HW215288   2.877   4.410   5.261  0.1577  0.7859 -0.8316
 1219SOL     OW15289   1.723   3.736  13.223 -0.0273 -0.1472 -0.0845
 1219SOL    HW115290   1.796   3.691  13.266 -0.1734  0.3798  0.7076
 1219SOL    HW215291   1.761   3.763  13.139  3.1221 -1.1273  1.0343
 1220SOL     OW15292   2.650   0.922   6.097  0.1185  0.1412  0.1583
 1220SOL    HW115293   2.629   0.834   6.126  1.6868  0.4767  2.2359
 1220SOL    HW215294   2.719   0.949   6.157  1.1162 -2.1742  0.0380
 1221SOL     OW15295   1.883   4.181  16.489  0.3731  0.1293 -0.0584
 1221SOL    HW115296   1.870   4.273  16.511 -3.0728 -0.5017  0.4502
 1221SOL    HW215297   1.793   4.149  16.493  0.9191 -1.4710 -0.5093
 1222SOL     OW15298   1.370   3.184   7.596  0.5059 -0.4558  0.2562
 1222SOL    HW115299   1.413   3.114   7.547 -0.2575  1.2129 -2.8125
 1222SOL    HW215300   1.276   3.167   7.590 -0.0299  2.6729 -0.2076
 1223SOL     OW15301   2.256   1.696   6.432  0.2367 -0.5414 -0.2861
 1223SOL    HW115302   2.182   1.637   6.420 -0.2371  0.6591 -3.4391
 1223SOL    HW215303   2.253   1.750   6.353 -0.7412  0.3072  0.3280
 1224SOL     OW15304   2.531   3.637   8.034 -0.8603  0.0102  1.0476
 1224SOL    HW115305   2.454   3.590   8.065 -0.0931 -1.0819  1.3205
 1224SOL    HW215306   2.587   3.560   8.022 -1.0472  0.2315 -1.1768
 1225SOL     OW15307   3.220   1.715  10.114 -0.6043 -0.2698 -0.4270
 1225SOL    HW115308   3.246   1.633  10.157  1.4650  0.1657 -0.8777
 1225SOL    HW215309   3.162   1.757  10.178 -2.0137 -1.2087 -1.0821
 1226SOL     OW15310   4.023   4.373   9.214  0.4701  0.5486  0.9197
 1226SOL    HW115311   4.068   4.383   9.131  1.2457 -2.5606  0.9352
 1226SOL    HW215312   4.017   4.464   9.244 -1.0663 -0.0864  2.5647
 1227SOL     OW15313   4.063   4.495   2.524  0.9231 -0.0546 -0.0786
 1227SOL    HW115314   4.050   4.425   2.461 -0.9663 -0.3515  0.6590
 1227SOL    HW215315   4.158   4.491   2.535  1.0097 -0.9853 -1.1832
 1228SOL     OW15316   2.106   1.196   7.985 -0.2814 -0.1864  0.3589
 1228SOL    HW115317   2.018   1.165   7.961  0.2447 -1.5806  0.1852
 1228SOL    HW215318   2.096   1.289   7.966  0.1729  0.3738  2.9456
 1229SOL     OW15319   1.658   0.926   4.841 -0.1131  0.5086 -0.2562
 1229SOL    HW115320   1.710   0.972   4.775 -0.7060  0.7297 -0.5660
 1229SOL    HW215321   1.623   0.857   4.785  0.2924  0.8183 -0.8867
 1230SOL     OW15322   4.424   4.457  16.617 -0.0443  0.2274 -0.4966
 1230SOL    HW115323   4.344   4.509  16.623  0.4915  1.0185 -0.1622
 1230SOL    HW215324   4.489   4.515  16.658 -1.1721  0.3113  1.1672
 1231SOL     OW15325   2.543   3.562   6.524 -0.6148  0.2056  0.4389
 1231SOL    HW115326   2.581   3.524   6.604  2.9296 -0.3813 -1.4862
 1231SOL    HW215327   2.452   3.535   6.535 -1.5021  2.2821 -2.1341
 1232SOL     OW15328   2.885   1.509  16.434 -0.4820 -0.6825  0.5832
 1232SOL    HW115329   2.841   1.426  16.417 -1.8526  0.2414 -0.2910
 1232SOL    HW215330   2.940   1.479  16.507  0.0361  2.1495  1.3587
 1233SOL     OW15331   2.349   0.309  13.640 -0.3797  0.1551  0.5856
 1233SOL    HW115332   2.334   0.316  13.734 -0.3570  0.5733  0.5566
 1233SOL    HW215333   2.263   0.286  13.605 -0.5450 -1.1441  1.8427
 1234SOL     OW15334   3.609   4.081  16.320  0.2828  0.0813  0.1488
 1234SOL    HW115335   3.519   4.106  16.295  0.5885  0.2362 -0.7990
 1234SOL    HW215336   3.599   4.071  16.415 -4.4185 -0.9253 -0.4132
 1235SOL     OW15337   3.488   0.900   7.236  0.6435 -0.3333 -0.3493
 1235SOL    HW115338   3.515   0.920   7.325  1.6030 -1.0843 -0.4674
 1235SOL    HW215339   3.575   0.896   7.195  1.3482  0.0946  1.0914
 1236SOL     OW15340   0.696   2.691  16.862  0.0078  0.5148  0.2589
 1236SOL    HW115341   0.610   2.658  16.836  0.4161 -1.4810  1.4799
 1236SOL    HW215342   0.739   2.678  16.778 -1.5418 -2.5214 -0.0655
 1237SOL     OW15343   1.659   2.321  11.506  0.4383  0.1051 -0.4279
 1237SOL    HW115344   1.716   2.337  11.431  0.4701  0.8972 -0.2322
 1237SOL    HW215345   1.578   2.368  11.483  0.1029  0.4986  1.5976
 1238SOL     OW15346   0.624   4.299   5.842 -0.5916  0.2464  0.2336
 1238SOL    HW115347   0.699   4.356   5.827  1.5913 -2.6055  0.4590
 1238SOL    HW215348   0.591   4.305   5.752 -0.3898  1.7555  0.2483
 1239SOL     OW15349   3.206   4.521   3.928 -0.3004 -0.1692  0.1988
 1239SOL    HW115350   3.271   4.470   3.879  0.0502  1.8699 -1.4921
 1239SOL    HW215351   3.251   4.543   4.009  0.3000 -1.3314  0.1843
 1240SOL     OW15352   1.798   0.575   6.362  0.7858  0.0415 -0.5369
 1240SOL    HW115353   1.864   0.513   6.392  2.1052  1.5203 -0.3409
 1240SOL    HW215354   1.831   0.582   6.273  1.5275 -0.6284 -0.3093
 1241SOL     OW15355   2.952   2.286  13.637  0.4550  0.3422  0.8946
 1241SOL    HW115356   3.030   2.236  13.616  2.7225  4.8679 -1.5640
 1241SOL    HW215357   2.994   2.364  13.673 -2.3904  2.2767  0.0461
 1242SOL     OW15358   3.529   3.224   6.102  0.5559 -0.4599  0.2498
 1242SOL    HW115359   3.482   3.300   6.136 -0.7618  0.0399 -2.6974
 1242SOL    HW215360   3.544   3.254   6.012  0.8759  1.7875  1.0490
 1243SOL     OW15361   4.598   1.944   3.875  0.5847  0.2630  0.0376
 1243SOL    HW115362   4.533   1.877   3.853  1.2042 -1.1087  2.3609
 1243SOL    HW215363   4.541   2.010   3.915  0.2398 -1.0280  1.6593
 1244SOL     OW15364   4.093   3.040  11.142 -0.2780 -0.2919 -0.3107
 1244SOL    HW115365   4.177   3.082  11.123 -1.1463  1.1035 -1.0462
 1244SOL    HW215366   4.029   3.065  11.075 -0.3602 -1.4687 -0.6705
 1245SOL     OW15367   1.395   1.319   4.613  0.2618 -0.5842  0.3723
 1245SOL    HW115368   1.325   1.378   4.642  0.4526 -1.1651  2.0002
 1245SOL    HW215369   1.443   1.298   4.692  0.4622 -1.9435 -0.1089
 1246SOL     OW15370   3.286   1.884   9.580  0.4253 -0.5278  0.2895
 1246SOL    HW115371   3.228   1.812   9.554  0.8279 -0.8290  0.2121
 1246SOL    HW215372   3.224   1.955   9.590  1.8506  0.7886 -0.2693
 1247SOL     OW15373   3.081   3.374  15.846 -0.0680  0.1277  0.0482
 1247SOL    HW115374   3.063   3.430  15.771 -0.3526  1.0174  0.7755
 1247SOL    HW215375   3.006   3.315  15.841 -2.0963  2.5630  1.9169
 1248SOL     OW15376   0.458   0.467   8.339 -0.1407  0.2332  0.3896
 1248SOL    HW115377   0.403   0.436   8.268  2.5752 -3.0635 -0.3048
 1248SOL    HW215378   0.404   0.433   8.410  0.8434 -0.6161  0.7490
 1249SOL     OW15379   3.535   2.387   7.853 -0.2890  0.1945 -0.2282
 1249SOL    HW115380   3.513   2.342   7.772  1.9940  1.9338 -1.8472
 1249SOL    HW215381   3.524   2.325   7.924  0.3921  1.0162  0.6014
 1250SOL     OW15382   4.606   4.416   5.035  0.0254  0.0501 -0.1241
 1250SOL    HW115383   4.625   4.326   5.059  0.8072 -0.2434 -1.8471
 1250SOL    HW215384   4.547   4.434   5.108 -2.0639  1.8800 -2.2466
 1251SOL     OW15385   4.668   3.197   6.589  0.3452 -0.1804 -0.2183
 1251SOL    HW115386   4.675   3.282   6.633  2.0378  0.4954 -1.8272
 1251SOL    HW215387   4.601   3.156   6.644  0.0438  0.8553  0.1820
 1252SOL     OW15388   1.767   1.536   2.378  0.0591  0.4366 -0.0700
 1252SOL    HW115389   1.704   1.558   2.446 -0.3564  0.3742 -0.4269
 1252SOL    HW215390   1.709   1.533   2.301  1.3671 -0.4692 -1.0200
 1253SOL     OW15391   2.779   4.054   0.595  0.1778 -0.2646 -0.1878
 1253SOL    HW115392   2.710   4.112   0.628  2.5736  2.7162 -0.3934
 1253SOL    HW215393   2.740   4.027   0.512  2.3432  1.9743 -1.9403
 1254SOL     OW15394   3.924   0.324   2.155  0.6934 -0.4466 -0.4416
 1254SOL    HW115395   4.016   0.306   2.134  0.4207 -0.9475 -1.2078
 1254SOL    HW215396   3.905   0.270   2.232 -3.5793 -3.0779 -3.3190
 1255SOL     OW15397   2.384   0.176   6.535 -0.4344 -0.1553  0.1530
 1255SOL    HW115398   2.367   0.153   6.627 -0.3486 -0.4242  0.1034
 1255SOL    HW215399   2.303   0.227   6.524 -1.0317 -1.0566  0.3278
 1256SOL     OW15400   3.728   1.127   1.750 -0.5930  0.1448  0.2381
 1256SOL    HW115401   3.731   1.203   1.809 -3.0404 -0.5473  1.2489
 1256SOL    HW215402   3.684   1.058   1.800 -0.1530 -1.2855 -1.3653
 1257SOL     OW15403   3.166   1.128   9.001  0.2213  0.2685 -0.1069
 1257SOL    HW115404   3.224   1.194   8.964  1.0389 -1.9468 -2.7277
 1257SOL    HW215405   3.103   1.185   9.045  0.4638 -1.3320  2.3772
 1258SOL     OW15406   2.218   1.768   4.993 -0.3927  0.3544 -0.1985
 1258SOL    HW115407   2.241   1.722   4.912  0.0726  0.1779  0.0362
 1258SOL    HW215408   2.299   1.816   5.009 -1.3756  2.1172 -0.5424
 1259SOL     OW15409   3.776   2.796  16.711 -0.2221 -0.0082  0.4864
 1259SOL    HW115410   3.698   2.848  16.695 -0.6293 -1.4195 -2.1353
 1259SOL    HW215411   3.840   2.856  16.748 -1.3411  1.8196 -0.5555
 1260SOL     OW15412   2.866   1.171   5.802 -0.0946  0.1176 -0.1616
 1260SOL    HW115413   2.777   1.136   5.814  0.2512 -0.9154 -0.5356
 1260SOL    HW215414   2.897   1.113   5.732  1.3960 -1.1075  1.5239
 1261SOL     OW15415   2.778   4.649  13.574  0.0140  0.0410  0.0851
 1261SOL    HW115416   2.803   4.695  13.655  2.9305  0.0129 -0.8062
 1261SOL    HW215417   2.859   4.646  13.523  0.8261 -1.6958  1.5078
 1262SOL     OW15418   2.214   2.358  13.281 -0.0800  0.3202  0.5177
 1262SOL    HW115419   2.123   2.358  13.251 -0.2530 -0.2406  1.0332
 1262SOL    HW215420   2.236   2.268  13.255 -3.2694 -0.8481  1.7793
 1263SOL     OW15421   3.640   0.240   1.172 -0.3163 -0.8619  0.1870
 1263SOL    HW115422   3.630   0.149   1.202 -2.3129 -0.3307  1.1575
 1263SOL    HW215423   3.560   0.251   1.121 -0.0223  0.1392 -0.0569
 1264SOL     OW15424   1.156   0.118   2.629  0.7373  0.2545  0.0157
 1264SOL    HW115425   1.174   0.084   2.716 -0.3911  0.7692  0.4480
 1264SOL    HW215426   1.089   0.056   2.599  2.7305 -1.4795 -0.7830
 1265SOL     OW15427   4.101   0.063  11.702 -0.1716  0.3186 -0.1104
 1265SOL    HW115428   4.098   0.145  11.752 -0.6136  1.2816 -1.6958
 1265SOL    HW215429   4.167   0.087  11.637  0.0968 -0.3119 -0.0657
 1266SOL     OW15430   2.020   3.342   1.820  0.4423  0.6040 -0.4860
 1266SOL    HW115431   2.037   3.362   1.912 -0.9938 -1.6163  0.2694
 1266SOL    HW215432   2.043   3.249   1.814  2.4027  1.1706 -1.8283
 1267SOL     OW15433   4.520   4.100   1.177  0.4819  0.1926 -0.2901
 1267SOL    HW115434   4.428   4.122   1.190  0.8819  1.9449 -0.4370
 1267SOL    HW215435   4.553   4.111   1.266  1.2821 -1.7064 -0.3601
 1268SOL     OW15436   3.648   2.634  16.339  0.3813  0.4229 -0.3648
 1268SOL    HW115437   3.623   2.589  16.419  2.9061  0.7852  0.6228
 1268SOL    HW215438   3.719   2.691  16.368  2.6952 -2.1714 -0.9467
 1269SOL     OW15439   3.801   0.148   3.441  0.0756 -0.1810  0.7301
 1269SOL    HW115440   3.844   0.099   3.512  0.2466 -0.9345  0.1074
 1269SOL    HW215441   3.790   0.233   3.485  2.0597 -0.7172  2.3257
 1270SOL     OW15442   3.884   1.907   3.521  0.0626 -0.7241  0.0653
 1270SOL    HW115443   3.854   1.820   3.546 -0.2133 -0.7110 -0.2192
 1270SOL    HW215444   3.906   1.951   3.603  0.4430 -1.5068  0.3815
 1271SOL     OW15445   3.856   0.773   9.386 -0.3850  0.5008  0.1539
 1271SOL    HW115446   3.887   0.694   9.341  3.2651  2.3786 -0.6110
 1271SOL    HW215447   3.794   0.742   9.452 -1.4821  1.1541 -0.5738
 1272SOL     OW15448   4.433   0.506   4.035 -0.3592 -0.6792 -0.4659
 1272SOL    HW115449   4.393   0.462   4.109  0.5533  1.1018  1.0910
 1272SOL    HW215450   4.526   0.500   4.060 -0.7962 -0.8043  1.1475
 1273SOL     OW15451   0.799   2.894   3.610 -0.0829  0.1410  0.4686
 1273SOL    HW115452   0.719   2.926   3.568 -0.0731 -3.9380 -2.6554
 1273SOL    HW215453   0.769   2.878   3.699 -2.9908 -3.1531 -1.0860
 1274SOL     OW15454   3.123   3.335   5.679 -0.0865  0.3079 -0.1409
 1274SOL    HW115455   3.033   3.356   5.704 -0.0400  1.7807 -1.2054
 1274SOL    HW215456   3.155   3.418   5.645 -2.5231  1.4140  0.2700
 1275SOL     OW15457   1.400   2.313   5.101 -0.2822 -0.2297  0.4285
 1275SOL    HW115458   1.396   2.408   5.086  0.3040 -0.3485 -0.4908
 1275SOL    HW215459   1.396   2.275   5.013 -1.3396 -1.2974  0.9434
 1276SOL     OW15460   2.215   3.072   6.054  0.6423 -0.7395  0.1217
 1276SOL    HW115461   2.182   2.986   6.030 -3.0017 -0.4893  4.3239
 1276SOL    HW215462   2.134   3.115   6.081 -0.3833 -1.1961 -2.1919
 1277SOL     OW15463   4.285   3.959   5.978 -0.3994 -0.2825 -0.1468
 1277SOL    HW115464   4.376   3.962   5.950 -0.7501  0.0681 -1.2437
 1277SOL    HW215465   4.252   4.049   5.987 -2.2385 -0.8735 -0.9805
 1278SOL     OW15466   2.144   2.997  14.774 -0.6338 -0.1386  0.1471
 1278SOL    HW115467   2.129   2.914  14.730  2.7231 -0.4093 -0.5231
 1278SOL    HW215468   2.058   3.021  14.810 -0.5442 -0.2814  0.4571
 1279SOL     OW15469   2.820   1.330  14.462  0.0139  0.6481  0.0725
 1279SOL    HW115470   2.871   1.273  14.404 -1.3093 -1.1439  0.6733
 1279SOL    HW215471   2.738   1.281  14.466 -0.3397  1.4074  1.7411
 1280SOL     OW15472   4.593   0.191  14.174 -0.2646 -0.1849  0.2258
 1280SOL    HW115473   4.570   0.220  14.262 -0.9344  1.1970 -0.3995
 1280SOL    HW215474   4.526   0.244  14.130  0.2308 -0.5638 -0.9864
 1281SOL     OW15475   3.348   4.551   4.158  0.1545  0.4420  0.2565
 1281SOL    HW115476   3.334   4.585   4.246 -1.4853  2.5126 -0.8183
 1281SOL    HW215477   3.427   4.499   4.175 -0.5995 -0.3213  1.3804
 1282SOL     OW15478   0.404   0.922   6.916  0.0358 -0.3920  0.3685
 1282SOL    HW115479   0.475   0.944   6.976  0.0381 -0.5129  0.4113
 1282SOL    HW215480   0.418   0.987   6.847  1.1958 -1.3826 -0.3380
 1283SOL     OW15481   1.118   2.974  14.061  0.1577 -0.4056  0.0396
 1283SOL    HW115482   1.139   3.035  13.992  0.0740 -0.7071 -0.2537
 1283SOL    HW215483   1.054   3.022  14.115  0.9250  0.5555  0.0849
 1284SOL     OW15484   0.688   0.984   3.599 -0.2365  0.4667  0.1220
 1284SOL    HW115485   0.673   0.992   3.505  0.2112 -0.1644 -0.0002
 1284SOL    HW215486   0.750   1.054   3.616 -0.5874  0.7629  0.1905
 1285SOL     OW15487   0.227   1.186   4.052  0.3628 -0.2722  0.0247
 1285SOL    HW115488   0.260   1.190   3.962  0.9042  1.7163  0.3201
 1285SOL    HW215489   0.145   1.232   4.036 -0.7063 -2.3833 -0.5858
 1286SOL     OW15490   1.285   0.840   3.459  0.3453  0.1234  0.6823
 1286SOL    HW115491   1.231   0.791   3.396  2.3959 -0.8742 -0.2863
 1286SOL    HW215492   1.313   0.762   3.507 -0.4665 -0.8940 -0.4863
 1287SOL     OW15493   1.681   0.599   3.377 -0.5945  0.4877 -0.1004
 1287SOL    HW115494   1.597   0.641   3.358 -1.7369 -0.8075  2.1899
 1287SOL    HW215495   1.742   0.642   3.316 -0.0264  0.9387  0.7877
 1288SOL     OW15496   3.619   0.888   3.463 -0.1849 -0.0811 -0.0690
 1288SOL    HW115497   3.606   0.883   3.368  0.5124 -2.0495 -0.0646
 1288SOL    HW215498   3.528   0.878   3.490 -0.3014 -0.7183 -0.6947
 1289SOL     OW15499   2.428   2.476   2.715  0.0568  0.7497  0.0688
 1289SOL    HW115500   2.453   2.458   2.624  0.9221 -1.1168  0.6769
 1289SOL    HW215501   2.503   2.530   2.739  1.8625 -2.3421  1.3479
 1290SOL     OW15502   3.925   1.262   4.988  0.3950  0.0310  0.0861
 1290SOL    HW115503   3.883   1.185   5.027 -2.8914  1.5706 -0.4427
 1290SOL    HW215504   3.865   1.274   4.914  0.9296 -0.4752 -0.4320
 1291SOL     OW15505   3.889   4.641   4.149  0.1016 -0.0075  0.5398
 1291SOL    HW115506   3.971   4.598   4.174  0.9916  1.3605 -0.0563
 1291SOL    HW215507   3.871   4.692   4.228  0.8191  2.6329 -1.0048
 1292SOL     OW15508   3.344   0.742  10.946  0.6200  0.4724  0.3130
 1292SOL    HW115509   3.337   0.766  11.038 -2.2186 -0.7325  0.4034
 1292SOL    HW215510   3.326   0.828  10.907  0.4449 -1.6103 -4.2574
 1293SOL     OW15511   2.752   0.657   5.848  0.9621  0.1319  0.4022
 1293SOL    HW115512   2.790   0.701   5.924 -0.2974 -0.9898  1.6922
 1293SOL    HW215513   2.799   0.696   5.775  1.7386 -1.2405  0.1736
 1294SOL     OW15514   1.070   2.306   9.048 -0.6944 -0.0651 -0.4902
 1294SOL    HW115515   1.147   2.351   9.082  0.3172 -3.1868  1.3432
 1294SOL    HW215516   1.115   2.267   8.973  0.0218  2.0678 -1.1892
 1295SOL     OW15517   4.521   1.531   0.896 -0.6155  0.8392  0.4451
 1295SOL    HW115518   4.593   1.588   0.871 -0.6921  0.8846  0.3287
 1295SOL    HW215519   4.539   1.453   0.845 -1.5728  0.3466  0.8586
 1296SOL     OW15520   1.778   4.541  13.587  0.5388  0.3982  0.0190
 1296SOL    HW115521   1.722   4.602  13.538  0.6162  0.2159 -0.2953
 1296SOL    HW215522   1.856   4.554  13.532  1.4338 -1.4363  0.8419
 1297SOL     OW15523   2.584   0.078  11.866 -0.3291 -0.4898  0.0013
 1297SOL    HW115524   2.512   0.090  11.804 -1.0435  1.8132  1.2878
 1297SOL    HW215525   2.664   0.115  11.829 -0.0991  0.3953  1.3639
 1298SOL     OW15526   1.037   1.633   5.275  0.0876 -0.3415  0.5282
 1298SOL    HW115527   1.086   1.715   5.275  1.2491 -1.0377  1.6052
 1298SOL    HW215528   1.094   1.579   5.330  1.4219 -0.4778 -0.9839
 1299SOL     OW15529   2.219   4.184   5.563  0.2911 -0.2462 -0.5276
 1299SOL    HW115530   2.260   4.271   5.568  0.3148 -0.1250 -2.5608
 1299SOL    HW215531   2.204   4.179   5.468  0.3600 -0.3244 -0.5346
 1300SOL     OW15532   1.090   3.984   2.416  0.0320  0.5075  0.4089
 1300SOL    HW115533   1.074   3.890   2.412  2.4865 -0.0078  2.7581
 1300SOL    HW215534   1.155   3.998   2.347 -0.2075 -1.3938 -0.1964
 1301SOL     OW15535   1.743   1.342   5.588  0.2401 -0.1008  0.0183
 1301SOL    HW115536   1.667   1.295   5.553  0.9136  0.9839 -2.9820
 1301SOL    HW215537   1.734   1.432   5.556 -3.9622 -0.7841 -0.6587
 1302SOL     OW15538   1.507   1.899   3.625 -0.0861 -0.6497  0.4228
 1302SOL    HW115539   1.595   1.899   3.587  0.8218  1.0686  2.5060
 1302SOL    HW215540   1.525   1.836   3.695  1.1637 -1.2959 -0.4755
 1303SOL     OW15541   4.571   0.293   6.199 -0.4354 -0.5825 -0.5778
 1303SOL    HW115542   4.503   0.325   6.258  2.0255 -0.1400  2.0088
 1303SOL    HW215543   4.608   0.224   6.254  0.2147  0.0216 -0.2588
 1304SOL     OW15544   3.667   4.694  11.893  0.6634 -0.3680 -0.0154
 1304SOL    HW115545   3.731   0.029  11.909 -0.1458  0.0315  1.5266
 1304SOL    HW215546   3.582   4.733  11.914  1.3901  0.1480  1.9953
 1305SOL     OW15547   3.688   0.509  11.994  0.2347 -0.3487 -0.1912
 1305SOL    HW115548   3.732   0.481  12.074 -0.1337  1.8325  0.7667
 1305SOL    HW215549   3.756   0.521  11.927  0.0992 -1.9595 -0.6247
 1306SOL     OW15550   4.385   1.296  11.112  0.1949 -0.6343 -0.1989
 1306SOL    HW115551   4.347   1.213  11.141  0.8361 -0.5701  0.8125
 1306SOL    HW215552   4.467   1.297  11.162 -1.1712 -1.8063  2.0839
 1307SOL     OW15553   3.601   0.058   4.248  0.3313  0.5003  0.1474
 1307SOL    HW115554   3.512   0.091   4.257  0.6728  1.9947 -1.9090
 1307SOL    HW215555   3.613   4.733   4.323 -4.2278 -1.0053 -0.3294
 1308SOL     OW15556   0.245   2.854   2.922  0.2777 -0.0094  0.7045
 1308SOL    HW115557   0.185   2.816   2.857  0.5083 -0.3181  0.6736
 1308SOL    HW215558   0.234   2.946   2.896  3.6749 -0.1718 -1.2466
 1309SOL     OW15559   1.238   1.861   5.894 -0.6396  0.0643  0.4779
 1309SOL    HW115560   1.306   1.877   5.829 -0.4609 -1.6586  0.2492
 1309SOL    HW215561   1.169   1.919   5.860  0.1177  1.3798  1.1823
 1310SOL     OW15562   3.065   4.448   0.073  0.1872 -0.1784 -0.7680
 1310SOL    HW115563   2.972   4.450   0.097  0.0644  1.1324 -1.3516
 1310SOL    HW215564   3.097   4.495   0.149  0.0362 -1.0243 -0.1768
 1311SOL     OW15565   3.386   1.631  15.372  0.0885 -0.0343 -0.2325
 1311SOL    HW115566   3.441   1.630  15.450 -3.3649 -3.9259  2.1418
 1311SOL    HW215567   3.382   1.726  15.360 -0.2469  0.0406  0.5150
 1312SOL     OW15568   4.169   0.817   6.936  0.0808 -0.3243 -0.6123
 1312SOL    HW115569   4.100   0.770   6.889 -0.3272 -0.0403 -0.3059
 1312SOL    HW215570   4.227   0.837   6.863  0.4192  0.9938  0.0350
 1313SOL     OW15571   1.955   2.626   9.051  0.1066  0.5410 -0.8768
 1313SOL    HW115572   1.924   2.703   9.004 -0.4796  2.0019  1.8683
 1313SOL    HW215573   1.997   2.673   9.124 -1.7493  1.1629 -0.2063
 1314SOL     OW15574   2.197   0.042   5.045 -0.0362  0.1947 -0.2462
 1314SOL    HW115575   2.140   4.711   5.005  1.8446 -0.4740 -1.8789
 1314SOL    HW215576   2.146   0.121   5.062  0.4724  0.7043 -1.0979
 1315SOL     OW15577   1.756   2.440   5.843  0.2835  0.4074  0.2985
 1315SOL    HW115578   1.759   2.467   5.751  0.7788  1.0497  0.5070
 1315SOL    HW215579   1.675   2.485   5.865  0.5550  0.3766  1.3432
 1316SOL     OW15580   1.506   0.981   7.875 -0.7088 -0.3493 -0.5818
 1316SOL    HW115581   1.516   1.006   7.784 -0.7311 -0.4252 -0.6050
 1316SOL    HW215582   1.412   0.987   7.888 -0.3082  0.1805  2.1679
 1317SOL     OW15583   2.639   3.870   8.417 -0.6846 -0.0502 -0.0297
 1317SOL    HW115584   2.657   3.795   8.360 -1.8471  0.0114 -0.4693
 1317SOL    HW215585   2.572   3.916   8.367 -0.3583  1.1922  0.6775
 1318SOL     OW15586   2.467   2.117   8.846  0.3492  0.5060  0.5809
 1318SOL    HW115587   2.557   2.128   8.875  1.2917 -1.3058 -1.6691
 1318SOL    HW215588   2.421   2.194   8.879  0.2406  1.0762 -0.8629
 1319SOL     OW15589   3.663   0.219   3.744  0.4116  0.5489 -0.6707
 1319SOL    HW115590   3.681   0.174   3.826 -0.2924  1.5496  0.0202
 1319SOL    HW215591   3.718   0.296   3.750  0.4856  0.2297  2.8448
 1320SOL     OW15592   1.106   1.045  10.436  0.0702  0.0173 -0.5360
 1320SOL    HW115593   1.189   1.093  10.432  0.2684 -0.0182  2.6805
 1320SOL    HW215594   1.144   0.963  10.468 -1.3042 -0.6452 -0.6181
 1321SOL     OW15595   3.830   3.770   8.109  0.0247  0.1992  0.4420
 1321SOL    HW115596   3.889   3.721   8.053 -0.8170 -0.3378  0.0241
 1321SOL    HW215597   3.846   3.850   8.058 -0.4284  0.2480  0.3764
 1322SOL     OW15598   3.231   3.053  12.849 -0.0306  0.1786 -0.4205
 1322SOL    HW115599   3.306   3.112  12.841  0.8803 -0.9360 -0.0597
 1322SOL    HW215600   3.274   2.975  12.884  2.2329  1.1217 -1.0466
 1323SOL     OW15601   3.957   1.834  17.448 -0.1713  0.0019  0.2304
 1323SOL    HW115602   4.007   1.841  17.529 -2.0474  0.5067  1.3438
 1323SOL    HW215603   3.971   1.927  17.428  1.6280 -0.0066  1.4839
 1324SOL     OW15604   0.857   1.988   8.895  0.0224 -0.2227  0.1286
 1324SOL    HW115605   0.783   2.024   8.945  0.4902  0.7653  0.1021
 1324SOL    HW215606   0.827   1.980   8.805  0.2669 -0.4670  0.0662
 1325SOL     OW15607   2.025   0.094   6.608 -0.0315 -0.3475 -0.0797
 1325SOL    HW115608   2.000   0.054   6.691 -1.4593 -0.5308 -0.5987
 1325SOL    HW215609   2.078   0.028   6.563 -0.5976 -0.8371 -0.0216
 1326SOL     OW15610   2.882   1.183   7.541  0.0411  0.2257 -0.0672
 1326SOL    HW115611   2.856   1.104   7.588  2.0285 -0.0937  0.5069
 1326SOL    HW215612   2.853   1.153   7.455 -1.1738 -3.6530  1.7408
 1327SOL     OW15613   4.371   3.621   5.123  0.2936  0.0834  0.5807
 1327SOL    HW115614   4.285   3.605   5.085  0.7017 -0.2126 -0.2189
 1327SOL    HW215615   4.358   3.638   5.216 -0.5533  1.1226  0.2785
 1328SOL     OW15616   1.268   3.852   6.183  0.2344 -0.3927  0.3881
 1328SOL    HW115617   1.353   3.818   6.210 -0.3435 -0.9964  1.4282
 1328SOL    HW215618   1.250   3.929   6.237  2.5279 -1.3511  2.4982
 1329SOL     OW15619   1.951   1.123  12.501 -0.0143  0.4328  0.4377
 1329SOL    HW115620   1.903   1.041  12.495 -1.0292  0.9791  1.1466
 1329SOL    HW215621   2.028   1.089  12.456 -1.2723 -1.7716 -0.0704
 1330SOL     OW15622   3.884   2.536  11.726 -0.0592  0.1690 -0.2225
 1330SOL    HW115623   3.847   2.623  11.738 -0.2232 -0.0362  0.8111
 1330SOL    HW215624   3.906   2.551  11.634 -1.3351  3.1361 -0.0319
 1331SOL     OW15625   3.379   1.367   0.966 -0.6868  0.0163  0.0195
 1331SOL    HW115626   3.377   1.418   1.047  0.1504  0.7922 -0.4538
 1331SOL    HW215627   3.425   1.436   0.919  0.8452 -1.0897 -0.1086
 1332SOL     OW15628   0.414   0.256  14.422  0.1965 -0.4001  0.4755
 1332SOL    HW115629   0.403   0.351  14.428 -0.9682 -0.5240  0.3163
 1332SOL    HW215630   0.451   0.235  14.508  0.5944 -1.2198  0.1030
 1333SOL     OW15631   0.128   1.185  12.637  0.0512  0.1880  0.1363
 1333SOL    HW115632   0.115   1.276  12.664 -1.2207  0.0459  0.0260
 1333SOL    HW215633   0.052   1.170  12.581  0.3111 -0.4816 -0.0371
 1334SOL     OW15634   4.230   2.820  13.102  0.2614 -0.6446  0.1457
 1334SOL    HW115635   4.216   2.816  13.197 -2.0335 -1.0993 -0.2398
 1334SOL    HW215636   4.290   2.895  13.100 -1.1556  0.4678 -0.5785
 1335SOL     OW15637   0.607   3.012  14.519  0.0971 -0.0478  0.0600
 1335SOL    HW115638   0.559   3.065  14.582 -0.6133 -0.5453 -0.0690
 1335SOL    HW215639   0.545   3.021  14.448  1.0263  2.4384 -0.4338
 1336SOL     OW15640   1.888   2.956   0.940  0.2795 -0.1984  0.1982
 1336SOL    HW115641   1.981   2.936   0.949  0.0624 -2.3756 -2.0356
 1336SOL    HW215642   1.893   3.023   0.872  1.4410  0.2389  0.7182
 1337SOL     OW15643   4.478   0.083  13.722  0.7527  0.2573 -0.2763
 1337SOL    HW115644   4.511   0.089  13.633  0.3982 -0.6729 -0.4694
 1337SOL    HW215645   4.558   0.089  13.776  0.8747  2.8981 -0.7534
 1338SOL     OW15646   0.432   0.028  17.095 -0.4478  0.4079 -0.5738
 1338SOL    HW115647   0.346   0.030  17.052 -0.3407  0.2701 -0.7936
 1338SOL    HW215648   0.465   0.116  17.074  1.5059 -0.1715  0.0323
 1339SOL     OW15649   2.408   0.074   4.093  0.0419 -0.0106  0.5880
 1339SOL    HW115650   2.436   0.099   4.005  0.5062 -1.4360  0.3402
 1339SOL    HW215651   2.472   0.113   4.152 -0.0755 -0.4306  0.9889
 1340SOL     OW15652   0.750   4.660   5.011  0.0046  0.0911 -0.2279
 1340SOL    HW115653   0.767   4.597   5.081 -0.4809 -2.4010 -2.3431
 1340SOL    HW215654   0.681   4.621   4.958  0.5034 -1.1208  0.0076
 1341SOL     OW15655   0.790   1.156   2.418 -0.4540 -0.1139 -0.0580
 1341SOL    HW115656   0.771   1.250   2.430  0.5006 -0.0642  1.0407
 1341SOL    HW215657   0.869   1.155   2.364 -2.0078  0.8590 -2.3992
 1342SOL     OW15658   3.263   2.156   2.394  0.4554 -0.5966  0.5948
 1342SOL    HW115659   3.210   2.104   2.454 -0.5868  0.3822  0.5163
 1342SOL    HW215660   3.328   2.187   2.457  1.0227 -0.9245  0.1733
 1343SOL     OW15661   2.410   1.258   4.908  0.0333 -0.5828  0.2270
 1343SOL    HW115662   2.419   1.295   4.820 -0.3870  0.7410  0.7408
 1343SOL    HW215663   2.457   1.175   4.899 -1.9235 -1.6939  0.1366
 1344SOL     OW15664   3.332   1.430   3.097 -0.1221 -0.4316 -0.3711
 1344SOL    HW115665   3.418   1.390   3.112  0.2947 -0.3268 -2.5609
 1344SOL    HW215666   3.295   1.451   3.183 -0.7840 -0.8189 -0.5643
 1345SOL     OW15667   2.162   0.594   9.174  0.2419  0.5777 -0.0480
 1345SOL    HW115668   2.226   0.528   9.202 -1.6559 -1.3066 -0.1686
 1345SOL    HW215669   2.076   0.554   9.163  1.0168 -1.1506  0.1080
 1346SOL     OW15670   3.122   2.530   0.340 -0.1432 -0.3366 -0.1180
 1346SOL    HW115671   3.041   2.485   0.317 -0.1786 -0.7299  0.7573
 1346SOL    HW215672   3.099   2.565   0.427 -2.1887 -0.2851 -0.6866
 1347SOL     OW15673   3.454   0.402   8.493  0.5932 -0.0378  0.1588
 1347SOL    HW115674   3.431   0.441   8.577  0.0332  1.6653 -0.7842
 1347SOL    HW215675   3.490   0.321   8.530  1.3214  0.4742  0.5795
 1348SOL     OW15676   1.345   2.235   9.022 -0.1203 -0.8678  0.8159
 1348SOL    HW115677   1.437   2.214   9.037  0.0012 -0.3834  0.7369
 1348SOL    HW215678   1.343   2.324   9.057  0.0842 -1.3083  1.9494
 1349SOL     OW15679   0.320   1.145   8.858  0.3067 -0.1582 -0.5098
 1349SOL    HW115680   0.338   1.160   8.951  0.6778 -1.1478 -0.4229
 1349SOL    HW215681   0.236   1.189   8.845  0.0947 -0.0702  1.1631
 1350SOL     OW15682   4.638   4.268   4.745 -0.4678 -0.2674  0.1129
 1350SOL    HW115683   4.611   4.359   4.731  2.0088  0.3617 -0.5389
 1350SOL    HW215684   4.574   4.226   4.688 -2.1556  3.4578 -0.7335
 1351SOL     OW15685   1.931   1.295  14.150 -0.3462 -0.7679 -0.1537
 1351SOL    HW115686   1.907   1.214  14.195 -0.5613  0.3745  1.7721
 1351SOL    HW215687   1.849   1.328  14.114  0.0623 -1.1785 -1.4655
 1352SOL     OW15688   1.442   4.648   2.621  0.3010 -0.3673  0.5464
 1352SOL    HW115689   1.432   0.002   2.657  1.7520  0.0659 -0.1155
 1352SOL    HW215690   1.406   4.585   2.683 -1.0157 -0.7044 -0.5613
 1353SOL     OW15691   2.975   4.125  14.790 -0.1608  0.4108 -0.4717
 1353SOL    HW115692   3.051   4.172  14.757 -0.0327  0.7602  0.3171
 1353SOL    HW215693   2.900   4.185  14.797  0.7128  1.2560  1.4856
 1354SOL     OW15694   2.732   3.795   5.209  0.2957  0.2354 -0.2816
 1354SOL    HW115695   2.672   3.781   5.283  3.5721  1.9004  2.6661
 1354SOL    HW215696   2.667   3.825   5.145 -0.1150 -1.0663 -0.4750
 1355SOL     OW15697   2.727   4.163  16.841  0.6559  0.6894 -0.4681
 1355SOL    HW115698   2.752   4.249  16.806  1.6629  0.3998 -0.4769
 1355SOL    HW215699   2.727   4.176  16.936  3.0061 -0.6546 -0.2698
 1356SOL     OW15700   3.931   3.240  17.358  0.3642 -0.5584  0.7063
 1356SOL    HW115701   3.928   3.312  17.420 -2.7026 -0.2694  0.2310
 1356SOL    HW215702   3.919   3.168  17.420 -0.1697 -0.6120  0.5497
 1357SOL     OW15703   3.692   0.999  17.132 -0.1753 -0.0423 -0.3017
 1357SOL    HW115704   3.694   1.070  17.068 -0.8548  0.3289  0.0949
 1357SOL    HW215705   3.783   1.004  17.161  0.0668 -3.3795 -0.5525
 1358SOL     OW15706   4.619   2.674  10.616  0.1143 -0.0396 -0.5898
 1358SOL    HW115707   4.651   2.586  10.598  2.1568  0.9672 -1.9201
 1358SOL    HW215708   4.614   2.671  10.712  2.0879  3.3244 -0.3607
 1359SOL     OW15709   2.870   3.028   1.551 -0.5661 -0.3923  0.1620
 1359SOL    HW115710   2.896   2.936   1.544  0.9976 -0.1028  2.1544
 1359SOL    HW215711   2.900   3.051   1.639  0.1731  0.6739 -0.3683
 1360SOL     OW15712   3.049   3.195   3.981 -0.2679 -0.2087  0.1193
 1360SOL    HW115713   3.124   3.198   3.921 -0.4905 -0.0775 -0.1541
 1360SOL    HW215714   2.980   3.165   3.922 -0.8419 -0.0328  0.7039
 1361SOL     OW15715   4.679   2.520  14.896  0.0269 -1.0930 -0.1688
 1361SOL    HW115716   4.614   2.451  14.900 -0.7472 -0.4309 -1.3048
 1361SOL    HW215717   0.022   2.482  14.938  0.6952 -0.0554 -0.4366
 1362SOL     OW15718   2.686   3.399   2.722 -0.1597 -0.4630  0.6868
 1362SOL    HW115719   2.614   3.386   2.784 -0.5667  0.3422  0.3847
 1362SOL    HW215720   2.705   3.306   2.715  1.2434  0.0424 -2.2415
 1363SOL     OW15721   0.307   4.450   3.335  0.2048 -0.5149  0.1883
 1363SOL    HW115722   0.395   4.426   3.361 -0.6797 -2.2367  1.6023
 1363SOL    HW215723   0.301   4.530   3.388 -1.5541  0.4857 -1.5139
 1364SOL     OW15724   4.620   0.472   5.590 -0.3682  0.4463 -0.0166
 1364SOL    HW115725   4.524   0.467   5.594 -0.2437 -0.8169  1.7785
 1364SOL    HW215726   4.657   0.388   5.618 -0.7240 -0.4922 -2.3533
 1365SOL     OW15727   2.110   4.351   0.704  0.0836 -0.1559 -0.7670
 1365SOL    HW115728   2.167   4.425   0.726  1.2160 -1.5207  0.9616
 1365SOL    HW215729   2.025   4.378   0.737  0.2494 -0.9084  0.2789
 1366SOL     OW15730   3.582   3.709   3.040 -0.1378  0.0706 -0.1883
 1366SOL    HW115731   3.507   3.658   3.071  1.5205 -2.7268 -0.7289
 1366SOL    HW215732   3.554   3.742   2.954  0.9444  0.1485 -0.5180
 1367SOL     OW15733   2.293   3.416  17.599  0.1275 -0.2267 -0.7579
 1367SOL    HW115734   2.220   3.420  17.537  0.5252 -2.0185 -1.3743
 1367SOL    HW215735   2.305   3.321  17.589  0.8897 -0.3135  0.9886
 1368SOL     OW15736   0.037   3.230   7.234 -1.2442 -0.2524 -0.3144
 1368SOL    HW115737   0.083   3.159   7.279 -0.7387  0.9081  1.0104
 1368SOL    HW215738   0.045   3.290   7.309 -0.4988  0.5120 -0.9985
 1369SOL     OW15739   0.125   0.169   5.247 -0.5064 -0.3430 -0.0755
 1369SOL    HW115740   0.215   0.152   5.275 -1.3294 -1.6942  1.7776
 1369SOL    HW215741   0.086   0.081   5.248  2.2582 -1.5484  0.1837
 1370SOL     OW15742   4.506   3.758   8.214 -0.0634  0.3291 -0.8395
 1370SOL    HW115743   4.433   3.754   8.152  1.0254 -1.4710 -2.0284
 1370SOL    HW215744   4.562   3.818   8.164  0.0918  0.4485 -0.5246
 1371SOL     OW15745   3.025   2.780   2.738 -0.7635  0.2273  0.1859
 1371SOL    HW115746   2.940   2.803   2.700  0.7610  2.2798 -1.9464
 1371SOL    HW215747   3.072   2.765   2.656  1.8886  1.0440  1.5718
 1372SOL     OW15748   1.476   0.467   1.906 -0.7759 -0.0232  0.0004
 1372SOL    HW115749   1.440   0.413   1.836 -1.6276  2.2083 -1.2644
 1372SOL    HW215750   1.397   0.492   1.954  0.3095  1.0696  1.2163
 1373SOL     OW15751   1.065   2.685   9.151  0.3587  0.1580  0.0179
 1373SOL    HW115752   1.084   2.739   9.074 -1.1496 -0.6667 -0.9304
 1373SOL    HW215753   1.071   2.744   9.227 -1.0764  0.6715 -0.2598
 1374SOL     OW15754   4.390   3.650   7.851  0.2690 -0.2556 -0.1368
 1374SOL    HW115755   4.425   3.739   7.854 -1.2053  0.3128  0.2999
 1374SOL    HW215756   4.455   3.603   7.799  0.2568 -0.1903 -0.2117
 1375SOL     OW15757   4.603   0.345   8.035  0.4129  0.1943  0.3729
 1375SOL    HW115758   4.510   0.364   8.026  0.1147 -1.5679 -0.1438
 1375SOL    HW215759   4.645   0.431   8.033 -0.9725  0.9038  2.3548
 1376SOL     OW15760   3.284   2.907   6.059 -0.4566 -0.0388  0.2474
 1376SOL    HW115761   3.255   2.828   6.104 -0.9182  1.3156  2.2960
 1376SOL    HW215762   3.274   2.869   5.971  1.6826 -0.5572  0.2305
 1377SOL     OW15763   3.526   4.198  15.474  0.0083  0.0131 -0.2861
 1377SOL    HW115764   3.458   4.265  15.478 -0.3968 -0.3072 -1.9862
 1377SOL    HW215765   3.566   4.205  15.561 -1.8111 -0.4803  0.5911
 1378SOL     OW15766   2.722   4.391   6.516 -0.6663  0.0079 -0.5634
 1378SOL    HW115767   2.751   4.366   6.604 -2.8873  1.9589  0.7154
 1378SOL    HW215768   2.639   4.344   6.513  1.1889 -3.2042 -1.7356
 1379SOL     OW15769   2.597   4.116   5.595  0.4800  0.2434 -0.0557
 1379SOL    HW115770   2.562   4.191   5.548  0.7310 -0.8262 -1.9540
 1379SOL    HW215771   2.690   4.138   5.592  1.1637 -2.2219  2.6837
 1380SOL     OW15772   0.021   0.318   7.295 -0.0830  0.5081  0.0543
 1380SOL    HW115773   0.044   0.226   7.306  0.5559  1.0085  2.8035
 1380SOL    HW215774   0.102   0.362   7.320  0.1963 -1.0263  1.8812
 1381SOL     OW15775   1.638   0.720   7.770 -0.7136 -0.1215 -0.1028
 1381SOL    HW115776   1.692   0.735   7.848 -0.4911 -1.8934  0.0943
 1381SOL    HW215777   1.547   0.727   7.797 -0.2399 -0.9390  1.7856
 1382SOL     OW15778   0.506   4.609   9.106 -0.1007  0.0577  0.2933
 1382SOL    HW115779   0.516   4.671   9.178  2.1786  0.1496 -0.0985
 1382SOL    HW215780   0.458   4.541   9.152  0.1183 -0.2831  0.0234
 1383SOL     OW15781   2.219   2.165   8.637 -0.3020 -0.6824 -0.1742
 1383SOL    HW115782   2.286   2.232   8.627 -1.2114  0.4737  1.6230
 1383SOL    HW215783   2.216   2.163   8.732  1.0483  0.1004 -0.1179
 1384SOL     OW15784   2.993   3.993   3.881 -0.0908  0.0180  0.1858
 1384SOL    HW115785   2.942   4.013   3.804 -0.6047  1.2061  0.8319
 1384SOL    HW215786   3.027   3.906   3.860  1.3649  0.6098  0.0830
 1385SOL     OW15787   1.847   1.703   9.017  0.6039 -0.0037 -0.2088
 1385SOL    HW115788   1.826   1.636   9.081  0.6295  0.6871  0.5284
 1385SOL    HW215789   1.765   1.707   8.969  0.7316 -1.4971 -0.5285
 1386SOL     OW15790   3.089   3.562  11.807  0.0300 -0.1766  0.1276
 1386SOL    HW115791   3.100   3.593  11.717  1.7840  0.9969  0.7393
 1386SOL    HW215792   3.041   3.480  11.802 -1.9526  0.9588  0.5355
 1387SOL     OW15793   2.596   3.269   6.664 -0.3903  0.6084 -0.8203
 1387SOL    HW115794   2.511   3.249   6.703  0.8922 -1.9222  0.6561
 1387SOL    HW215795   2.658   3.270   6.736  0.3679 -2.8240 -1.4084
 1388SOL     OW15796   0.927   3.416   1.608  0.2283 -0.4395 -0.2246
 1388SOL    HW115797   0.840   3.453   1.592  1.1449  1.9698  0.3203
 1388SOL    HW215798   0.954   3.407   1.517  2.3457 -0.4741  0.4098
 1389SOL     OW15799   2.325   3.978  16.297 -0.1925  0.7219 -0.2006
 1389SOL    HW115800   2.341   3.947  16.208 -0.6273  3.9343 -1.4162
 1389SOL    HW215801   2.230   3.981  16.310 -0.2230 -2.1821  0.2124
 1390SOL     OW15802   3.986   2.472   5.728 -0.5070  0.2286  0.4298
 1390SOL    HW115803   4.047   2.525   5.778  2.2534  0.0296 -2.7353
 1390SOL    HW215804   3.986   2.514   5.642  1.7900 -0.4554  0.0997
 1391SOL     OW15805   3.244   4.500   7.788  0.0475  0.3921  0.2130
 1391SOL    HW115806   3.328   4.529   7.752 -0.1507 -2.3813 -2.5388
 1391SOL    HW215807   3.210   4.574   7.838 -0.4920 -0.0927  0.5553
 1392SOL     OW15808   3.134   4.370  15.951 -0.2848  0.6235  0.5060
 1392SOL    HW115809   3.150   4.340  15.862 -1.8535  1.4280 -0.0393
 1392SOL    HW215810   3.146   4.465  15.945 -0.4343  0.5464 -0.8198
 1393SOL     OW15811   3.598   0.057   3.280 -0.1227 -0.0280 -0.0072
 1393SOL    HW115812   3.512   0.072   3.319  0.0064 -1.2084  0.7170
 1393SOL    HW215813   3.661   0.082   3.348  0.3285  0.2312 -0.5207
 1394SOL     OW15814   3.009   1.085  10.114 -0.6756  0.6872  0.9632
 1394SOL    HW115815   3.060   1.158  10.080  0.5372 -0.3714  0.5183
 1394SOL    HW215816   3.077   1.017  10.107  0.2039  1.3783  2.6447
 1395SOL     OW15817   2.011   3.688   6.266 -0.4303 -0.3192 -0.4401
 1395SOL    HW115818   2.085   3.747   6.278 -0.6003 -0.0135 -0.9230
 1395SOL    HW215819   2.049   3.600   6.265  0.9479  0.3051 -3.2399
 1396SOL     OW15820   2.939   0.340   3.928 -0.2815  0.3419  0.5116
 1396SOL    HW115821   2.925   0.391   3.849 -1.3993  0.5515  0.8545
 1396SOL    HW215822   2.877   0.268   3.912  1.5922 -0.7769 -1.7252
 1397SOL     OW15823   1.010   1.932   5.033 -0.2511 -0.1869  0.3348
 1397SOL    HW115824   1.038   2.024   5.033  1.5643 -0.7545 -0.0268
 1397SOL    HW215825   1.050   1.894   5.111 -0.1390  1.2089  0.9572
 1398SOL     OW15826   4.655   0.054   6.284 -0.3055  0.0491 -0.2193
 1398SOL    HW115827   4.683   4.713   6.232 -2.4464 -0.7825 -0.1306
 1398SOL    HW215828   4.723   0.068   6.349 -1.0203  0.6684  0.3809
 1399SOL     OW15829   4.670   1.429   8.110 -0.1300 -0.1598  0.4842
 1399SOL    HW115830   4.582   1.400   8.133 -0.1050 -2.8149 -2.6357
 1399SOL    HW215831   4.691   1.490   8.181  1.5620 -2.3209  1.8389
 1400SOL     OW15832   2.031   0.807  14.307 -0.4116 -0.0722 -0.3570
 1400SOL    HW115833   2.096   0.809  14.237  2.4000  1.0874  2.2802
 1400SOL    HW215834   1.975   0.884  14.295 -1.4079 -0.6463  0.5513
 1401SOL     OW15835   0.170   1.275  15.346 -0.0632 -0.4715  0.1970
 1401SOL    HW115836   0.257   1.300  15.377 -0.1901 -0.7731  0.8025
 1401SOL    HW215837   0.112   1.351  15.345  0.8091  0.2057  1.7316
 1402SOL     OW15838   2.943   0.592   7.137  0.2275  0.0753 -1.5133
 1402SOL    HW115839   2.887   0.533   7.086 -0.9596 -0.4513  0.3838
 1402SOL    HW215840   2.888   0.669   7.151  2.2943  0.6551  3.6271
 1403SOL     OW15841   0.849   1.200   6.825 -0.1445 -0.2984 -0.2818
 1403SOL    HW115842   0.868   1.204   6.918  0.6630  1.9431 -0.5385
 1403SOL    HW215843   0.791   1.276   6.818 -0.4394 -0.6185 -1.3216
 1404SOL     OW15844   4.092   2.580  12.761  0.2092 -0.4139 -0.3807
 1404SOL    HW115845   4.110   2.583  12.667  1.0739  1.0012 -0.1704
 1404SOL    HW215846   4.129   2.492  12.772 -4.0712 -1.9458  1.6731
 1405SOL     OW15847   1.526   2.836   1.322  0.6194  0.1445  0.7073
 1405SOL    HW115848   1.566   2.830   1.235  0.7570  3.2009  0.5691
 1405SOL    HW215849   1.511   2.930   1.330  1.4532  0.3362  0.0975
 1406SOL     OW15850   3.200   0.935   5.453 -0.4314  0.0226 -0.0567
 1406SOL    HW115851   3.212   0.947   5.547  1.5801 -1.0376 -0.1773
 1406SOL    HW215852   3.221   1.017   5.409 -0.4945  0.1156  0.0863
 1407SOL     OW15853   3.027   2.124   3.326  0.2260 -1.4372 -1.0060
 1407SOL    HW115854   3.104   2.155   3.278 -0.3705  2.5669  0.6011
 1407SOL    HW215855   2.959   2.175   3.281 -0.8275 -0.5920  1.5244
 1408SOL     OW15856   4.043   3.901   7.232  0.7195  0.2211 -0.0786
 1408SOL    HW115857   4.071   3.850   7.156  1.9925  1.1416 -0.2116
 1408SOL    HW215858   4.059   3.842   7.306 -0.3210  0.2770  0.1886
 1409SOL     OW15859   4.136   4.530  17.441  0.1800  0.4544 -0.0469
 1409SOL    HW115860   4.070   4.599  17.435  0.6192  0.9112  0.3971
 1409SOL    HW215861   4.197   4.573  17.501  2.0047 -2.8810  0.4800
 1410SOL     OW15862   3.364   3.945   7.498 -0.6365  0.5430 -0.0823
 1410SOL    HW115863   3.410   4.022   7.466 -0.4508  1.1999  1.7374
 1410SOL    HW215864   3.418   3.925   7.575  0.5355  1.3665 -0.7049
 1411SOL     OW15865   1.787   2.882  15.178 -0.7097 -0.7739 -0.1778
 1411SOL    HW115866   1.823   2.818  15.239 -0.6340  0.0823  0.6751
 1411SOL    HW215867   1.704   2.837  15.162  0.0234 -2.4027  0.5672
 1412SOL     OW15868   1.649   3.838   3.041  0.0119 -0.3567 -0.0988
 1412SOL    HW115869   1.628   3.931   3.041  0.3305 -0.2857  0.0103
 1412SOL    HW215870   1.650   3.824   2.946  0.7641 -1.3904  0.0544
 1413SOL     OW15871   3.749   1.388   9.846 -0.1667  0.2529 -0.1759
 1413SOL    HW115872   3.664   1.431   9.852 -0.5645 -0.8768  2.2271
 1413SOL    HW215873   3.775   1.419   9.760  1.2424  1.6762  0.7463
 1414SOL     OW15874   3.592   1.626   5.348  0.1135 -0.0716  0.6948
 1414SOL    HW115875   3.553   1.713   5.337  0.6350  0.1215  0.3960
 1414SOL    HW215876   3.630   1.617   5.435  1.8710  1.4611  0.0821
 1415SOL     OW15877   2.969   1.602   3.441 -0.1661 -0.3775  0.6820
 1415SOL    HW115878   2.974   1.695   3.421  2.5142 -0.3251  1.6422
 1415SOL    HW215879   2.885   1.572   3.405 -0.0111  0.2056 -0.1485
 1416SOL     OW15880   2.206   1.537   1.387 -0.5447  0.1238  0.1922
 1416SOL    HW115881   2.271   1.577   1.445 -0.6212 -1.7071  1.5158
 1416SOL    HW215882   2.247   1.451   1.381  0.6625  0.7938 -1.2251
 1417SOL     OW15883   0.408   2.959   7.203 -0.3457 -0.0160 -0.0793
 1417SOL    HW115884   0.495   2.964   7.242 -1.3721  0.3119  2.1162
 1417SOL    HW215885   0.390   3.053   7.196  0.6736  0.1546 -0.3519
 1418SOL     OW15886   4.648   4.268   7.888  0.0347 -0.0348 -0.6394
 1418SOL    HW115887   4.655   4.215   7.809  3.0505  1.0280 -1.0902
 1418SOL    HW215888   0.003   4.261   7.921  0.5954 -0.4029 -2.2543
 1419SOL     OW15889   4.339   2.709  12.301 -0.3257  0.0675  0.5469
 1419SOL    HW115890   4.328   2.627  12.253 -0.7512 -0.2683  1.2245
 1419SOL    HW215891   4.426   2.729  12.266  0.2927  1.0234  2.6058
 1420SOL     OW15892   3.132   4.169   4.027 -0.0209  0.4729 -0.0276
 1420SOL    HW115893   3.190   4.183   3.952 -0.9229  2.0247 -0.4301
 1420SOL    HW215894   3.067   4.114   3.983  0.0662 -0.5540  1.1422
 1421SOL     OW15895   3.043   0.269  16.874 -0.5002 -0.1923  0.4479
 1421SOL    HW115896   3.089   0.216  16.809 -2.7777  0.2197 -1.5056
 1421SOL    HW215897   3.113   0.323  16.911  0.9662 -0.3139 -2.1863
 1422SOL     OW15898   4.084   3.265   0.890 -0.5299 -0.2797  0.2006
 1422SOL    HW115899   4.065   3.316   0.811  0.4526  0.3198  0.3486
 1422SOL    HW215900   4.031   3.187   0.879  0.5735 -0.9239 -0.6070
 1423SOL     OW15901   0.318   3.362   3.105  0.4622  0.8457  0.1370
 1423SOL    HW115902   0.231   3.336   3.136  1.0804  0.0364  1.1807
 1423SOL    HW215903   0.302   3.419   3.030 -0.3845  1.5220  0.8443
 1424SOL     OW15904   2.879   0.072   7.929  0.2427 -0.5143 -0.1184
 1424SOL    HW115905   2.825   0.146   7.954  0.2656 -0.6290  0.2750
 1424SOL    HW215906   2.807   0.011   7.946 -0.4676  0.1589 -0.7578
 1425SOL     OW15907   4.490   1.141   5.816 -0.3285 -0.1334  0.2478
 1425SOL    HW115908   4.553   1.071   5.804 -0.6650 -0.8547  2.5790
 1425SOL    HW215909   4.549   1.211   5.845 -1.2176 -0.8319  3.8527
 1426SOL     OW15910   1.596   0.233   7.985 -0.4416 -0.2343  0.4076
 1426SOL    HW115911   1.573   0.318   8.022 -1.0958 -0.6844  1.0614
 1426SOL    HW215912   1.675   0.221   8.038 -0.0396  0.9567  0.0742
 1427SOL     OW15913   3.271   3.648  15.377  0.3119 -0.6145 -0.1608
 1427SOL    HW115914   3.220   3.693  15.309  1.8764 -1.6665 -1.9963
 1427SOL    HW215915   3.343   3.604  15.333  0.9793  0.6548 -0.3365
 1428SOL     OW15916   0.088   3.318   3.248 -0.1032 -0.8997  0.0340
 1428SOL    HW115917   0.027   3.245   3.248 -2.2213  0.8881 -0.3925
 1428SOL    HW215918   0.035   3.389   3.210  0.0354 -0.2844  0.9878
 1429SOL     OW15919   3.322   0.921   6.087 -0.2365 -0.0836 -0.2288
 1429SOL    HW115920   3.347   1.001   6.040 -1.7183  0.6216  0.1787
 1429SOL    HW215921   3.258   0.958   6.148 -0.7100  0.2430 -0.9221
 1430SOL     OW15922   2.282   0.558  14.699  0.0411  0.2152  0.1949
 1430SOL    HW115923   2.221   0.570  14.627 -1.8973 -0.2444  1.7692
 1430SOL    HW215924   2.348   0.500  14.660 -3.2919 -3.3476 -0.1143
 1431SOL     OW15925   2.797   4.655   5.895  0.1375  0.5210 -0.3578
 1431SOL    HW115926   2.715   4.611   5.914 -0.1523  0.5891 -1.4341
 1431SOL    HW215927   2.796   4.707   5.975 -1.5960 -0.6944  0.4129
 1432SOL     OW15928   2.899   3.324   4.165 -0.0198  0.0150 -0.1143
 1432SOL    HW115929   2.952   3.354   4.239  1.7334 -1.2344 -0.8662
 1432SOL    HW215930   2.960   3.283   4.104  0.5537  0.4140  0.1902
 1433SOL     OW15931   0.905   1.688   2.560  0.0723 -0.1115 -0.2676
 1433SOL    HW115932   0.822   1.736   2.568  0.3253  0.3848 -0.6623
 1433SOL    HW215933   0.967   1.753   2.527 -0.3024  0.4774  0.1925
 1434SOL     OW15934   4.680   2.020   2.126 -0.2052  0.1575 -0.7044
 1434SOL    HW115935   4.679   2.116   2.125 -1.7929  0.1600  1.0611
 1434SOL    HW215936   4.650   2.003   2.037  0.8488 -0.6316 -0.9108
 1435SOL     OW15937   2.571   3.609   6.827 -0.0045  0.2460 -0.5243
 1435SOL    HW115938   2.660   3.634   6.853  0.0202  0.4965 -0.8502
 1435SOL    HW215939   2.539   3.688   6.785  0.2747 -0.4206 -2.0051
 1436SOL     OW15940   3.396   3.776   6.641  0.3034  0.0645  0.3771
 1436SOL    HW115941   3.461   3.807   6.705  0.9707 -0.2371 -0.1612
 1436SOL    HW215942   3.312   3.775   6.688 -0.7671 -0.3502 -1.5655
 1437SOL     OW15943   3.883   2.048   1.310  0.3533  0.0026 -0.7107
 1437SOL    HW115944   3.896   1.965   1.263  0.5375 -0.4618  0.1746
 1437SOL    HW215945   3.874   2.112   1.239  0.9195  1.1862  0.2979
 1438SOL     OW15946   2.525   1.996   7.214 -0.4287  0.5370  0.3809
 1438SOL    HW115947   2.548   2.082   7.250 -0.2479  1.3560 -1.6826
 1438SOL    HW215948   2.611   1.954   7.218 -0.5291  0.1669 -1.2362
 1439SOL     OW15949   2.402   4.140   4.211 -0.4306  0.0690  0.1285
 1439SOL    HW115950   2.318   4.156   4.168 -0.6366 -1.5752 -0.1032
 1439SOL    HW215951   2.387   4.053   4.248  0.0777 -0.4858 -0.9619
 1440SOL     OW15952   3.130   2.254   5.726 -0.1520  0.5824  0.0910
 1440SOL    HW115953   3.071   2.220   5.793  1.0781  0.1715  0.9617
 1440SOL    HW215954   3.201   2.191   5.740  1.3595  2.0922 -0.8607
 1441SOL     OW15955   2.094   0.650   4.024  0.4416 -0.9255 -0.0646
 1441SOL    HW115956   2.004   0.619   4.009 -0.4207  0.7220  1.6833
 1441SOL    HW215957   2.084   0.745   4.034  1.9089 -0.6813 -1.0756
 1442SOL     OW15958   1.398   1.253   8.051 -0.5791  0.1371  0.4236
 1442SOL    HW115959   1.341   1.217   8.119 -1.2122  0.1577 -0.0966
 1442SOL    HW215960   1.475   1.280   8.101 -0.5080  2.3826 -0.8949
 1443SOL     OW15961   3.040   0.251   9.265 -0.2915  0.5139 -0.1773
 1443SOL    HW115962   3.056   0.341   9.239  2.1687  0.3236  0.6917
 1443SOL    HW215963   3.086   0.199   9.199  0.5856  0.7996  0.2094
 1444SOL     OW15964   4.222   0.824  14.959 -0.2189 -0.0253 -0.3773
 1444SOL    HW115965   4.193   0.904  14.917  1.0349  0.2827 -0.6652
 1444SOL    HW215966   4.308   0.854  14.989 -0.3755  0.3615 -0.3242
 1445SOL     OW15967   0.086   1.596   4.722 -0.0515  0.4592 -0.4534
 1445SOL    HW115968   0.092   1.579   4.628  0.5285 -0.5443 -0.2314
 1445SOL    HW215969   0.013   1.541   4.752 -0.0962  0.0257 -1.3605
 1446SOL     OW15970   2.428   1.788   5.580  0.3546 -0.2390  0.0974
 1446SOL    HW115971   2.445   1.759   5.491  0.4192  2.0643 -0.6451
 1446SOL    HW215972   2.451   1.703   5.618 -1.5245 -1.2225 -1.0174
 1447SOL     OW15973   2.889   2.586   7.704  0.1865  0.1794 -0.1181
 1447SOL    HW115974   2.934   2.507   7.733 -0.3353  0.4076  1.2703
 1447SOL    HW215975   2.888   2.587   7.608  0.5919  0.0393 -0.1252
 1448SOL     OW15976   3.223   3.024   3.588  0.7403 -0.2152  0.6274
 1448SOL    HW115977   3.208   2.964   3.661 -0.8115 -0.6782 -0.0659
 1448SOL    HW215978   3.298   2.981   3.547  0.2994 -0.6442  0.2758
 1449SOL     OW15979   2.748   0.154   3.872 -0.4063  0.5278 -0.6275
 1449SOL    HW115980   2.777   0.066   3.896 -0.3899  1.1420  1.6149
 1449SOL    HW215981   2.654   0.141   3.859 -0.2940 -0.0911 -0.7826
 1450SOL     OW15982   0.171   2.751   4.540  0.0662 -0.1276 -0.2051
 1450SOL    HW115983   0.240   2.768   4.475 -0.6777 -0.9475 -1.2142
 1450SOL    HW215984   0.107   2.721   4.475  2.2404 -1.5589 -1.7014
 1451SOL     OW15985   4.106   3.068  17.731 -0.0958  0.7537  0.3646
 1451SOL    HW115986   4.068   3.079  17.644  0.2438 -2.4484 -0.2082
 1451SOL    HW215987   4.041   3.125   0.036  0.4934  0.9974  0.9494
 1452SOL     OW15988   1.230   0.707   5.091 -0.2131  0.0566 -0.1458
 1452SOL    HW115989   1.138   0.723   5.070 -0.5891 -1.1306  0.5725
 1452SOL    HW215990   1.236   0.742   5.180  0.4890  1.4557 -0.7526
 1453SOL     OW15991   4.625   2.969  12.983 -0.4904 -0.4771  0.3296
 1453SOL    HW115992   4.560   3.018  13.033 -0.3143  1.5922 -1.4525
 1453SOL    HW215993   4.631   2.878  13.009  0.0000  0.1641  2.4997
 1454SOL     OW15994   1.133   3.099   5.480  0.3475  0.1602 -0.2322
 1454SOL    HW115995   1.087   3.066   5.557  1.3822 -0.2797  0.1967
 1454SOL    HW215996   1.195   3.163   5.514  2.3771 -1.1759 -1.4225
 1455SOL     OW15997   2.657   1.890   9.859 -0.1816 -0.0642  0.2471
 1455SOL    HW115998   2.603   1.936   9.923 -0.5873  0.1287 -0.2373
 1455SOL    HW215999   2.745   1.901   9.895  0.4658 -2.4163 -0.6077
 1456SOL     OW16000   3.755   0.460   1.968 -0.0097 -0.3845 -0.6467
 1456SOL    HW116001   3.832   0.512   1.945 -1.0397  1.4409  0.0506
 1456SOL    HW216002   3.798   0.389   2.016 -2.8957 -1.6402  0.1084
 1457SOL     OW16003   4.097   4.405   3.097 -0.3031  0.0647  0.5382
 1457SOL    HW116004   4.006   4.375   3.103 -0.6046  0.5740 -1.6261
 1457SOL    HW216005   4.123   4.405   3.190  2.2149  0.1652 -0.1674
 1458SOL     OW16006   0.837   0.499   2.945  0.3686  0.0680  0.0875
 1458SOL    HW116007   0.749   0.496   2.908 -0.4391  0.8663  1.9820
 1458SOL    HW216008   0.833   0.585   2.986 -1.6839 -0.5399  1.1170
 1459SOL     OW16009   4.008   4.363  16.644 -0.2240 -0.6773  0.1621
 1459SOL    HW116010   3.940   4.430  16.634 -0.3321 -0.5743  1.4977
 1459SOL    HW216011   3.953   4.287  16.657  0.1881 -1.0445 -0.2584
 1460SOL     OW16012   3.499   1.992   9.461 -0.9166  0.4706 -0.4110
 1460SOL    HW116013   3.431   1.938   9.502  0.8500  0.1211  2.0383
 1460SOL    HW216014   3.474   1.968   9.372  1.8834 -1.8366 -0.6011
 1461SOL     OW16015   1.663   0.494   9.699  0.0608 -0.5903  0.0972
 1461SOL    HW116016   1.599   0.446   9.646  2.1311 -2.2569 -0.8674
 1461SOL    HW216017   1.747   0.451   9.682  0.2298 -0.3192  0.2537
 1462SOL     OW16018   2.280   4.543   7.794  0.4835 -0.1241 -0.1032
 1462SOL    HW116019   2.188   4.533   7.769  1.0179 -1.7524 -1.3743
 1462SOL    HW216020   2.309   4.600   7.722 -0.4751 -2.6971 -2.4972
 1463SOL     OW16021   3.618   4.533   5.967 -0.1781 -0.3506  0.2279
 1463SOL    HW116022   3.566   4.497   5.894  1.1540  0.0812 -0.9312
 1463SOL    HW216023   3.569   4.492   6.039 -0.9480 -0.8402 -0.5655
 1464SOL     OW16024   1.883   0.406   6.157 -0.6601 -0.0373  0.2194
 1464SOL    HW116025   1.934   0.460   6.095 -0.9191  0.0161  0.0526
 1464SOL    HW216026   1.931   0.324   6.160  1.8299  1.4541  1.1773
 1465SOL     OW16027   4.122   3.368   4.780 -0.3504 -0.2980  0.1280
 1465SOL    HW116028   4.153   3.343   4.867  1.2516 -0.2345 -0.4220
 1465SOL    HW216029   4.101   3.279   4.751 -0.7909 -0.3821  0.7135
 1466SOL     OW16030   1.523   4.443   6.303 -0.1810  0.5554 -0.6052
 1466SOL    HW116031   1.430   4.419   6.300 -0.0660  0.2559 -1.5547
 1466SOL    HW216032   1.515   4.527   6.347 -0.4590  0.3684 -0.2900
 1467SOL     OW16033   1.291   0.384  17.524 -0.3344 -0.2193  0.0094
 1467SOL    HW116034   1.343   0.336  17.589 -1.2882 -2.3168 -0.8001
 1467SOL    HW216035   1.354   0.454  17.504 -1.1129  0.4572 -0.0557
 1468SOL     OW16036   3.869   0.033   4.872  0.0131 -0.1384 -0.3148
 1468SOL    HW116037   3.842   0.027   4.964 -1.0005 -1.4976 -0.6896
 1468SOL    HW216038   3.898   0.124   4.865 -0.2989  0.1364  2.0656
 1469SOL     OW16039   3.411   4.357  10.935  0.1160 -0.0921 -0.2200
 1469SOL    HW116040   3.473   4.285  10.933  0.1090 -0.0942 -0.3564
 1469SOL    HW216041   3.331   4.326  10.893  1.5633 -3.3008 -0.5601
 1470SOL     OW16042   3.914   4.169   9.377  0.1818  0.0569 -0.5473
 1470SOL    HW116043   3.947   4.110   9.309  3.1401  0.1321  0.8443
 1470SOL    HW216044   3.927   4.253   9.332  0.4845  0.8866  1.1035
 1471SOL     OW16045   1.499   2.096  11.574 -0.1183  0.1709  0.1142
 1471SOL    HW116046   1.543   2.049  11.645  0.7256 -2.1201 -1.9253
 1471SOL    HW216047   1.567   2.159  11.548 -1.1448  1.4372  0.4981
 1472SOL     OW16048   1.486   1.887   8.314  0.1164  0.5271  0.1530
 1472SOL    HW116049   1.446   1.973   8.328  0.6040  0.5810  1.2045
 1472SOL    HW216050   1.532   1.867   8.396  1.0961  2.1109 -0.0077
 1473SOL     OW16051   0.301   1.162   8.204 -0.5854  0.4918  0.0334
 1473SOL    HW116052   0.284   1.187   8.113 -2.3128  1.8639  0.7126
 1473SOL    HW216053   0.376   1.104   8.193 -1.9186 -1.1408 -0.6228
 1474SOL     OW16054   4.312   3.751   2.115  0.2318 -0.2210  0.1447
 1474SOL    HW116055   4.232   3.769   2.164 -1.1311 -2.3721 -1.2999
 1474SOL    HW216056   4.345   3.671   2.155 -1.4696 -0.6809  0.6262
 1475SOL     OW16057   2.302   3.076   9.273  0.4559 -0.4156  0.3224
 1475SOL    HW116058   2.216   3.081   9.232 -0.8909 -2.5732  2.8937
 1475SOL    HW216059   2.286   3.074   9.367 -1.3485 -1.4011 -0.0096
 1476SOL     OW16060   4.732   3.388   5.273  0.1812  0.1205  0.5008
 1476SOL    HW116061   0.066   3.325   5.299  0.8264  0.0132 -1.4091
 1476SOL    HW216062   0.032   3.457   5.329  2.5918 -0.0941 -0.7031
 1477SOL     OW16063   3.360   3.337   3.343  0.3102  0.0064 -0.2560
 1477SOL    HW116064   3.361   3.253   3.297  1.4375  0.0045 -0.2196
 1477SOL    HW216065   3.453   3.357   3.346  0.6101 -1.3797  0.0167
 1478SOL     OW16066   3.522   3.308   1.439 -0.5464  0.4076 -0.5804
 1478SOL    HW116067   3.433   3.329   1.468  0.0563  0.3704  1.3498
 1478SOL    HW216068   3.548   3.253   1.513  0.5159  0.2481 -1.0788
 1479SOL     OW16069   4.237   1.931   7.025  0.0382 -0.5445  0.0469
 1479SOL    HW116070   4.244   2.019   7.062 -0.2718  0.3039 -1.9513
 1479SOL    HW216071   4.328   1.900   7.018 -0.6942 -2.0696 -2.7991
 1480SOL     OW16072   0.440   4.719   7.495 -0.2941  0.4279 -0.1180
 1480SOL    HW116073   0.448   0.080   7.489  2.0045  0.2527  0.1316
 1480SOL    HW216074   0.409   4.711   7.585  1.0223 -0.7797  0.2245
 1481SOL     OW16075   1.951   4.619   6.151  0.1509 -0.2201 -0.6205
 1481SOL    HW116076   2.001   4.561   6.209 -0.5750  1.4318  1.6701
 1481SOL    HW216077   1.881   4.558   6.132 -1.8294  1.6635  0.6842
 1482SOL     OW16078   3.016   4.639   1.865 -0.7677 -0.4567 -0.1062
 1482SOL    HW116079   2.996   4.671   1.953  0.1429 -1.6984  0.5574
 1482SOL    HW216080   2.979   4.551   1.875  1.6119 -1.3553  1.0071
 1483SOL     OW16081   0.120   2.929   7.782 -0.0610 -0.0727 -0.0859
 1483SOL    HW116082   0.084   2.860   7.725 -1.8961  0.0819  0.8765
 1483SOL    HW216083   0.135   2.998   7.717 -0.2392 -0.9102 -1.0264
 1484SOL     OW16084   0.091   1.755   7.944 -0.2216  0.2312 -0.1018
 1484SOL    HW116085   0.105   1.702   7.865 -2.8981 -3.1607  1.7032
 1484SOL    HW216086   0.135   1.696   8.005  0.5983 -0.6265 -1.5363
 1485SOL     OW16087   2.604   3.515   8.549  0.1080 -0.3428  0.1503
 1485SOL    HW116088   2.567   3.446   8.494  1.5731  0.9634 -2.4773
 1485SOL    HW216089   2.643   3.580   8.491  1.3005 -1.7785 -0.6543
 1486SOL     OW16090   1.258   0.920   8.757  0.0431  0.3213 -0.3971
 1486SOL    HW116091   1.342   0.885   8.787 -1.1973 -0.4877  2.1665
 1486SOL    HW216092   1.234   0.970   8.835  1.9194 -0.7464  0.8851
 1487SOL     OW16093   1.796   2.922   5.810 -0.0184  0.2078  0.1311
 1487SOL    HW116094   1.862   2.990   5.822  0.8544 -0.1799 -2.3679
 1487SOL    HW216095   1.801   2.866   5.886  2.1325 -0.1329 -0.2699
 1488SOL     OW16096   3.961   2.704   5.252  0.5166  0.1059 -0.5853
 1488SOL    HW116097   3.870   2.726   5.233  1.4646  2.2147 -2.6370
 1488SOL    HW216098   4.007   2.783   5.278 -2.7612  1.3710  1.4321
 1489SOL     OW16099   2.692   1.632  12.930 -0.2407 -0.3657 -0.4056
 1489SOL    HW116100   2.613   1.679  12.903  1.0393  1.3186 -1.1973
 1489SOL    HW216101   2.689   1.657  13.022 -0.6956 -0.4924 -0.3857
 1490SOL     OW16102   3.608   2.570   1.155  0.2980 -0.1745 -0.0270
 1490SOL    HW116103   3.529   2.550   1.105 -0.5039  0.6415  0.9095
 1490SOL    HW216104   3.617   2.483   1.192 -2.3960  0.1025  1.3202
 1491SOL     OW16105   0.495   3.074   5.825  0.5294 -0.0553 -0.6708
 1491SOL    HW116106   0.557   3.093   5.896  1.6707  2.1725 -2.2526
 1491SOL    HW216107   0.442   3.154   5.816  1.0045  0.4156  0.7751
 1492SOL     OW16108   3.972   3.897   1.762  0.0771 -0.1109 -0.2226
 1492SOL    HW116109   3.974   3.937   1.849  1.4113 -0.1895 -0.2112
 1492SOL    HW216110   3.962   3.978   1.711  0.0354  0.2044  0.2910
 1493SOL     OW16111   1.259   4.542  10.077  0.0669 -0.1514  0.0168
 1493SOL    HW116112   1.248   4.465  10.021 -1.8126 -0.9923  1.5383
 1493SOL    HW216113   1.311   4.509  10.150  1.8488  4.3501  0.7977
 1494SOL     OW16114   1.474   2.489  17.383  0.3701  0.1806  0.2864
 1494SOL    HW116115   1.480   2.570  17.434 -0.8919  0.7100 -0.4259
 1494SOL    HW216116   1.395   2.452  17.423  1.7938 -2.6042  0.5295
 1495SOL     OW16117   1.760   1.517   0.932 -0.0568 -0.1048  0.3398
 1495SOL    HW116118   1.841   1.467   0.932 -0.4262 -0.7426  2.5550
 1495SOL    HW216119   1.784   1.590   0.989 -1.2959 -0.8813  1.8517
 1496SOL     OW16120   1.493   1.259   5.445 -0.3547 -0.3344  0.5743
 1496SOL    HW116121   1.481   1.310   5.365 -3.6362 -2.0226 -0.0532
 1496SOL    HW216122   1.451   1.184   5.401  0.2947 -0.3064 -0.0991
 1497SOL     OW16123   4.378   3.244   2.087 -0.4974 -0.0374  0.6323
 1497SOL    HW116124   4.429   3.198   2.020  1.2771  0.0307  1.9550
 1497SOL    HW216125   4.312   3.180   2.115  0.1895 -0.7580  0.5857
 1498SOL     OW16126   1.719   3.542   6.301 -0.7033 -0.3079  0.1780
 1498SOL    HW116127   1.757   3.502   6.223 -1.2792 -0.0685 -0.2278
 1498SOL    HW216128   1.646   3.480   6.310 -1.7915  0.8366 -0.7543
 1499SOL     OW16129   3.604   2.407   2.971  0.1196 -0.3152 -0.0188
 1499SOL    HW116130   3.689   2.403   3.014 -0.6463  0.4642  1.5532
 1499SOL    HW216131   3.629   2.450   2.889 -3.1429 -1.3951 -1.5742
 1500SOL     OW16132   2.543   1.532   6.214  0.0300 -0.2690 -0.0270
 1500SOL    HW116133   2.509   1.478   6.285  1.3832 -0.9377  0.1101
 1500SOL    HW216134   2.507   1.493   6.134 -1.2177  0.4394  0.1818
 1501SOL     OW16135   2.330   4.187   7.200 -0.3573  0.1471 -0.2216
 1501SOL    HW116136   2.333   4.282   7.210  0.1516  0.3350 -2.1387
 1501SOL    HW216137   2.422   4.162   7.213  0.0136  0.7752 -1.6997
 1502SOL     OW16138   0.402   2.285   8.781 -0.0060 -0.3639 -0.1984
 1502SOL    HW116139   0.488   2.302   8.819  0.4157  2.9862 -2.6694
 1502SOL    HW216140   0.393   2.362   8.725  0.5126  0.9279  1.5032
 1503SOL     OW16141   3.155   3.734   6.789  0.0977 -0.1074 -0.1304
 1503SOL    HW116142   3.076   3.782   6.763 -0.5823 -0.3293  1.5091
 1503SOL    HW216143   3.170   3.769   6.877  0.2893 -2.7134  0.9082
 1504SOL     OW16144   2.493   1.285   9.222  0.4397 -0.5241  0.0463
 1504SOL    HW116145   2.501   1.214   9.286 -1.7340 -0.6886  0.1362
 1504SOL    HW216146   2.459   1.237   9.147  1.5935 -1.7787  0.3423
 1505SOL     OW16147   2.636   1.846   2.658 -0.0839 -0.5030 -0.4514
 1505SOL    HW116148   2.700   1.894   2.606  1.0002 -0.0951  1.2650
 1505SOL    HW216149   2.561   1.840   2.599 -1.1227  0.1584  0.8044
 1506SOL     OW16150   0.018   0.935   8.866  0.3755  0.2755  0.5036
 1506SOL    HW116151   0.040   0.859   8.919 -1.6640 -1.8844 -1.7211
 1506SOL    HW216152   4.710   0.997   8.925  0.4007  0.7247  0.0510
 1507SOL     OW16153   0.406   0.229   2.774 -0.0779  0.3244  0.0245
 1507SOL    HW116154   0.411   0.149   2.826 -1.0236  0.6884  0.6665
 1507SOL    HW216155   0.452   0.291   2.830  2.8046  0.7071 -2.7721
 1508SOL     OW16156   1.722   2.399   9.203 -0.4835  0.2325  0.4434
 1508SOL    HW116157   1.743   2.377   9.113  0.4142  1.8057  0.2768
 1508SOL    HW216158   1.667   2.475   9.186  1.0936  0.3855 -3.8331
 1509SOL     OW16159   1.224   1.170   8.233  0.2401 -0.1118 -0.0963
 1509SOL    HW116160   1.174   1.095   8.202 -2.5707  1.6001  0.3329
 1509SOL    HW216161   1.265   1.128   8.308  0.8610 -0.2123 -0.4844
 1510SOL     OW16162   3.765   2.519   0.032  0.1518 -0.2027 -0.2637
 1510SOL    HW116163   3.839   2.551   0.084 -0.9368 -1.6612  2.2235
 1510SOL    HW216164   3.811   2.461  17.709  2.4306  0.8097  0.5264
 1511SOL     OW16165   2.981   4.372   5.103 -0.5941 -0.2803 -0.2575
 1511SOL    HW116166   3.025   4.442   5.055 -1.1527  0.6657  0.6233
 1511SOL    HW216167   3.027   4.291   5.081  2.1468  0.9512  0.9275
 1512SOL     OW16168   3.962   2.400   7.382  0.4201  0.1869 -0.2808
 1512SOL    HW116169   3.930   2.489   7.395  1.7533  0.6168 -0.0149
 1512SOL    HW216170   3.942   2.378   7.290  0.6181 -1.6646  0.1143
 1513SOL     OW16171   3.528   4.401   6.179  0.0360 -0.1206 -0.0451
 1513SOL    HW116172   3.583   4.335   6.139 -0.5204 -1.1406  0.8878
 1513SOL    HW216173   3.450   4.348   6.192 -1.0538  1.8780  1.5731
 1514SOL     OW16174   0.622   3.301  15.770 -0.4241  0.1477  0.4036
 1514SOL    HW116175   0.536   3.312  15.729  0.1173  0.8420 -0.5378
 1514SOL    HW216176   0.659   3.375  15.723 -1.2503  0.1255 -0.2959
 1515SOL     OW16177   0.453   3.580   1.070  0.4839 -0.6102  0.5540
 1515SOL    HW116178   0.495   3.582   0.984 -1.0027  0.7664 -0.1449
 1515SOL    HW216179   0.403   3.661   1.060 -0.4625 -1.2132  0.4630
 1516SOL     OW16180   1.133   2.231   5.708  0.0967 -0.2404  0.6433
 1516SOL    HW116181   1.197   2.187   5.764  0.0654  1.7809  2.2696
 1516SOL    HW216182   1.181   2.242   5.626 -1.4839  0.2778 -0.2154
 1517SOL     OW16183   3.236   4.153   0.704  0.1181 -0.9593  0.2053
 1517SOL    HW116184   3.308   4.182   0.760  0.3799 -1.1337 -0.0426
 1517SOL    HW216185   3.157   4.158   0.757 -0.8707  0.0980 -1.3764
 1518SOL     OW16186   3.815   4.156  16.624 -0.5220 -1.2168 -0.3281
 1518SOL    HW116187   3.817   4.117  16.712 -0.5643 -1.5082 -0.4575
 1518SOL    HW216188   3.725   4.188  16.621 -0.5749 -1.2329  0.9743
 1519SOL     OW16189   4.136   1.632   3.764  0.4204 -0.3438 -0.0545
 1519SOL    HW116190   4.096   1.712   3.798  0.4883  0.0235 -0.8380
 1519SOL    HW216191   4.064   1.570   3.772 -2.4885  3.0928  0.3985
 1520SOL     OW16192   3.213   1.581  14.430 -0.1733 -0.5027  0.2145
 1520SOL    HW116193   3.243   1.595  14.520 -2.0151  0.1903  0.7152
 1520SOL    HW216194   3.296   1.604  14.388  0.0224  0.7071  1.2840
 1521SOL     OW16195   3.962   1.305   7.974 -0.2194  0.0909 -0.1397
 1521SOL    HW116196   4.054   1.300   7.949 -0.3962 -0.2724 -0.7274
 1521SOL    HW216197   3.957   1.393   8.011 -1.4709  0.5994 -1.5407
 1522SOL     OW16198   4.442   4.326   2.864  0.3109  0.3758  0.1019
 1522SOL    HW116199   4.363   4.274   2.879  1.7147 -1.4506  1.0699
 1522SOL    HW216200   4.502   4.293   2.930  0.8827  0.2739 -0.4689
 1523SOL     OW16201   1.241   3.705   1.436  0.4570  0.3215 -0.1006
 1523SOL    HW116202   1.237   3.799   1.416  0.0883  0.3688  0.2059
 1523SOL    HW216203   1.169   3.701   1.499  0.3954 -0.8755 -0.2387
 1524SOL     OW16204   0.866   1.794  10.005 -0.7548  1.2214  0.0718
 1524SOL    HW116205   0.841   1.745  10.084 -0.0400 -0.0131 -0.4714
 1524SOL    HW216206   0.934   1.848  10.043 -1.7002  1.4995  1.3721
 1525SOL     OW16207   0.055   3.879  11.331 -0.2375  0.2858  0.4127
 1525SOL    HW116208   0.151   3.887  11.333 -0.1093 -1.0101 -0.2403
 1525SOL    HW216209   0.049   3.871  11.235  1.7264  1.4624  0.1757
 1526SOL     OW16210   4.392   1.547   1.604 -0.1987 -0.2772  0.5616
 1526SOL    HW116211   4.333   1.554   1.679  0.2661 -3.2575  1.1856
 1526SOL    HW216212   4.338   1.534   1.526  0.0524 -0.0428  0.3479
 1527SOL     OW16213   1.473   4.046   7.752 -0.2348 -0.1173 -0.3081
 1527SOL    HW116214   1.452   4.099   7.675 -0.1725  0.6460  0.1942
 1527SOL    HW216215   1.394   3.991   7.751 -0.3788  0.0924 -0.5108
 1528SOL     OW16216   2.233   2.638   9.696  0.2687 -0.5823  0.1462
 1528SOL    HW116217   2.268   2.723   9.721  0.1209 -0.8337  1.2196
 1528SOL    HW216218   2.198   2.665   9.611 -0.7742  0.7964  1.0131
 1529SOL     OW16219   1.588   0.003   9.965 -0.4071  0.3115 -0.5308
 1529SOL    HW116220   1.665   0.008   9.909 -2.0119  1.1389 -2.6304
 1529SOL    HW216221   1.534   0.079   9.944 -1.4700  0.3667  2.4208
 1530SOL     OW16222   0.463   2.965   4.923 -0.3345 -0.4043  0.2860
 1530SOL    HW116223   0.413   2.922   4.853  1.6838 -0.7109 -0.9887
 1530SOL    HW216224   0.514   2.889   4.951 -1.8566 -0.9950  1.4149
 1531SOL     OW16225   0.965   2.940   5.648 -0.6863 -0.9232 -0.0333
 1531SOL    HW116226   0.877   2.922   5.613 -0.8454 -2.5504  1.2303
 1531SOL    HW216227   1.015   2.858   5.652  1.4116  0.4984  2.1874
 1532SOL     OW16228   0.574   1.120   5.786  0.2329  0.2673 -0.0302
 1532SOL    HW116229   0.589   1.049   5.850  3.3903  1.2879  0.3671
 1532SOL    HW216230   0.605   1.080   5.705 -1.4772 -0.6500 -0.2430
 1533SOL     OW16231   0.735   0.711   1.677  0.2323 -0.2030  0.1002
 1533SOL    HW116232   0.643   0.711   1.705  0.4883  1.4178  0.9186
 1533SOL    HW216233   0.724   0.735   1.585 -0.5469 -0.4919  0.1198
 1534SOL     OW16234   1.209   2.886   7.052 -0.4140  0.1759  0.8169
 1534SOL    HW116235   1.211   2.790   7.051 -1.6379  0.1491  1.0114
 1534SOL    HW216236   1.287   2.913   7.100 -0.0682  1.0069 -0.2160
 1535SOL     OW16237   0.334   2.438   8.563  0.7291  0.2337  0.0571
 1535SOL    HW116238   0.247   2.477   8.571  0.7824  0.4332 -0.3271
 1535SOL    HW216239   0.325   2.364   8.502 -2.7311  0.2124  0.5916
 1536SOL     OW16240   4.561   1.292  11.829  0.3193 -0.2525 -0.0807
 1536SOL    HW116241   4.501   1.301  11.755  1.2092 -1.2888 -0.9287
 1536SOL    HW216242   4.510   1.226  11.877 -0.6081 -0.1632 -0.9435
 1537SOL     OW16243   1.471   4.479   1.208 -0.1848 -0.2802 -0.5355
 1537SOL    HW116244   1.419   4.415   1.257 -1.5337  0.2736 -1.2374
 1537SOL    HW216245   1.547   4.427   1.184  0.2175  1.6164 -3.3974
 1538SOL     OW16246   4.162   4.427   7.357 -0.4397  0.1812  0.5879
 1538SOL    HW116247   4.134   4.415   7.266  0.8300 -0.2638  0.2658
 1538SOL    HW216248   4.205   4.512   7.357 -1.5066  0.7210  3.2298
 1539SOL     OW16249   2.546   3.034   3.812  0.1766  0.0646  0.8498
 1539SOL    HW116250   2.453   3.057   3.811  0.5888  1.7505  0.4752
 1539SOL    HW216251   2.586   3.115   3.779 -0.0548 -0.2640 -0.2401
 1540SOL     OW16252   3.946   1.496   3.461  0.0200 -0.1920  0.3792
 1540SOL    HW116253   3.907   1.447   3.389  1.0021 -1.8261  0.9635
 1540SOL    HW216254   4.037   1.467   3.462 -0.5536 -2.0188  0.4962
 1541SOL     OW16255   1.737   2.858  17.540 -0.1588  0.1411 -0.0834
 1541SOL    HW116256   1.714   2.950  17.551 -0.8438  0.2405 -2.4453
 1541SOL    HW216257   1.671   2.823  17.480  2.4102  0.7636 -3.2497
 1542SOL     OW16258   2.698   2.360  15.284  0.0708  0.1877 -0.6676
 1542SOL    HW116259   2.724   2.380  15.194 -0.1896  0.4099 -0.6938
 1542SOL    HW216260   2.785   2.365  15.324 -0.4843 -0.4779  0.6386
 1543SOL     OW16261   2.052   2.351   5.125  0.1089 -0.0167 -0.4325
 1543SOL    HW116262   2.014   2.390   5.203 -1.6998 -1.3417 -0.6465
 1543SOL    HW216263   2.007   2.266   5.123  0.4568 -0.1692 -2.0543
 1544SOL     OW16264   1.485   0.352   4.849 -0.0765 -0.2415  0.0611
 1544SOL    HW116265   1.422   0.385   4.912 -1.0684  0.4164 -1.2883
 1544SOL    HW216266   1.558   0.326   4.906 -0.1188  0.9034  0.6209
 1545SOL     OW16267   2.981   3.468   7.226  0.3917  0.0057  0.0386
 1545SOL    HW116268   2.978   3.539   7.163 -1.0696 -0.8896 -0.8991
 1545SOL    HW216269   3.029   3.503   7.301  0.1561  0.4831 -0.0338
 1546SOL     OW16270   2.074   0.849   9.175 -0.2734 -0.1428  0.0070
 1546SOL    HW116271   2.166   0.865   9.195 -0.1271 -2.2351  1.0597
 1546SOL    HW216272   2.073   0.754   9.164  1.0727 -0.0012 -1.3468
 1547SOL     OW16273   2.275   4.229  16.137  0.3082 -0.2880  0.4720
 1547SOL    HW116274   2.205   4.164  16.125  0.9994 -0.7843 -0.8283
 1547SOL    HW216275   2.258   4.249  16.229  0.6136  0.8414  0.2847
 1548SOL     OW16276   3.093   0.247   1.151 -0.2386  0.3586  0.2342
 1548SOL    HW116277   3.116   0.254   1.058  0.8751  0.1676  0.4925
 1548SOL    HW216278   3.006   0.208   1.145  0.1949 -0.5575 -0.1246
 1549SOL     OW16279   1.899   0.934   6.829  0.3874 -0.0041 -0.0934
 1549SOL    HW116280   1.857   0.906   6.748 -0.8993  0.7403  0.3285
 1549SOL    HW216281   1.885   1.029   6.826 -0.9199 -0.2227 -0.4733
 1550SOL     OW16282   2.560   2.130   2.536 -0.2955 -0.2912 -0.3431
 1550SOL    HW116283   2.499   2.063   2.568 -0.3182 -1.3042 -2.4870
 1550SOL    HW216284   2.512   2.175   2.468  1.5932  0.0885 -1.4331
 1551SOL     OW16285   1.517   0.593   6.675 -0.1081 -0.4456  0.0713
 1551SOL    HW116286   1.575   0.563   6.744  1.0251  2.3211  0.3378
 1551SOL    HW216287   1.546   0.551   6.594  0.8727 -0.3421  0.3768
 1552SOL     OW16288   0.564   4.197   5.567  0.5498 -0.2491  0.5309
 1552SOL    HW116289   0.595   4.270   5.514 -0.3952 -0.9265 -0.9471
 1552SOL    HW216290   0.484   4.173   5.519 -0.1681  0.4848  1.3565
 1553SOL     OW16291   3.643   1.659   7.935 -0.4552  0.1676 -0.1053
 1553SOL    HW116292   3.560   1.669   7.888 -0.0349 -0.7516 -1.0407
 1553SOL    HW216293   3.635   1.716   8.011 -0.7041  2.9299 -2.2154
 1554SOL     OW16294   1.443   4.289   6.668  0.4988 -0.3784  0.4870
 1554SOL    HW116295   1.493   4.269   6.589 -1.0074  1.4428 -0.9173
 1554SOL    HW216296   1.479   4.231   6.736  1.1915 -0.7316 -0.1877
 1555SOL     OW16297   4.292   1.763   9.003 -0.6034  0.3793  0.2408
 1555SOL    HW116298   4.354   1.788   9.071  0.1837 -1.2777  0.1304
 1555SOL    HW216299   4.214   1.757   9.058 -2.2191 -0.3366 -2.1106
 1556SOL     OW16300   2.127   0.958   8.729 -0.2020 -0.6004  0.0639
 1556SOL    HW116301   2.186   0.938   8.802 -1.7801 -0.4006  1.3918
 1556SOL    HW216302   2.046   0.919   8.761 -0.8615  1.2440  0.6110
 1557SOL     OW16303   2.936   1.953  16.809  0.4089  0.2969 -0.2964
 1557SOL    HW116304   2.902   1.928  16.723  2.3115 -2.4474 -0.2141
 1557SOL    HW216305   2.961   2.045  16.795  0.2670  0.0050 -2.4553
 1558SOL     OW16306   0.573   2.514   6.096  0.1760 -0.3009 -0.3826
 1558SOL    HW116307   0.576   2.585   6.159 -0.1342 -0.0010 -0.7046
 1558SOL    HW216308   0.547   2.550   6.011  1.8091  0.3405 -0.6056
 1559SOL     OW16309   1.054   4.044   3.661  0.2033  0.0485  0.3587
 1559SOL    HW116310   1.024   3.963   3.620 -0.9384  0.4291  0.4424
 1559SOL    HW216311   0.964   4.069   3.681 -0.2472  0.2086 -1.7938
 1560SOL     OW16312   3.896   0.930   1.961  0.0269 -0.2629  0.0583
 1560SOL    HW116313   3.970   0.905   2.016 -0.1803 -0.2034  0.3605
 1560SOL    HW216314   3.830   0.909   2.027  0.6096  2.1067  1.3583
 1561SOL     OW16315   4.184   2.264  13.724  0.1229 -0.1095  0.1027
 1561SOL    HW116316   4.171   2.170  13.737  2.5997 -0.5062 -0.2315
 1561SOL    HW216317   4.119   2.308  13.778  0.5744  0.3745  0.2526
 1562SOL     OW16318   2.205   0.016   2.821  0.3035  0.0991  0.1970
 1562SOL    HW116319   2.162   0.001   2.737  1.3029 -3.1205  0.2242
 1562SOL    HW216320   2.140   4.715   2.881  1.5064 -1.5859  0.5203
 1563SOL     OW16321   2.618   0.903   6.942 -0.1532 -0.2978 -0.2515
 1563SOL    HW116322   2.524   0.893   6.958 -0.1342  0.9267  0.5633
 1563SOL    HW216323   2.641   0.826   6.889  2.2377 -0.4413  0.9991
 1564SOL     OW16324   2.518   3.653   4.307 -0.1725 -0.0907  0.1022
 1564SOL    HW116325   2.450   3.586   4.302 -0.5243  0.2263  0.5675
 1564SOL    HW216326   2.463   3.731   4.322  0.4185  0.4412 -0.4697
 1565SOL     OW16327   2.474   0.251  17.736  0.6136  0.2783 -0.1454
 1565SOL    HW116328   2.523   0.289   0.072 -2.2876  1.0075  1.4114
 1565SOL    HW216329   2.382   0.265   0.018  0.8635  1.0725  0.4537
 1566SOL     OW16330   3.317   4.696   5.601  0.6927  0.3940 -0.0639
 1566SOL    HW116331   3.237   4.669   5.646  0.9223  0.8794  0.6547
 1566SOL    HW216332   3.301   0.054   5.583  1.3715  0.1203 -2.0428
 1567SOL     OW16333   1.476   1.626   4.424  0.3151  0.1737  0.0164
 1567SOL    HW116334   1.396   1.639   4.474 -1.0209 -1.3529 -1.7336
 1567SOL    HW216335   1.458   1.570   4.349 -0.0834  2.3491 -1.5036
 1568SOL     OW16336   2.046   0.369   5.758 -0.2151  0.8610 -0.1509
 1568SOL    HW116337   2.020   0.461   5.763 -0.9229  0.6580 -0.1476
 1568SOL    HW216338   1.971   0.316   5.783 -0.8316  1.5550 -0.5531
 1569SOL     OW16339   2.531   0.929   2.131 -0.1226 -0.2060 -0.0926
 1569SOL    HW116340   2.523   0.866   2.060  1.3345 -0.0606 -0.3879
 1569SOL    HW216341   2.612   0.896   2.168  0.9907  1.7453 -0.7860
 1570SOL     OW16342   4.349   0.922   2.479  0.1867  0.3325  0.5124
 1570SOL    HW116343   4.260   0.951   2.497 -0.1696  0.6263 -1.7223
 1570SOL    HW216344   4.377   0.902   2.568  0.1599 -1.2544  0.1799
 1571SOL     OW16345   3.369   3.720   5.070 -0.1240  0.3894 -0.1745
 1571SOL    HW116346   3.326   3.755   5.148  0.5916 -1.5624  1.0872
 1571SOL    HW216347   3.455   3.761   5.069  0.0339  0.0241 -2.7102
 1572SOL     OW16348   2.729   4.433   1.592  0.7520  0.4121  0.2718
 1572SOL    HW116349   2.688   4.359   1.635  0.4494  0.1138 -0.5385
 1572SOL    HW216350   2.701   4.420   1.502  1.4107 -1.9312  0.4001
 1573SOL     OW16351   3.470   4.254   7.962  0.5206  0.0095  0.4959
 1573SOL    HW116352   3.546   4.258   7.904  0.0237  3.8870  0.0747
 1573SOL    HW216353   3.491   4.317   8.031 -2.1630  0.6375  0.7516
 1574SOL     OW16354   1.890   1.473  13.904 -0.8058  0.2334  0.4880
 1574SOL    HW116355   1.857   1.383  13.902  1.8457 -0.7418  0.7495
 1574SOL    HW216356   1.828   1.509  13.968 -0.3681  2.0767 -0.1287
 1575SOL     OW16357   3.178   1.451   5.485 -0.2271  0.2601 -0.3882
 1575SOL    HW116358   3.145   1.539   5.504  0.3351 -0.5042  4.0474
 1575SOL    HW216359   3.197   1.427   5.576  0.9714  1.0910 -0.4297
 1576SOL     OW16360   3.942   2.446   9.304 -0.2195  0.1229  0.5156
 1576SOL    HW116361   3.958   2.532   9.265 -0.3377 -0.4605 -0.8191
 1576SOL    HW216362   4.014   2.439   9.366  0.3591  1.8288  0.0266
 1577SOL     OW16363   4.718   3.427   9.146 -0.3808  0.2589  0.2017
 1577SOL    HW116364   0.037   3.390   9.216 -0.8109  1.1361  0.9911
 1577SOL    HW216365   4.649   3.473   9.194 -1.0505 -1.6966  1.0968
 1578SOL     OW16366   2.456   4.690   2.410 -0.2798 -0.3281  0.2922
 1578SOL    HW116367   2.502   4.613   2.377 -1.0932 -0.7416  0.1416
 1578SOL    HW216368   2.479   4.672   2.502  2.6602 -0.0794 -0.3688
 1579SOL     OW16369   4.544   2.284   8.041 -0.0450 -0.3011 -0.1253
 1579SOL    HW116370   4.491   2.261   7.965 -0.3839 -1.5719  0.4941
 1579SOL    HW216371   4.566   2.376   8.024  0.5510 -0.2985  0.6367
 1580SOL     OW16372   3.622   0.484   6.034 -0.2382  0.1031  0.1495
 1580SOL    HW116373   3.655   0.456   6.119  1.4416  1.1681 -0.1427
 1580SOL    HW216374   3.584   0.403   6.000  1.9074 -0.8456 -0.0455
 1581SOL     OW16375   1.169   4.250   2.186  0.3349  0.5468  0.1219
 1581SOL    HW116376   1.226   4.305   2.132 -0.5991  0.5745 -0.8254
 1581SOL    HW216377   1.164   4.299   2.268 -1.9024 -0.2495  0.4397
 1582SOL     OW16378   1.699   3.358  17.236  0.3565  0.1452 -0.4979
 1582SOL    HW116379   1.645   3.424  17.279  1.0475  0.2256  0.2555
 1582SOL    HW216380   1.659   3.365  17.149  1.0112  0.4788 -0.7662
 1583SOL     OW16381   2.071   2.034   3.807  0.8493  0.0474 -0.1545
 1583SOL    HW116382   1.996   2.092   3.794  0.3765 -0.8657 -1.5763
 1583SOL    HW216383   2.128   2.065   3.737 -0.0616 -0.8131 -1.2818
 1584SOL     OW16384   4.436   1.636  13.766  0.7218  0.2981  0.1683
 1584SOL    HW116385   4.403   1.661  13.679  0.7593 -0.9098 -0.1937
 1584SOL    HW216386   4.380   1.684  13.827  0.5299  1.3309 -0.8205
 1585SOL     OW16387   1.157   4.653   3.376 -0.2644 -0.1701 -0.0320
 1585SOL    HW116388   1.122   4.578   3.425  0.5218 -0.2285  0.4379
 1585SOL    HW216389   1.126   4.729   3.425 -1.3496 -1.0847  0.7127
 1586SOL     OW16390   4.312   2.187   2.686 -0.2328 -0.0698 -0.2372
 1586SOL    HW116391   4.307   2.100   2.726  0.0011 -0.6214 -1.4131
 1586SOL    HW216392   4.328   2.155   2.598  1.9328 -0.2270  0.2292
 1587SOL     OW16393   0.415   0.885   8.194 -0.0682  0.1327 -0.1055
 1587SOL    HW116394   0.389   0.875   8.285 -1.6287  0.6187 -0.5104
 1587SOL    HW216395   0.492   0.941   8.205  0.2408 -0.2287 -0.4287
 1588SOL     OW16396   2.221   4.625   3.381 -0.0532 -0.3156  0.3357
 1588SOL    HW116397   2.221   4.594   3.471 -1.9861 -1.3322 -0.0119
 1588SOL    HW216398   2.170   4.563   3.329  0.6538 -0.9719  0.4305
 1589SOL     OW16399   4.435   2.078   4.158  0.6545  0.3833 -0.3665
 1589SOL    HW116400   4.370   2.148   4.161  0.0437 -0.1672 -0.6054
 1589SOL    HW216401   4.399   2.029   4.232  0.7303  1.2517  0.2439
 1590SOL     OW16402   2.814   4.495   4.800  0.2887  0.0055  0.9479
 1590SOL    HW116403   2.790   4.585   4.825 -1.1341  0.1525 -0.9198
 1590SOL    HW216404   2.836   4.502   4.707  0.0579 -0.5778  0.8502
 1591SOL     OW16405   0.636   3.189   1.396 -0.4569 -0.3405 -0.1298
 1591SOL    HW116406   0.655   3.182   1.303 -1.7077  0.2317 -0.4304
 1591SOL    HW216407   0.616   3.282   1.409  3.0940  0.5743 -1.1752
 1592SOL     OW16408   0.154   1.092   5.949  0.0263 -0.1041 -0.0712
 1592SOL    HW116409   0.144   1.085   5.854 -0.3469 -0.2777 -0.0189
 1592SOL    HW216410   0.232   1.147   5.953  0.1710 -0.3995  1.0657
 1593SOL     OW16411   0.575   2.090   1.441 -0.6144  0.5000  0.3330
 1593SOL    HW116412   0.489   2.083   1.400 -0.5862  0.3905  0.2915
 1593SOL    HW216413   0.626   2.039   1.378 -3.2253 -2.3136  0.5062
 1594SOL     OW16414   1.849   3.912   6.477  0.3309  0.4009  0.4723
 1594SOL    HW116415   1.789   3.842   6.451 -0.9809  1.4756  0.6031
 1594SOL    HW216416   1.826   3.986   6.421 -0.9131  0.0139  0.4690
 1595SOL     OW16417   2.417   1.999   4.823  0.6840 -0.5194  0.2769
 1595SOL    HW116418   2.386   1.926   4.769 -2.7964  1.7983 -0.8287
 1595SOL    HW216419   2.499   2.009   4.776 -0.2553  0.8621 -1.0703
 1596SOL     OW16420   3.429   3.399   4.672  0.4052 -0.4720 -0.5139
 1596SOL    HW116421   3.406   3.444   4.753  0.8129  2.2185 -1.8836
 1596SOL    HW216422   3.407   3.466   4.606 -1.1154  0.1696  0.6393
 1597SOL     OW16423   0.147   4.082   2.640  0.0376 -0.5011  0.4747
 1597SOL    HW116424   0.203   4.041   2.574  0.4899  0.3771  0.3091
 1597SOL    HW216425   0.194   4.069   2.723 -1.3792 -3.1709  0.8444
 1598SOL     OW16426   0.617   2.341  14.820 -0.0167 -0.0602  0.2395
 1598SOL    HW116427   0.623   2.377  14.731 -0.5687 -2.5878 -0.8409
 1598SOL    HW216428   0.666   2.405  14.870 -3.0998  1.0902  1.7938
 1599SOL     OW16429   2.203   4.299   9.851 -0.0814 -0.1664 -0.3610
 1599SOL    HW116430   2.119   4.343   9.868 -1.1437 -2.3946  0.1423
 1599SOL    HW216431   2.250   4.370   9.808  2.0664 -1.2475  0.2128
 1600SOL     OW16432   0.782   1.213   9.003  0.4005 -0.2781  0.5177
 1600SOL    HW116433   0.875   1.233   8.992  0.2754 -0.3628 -0.6600
 1600SOL    HW216434   0.742   1.299   8.992 -1.2215 -0.8554  1.8193
 1601SOL     OW16435   3.439   0.299   3.095  0.6431 -0.9142 -0.3196
 1601SOL    HW116436   3.417   0.248   3.173  0.9594 -0.2742  0.1918
 1601SOL    HW216437   3.402   0.236   3.033 -0.3606 -0.3986 -0.2514
 1602SOL     OW16438   0.760   1.445   7.202 -1.2804  0.5513 -0.0387
 1602SOL    HW116439   0.669   1.452   7.231 -1.1689 -1.3543  0.7385
 1602SOL    HW216440   0.786   1.357   7.228 -1.1397  0.3069 -1.0271
 1603SOL     OW16441   2.680   1.699  10.829 -0.5081 -0.3038 -0.4193
 1603SOL    HW116442   2.700   1.762  10.899 -1.3680  0.6910 -1.0720
 1603SOL    HW216443   2.591   1.671  10.850 -0.8662  3.3214  2.9462
 1604SOL     OW16444   1.280   2.483   6.896  0.2026  0.2525  0.4689
 1604SOL    HW116445   1.302   2.392   6.914  0.8633 -0.2202 -2.7970
 1604SOL    HW216446   1.186   2.476   6.880  0.4002  2.0569 -1.4662
 1605SOL     OW16447   2.069   0.185  17.121  0.3251 -0.4358  0.1569
 1605SOL    HW116448   2.090   0.199  17.029  1.4174 -1.4459  0.2503
 1605SOL    HW216449   2.106   0.097  17.134  0.5227 -0.5737 -1.4382
 1606SOL     OW16450   3.754   4.665  13.681  0.5867 -0.3050  0.0323
 1606SOL    HW116451   3.843   4.691  13.706  1.1008  0.4771 -2.5976
 1606SOL    HW216452   3.753   4.676  13.586  1.1971 -1.1920 -0.0726
 1607SOL     OW16453   3.904   0.275   4.552  0.0770  0.2219  0.0922
 1607SOL    HW116454   3.926   0.235   4.636 -0.0749 -0.4218 -0.1708
 1607SOL    HW216455   3.836   0.337   4.577 -0.4037 -0.9180  1.5897
 1608SOL     OW16456   1.576   1.955  15.784  0.0650 -0.0958  0.1087
 1608SOL    HW116457   1.664   1.917  15.777  0.5637  1.4241 -1.7534
 1608SOL    HW216458   1.529   1.873  15.803 -1.0713 -0.2211 -3.2706
 1609SOL     OW16459   3.915   0.189   5.926  0.6499  0.3628  0.2496
 1609SOL    HW116460   3.875   0.219   5.844 -1.3986 -0.9669  0.7673
 1609SOL    HW216461   3.833   0.170   5.972  0.7876 -2.3386 -0.6375
 1610SOL     OW16462   0.122   3.418   7.776 -0.2280 -0.0587  0.5144
 1610SOL    HW116463   0.130   3.350   7.843  0.1228  0.5225  1.0666
 1610SOL    HW216464   0.111   3.499   7.827  0.2863 -0.8557  1.8921
 1611SOL     OW16465   0.011   3.126   9.259 -0.1156 -0.7592  0.1264
 1611SOL    HW116466   0.033   3.203   9.311  1.0775  0.0570 -1.5492
 1611SOL    HW216467   0.099   3.089   9.248 -0.3264 -1.6156  1.3761
 1612SOL     OW16468   4.530   2.195  16.772 -0.2774  0.2038  0.4666
 1612SOL    HW116469   4.538   2.264  16.705 -0.6377 -2.5482 -2.4094
 1612SOL    HW216470   4.438   2.215  16.793 -0.4293 -0.1048  0.0929
 1613SOL     OW16471   1.277   3.776   8.902 -0.2907  0.7885 -0.4205
 1613SOL    HW116472   1.328   3.844   8.859  2.9263 -0.0124  2.1354
 1613SOL    HW216473   1.321   3.700   8.864 -1.6380 -0.2188  0.0154
 1614SOL     OW16474   2.723   3.688  11.781 -0.0215 -0.2756 -0.0821
 1614SOL    HW116475   2.669   3.730  11.849  0.7390 -0.5378  0.6800
 1614SOL    HW216476   2.804   3.737  11.792  0.6630 -1.2232 -1.0533
 1615SOL     OW16477   1.245   4.380   7.884  0.4086  0.1841  0.7589
 1615SOL    HW116478   1.193   4.399   7.807 -0.3637  0.0955  1.2594
 1615SOL    HW216479   1.194   4.411   7.960 -0.4333 -2.4512  1.2591
 1616SOL     OW16480   1.570   1.676   7.431 -0.6010  0.1880 -0.5049
 1616SOL    HW116481   1.514   1.738   7.478  1.6429  2.8920 -1.4701
 1616SOL    HW216482   1.503   1.644   7.370 -1.9070 -0.4404  1.2622
 1617SOL     OW16483   0.869   1.969   6.905 -0.2599  0.2250  0.2000
 1617SOL    HW116484   0.888   1.875   6.913 -3.3054 -0.4409 -0.6939
 1617SOL    HW216485   0.952   2.015   6.888  1.0552 -2.4382 -0.6677
 1618SOL     OW16486   2.755   4.689   6.702  0.1411  0.3254 -0.1193
 1618SOL    HW116487   2.806   4.662   6.625 -0.4817  0.6757 -0.6508
 1618SOL    HW216488   2.803   4.663   6.781 -2.7499  2.0193  2.1565
 1619SOL     OW16489   3.368   0.877   3.562  0.1939  0.3227 -0.0826
 1619SOL    HW116490   3.341   0.965   3.591 -0.9462 -0.0623  0.0113
 1619SOL    HW216491   3.282   0.835   3.563  0.3266  0.0232 -1.3080
 1620SOL     OW16492   2.549   2.809   9.348  0.3874  0.2694  0.0537
 1620SOL    HW116493   2.514   2.884   9.396 -0.8025  0.7394 -1.5503
 1620SOL    HW216494   2.567   2.740   9.412  0.8414  0.8176  0.5241
 1621SOL     OW16495   0.381   3.976  12.111 -0.2594 -0.0444 -0.2293
 1621SOL    HW116496   0.333   3.984  12.028  1.0853 -0.6626 -1.0702
 1621SOL    HW216497   0.444   3.909  12.086  0.1813 -0.4089  1.8516
 1622SOL     OW16498   0.992   4.466   4.929 -0.2976  0.6849  0.4762
 1622SOL    HW116499   1.017   4.557   4.913 -0.4201  0.7714  0.7804
 1622SOL    HW216500   1.049   4.442   5.002  1.9980 -0.2112 -1.5643
 1623SOL     OW16501   0.211   4.082   8.724 -0.0257  0.0308  0.0955
 1623SOL    HW116502   0.250   4.001   8.693  0.2744 -0.1702  0.9922
 1623SOL    HW216503   0.155   4.059   8.799  0.1922  0.1715  0.3044
 1624SOL     OW16504   3.596   3.912   5.093  0.3562  0.3328 -0.1104
 1624SOL    HW116505   3.684   3.945   5.111  1.2693 -0.7426 -2.5785
 1624SOL    HW216506   3.566   3.957   5.014  2.4688  1.2853 -0.3618
 1625SOL     OW16507   0.709   2.868   3.872  0.3031 -0.3087  0.4326
 1625SOL    HW116508   0.713   2.792   3.930  0.5713  0.9930  2.1583
 1625SOL    HW216509   0.747   2.938   3.926  1.0958  0.7862 -1.5576
 1626SOL     OW16510   3.099   1.186   8.651 -0.1549 -0.1763 -0.1752
 1626SOL    HW116511   3.136   1.271   8.627 -1.0018  0.3698  0.4350
 1626SOL    HW216512   3.005   1.207   8.651 -0.5909 -2.1534  0.2638
 1627SOL     OW16513   2.595   1.961   8.030 -0.2051  0.3721  0.1128
 1627SOL    HW116514   2.527   1.918   8.081  1.6655 -1.0084  1.4724
 1627SOL    HW216515   2.539   1.989   7.958  0.8619  0.5286 -0.6698
 1628SOL     OW16516   2.484   1.372   2.809  0.3120 -0.3495 -0.1284
 1628SOL    HW116517   2.460   1.464   2.818  0.4585 -0.4906  1.7489
 1628SOL    HW216518   2.497   1.357   2.715  1.0430 -0.8625  0.0587
 1629SOL     OW16519   4.280   1.788   1.306 -0.1527 -0.1119 -0.3985
 1629SOL    HW116520   4.309   1.730   1.236 -0.6811 -0.6358 -0.1829
 1629SOL    HW216521   4.217   1.736   1.356  1.6157 -0.7040  1.1944
 1630SOL     OW16522   2.538   3.497  17.507  0.3980  0.1486 -1.0313
 1630SOL    HW116523   2.454   3.460  17.535  0.9900  0.7455  1.4862
 1630SOL    HW216524   2.544   3.551  17.586  1.0833 -1.4660  0.0212
 1631SOL     OW16525   0.591   3.604   3.027  0.0383  0.1159  0.0103
 1631SOL    HW116526   0.541   3.664   2.973 -0.3374 -0.5335 -0.3640
 1631SOL    HW216527   0.583   3.525   2.973 -0.3582  0.6758 -0.7470
 1632SOL     OW16528   3.565   0.472   5.709 -0.2811 -0.2627  0.0595
 1632SOL    HW116529   3.574   0.558   5.749  0.9694 -0.0167 -0.7520
 1632SOL    HW216530   3.491   0.434   5.756  0.9768 -1.7447  0.8696
 1633SOL     OW16531   0.633   2.334   7.064 -0.1229  0.5627  0.1572
 1633SOL    HW116532   0.573   2.334   6.990  0.2468  0.8417 -0.1447
 1633SOL    HW216533   0.575   2.312   7.137 -0.9075  2.2713  0.0382
 1634SOL     OW16534   2.756   1.277  11.214  0.2479 -0.4662 -0.6973
 1634SOL    HW116535   2.811   1.204  11.186  1.8386  0.7173 -0.7142
 1634SOL    HW216536   2.675   1.231  11.236 -0.8532  2.8405  2.1549
 1635SOL     OW16537   1.115   4.032  15.030 -0.3971  0.4798  0.5087
 1635SOL    HW116538   1.137   3.983  14.951 -0.6213 -0.3740  0.9734
 1635SOL    HW216539   1.117   4.120  14.992  0.1599  0.1897 -0.1423
 1636SOL     OW16540   1.261   4.347   5.407 -0.0375 -0.2256  0.8440
 1636SOL    HW116541   1.275   4.252   5.403  2.0985  0.1090  0.3659
 1636SOL    HW216542   1.291   4.373   5.494 -2.3274 -1.5149  2.0229
 1637SOL     OW16543   0.104   4.131  13.325  0.6136 -0.0071 -0.3624
 1637SOL    HW116544   0.054   4.210  13.346  1.2551  0.0120  1.1126
 1637SOL    HW216545   0.190   4.147  13.365  1.6327 -0.6664 -2.2945
 1638SOL     OW16546   2.000   1.173  10.236 -0.0175 -0.2605 -0.2418
 1638SOL    HW116547   2.072   1.214  10.188  0.8051 -0.1650  1.0785
 1638SOL    HW216548   1.976   1.242  10.299  1.6213 -1.8437  2.1318
 1639SOL     OW16549   2.951   0.708   6.778  0.9597 -0.4544  0.6387
 1639SOL    HW116550   2.931   0.633   6.834 -3.2787  0.6470  0.6095
 1639SOL    HW216551   2.865   0.749   6.769  0.6407 -1.3762 -0.6039
 1640SOL     OW16552   2.250   1.884   3.985 -0.6362 -0.6001  0.0707
 1640SOL    HW116553   2.310   1.943   4.031  0.8947 -2.8869  0.9973
 1640SOL    HW216554   2.211   1.946   3.923  0.7456  1.2079  0.9906
 1641SOL     OW16555   3.346   3.017   7.597 -0.0980  0.5785 -1.0425
 1641SOL    HW116556   3.316   2.945   7.542  0.4005 -0.4474  0.0432
 1641SOL    HW216557   3.338   2.976   7.683 -1.9358  0.0066 -1.4885
 1642SOL     OW16558   3.246   2.173   7.086  0.3102  0.3344 -0.1575
 1642SOL    HW116559   3.186   2.247   7.075 -0.9213 -1.1421 -3.2218
 1642SOL    HW216560   3.186   2.099   7.080  0.1155  0.6497 -2.2744
 1643SOL     OW16561   0.670   0.393   7.495 -0.1193 -0.0204 -0.1260
 1643SOL    HW116562   0.698   0.363   7.408  1.3657  0.8649  0.0571
 1643SOL    HW216563   0.739   0.454   7.520 -3.1971  2.5563  1.9541
 1644SOL     OW16564   0.122   4.434   3.724  0.3729  0.1557  0.3221
 1644SOL    HW116565   0.211   4.446   3.756  0.6540 -0.5577 -0.1865
 1644SOL    HW216566   0.103   4.522   3.691  0.3538 -0.3031 -0.8856
 1645SOL     OW16567   1.584   1.423  14.474  0.1817 -0.0068  0.2621
 1645SOL    HW116568   1.570   1.392  14.564  0.4411  0.5091  0.4802
 1645SOL    HW216569   1.665   1.473  14.479 -0.3435  0.7736  0.9549
 1646SOL     OW16570   2.656   4.105   4.123 -0.2367  0.4742 -0.1067
 1646SOL    HW116571   2.566   4.134   4.136 -0.9531 -0.5461 -2.6670
 1646SOL    HW216572   2.678   4.053   4.201 -1.3093  0.9301  0.4984
 1647SOL     OW16573   0.787   0.220  16.531  0.6728  0.2779 -0.0108
 1647SOL    HW116574   0.850   0.148  16.517 -0.1903 -0.2935 -0.9361
 1647SOL    HW216575   0.845   0.290  16.502  1.4044 -0.4657 -0.3783
 1648SOL     OW16576   2.865   4.509  17.003 -0.1936 -0.0861  0.3323
 1648SOL    HW116577   2.925   4.435  17.012  0.9623  0.3225 -3.9353
 1648SOL    HW216578   2.782   4.465  16.988  0.1593 -1.1350  1.4282
 1649SOL     OW16579   2.087   1.502   6.394 -0.2455 -0.0568 -0.3404
 1649SOL    HW116580   1.995   1.483   6.376 -0.6325 -0.2383  1.7992
 1649SOL    HW216581   2.137   1.482   6.315  0.9104 -1.7979  0.8348
 1650SOL     OW16582   3.263   3.764   0.797 -0.0899  0.2945 -0.0695
 1650SOL    HW116583   3.192   3.828   0.806 -0.0670  0.4097 -0.7781
 1650SOL    HW216584   3.241   3.719   0.716 -4.7683  0.6957  0.9829
 1651SOL     OW16585   4.133   4.496   5.312 -0.4748  0.5071  0.3592
 1651SOL    HW116586   4.088   4.451   5.384 -1.4974 -0.3809 -0.8379
 1651SOL    HW216587   4.169   4.572   5.358 -1.1996  0.6535  0.6851
 1652SOL     OW16588   4.455   1.052   8.625  0.1738  0.3825  0.2349
 1652SOL    HW116589   4.497   1.138   8.630  3.1697 -1.0894  0.6181
 1652SOL    HW216590   4.362   1.074   8.626  0.2004  0.4686  0.9778
 1653SOL     OW16591   3.905   3.109   5.065  0.5253 -0.0174  0.3131
 1653SOL    HW116592   3.816   3.129   5.092  0.1747  2.5895 -2.7782
 1653SOL    HW216593   3.906   3.156   4.981 -2.0214 -1.7960 -0.7308
 1654SOL     OW16594   2.943   1.514   6.484  0.0985  0.3825 -0.0541
 1654SOL    HW116595   2.918   1.606   6.490 -1.3469 -0.0546  0.6718
 1654SOL    HW216596   3.030   1.511   6.445  1.1243  0.1920  2.2334
 1655SOL     OW16597   3.447   0.325  13.166 -0.1157  0.0271 -0.0413
 1655SOL    HW116598   3.358   0.299  13.191  0.1966  1.2920  2.3563
 1655SOL    HW216599   3.442   0.420  13.173 -0.6150 -0.1711  2.0720
 1656SOL     OW16600   1.530   2.397   2.596 -0.8520  0.4660  0.9228
 1656SOL    HW116601   1.597   2.444   2.546 -2.2691  1.6210  0.1282
 1656SOL    HW216602   1.557   2.411   2.687  0.0884  0.3006  0.6732
 1657SOL     OW16603   1.060   1.640   5.915  0.2512  0.0961 -0.2840
 1657SOL    HW116604   1.119   1.715   5.902  0.9986 -1.3129 -4.8515
 1657SOL    HW216605   1.119   1.565   5.912 -0.0408 -0.0726 -1.5276
 1658SOL     OW16606   2.754   2.750   8.427 -0.6158  0.1191 -0.5012
 1658SOL    HW116607   2.814   2.820   8.400  1.0435 -1.1865 -0.2339
 1658SOL    HW216608   2.736   2.691   8.354 -0.2662 -1.8044  0.9687
 1659SOL     OW16609   0.411   1.641   9.344  0.3135  0.3708 -0.2352
 1659SOL    HW116610   0.470   1.610   9.275  0.7645  2.3835 -0.7468
 1659SOL    HW216611   0.326   1.642   9.299  0.1998 -1.5143 -0.0767
 1660SOL     OW16612   3.226   4.596  11.167 -0.1228  0.0962  0.0513
 1660SOL    HW116613   3.185   4.673  11.207  0.7483  1.6847 -2.1060
 1660SOL    HW216614   3.309   4.637  11.143 -0.5901  1.4178  0.6602
 1661SOL     OW16615   0.636   2.170   4.516 -0.0629  0.0593  0.1330
 1661SOL    HW116616   0.644   2.141   4.425 -0.0092  0.6579 -0.0526
 1661SOL    HW216617   0.541   2.167   4.526  0.0817 -0.5055  1.3970
 1662SOL     OW16618   0.751   2.505   8.236  0.1520  0.5643 -0.1012
 1662SOL    HW116619   0.729   2.412   8.233 -0.8892  0.7897  0.6787
 1662SOL    HW216620   0.665   2.545   8.238 -1.2774 -2.6535  3.5963
 1663SOL     OW16621   0.639   4.699   1.750 -0.4418  0.9662  0.4045
 1663SOL    HW116622   0.631   4.607   1.725 -2.3705  1.8580 -2.2961
 1663SOL    HW216623   0.628   0.003   1.663 -2.0310  0.9903  0.6017
 1664SOL     OW16624   2.324   3.495   8.115 -0.0534 -0.7776 -0.3637
 1664SOL    HW116625   2.279   3.520   8.195  1.1257 -1.9124  0.6473
 1664SOL    HW216626   2.346   3.403   8.122  0.1604 -0.6045  1.1464
 1665SOL     OW16627   1.424   1.360   7.350 -0.2490 -0.4125  0.3563
 1665SOL    HW116628   1.374   1.441   7.348 -0.8814 -0.8855 -2.5723
 1665SOL    HW216629   1.445   1.361   7.444  2.8716  1.3975 -0.3909
 1666SOL     OW16630   0.458   3.714   4.348 -0.6669 -0.2808  0.2795
 1666SOL    HW116631   0.375   3.738   4.307 -0.3130 -0.1522 -0.3743
 1666SOL    HW216632   0.509   3.795   4.339 -0.5853 -0.1262  2.1839
 1667SOL     OW16633   0.180   4.493   2.818 -0.1577  0.1465 -0.0827
 1667SOL    HW116634   0.138   4.576   2.794 -1.2084 -0.5220 -0.5831
 1667SOL    HW216635   0.192   4.444   2.736  1.9765  0.9791 -0.2683
 1668SOL     OW16636   2.071   1.597  10.114  0.1206 -0.3287  0.4616
 1668SOL    HW116637   2.029   1.682  10.128  3.5251  1.8076 -2.4514
 1668SOL    HW216638   2.076   1.598  10.019 -0.2256  3.2355  0.4784
 1669SOL     OW16639   4.352   3.664  15.525  0.1841 -0.3677 -0.6148
 1669SOL    HW116640   4.370   3.638  15.435  1.2010 -2.0623  0.0756
 1669SOL    HW216641   4.325   3.753  15.502  1.7431  0.1860 -0.2654
 1670SOL     OW16642   3.706   2.737   5.154  0.2315  0.2378 -0.2412
 1670SOL    HW116643   3.626   2.789   5.148 -1.0138 -1.6744 -0.5190
 1670SOL    HW216644   3.695   2.688   5.073  1.0727 -1.3287  0.5781
 1671SOL     OW16645   1.230   2.702   1.523 -0.3257 -0.4815  0.3433
 1671SOL    HW116646   1.228   2.665   1.435  2.1897 -0.4853  0.2763
 1671SOL    HW216647   1.179   2.783   1.517  0.3984  0.0703  1.6811
 1672SOL     OW16648   3.567   4.314   1.729 -0.3330 -0.1955 -0.7128
 1672SOL    HW116649   3.575   4.232   1.778  2.1003  0.9797  0.8805
 1672SOL    HW216650   3.567   4.374   1.803  0.9088 -1.8190  0.5911
 1673SOL     OW16651   2.255   3.881   2.006  0.7763 -0.1159  0.2020
 1673SOL    HW116652   2.299   3.911   2.085 -1.4428  1.9657  0.6437
 1673SOL    HW216653   2.192   3.953   1.994 -1.0636 -1.6554  0.6296
 1674SOL     OW16654   4.229   4.715   3.233 -0.7014  0.1247 -0.1492
 1674SOL    HW116655   4.141   0.016   3.228 -1.7064 -1.9954  2.6168
 1674SOL    HW216656   4.218   4.644   3.295 -2.0528  0.0716 -0.4682
 1675SOL     OW16657   0.866   2.602   4.281 -0.1200  0.1829  0.0722
 1675SOL    HW116658   0.933   2.612   4.350  0.5871 -1.4154 -0.3963
 1675SOL    HW216659   0.789   2.566   4.326  1.4107 -1.3703  1.4431
 1676SOL     OW16660   0.565   3.818   9.836  0.0025 -0.6979  0.4693
 1676SOL    HW116661   0.562   3.723   9.838 -0.2175 -0.7162 -0.8952
 1676SOL    HW216662   0.613   3.840   9.916 -1.5164 -0.4737  1.3042
 1677SOL     OW16663   0.496   1.754   3.846 -0.2992 -0.3817  0.9537
 1677SOL    HW116664   0.483   1.715   3.759  0.8862 -0.6331  0.8953
 1677SOL    HW216665   0.402   1.757   3.864  0.0918  1.3021  2.6907
 1678SOL     OW16666   3.629   3.587   4.020  0.5163  0.3551  1.0275
 1678SOL    HW116667   3.569   3.656   3.993  1.1974 -0.2434 -2.0027
 1678SOL    HW216668   3.601   3.585   4.112 -2.1265 -0.3574  0.2081
 1679SOL     OW16669   2.087   1.232   3.295 -0.5110 -0.5673  0.0508
 1679SOL    HW116670   2.153   1.299   3.281  0.9975 -1.5616  2.3222
 1679SOL    HW216671   2.082   1.193   3.208  1.8147  1.2955 -0.8843
 1680SOL     OW16672   2.489   0.804  11.231 -0.3551 -0.1635 -0.3760
 1680SOL    HW116673   2.425   0.836  11.294 -0.5438 -0.0015 -0.6500
 1680SOL    HW216674   2.433   0.746  11.180  0.4529 -2.6764  1.6426
 1681SOL     OW16675   1.308   2.732  10.859 -0.3152  0.3046  0.4712
 1681SOL    HW116676   1.379   2.673  10.834 -0.2098  0.8815 -0.5844
 1681SOL    HW216677   1.238   2.667  10.872  0.0853 -0.0740  0.6986
 1682SOL     OW16678   1.449   0.952   4.534 -0.1614 -0.1587 -0.4036
 1682SOL    HW116679   1.505   0.889   4.581  1.5607  1.0304 -0.8567
 1682SOL    HW216680   1.506   0.960   4.457 -0.2206  0.0239 -0.4280
 1683SOL     OW16681   0.642   2.008   3.426  0.4474 -0.3356  0.0016
 1683SOL    HW116682   0.550   2.034   3.424 -0.0241 -1.9447  0.2253
 1683SOL    HW216683   0.670   2.028   3.337  1.9587 -2.8802 -0.0995
 1684SOL     OW16684   3.401   4.406   9.046  0.1925 -0.4531  0.6081
 1684SOL    HW116685   3.433   4.365   8.965 -0.7795  1.8921 -0.9697
 1684SOL    HW216686   3.309   4.413   9.021  0.9582  0.5070 -2.0383
 1685SOL     OW16687   4.722   0.946  14.875 -1.3477 -0.1842 -0.1304
 1685SOL    HW116688   4.708   0.903  14.959 -2.0980  1.0829  0.3917
 1685SOL    HW216689   0.015   0.870  14.822  0.2140  0.6169 -0.4528
 1686SOL     OW16690   2.677   3.297   6.384 -0.1374  0.9456  0.9434
 1686SOL    HW116691   2.664   3.315   6.477 -2.7943  0.2343  0.6978
 1686SOL    HW216692   2.739   3.225   6.386 -0.5163  0.5528 -1.3940
 1687SOL     OW16693   0.187   0.397  13.203 -0.1483 -0.5657  0.9320
 1687SOL    HW116694   0.231   0.381  13.119 -1.9376 -1.4659  0.1579
 1687SOL    HW216695   0.103   0.350  13.195 -0.9943  1.2816 -1.2489
 1688SOL     OW16696   3.620   2.122   2.780 -0.4067  1.1458  0.0427
 1688SOL    HW116697   3.632   2.033   2.750 -0.8311  1.3493 -0.7157
 1688SOL    HW216698   3.558   2.103   2.851 -1.1413 -0.4087 -1.0313
 1689SOL     OW16699   0.992   4.020  17.042  0.1373  0.8062  0.4232
 1689SOL    HW116700   1.049   3.972  16.982 -1.1002 -1.7693  1.2646
 1689SOL    HW216701   0.993   4.108  17.005 -0.4052  1.0636  1.0291
 1690SOL     OW16702   2.201   0.915  14.492  0.1708 -0.0197 -0.3938
 1690SOL    HW116703   2.177   0.874  14.575  0.8004 -0.5247 -0.4592
 1690SOL    HW216704   2.137   0.877  14.432  0.1174  0.5723 -0.7062
 1691SOL     OW16705   0.943   4.049   4.727 -0.3939 -0.2313  0.1773
 1691SOL    HW116706   0.863   4.095   4.753  0.5140  1.9263 -0.8072
 1691SOL    HW216707   0.982   4.116   4.670  1.1506 -0.3318  1.1011
 1692SOL     OW16708   3.715   0.944   0.024 -0.1302  0.2460 -0.0805
 1692SOL    HW116709   3.665   0.898  17.694 -0.3429  0.1812  0.1238
 1692SOL    HW216710   3.772   0.872   0.049 -1.5658 -0.3247  1.5718
 1693SOL     OW16711   0.476   1.034   3.732 -0.2614  0.2167 -0.4791
 1693SOL    HW116712   0.555   1.008   3.685 -0.0434 -0.6434  0.3578
 1693SOL    HW216713   0.512   1.113   3.771  0.8013 -0.9149  0.8163
 1694SOL     OW16714   4.549   2.054   8.455 -0.6449 -0.6067 -1.1696
 1694SOL    HW116715   4.638   2.081   8.478 -1.2786 -1.0356  1.7466
 1694SOL    HW216716   4.557   2.019   8.366  1.5084 -2.1941 -0.3250
 1695SOL     OW16717   1.143   3.524   9.056  0.2247 -0.9203 -0.6376
 1695SOL    HW116718   1.219   3.541   9.112 -0.8007  1.1661  0.1262
 1695SOL    HW216719   1.118   3.434   9.075 -0.3374 -0.8843 -1.1941
 1696SOL     OW16720   1.862   4.101  15.074 -0.3371 -0.4733  0.3269
 1696SOL    HW116721   1.783   4.047  15.080 -0.6377 -0.0365  0.2949
 1696SOL    HW216722   1.901   4.103  15.161  0.0681  0.4271  0.1270
 1697SOL     OW16723   0.324   4.697   8.480 -0.1946 -0.0034 -0.2439
 1697SOL    HW116724   0.364   4.626   8.531 -0.7193 -0.2516 -0.1735
 1697SOL    HW216725   0.278   0.013   8.547  0.5829  0.3998 -0.0115
 1698SOL     OW16726   4.368   0.017  10.671  0.1654  0.4736 -0.7490
 1698SOL    HW116727   4.424   0.075  10.723  0.6752 -0.6533 -0.0551
 1698SOL    HW216728   4.288   0.070  10.668 -2.3676 -3.1727  2.5656
 1699SOL     OW16729   1.820   1.422  17.042  0.9520 -0.2589  0.1512
 1699SOL    HW116730   1.756   1.417  17.113 -0.7730  1.8881 -1.2457
 1699SOL    HW216731   1.795   1.353  16.981 -3.3042  2.1255 -0.7822
 1700SOL     OW16732   4.284   2.798   7.904  0.1972  0.2815  0.3884
 1700SOL    HW116733   4.231   2.860   7.853 -0.4907  0.0798  0.8628
 1700SOL    HW216734   4.278   2.833   7.993 -0.3539  0.9608  0.0911
 1701SOL     OW16735   4.370   2.135   8.640 -0.1893 -0.3318 -0.0850
 1701SOL    HW116736   4.409   2.154   8.725 -1.3578  0.3425  0.3007
 1701SOL    HW216737   4.442   2.120   8.578 -0.9516 -1.1245 -0.7672
 1702SOL     OW16738   2.306   3.807  15.761 -0.3448 -0.2671  0.5620
 1702SOL    HW116739   2.281   3.874  15.697  2.1123 -0.0846 -0.1879
 1702SOL    HW216740   2.396   3.827  15.784 -0.3054  0.5187 -0.2650
 1703SOL     OW16741   1.940   0.060  14.725  0.6031 -0.3263  0.0680
 1703SOL    HW116742   1.978   0.098  14.645 -0.6868  0.4098 -0.1869
 1703SOL    HW216743   1.978   4.707  14.719  1.5966  0.2134 -1.5967
 1704SOL     OW16744   3.975   3.770   5.255  0.0041  1.1645 -0.5127
 1704SOL    HW116745   4.017   3.756   5.340 -1.5827 -1.1512 -0.0975
 1704SOL    HW216746   3.888   3.733   5.271  0.6555  0.7059  2.0508
 1705SOL     OW16747   4.602   2.891   4.326  0.1993  0.2453 -0.3692
 1705SOL    HW116748   4.650   2.810   4.308  0.6452  0.2798  0.6550
 1705SOL    HW216749   4.563   2.877   4.412 -0.6275  0.6471 -0.6721
 1706SOL     OW16750   3.470   0.688   2.402 -0.0700  0.9285 -0.1941
 1706SOL    HW116751   3.428   0.698   2.316 -1.5919  0.2158  0.4670
 1706SOL    HW216752   3.557   0.672   2.364 -1.4022 -1.6421 -2.1368
 1707SOL     OW16753   2.147   3.673   5.781 -0.0925 -0.0865 -0.4769
 1707SOL    HW116754   2.151   3.760   5.740  3.6705  0.1458  0.4253
 1707SOL    HW216755   2.193   3.681   5.865  0.5766  2.7421 -1.1246
 1708SOL     OW16756   4.251   0.733   3.571 -0.3290  0.6578  0.1375
 1708SOL    HW116757   4.161   0.762   3.586 -0.5742  0.0868 -0.2013
 1708SOL    HW216758   4.289   0.820   3.583 -0.5755  0.1837  4.3143
 1709SOL     OW16759   3.274   2.603   2.745  0.0825  0.7216  0.0999
 1709SOL    HW116760   3.247   2.516   2.775 -0.9845  1.1789  0.4568
 1709SOL    HW216761   3.245   2.583   2.656 -0.6670 -0.1088  0.5357
 1710SOL     OW16762   3.311   0.391   6.581 -0.4685  0.0370 -0.3027
 1710SOL    HW116763   3.399   0.401   6.545  0.3716 -1.1091  1.4299
 1710SOL    HW216764   3.326   0.403   6.675 -1.0525 -0.6069 -0.1333
 1711SOL     OW16765   1.137   2.839   5.385  0.1933  0.8238  0.0660
 1711SOL    HW116766   1.120   2.809   5.475  0.3119  0.8907  0.1120
 1711SOL    HW216767   1.129   2.934   5.394  0.8352  0.7228  1.8657
 1712SOL     OW16768   2.094   2.904  13.469  0.4214  0.1270 -0.3619
 1712SOL    HW116769   2.032   2.854  13.417  1.9011 -0.2844 -1.7417
 1712SOL    HW216770   2.062   2.875  13.555 -0.5430 -0.6033 -0.9743
 1713SOL     OW16771   2.637   1.045  11.009 -0.3072 -0.8735  0.2546
 1713SOL    HW116772   2.708   1.013  11.065 -0.9830  1.2978  2.3419
 1713SOL    HW216773   2.574   0.976  11.027 -0.1734 -1.4948 -1.6008
 1714SOL     OW16774   2.724   1.093   2.375  0.1161 -0.2341 -0.3122
 1714SOL    HW116775   2.652   1.031   2.378 -0.2244  0.3507  2.7573
 1714SOL    HW216776   2.779   1.040   2.317  0.4512  0.1243 -0.3224
 1715SOL     OW16777   1.270   1.083   8.541 -0.1490 -0.1117 -0.3785
 1715SOL    HW116778   1.260   1.015   8.607  1.5173  0.6027  0.5872
 1715SOL    HW216779   1.352   1.059   8.498 -0.3468  0.8781 -1.3006
 1716SOL     OW16780   1.310   0.900   8.145 -0.5613 -0.2329 -0.1297
 1716SOL    HW116781   1.287   0.886   8.053  2.0619 -1.8233 -0.5372
 1716SOL    HW216782   1.398   0.938   8.146 -0.2344 -0.9703 -0.8841
 1717SOL     OW16783   2.088   1.789   1.344  0.2765  0.5633 -0.2465
 1717SOL    HW116784   2.037   1.725   1.294 -0.7471 -0.2586  1.8514
 1717SOL    HW216785   2.148   1.730   1.389  0.4123  0.4928 -0.5200
 1718SOL     OW16786   1.739   3.234   5.266 -0.0253 -0.1899  0.1054
 1718SOL    HW116787   1.828   3.244   5.232 -0.4284  0.1520 -0.8630
 1718SOL    HW216788   1.708   3.317   5.228 -0.2825  1.3669  3.6859
 1719SOL     OW16789   3.425   0.051   3.867 -0.1113 -0.3028  0.2471
 1719SOL    HW116790   3.486   0.109   3.912 -2.9110  2.8285  0.0184
 1719SOL    HW216791   3.457   0.051   3.777  3.8737 -0.3426  1.6829
 1720SOL     OW16792   1.872   3.295   7.354  0.0264 -0.7943 -0.1031
 1720SOL    HW116793   1.915   3.377   7.331 -1.5418  0.0532 -0.0378
 1720SOL    HW216794   1.808   3.279   7.285  0.6110 -1.1146 -0.5647
 1721SOL     OW16795   1.020   0.283   2.040 -0.4860  0.2249 -0.8690
 1721SOL    HW116796   1.054   0.211   2.092  2.2913  1.8307 -0.4632
 1721SOL    HW216797   0.937   0.297   2.087 -0.3002  0.6087 -0.6523
 1722SOL     OW16798   0.707   4.270   8.463  0.0391  0.5507  0.4549
 1722SOL    HW116799   0.765   4.250   8.537  2.1598  1.6994 -0.8906
 1722SOL    HW216800   0.637   4.207   8.479 -1.5793  1.9790 -1.1018
 1723SOL     OW16801   3.635   3.153   5.110  0.1988  0.3628  0.0665
 1723SOL    HW116802   3.602   3.160   5.021 -0.6817 -1.7899  0.2256
 1723SOL    HW216803   3.605   3.063   5.125 -0.0870  0.2648 -1.1478
 1724SOL     OW16804   3.499   3.630   0.934  0.4996 -0.5205  0.3720
 1724SOL    HW116805   3.590   3.607   0.913 -0.0800 -0.7846 -1.7537
 1724SOL    HW216806   3.479   3.673   0.851 -0.2330  0.4809  1.0772
 1725SOL     OW16807   2.470   1.745   1.097  0.3524 -0.1882  0.0595
 1725SOL    HW116808   2.536   1.814   1.092  0.7456 -0.4912  1.2184
 1725SOL    HW216809   2.467   1.734   1.192 -1.8306  1.2199  0.1526
 1726SOL     OW16810   0.535   0.414   4.929 -0.0696 -0.3037 -0.6005
 1726SOL    HW116811   0.627   0.438   4.921  0.6073 -2.7050 -0.0924
 1726SOL    HW216812   0.536   0.339   4.989 -0.8265  1.0806  1.1535
 1727SOL     OW16813   2.163   3.098   1.797  0.3471  0.3739  0.5015
 1727SOL    HW116814   2.254   3.086   1.770  0.0009 -1.0754 -0.0108
 1727SOL    HW216815   2.172   3.038   1.871  1.2579 -2.0779 -1.6053
 1728SOL     OW16816   0.182   1.783   6.443  0.5013 -0.2123 -0.2190
 1728SOL    HW116817   0.129   1.825   6.376  0.3681  0.5500  0.3602
 1728SOL    HW216818   0.253   1.848   6.450 -1.6948  1.8853  2.7360
 1729SOL     OW16819   0.211   1.571   7.781 -0.7159 -0.0185  0.6128
 1729SOL    HW116820   0.241   1.544   7.868 -0.0273 -0.4306  0.2496
 1729SOL    HW216821   0.284   1.541   7.727 -0.0756  1.6929  0.5307
 1730SOL     OW16822   1.648   1.364  14.192  0.1215  0.1112  0.7351
 1730SOL    HW116823   1.659   1.457  14.174 -0.2236  0.1463  0.6979
 1730SOL    HW216824   1.650   1.371  14.287 -0.0259  1.1075  0.6590
 1731SOL     OW16825   1.488   0.354   3.157 -0.1017  0.2296 -0.3296
 1731SOL    HW116826   1.418   0.364   3.093 -0.6261  0.6163  0.3127
 1731SOL    HW216827   1.513   0.444   3.176 -1.0215  0.0421  1.6981
 1732SOL     OW16828   2.516   2.756   7.011  0.3412  0.8699  0.6122
 1732SOL    HW116829   2.434   2.736   6.966  1.4915 -1.8213 -0.2519
 1732SOL    HW216830   2.543   2.836   6.965 -0.0220  0.7469  0.1928
 1733SOL     OW16831   3.364   4.142  12.846 -0.3551  0.2267 -0.1825
 1733SOL    HW116832   3.406   4.094  12.917  0.8843  0.0778 -1.0034
 1733SOL    HW216833   3.393   4.231  12.865 -1.7733  0.9047 -1.1707
 1734SOL     OW16834   4.451   2.599   2.687 -0.2831  0.2058  0.0669
 1734SOL    HW116835   4.509   2.649   2.629  0.4397 -1.5396 -0.7215
 1734SOL    HW216836   4.390   2.546   2.636  1.5794 -1.3924 -0.4965
 1735SOL     OW16837   3.116   1.897   7.594 -0.3007 -0.2290  0.3460
 1735SOL    HW116838   3.055   1.903   7.667  1.0373  0.7370  1.3759
 1735SOL    HW216839   3.151   1.986   7.596  1.6223 -1.0144  1.3766
 1736SOL     OW16840   3.044   3.132   1.951 -0.1644  0.0088  0.0480
 1736SOL    HW116841   3.129   3.162   1.918 -0.5137  0.7124 -0.1927
 1736SOL    HW216842   3.032   3.052   1.900  1.7913  0.0050 -0.4105
 1737SOL     OW16843   3.943   4.436   7.904 -0.5467  0.1624 -0.0936
 1737SOL    HW116844   3.937   4.451   7.810 -0.6273 -1.5318 -0.3571
 1737SOL    HW216845   3.907   4.514   7.946 -1.4551  0.5026 -1.4971
 1738SOL     OW16846   2.177   3.450  16.422  0.0416 -0.2667  0.0098
 1738SOL    HW116847   2.127   3.527  16.396  1.9890  1.3224  0.9193
 1738SOL    HW216848   2.265   3.483  16.403 -0.3472  0.3255 -0.7451
 1739SOL     OW16849   1.001   2.233   1.624 -0.0740 -0.1753  0.1013
 1739SOL    HW116850   1.080   2.186   1.652 -0.5419 -0.0822  1.5873
 1739SOL    HW216851   1.042   2.283   1.553  1.1953 -1.4747 -0.0804
 1740SOL     OW16852   3.871   3.560  10.326 -0.5835 -0.3160 -0.1660
 1740SOL    HW116853   3.878   3.470  10.294  0.1888 -0.7698  1.2955
 1740SOL    HW216854   3.793   3.557  10.381 -0.2020 -0.8453  0.3452
 1741SOL     OW16855   1.988   2.754  17.544  0.4196 -0.5430  0.3857
 1741SOL    HW116856   1.995   2.742  17.639 -0.3331 -0.5908  0.4364
 1741SOL    HW216857   1.904   2.799  17.531  1.0420 -0.0779 -2.0502
 1742SOL     OW16858   2.428   4.227   9.324  0.3031 -0.2177  0.3185
 1742SOL    HW116859   2.470   4.151   9.284  1.8724 -0.8225  3.1052
 1742SOL    HW216860   2.398   4.183   9.403  0.0686 -0.6084  0.0141
 1743SOL     OW16861   2.778   3.668   7.268 -0.2359 -0.9147 -0.4171
 1743SOL    HW116862   2.857   3.642   7.315 -0.0333  1.4628  0.6023
 1743SOL    HW216863   2.716   3.598   7.289 -1.1513 -0.2996 -1.0733
 1744SOL     OW16864   1.718   3.209   0.022 -0.7147  0.1437 -0.2676
 1744SOL    HW116865   1.689   3.185  17.672 -1.7604 -0.2234  0.1880
 1744SOL    HW216866   1.808   3.220  17.729 -0.1070 -1.0487  1.0917
 1745SOL     OW16867   0.371   4.183   1.425  0.0453 -0.0624 -0.6817
 1745SOL    HW116868   0.381   4.088   1.424 -1.2521 -0.2168  0.4002
 1745SOL    HW216869   0.324   4.199   1.343 -2.8100  0.2267  1.0064
 1746SOL     OW16870   2.429   0.368   3.720  0.4826  0.3710 -0.0541
 1746SOL    HW116871   2.365   0.298   3.722  1.5577 -0.6166 -0.7678
 1746SOL    HW216872   2.454   0.375   3.628  1.9108 -0.0804  0.3049
 1747SOL     OW16873   1.687   2.899  14.124  0.1402 -0.0471  0.1653
 1747SOL    HW116874   1.597   2.917  14.097 -0.3209  2.2207  3.3124
 1747SOL    HW216875   1.735   2.897  14.041 -2.2544 -0.6333 -1.2362
 1748SOL     OW16876   2.627   2.382   9.862 -0.6174  0.0255  0.5010
 1748SOL    HW116877   2.663   2.469   9.845  0.1332 -0.2398  0.7621
 1748SOL    HW216878   2.553   2.386   9.802  0.5678 -0.9588 -1.0297
 1749SOL     OW16879   3.964   0.569   7.168  0.1467  0.1626  0.7713
 1749SOL    HW116880   4.056   0.542   7.163  0.9518  3.4135 -2.5499
 1749SOL    HW216881   3.944   0.564   7.075 -1.8895  0.7024  1.1880
 1750SOL     OW16882   1.469   3.120   0.807 -0.2143 -0.3720 -0.0533
 1750SOL    HW116883   1.394   3.091   0.755 -1.4736  0.9572  1.0304
 1750SOL    HW216884   1.465   3.062   0.883  1.7631  1.8611  1.7427
 1751SOL     OW16885   2.872   4.655   3.939 -0.2816 -0.0225  0.2763
 1751SOL    HW116886   2.848   4.574   3.894 -1.3890  1.6723 -2.1743
 1751SOL    HW216887   2.948   4.687   3.891  1.3851 -1.8059  1.7595
 1752SOL     OW16888   0.228   1.408   3.253 -0.4911 -0.2111 -0.3047
 1752SOL    HW116889   0.226   1.372   3.164 -3.4541 -1.7150  0.3585
 1752SOL    HW216890   0.212   1.501   3.239  1.4594  0.1415 -0.0785
 1753SOL     OW16891   1.941   0.969   5.934 -0.4749 -0.1152  0.0955
 1753SOL    HW116892   1.910   0.879   5.945  0.2623 -0.4326 -0.3813
 1753SOL    HW216893   1.913   0.991   5.845 -1.0927 -0.0297  0.3094
 1754SOL     OW16894   0.112   1.207   2.816  0.9790 -0.8323 -0.5554
 1754SOL    HW116895   0.173   1.230   2.746 -0.6695  0.5506 -1.5442
 1754SOL    HW216896   0.024   1.193   2.781  0.0217 -2.0067  2.3705
 1755SOL     OW16897   1.517   2.563   6.121 -0.9256 -0.2763 -0.7286
 1755SOL    HW116898   1.530   2.503   6.195  0.4237  0.3222 -0.4919
 1755SOL    HW216899   1.546   2.647   6.157 -2.0363 -0.3695  0.4021
 1756SOL     OW16900   2.742   2.268   9.260  0.4579  0.0108 -0.0650
 1756SOL    HW116901   2.763   2.362   9.262 -1.4002  0.4336 -0.3433
 1756SOL    HW216902   2.672   2.252   9.323  0.6937  0.4732  0.3079
 1757SOL     OW16903   4.365   3.381  15.396  0.1142  0.5597 -0.0120
 1757SOL    HW116904   4.435   3.396  15.332  1.3461 -1.2843  0.8888
 1757SOL    HW216905   4.302   3.434  15.347 -0.4225 -0.9703 -0.9578
 1758SOL     OW16906   4.273   1.972   3.468  0.2460 -0.6511  0.0721
 1758SOL    HW116907   4.244   1.999   3.556  1.1625 -1.0147  0.4829
 1758SOL    HW216908   4.231   1.887   3.461  0.5220 -0.7807  0.0120
 1759SOL     OW16909   0.364   3.874   2.221 -0.0406  0.2842  0.1179
 1759SOL    HW116910   0.313   3.954   2.203 -0.1406  0.0827 -0.4948
 1759SOL    HW216911   0.447   3.909   2.190 -0.2536 -0.9188 -1.7817
 1760SOL     OW16912   1.619   1.781  12.436  0.2644 -1.0906  0.7465
 1760SOL    HW116913   1.692   1.721  12.418 -0.5958 -2.8357  3.0194
 1760SOL    HW216914   1.557   1.753  12.369 -1.7263  1.8808  1.3325
 1761SOL     OW16915   2.053   3.090   7.746 -0.0351 -0.2620  0.0420
 1761SOL    HW116916   2.116   3.071   7.676 -2.1706 -0.2043 -1.8735
 1761SOL    HW216917   2.002   3.161   7.708  0.4048 -1.3920 -2.6722
 1762SOL     OW16918   0.830   0.802   3.734 -0.1327  0.0918  0.2389
 1762SOL    HW116919   0.767   0.846   3.676 -1.6371 -3.1129 -0.5400
 1762SOL    HW216920   0.898   0.788   3.668  0.9825  0.1917  1.3639
 1763SOL     OW16921   3.172   3.755  15.139 -0.2203  0.6178 -0.0120
 1763SOL    HW116922   3.202   3.711  15.060  0.0089  1.1459 -0.2200
 1763SOL    HW216923   3.205   3.845  15.131  1.8868 -0.0532  1.3543
 1764SOL     OW16924   4.037   1.761  16.926  0.7333 -0.5648  0.4374
 1764SOL    HW116925   4.081   1.814  16.992 -2.2946  1.3419  0.9068
 1764SOL    HW216926   3.944   1.775  16.942  0.9313  1.1362  0.0954
 1765SOL     OW16927   3.696   2.729   2.816 -0.1662 -0.0349  0.3375
 1765SOL    HW116928   3.700   2.658   2.753  0.3422 -0.4804  0.8766
 1765SOL    HW216929   3.602   2.747   2.818 -0.2759 -0.8015  2.4651
 1766SOL     OW16930   1.273   1.743   5.510 -0.8844 -0.2796  0.1098
 1766SOL    HW116931   1.331   1.739   5.434 -0.8299  1.8691  0.0358
 1766SOL    HW216932   1.217   1.667   5.498 -3.2917  1.6103 -0.8263
 1767SOL     OW16933   4.359   1.450  10.899  0.4805 -0.4883  0.0098
 1767SOL    HW116934   4.371   1.391  10.974  0.8163 -0.6688 -0.1829
 1767SOL    HW216935   4.373   1.390  10.826 -0.0766 -1.2007  0.4865
 1768SOL     OW16936   2.213   2.708   8.780  0.7326  0.3989  0.0860
 1768SOL    HW116937   2.140   2.765   8.805 -0.2558 -0.8044 -0.0714
 1768SOL    HW216938   2.178   2.687   8.694  0.9172 -1.0302  0.3659
 1769SOL     OW16939   1.116   0.028  17.441  0.1051 -0.7058  0.0779
 1769SOL    HW116940   1.139   4.690  17.382  2.6911 -0.7610  1.1410
 1769SOL    HW216941   1.195   0.041  17.494  0.7680  0.0458 -1.0909
 1770SOL     OW16942   0.966   1.203   7.622 -0.1990  0.2550 -0.0300
 1770SOL    HW116943   0.952   1.297   7.631  0.9939  0.4915 -0.6637
 1770SOL    HW216944   0.874   1.179   7.633  0.0571 -0.4159  0.6457
 1771SOL     OW16945   3.052   3.705   2.592 -0.4282  0.3748  0.2836
 1771SOL    HW116946   3.083   3.745   2.510  1.3204 -0.1171  0.7148
 1771SOL    HW216947   3.007   3.628   2.557  2.0788  0.1890 -2.5776
 1772SOL     OW16948   2.130   1.047   7.402 -0.2155  0.1571  0.3565
 1772SOL    HW116949   2.069   0.990   7.355 -1.1315  1.0474  0.4738
 1772SOL    HW216950   2.088   1.085   7.479 -1.3558 -1.0018  0.2948
 1773SOL     OW16951   0.467   1.433   8.294  0.3638 -0.1214  0.5878
 1773SOL    HW116952   0.536   1.372   8.320  0.9377  0.0580 -0.4905
 1773SOL    HW216953   0.390   1.380   8.313 -1.0363  1.1692 -1.4482
 1774SOL     OW16954   2.629   3.647   6.278 -0.2808 -0.2518  0.2498
 1774SOL    HW116955   2.590   3.617   6.360 -1.5894 -2.7443 -1.2740
 1774SOL    HW216956   2.596   3.737   6.281  1.2383  0.3581 -1.2467
 1775SOL     OW16957   1.046   4.092  13.837 -0.5488  0.0678  0.1693
 1775SOL    HW116958   0.968   4.037  13.842 -0.1941 -0.3305  1.2520
 1775SOL    HW216959   1.069   4.087  13.930  0.6337  0.8364 -0.0718
 1776SOL     OW16960   0.753   2.883   9.173 -0.0056  0.1936  0.4438
 1776SOL    HW116961   0.794   2.829   9.240 -0.1139  0.4204  0.6947
 1776SOL    HW216962   0.777   2.971   9.201 -1.4775  0.6950  0.1480
 1777SOL     OW16963   2.849   0.061   4.738 -0.0099 -0.3082  0.2822
 1777SOL    HW116964   2.783   0.063   4.669 -1.1537 -0.5247  1.3505
 1777SOL    HW216965   2.908   0.128   4.705 -0.6568  1.5834  2.9468
 1778SOL     OW16966   4.702   3.884   4.642  1.1012 -0.0080 -0.2511
 1778SOL    HW116967   4.671   3.867   4.731 -0.4501  1.5337 -0.4956
 1778SOL    HW216968   4.620   3.859   4.599  1.6451  0.8669 -1.7795
 1779SOL     OW16969   2.244   0.852   0.112 -0.6950  0.0380  0.6788
 1779SOL    HW116970   2.186   0.834   0.038 -0.0916 -0.6675  0.3679
 1779SOL    HW216971   2.299   0.921   0.074  0.3428 -0.9810  0.3124
 1780SOL     OW16972   0.691   3.944   8.385 -0.6012  0.3729  0.2805
 1780SOL    HW116973   0.596   3.934   8.390 -0.6247  0.4177 -0.0664
 1780SOL    HW216974   0.701   3.995   8.305  0.5481  0.1325  0.2659
 1781SOL     OW16975   2.185   0.669  12.757 -0.4765 -0.3193 -0.0743
 1781SOL    HW116976   2.121   0.642  12.823  0.7315  0.6701  1.5368
 1781SOL    HW216977   2.151   0.619  12.683 -0.1621  1.2107 -1.2406
 1782SOL     OW16978   2.632   1.553   4.189 -0.1883 -0.2410 -0.2524
 1782SOL    HW116979   2.587   1.631   4.219  1.4853  0.6764 -0.1222
 1782SOL    HW216980   2.685   1.584   4.116 -1.1669 -1.4440 -1.4879
 1783SOL     OW16981   4.539   0.520  11.195  0.2569 -0.0691  0.0486
 1783SOL    HW116982   4.586   0.511  11.278 -1.1111 -1.7848  0.6357
 1783SOL    HW216983   4.611   0.495  11.137  0.3382  0.8645 -0.2580
 1784SOL     OW16984   0.655   1.781   2.630 -0.3356 -0.0828 -0.1019
 1784SOL    HW116985   0.675   1.722   2.703 -1.2876 -2.7373 -1.9728
 1784SOL    HW216986   0.561   1.767   2.618 -1.0654  2.4362  2.7946
 1785SOL     OW16987   2.260   3.599   4.057 -0.7091  0.6156 -0.3959
 1785SOL    HW116988   2.204   3.653   4.001 -0.4663  2.5076  1.2004
 1785SOL    HW216989   2.291   3.535   3.993  0.8626  0.5498  0.4316
 1786SOL     OW16990   1.835   2.266   1.310 -0.0814 -0.1466 -0.0560
 1786SOL    HW116991   1.888   2.329   1.359  1.0982 -0.8871 -0.3843
 1786SOL    HW216992   1.894   2.192   1.327  0.9202  1.4082  3.2257
 1787SOL     OW16993   1.186   4.329   2.884 -0.0792 -0.2181 -0.4782
 1787SOL    HW116994   1.105   4.283   2.862 -0.1182  0.8197 -2.5014
 1787SOL    HW216995   1.248   4.287   2.826 -1.4924 -1.0766 -1.3595
 1788SOL     OW16996   0.386   3.227   7.985  0.1842  0.2851  0.3372
 1788SOL    HW116997   0.422   3.293   7.924  1.6949 -1.3733 -0.5650
 1788SOL    HW216998   0.454   3.160   7.982 -0.2863 -0.2374  1.4661
 1789SOL     OW16999   0.073   3.846  11.065  0.6043 -0.1338  0.1799
 1789SOL    HW117000   0.163   3.831  11.036  1.4873  1.3197  2.1532
 1789SOL    HW217001   0.038   3.902  10.996 -1.2117 -1.0645  0.3470
 1790SOL     OW17002   1.554   4.265   4.254 -0.2074  0.1474  0.1295
 1790SOL    HW117003   1.567   4.278   4.160  0.1974 -1.8140 -0.0837
 1790SOL    HW217004   1.484   4.201   4.263 -1.1256  1.0261 -0.7584
 1791SOL     OW17005   3.877   1.055   5.364  0.0578 -0.1096  0.1915
 1791SOL    HW117006   3.951   1.049   5.424  1.7109 -1.7988 -2.0076
 1791SOL    HW217007   3.869   1.151   5.360  0.8367 -0.0812 -0.6660
 1792SOL     OW17008   2.026   0.862   6.302  0.1293 -0.1877  0.0398
 1792SOL    HW117009   1.936   0.869   6.271 -0.8637 -2.6481  2.4304
 1792SOL    HW217010   2.010   0.815   6.384 -0.3310  0.7330  0.4696
 1793SOL     OW17011   0.763   2.672  11.691  0.4751 -0.6773 -0.0829
 1793SOL    HW117012   0.717   2.751  11.664  2.3761  0.4824  0.0735
 1793SOL    HW217013   0.757   2.676  11.786  1.6586 -0.8626 -0.0054
 1794SOL     OW17014   1.907   0.483   9.103  0.2229 -0.1054  0.8892
 1794SOL    HW117015   1.886   0.451   9.191 -2.0529 -1.8958 -0.2889
 1794SOL    HW217016   1.824   0.492   9.057  0.3959 -0.7158  0.4546
 1795SOL     OW17017   2.818   0.455   6.922  0.2121  0.3569 -0.2797
 1795SOL    HW117018   2.851   0.384   6.867 -0.1646 -1.3475  1.6752
 1795SOL    HW217019   2.729   0.454   6.887  0.2392 -0.6093 -0.3299
 1796SOL     OW17020   1.813   4.404   1.432 -0.8753 -0.5273 -0.3267
 1796SOL    HW117021   1.757   4.377   1.505  0.9720 -2.8305  0.2294
 1796SOL    HW217022   1.768   4.364   1.358 -1.3522  1.8112 -1.3002
 1797SOL     OW17023   0.440   3.651   9.088  0.8876  0.1005 -0.0953
 1797SOL    HW117024   0.436   3.747   9.086  2.1192  0.1772  1.8563
 1797SOL    HW217025   0.477   3.629   9.002  1.4867 -1.1183  0.4776
 1798SOL     OW17026   0.129   2.166   5.502 -0.9362 -0.0858  0.0097
 1798SOL    HW117027   0.065   2.115   5.552  1.1454 -0.0274  2.7310
 1798SOL    HW217028   0.174   2.106   5.442  0.3466 -0.0951  0.9711
 1799SOL     OW17029   4.471   3.103   8.351 -0.2389 -0.4087  0.0961
 1799SOL    HW117030   4.500   3.013   8.341 -0.2065 -0.1795 -1.7898
 1799SOL    HW217031   4.451   3.106   8.445  0.1926 -1.0916  0.2065
 1800SOL     OW17032   4.209   1.494   2.517 -0.6421  0.4355 -0.1032
 1800SOL    HW117033   4.267   1.570   2.523 -1.9040  1.4070 -0.0997
 1800SOL    HW217034   4.269   1.420   2.516 -1.4005 -0.1924  0.8794
 1801SOL     OW17035   0.974   3.384   1.365 -0.2688 -0.4742 -0.9804
 1801SOL    HW117036   1.024   3.442   1.308 -0.5356  0.9174  0.2003
 1801SOL    HW217037   0.901   3.365   1.305 -1.3658  0.6637 -0.0179
 1802SOL     OW17038   2.946   2.386   9.649 -0.2777 -0.1257  0.4206
 1802SOL    HW117039   2.972   2.475   9.625 -0.9537 -0.3236 -1.0294
 1802SOL    HW217040   3.021   2.334   9.621  0.1335  1.6370 -1.7674
 1803SOL     OW17041   1.937   0.861   4.335  0.3097 -0.0076 -0.2269
 1803SOL    HW117042   2.032   0.869   4.326  0.4769 -0.9208  0.8338
 1803SOL    HW217043   1.916   0.904   4.417 -0.1830 -0.0845 -0.3148
 1804SOL     OW17044   3.562   4.123  16.940 -0.1606  0.1845 -0.2536
 1804SOL    HW117045   3.562   4.145  17.033 -0.7654  1.8833 -0.6442
 1804SOL    HW217046   3.615   4.200  16.917 -1.8305  1.0635 -1.1088
 1805SOL     OW17047   3.013   4.423   2.371 -0.0241 -0.3582 -0.2875
 1805SOL    HW117048   2.978   4.368   2.301 -0.0951 -0.3881 -0.2283
 1805SOL    HW217049   2.935   4.405   2.423 -1.0223  2.3754 -0.8142
 1806SOL     OW17050   0.444   2.812   2.666 -0.1835 -0.6541  0.0255
 1806SOL    HW117051   0.442   2.727   2.621 -0.6923  0.5610 -2.2398
 1806SOL    HW217052   0.352   2.820   2.688  0.3514  0.1439  1.9503
 1807SOL     OW17053   2.374   4.568   6.679 -0.1206 -0.3616  0.0671
 1807SOL    HW117054   2.418   4.508   6.739 -0.5064 -0.1224  0.5990
 1807SOL    HW217055   2.290   4.589   6.722  0.1900 -1.8555  1.3956
 1808SOL     OW17056   3.981   1.539   7.084 -0.3643 -0.2856 -0.0162
 1808SOL    HW117057   3.930   1.514   7.007 -1.9739 -0.2835  1.0610
 1808SOL    HW217058   3.993   1.450   7.116 -1.0070 -0.0600  0.8398
 1809SOL     OW17059   0.579   0.274   2.549 -0.2131 -0.2573  0.2763
 1809SOL    HW117060   0.528   0.347   2.514  0.5152  0.4932  0.7751
 1809SOL    HW217061   0.522   0.256   2.624 -1.7104 -1.8086 -1.1968
 1810SOL     OW17062   1.714   3.634  12.897  0.3874  0.0481 -0.1049
 1810SOL    HW117063   1.638   3.693  12.887 -0.1334 -1.3090 -3.9531
 1810SOL    HW217064   1.701   3.590  12.813 -5.0382  1.8965 -0.2557
 1811SOL     OW17065   1.415   0.712  15.211 -0.8214  0.1141  0.1788
 1811SOL    HW117066   1.444   0.630  15.170  2.0020  0.9045  0.6268
 1811SOL    HW217067   1.339   0.691  15.264 -0.3763 -1.5935  0.1629
 1812SOL     OW17068   0.914   2.660   4.678  0.0773  0.6168 -0.9567
 1812SOL    HW117069   0.928   2.580   4.628 -0.2705 -0.0880  0.0676
 1812SOL    HW217070   0.831   2.682   4.636 -1.0674  0.5998  1.2764
 1813SOL     OW17071   2.689   3.254   7.064 -0.2535 -0.5079 -0.5037
 1813SOL    HW117072   2.616   3.316   7.069 -0.5536 -0.8583 -0.5113
 1813SOL    HW217073   2.743   3.303   7.001 -1.6827  2.1694  0.3298
 1814SOL     OW17074   0.832   1.759  11.765  0.4167 -0.5566  0.1948
 1814SOL    HW117075   0.764   1.823  11.744 -1.0890 -1.7715  1.4239
 1814SOL    HW217076   0.778   1.681  11.779  0.6283 -1.0705 -1.7726
 1815SOL     OW17077   3.631   4.280   2.482  0.2811  0.1014  0.4713
 1815SOL    HW117078   3.677   4.299   2.565 -0.1311  0.1892  0.6787
 1815SOL    HW217079   3.566   4.212   2.499 -1.2264  1.4875  0.2344
 1816SOL     OW17080   0.585   3.896   1.073 -0.3935  0.2046 -0.1225
 1816SOL    HW117081   0.672   3.857   1.066 -0.9797 -1.1487  0.0812
 1816SOL    HW217082   0.582   3.932   0.985 -1.0980  1.6643  0.5031
 1817SOL     OW17083   3.936   3.202   5.932  0.0963 -0.3086 -0.1540
 1817SOL    HW117084   3.948   3.220   6.025 -1.1423  0.1388 -0.0739
 1817SOL    HW217085   3.978   3.280   5.896 -0.0568  1.6452  3.9411
 1818SOL     OW17086   2.833   4.214   5.506 -0.4226 -0.0675 -0.3307
 1818SOL    HW117087   2.840   4.308   5.490 -1.5509 -0.1213 -1.1545
 1818SOL    HW217088   2.867   4.177   5.425  0.4750  1.1036 -0.4911
 1819SOL     OW17089   0.918   1.015   3.179 -0.4096 -0.5384 -0.0982
 1819SOL    HW117090   0.871   0.993   3.099 -1.7965  2.0862  0.0117
 1819SOL    HW217091   1.007   0.992   3.150 -0.8159 -0.2998 -1.4873
 1820SOL     OW17092   1.963   4.135   8.326  0.2290 -0.0492  0.4085
 1820SOL    HW117093   2.056   4.141   8.302  0.4813 -0.6379  1.2215
 1820SOL    HW217094   1.922   4.131   8.240 -1.5005  1.0411  1.1897
 1821SOL     OW17095   1.760   3.012   6.438  0.0178 -0.1299  0.4067
 1821SOL    HW117096   1.752   2.949   6.509 -1.4423  1.0141  1.2619
 1821SOL    HW217097   1.690   2.985   6.379  2.2936 -1.7449 -1.5292
 1822SOL     OW17098   4.553   2.834   8.381 -0.0734  0.2138 -0.1403
 1822SOL    HW117099   4.648   2.828   8.395  0.1063  0.2378 -1.4157
 1822SOL    HW217100   4.531   2.751   8.340 -1.9085  0.7434 -0.2338
 1823SOL     OW17101   4.128   4.628   2.931  0.0199 -0.3484  0.2142
 1823SOL    HW117102   4.132   4.567   3.005 -2.8639 -2.2968 -1.2701
 1823SOL    HW217103   4.220   4.645   2.912  0.9040 -2.9112  2.1491
 1824SOL     OW17104   3.410   2.662   0.605 -0.4725 -0.4335 -0.0895
 1824SOL    HW117105   3.432   2.659   0.698 -2.2457  0.4367  0.3715
 1824SOL    HW217106   3.407   2.756   0.589  0.8459 -0.6308 -1.4951
 1825SOL     OW17107   2.475   3.419  15.572 -0.8594 -0.4774  0.0895
 1825SOL    HW117108   2.552   3.362  15.581  0.2869  1.1583  0.6154
 1825SOL    HW217109   2.508   3.508  15.579 -1.6102 -0.3107  1.5741
 1826SOL     OW17110   4.037   2.230   2.019  0.0186  0.5781  0.5036
 1826SOL    HW117111   3.955   2.225   2.068  1.0584  0.0860  2.1939
 1826SOL    HW217112   4.012   2.192   1.935  1.6184 -0.9200  0.7043
 1827SOL     OW17113   4.663   3.580   7.370 -0.2656 -0.0547 -0.6195
 1827SOL    HW117114   4.667   3.587   7.274  0.4236  0.9396 -0.5252
 1827SOL    HW217115   4.569   3.565   7.384 -0.5755 -0.5938 -3.1630
 1828SOL     OW17116   3.721   1.603  15.283 -0.5275 -0.0918  0.3128
 1828SOL    HW117117   3.708   1.558  15.199  1.2492  1.2870 -0.7049
 1828SOL    HW217118   3.708   1.533  15.347  1.7000 -2.2458 -1.5952
 1829SOL     OW17119   3.473   2.191   8.644  0.2138 -0.2877 -0.5060
 1829SOL    HW117120   3.489   2.128   8.574 -2.1444  1.2040 -2.3936
 1829SOL    HW217121   3.564   2.187   8.675  0.2257  1.1336 -0.3338
 1830SOL     OW17122   0.918   2.213   1.896 -0.5278 -0.0695  0.0020
 1830SOL    HW117123   1.011   2.218   1.921 -0.5409 -1.2511  0.2890
 1830SOL    HW217124   0.924   2.244   1.805 -0.0954  0.1386  0.0982
 1831SOL     OW17125   4.249   1.891   7.333 -0.2511 -0.4352  0.4760
 1831SOL    HW117126   4.304   1.882   7.255  1.5220 -0.4327  1.7252
 1831SOL    HW217127   4.196   1.813   7.319 -1.1932  0.7215 -2.5722
 1832SOL     OW17128   3.815   4.498  14.212 -0.3484 -0.4537  0.3716
 1832SOL    HW117129   3.883   4.433  14.232  0.7052 -0.0796 -1.9860
 1832SOL    HW217130   3.766   4.467  14.136 -1.8707  2.3060  0.2249
 1833SOL     OW17131   4.243   3.272   2.853 -0.0883  0.1463 -0.0921
 1833SOL    HW117132   4.172   3.280   2.918 -0.2689  1.5277 -0.4614
 1833SOL    HW217133   4.265   3.180   2.865  0.6420  0.6158  2.2046
 1834SOL     OW17134   2.485   0.040   9.258  0.8151 -1.0881 -0.6746
 1834SOL    HW117135   2.413   4.720   9.226 -0.4297  1.1501 -1.7297
 1834SOL    HW217136   2.549   4.717   9.300 -0.8158 -1.7604  0.9013
 1835SOL     OW17137   0.370   1.201   6.863 -0.2255  0.5207  0.0072
 1835SOL    HW117138   0.422   1.281   6.866  0.4792  0.0674 -0.2040
 1835SOL    HW217139   0.429   1.163   6.798  0.6353  0.7968  0.6296
 1836SOL     OW17140   1.664   3.800  17.103  0.1384 -0.6279 -0.2601
 1836SOL    HW117141   1.739   3.855  17.079 -0.2388 -0.6084 -1.4139
 1836SOL    HW217142   1.622   3.801  17.017 -1.3738 -1.9839  0.4630
 1837SOL     OW17143   1.436   0.039   9.652  0.4321 -0.0503  0.1621
 1837SOL    HW117144   1.459   0.131   9.656 -0.5520  0.1611  1.1450
 1837SOL    HW217145   1.444   0.023   9.558  1.9583 -1.4424  0.5237
 1838SOL     OW17146   3.659   4.053   7.475  0.1000 -0.0469 -0.3661
 1838SOL    HW117147   3.670   4.004   7.394  0.6950  1.0721 -0.9563
 1838SOL    HW217148   3.619   4.134   7.441 -1.5076 -1.3110 -1.4822
 1839SOL     OW17149   1.052   2.559   6.269 -0.6185 -0.2591  0.6722
 1839SOL    HW117150   0.999   2.561   6.349 -0.1236 -0.0202  0.9942
 1839SOL    HW217151   1.034   2.645   6.230  0.4859 -0.6701 -0.7080
 1840SOL     OW17152   0.294   3.027  11.719 -0.6362 -0.1882  0.1523
 1840SOL    HW117153   0.210   2.982  11.706  0.4097 -2.2210  0.3092
 1840SOL    HW217154   0.261   3.112  11.748 -1.4486  0.7186 -3.4523
 1841SOL     OW17155   0.434   2.124   7.894 -0.2497 -0.0321 -0.0759
 1841SOL    HW117156   0.413   2.127   7.987  0.6922  0.7690  0.1054
 1841SOL    HW217157   0.352   2.169   7.873 -0.3788 -0.5452 -0.6477
 1842SOL     OW17158   2.034   4.501   1.646  0.0537  0.0227 -0.2599
 1842SOL    HW117159   1.967   4.535   1.704  2.3744  0.4874  2.1359
 1842SOL    HW217160   1.998   4.416   1.621  1.3286 -0.8387  0.8707
 1843SOL     OW17161   1.514   0.494   8.043 -0.4316 -0.4307 -0.4664
 1843SOL    HW117162   1.441   0.507   8.104  0.3151 -0.7452  0.4917
 1843SOL    HW217163   1.465   0.493   7.961 -1.4300 -1.7214  0.1456
 1844SOL     OW17164   0.206   0.743   4.450 -0.4382  0.0292  0.1194
 1844SOL    HW117165   0.223   0.777   4.538 -0.8610  2.5932 -0.7930
 1844SOL    HW217166   0.124   0.790   4.435 -0.7341  0.0962  1.9131
 1845SOL     OW17167   4.448   3.602  14.851 -1.0358 -0.2535 -0.2806
 1845SOL    HW117168   4.471   3.579  14.761  0.8690 -0.8790  0.3796
 1845SOL    HW217169   4.461   3.697  14.856 -3.2361 -0.0105  0.9623
 1846SOL     OW17170   1.500   1.578   7.920 -0.3100 -0.1709 -0.0206
 1846SOL    HW117171   1.463   1.603   8.004  1.3070  0.2849  0.5661
 1846SOL    HW217172   1.478   1.656   7.870 -2.5306  0.0255  1.3053
 1847SOL     OW17173   0.394   3.054   5.323 -0.3599 -0.0936 -0.1811
 1847SOL    HW117174   0.433   3.093   5.401 -2.2447 -0.2126  0.8472
 1847SOL    HW217175   0.423   2.964   5.317 -0.8341 -0.2402 -0.3090
 1848SOL     OW17176   4.364   0.191   8.251  0.2770 -0.2896 -0.5911
 1848SOL    HW117177   4.357   0.263   8.188 -2.4012 -0.6442 -0.7014
 1848SOL    HW217178   4.449   0.206   8.292  1.3187 -0.3516 -2.7093
 1849SOL     OW17179   4.610   2.365   5.123 -0.3396  0.3278  0.3273
 1849SOL    HW117180   4.655   2.321   5.051 -2.1923 -1.3281  0.1715
 1849SOL    HW217181   4.519   2.349   5.097  0.3803  0.5750 -2.3147
 1850SOL     OW17182   1.725   0.869  16.506 -0.4731 -0.3823  0.0096
 1850SOL    HW117183   1.792   0.893  16.442  0.5646  1.2328  1.7032
 1850SOL    HW217184   1.645   0.863  16.454  0.8279  1.6480 -2.2114
 1851SOL     OW17185   4.115   3.371  14.262 -0.0319 -0.5197  0.7434
 1851SOL    HW117186   4.090   3.294  14.314 -3.8449  0.1110 -0.1895
 1851SOL    HW217187   4.036   3.369  14.208 -0.3546 -2.1125  1.2513
 1852SOL     OW17188   0.468   4.619   0.645 -0.5406  0.3020 -0.2725
 1852SOL    HW117189   0.474   4.637   0.551 -0.6327  1.2173 -0.1010
 1852SOL    HW217190   0.450   4.706   0.682  2.0843  1.0318 -0.7343
 1853SOL     OW17191   2.227   3.184  15.171  0.4850  0.6361 -0.2833
 1853SOL    HW117192   2.207   3.256  15.111  0.6364  2.1015  1.4335
 1853SOL    HW217193   2.173   3.116  15.130 -0.2458 -0.9564  3.2448
 1854SOL     OW17194   2.555   0.177   7.283  0.3812 -0.1535 -0.4798
 1854SOL    HW117195   2.586   0.250   7.229 -0.1756  0.5965  0.2110
 1854SOL    HW217196   2.460   0.178   7.292  0.4193  0.2423 -0.1116
 1855SOL     OW17197   4.085   2.921   7.749 -0.0172  0.6152 -0.0545
 1855SOL    HW117198   4.130   2.984   7.692  1.1079  1.1173  1.3704
 1855SOL    HW217199   4.000   2.919   7.705  2.0043 -0.4125 -3.9262
 1856SOL     OW17200   1.444   2.030   4.625  0.3581  0.3220  0.4804
 1856SOL    HW117201   1.501   1.983   4.565 -0.7153 -0.1969 -0.1369
 1856SOL    HW217202   1.384   2.084   4.573 -1.8190 -0.9730  1.6300
 1857SOL     OW17203   3.977   3.176   1.764 -0.3689  0.3896 -0.0781
 1857SOL    HW117204   4.007   3.138   1.847 -3.0568  0.4081  0.8924
 1857SOL    HW217205   4.058   3.162   1.714 -1.4233 -2.2535 -1.0481
 1858SOL     OW17206   2.840   3.287   1.814 -0.2936  0.7846  0.0609
 1858SOL    HW117207   2.908   3.249   1.869 -0.8567 -0.5327 -0.1588
 1858SOL    HW217208   2.761   3.250   1.853  0.4079 -0.8325 -0.0625
 1859SOL     OW17209   0.442   1.636   3.598  0.0844  0.5346  0.3097
 1859SOL    HW117210   0.520   1.611   3.547 -0.7339 -0.1812 -0.5902
 1859SOL    HW217211   0.396   1.552   3.603 -1.5732  1.2447 -3.5298
 1860SOL     OW17212   3.999   2.548  13.524 -0.4250 -0.1943  0.2387
 1860SOL    HW117213   3.940   2.603  13.472  1.1916  1.0236 -0.3171
 1860SOL    HW217214   3.940   2.508  13.588 -2.5406  1.9391 -0.3636
 1861SOL     OW17215   0.234   1.721  14.784  0.2355  0.0647  0.3266
 1861SOL    HW117216   0.196   1.653  14.729  0.6758 -0.4819  0.7083
 1861SOL    HW217217   0.327   1.701  14.790  1.0404  3.6488 -0.0173
 1862SOL     OW17218   3.955   1.477  11.537 -0.6446  0.0649  0.3028
 1862SOL    HW117219   3.973   1.541  11.607  1.6476  0.2537 -0.4878
 1862SOL    HW217220   3.931   1.536  11.466  0.0898 -0.6389 -0.5166
 1863SOL     OW17221   4.628   4.584  11.643 -0.3271  0.2931  0.2261
 1863SOL    HW117222   4.547   4.554  11.603  0.7869  0.1268 -1.9273
 1863SOL    HW217223   4.605   4.612  11.731  2.0474  3.1348 -0.0614
 1864SOL     OW17224   0.234   2.442   3.140  0.6197  0.5534  0.2294
 1864SOL    HW117225   0.153   2.482   3.109 -0.4454 -2.2684 -0.5873
 1864SOL    HW217226   0.215   2.350   3.121 -0.5897  0.9307 -0.3714
 1865SOL     OW17227   1.850   2.819   3.549  0.7550 -0.6224 -0.2226
 1865SOL    HW117228   1.883   2.872   3.621  1.5186  1.1341 -1.8779
 1865SOL    HW217229   1.763   2.789   3.576  0.8073 -0.3717  0.2170
 1866SOL     OW17230   0.126   0.606   3.556  0.3830 -0.0196 -0.4067
 1866SOL    HW117231   0.145   0.699   3.544  0.3517 -0.1673 -1.6447
 1866SOL    HW217232   0.151   0.578   3.467 -0.3530 -0.6677 -0.4035
 1867SOL     OW17233   0.040   1.488  12.436 -0.0517 -0.1359  0.3822
 1867SOL    HW117234   4.705   1.454  12.380  0.6689  1.1702 -1.2942
 1867SOL    HW217235   0.052   1.572  12.391 -1.8538  0.0525  0.2790
 1868SOL     OW17236   4.151   4.489   3.376 -0.2550 -0.5389  0.2764
 1868SOL    HW117237   4.218   4.427   3.406  1.0836  1.2703  1.0071
 1868SOL    HW217238   4.088   4.494   3.448 -1.4340 -2.6713 -0.5866
 1869SOL     OW17239   3.711   3.747   4.671 -0.1893  0.5268  0.5231
 1869SOL    HW117240   3.688   3.840   4.668 -0.3460  0.5245  1.5746
 1869SOL    HW217241   3.805   3.741   4.652 -0.0490  1.3674  0.9738
 1870SOL     OW17242   3.722   3.805   8.960  0.3115  0.1923 -0.4542
 1870SOL    HW117243   3.630   3.825   8.976  0.4934  0.6497  0.0095
 1870SOL    HW217244   3.758   3.881   8.912 -2.3265  0.8941 -1.3371
 1871SOL     OW17245   2.883   2.131   3.991  0.3132 -0.2856 -0.3614
 1871SOL    HW117246   2.940   2.150   4.065 -0.3101  0.4712 -0.0810
 1871SOL    HW217247   2.806   2.095   4.036 -0.0399  0.7895 -0.1154
 1872SOL     OW17248   0.865   0.539   6.481  0.1064  0.3351  0.6401
 1872SOL    HW117249   0.838   0.451   6.507 -1.8111  0.6884 -0.1581
 1872SOL    HW217250   0.850   0.587   6.562 -1.5929 -2.7034  2.1376
 1873SOL     OW17251   2.219   0.445   4.179  0.1956  0.6971  0.0835
 1873SOL    HW117252   2.170   0.522   4.149 -0.5146  0.0011 -0.5540
 1873SOL    HW217253   2.290   0.436   4.116 -2.0337  0.3045 -2.4064
 1874SOL     OW17254   0.756   3.612   7.751 -0.0103  0.6553 -0.5309
 1874SOL    HW117255   0.675   3.568   7.725 -0.2475  1.6544 -1.4365
 1874SOL    HW217256   0.741   3.704   7.735  0.7545  1.2647  2.1018
 1875SOL     OW17257   2.060   0.505  12.561  0.2961 -0.5191 -0.3387
 1875SOL    HW117258   2.088   0.496  12.470 -2.6116  1.2949 -1.4154
 1875SOL    HW217259   1.996   0.572  12.539  0.2077  0.0547  1.6249
 1876SOL     OW17260   2.108   1.087   6.594 -0.0052  0.1161 -0.2794
 1876SOL    HW117261   2.147   1.091   6.681 -1.9201 -1.5462  0.6713
 1876SOL    HW217262   2.028   1.138   6.609 -0.0655  0.5238 -1.9037
 1877SOL     OW17263   4.558   3.050  13.397  0.5727 -0.1958 -0.0219
 1877SOL    HW117264   4.512   3.068  13.480  1.0752 -0.3636  0.2942
 1877SOL    HW217265   4.642   3.090  13.418  0.5172  0.5285 -1.2061
 1878SOL     OW17266   0.010   2.764   2.002 -0.1021 -0.9542  0.4988
 1878SOL    HW117267   0.068   2.827   2.046 -0.2349 -0.8532  0.5290
 1878SOL    HW217268   0.056   2.751   1.919 -0.3123 -1.8708  0.5349
 1879SOL     OW17269   0.440   0.311   6.587 -0.0874  0.3883 -0.3737
 1879SOL    HW117270   0.456   0.272   6.501  0.0726 -0.3512 -0.0040
 1879SOL    HW217271   0.518   0.301   6.641 -0.5605 -0.9485  0.0409
 1880SOL     OW17272   3.957   3.963   6.069 -0.7927 -0.0543  0.0825
 1880SOL    HW117273   4.005   4.042   6.046  1.6525 -1.8932 -1.1001
 1880SOL    HW217274   3.940   3.964   6.163  0.1844  1.2494  0.2443
 1881SOL     OW17275   1.481   0.083   1.525  0.4775 -0.0761 -0.6592
 1881SOL    HW117276   1.440   0.053   1.444 -1.4986  0.5761  0.1106
 1881SOL    HW217277   1.541   0.141   1.478  2.1623 -1.0469  0.2775
 1882SOL     OW17278   3.755   4.511   2.930 -0.0482  0.2808  0.4155
 1882SOL    HW117279   3.775   4.448   3.000 -2.0651 -1.6651 -0.7483
 1882SOL    HW217280   3.820   4.581   2.931  0.8545 -0.5492  0.3947
 1883SOL     OW17281   3.300   1.785  16.285  0.1352  0.0057  0.6103
 1883SOL    HW117282   3.311   1.818  16.195  0.3917 -1.1892  0.2003
 1883SOL    HW217283   3.221   1.734  16.268 -0.0930  0.2512  0.9229
 1884SOL     OW17284   2.603   0.044  12.137 -0.5788 -0.3844  0.0935
 1884SOL    HW117285   2.562   0.129  12.158  0.5994  0.1458  0.2760
 1884SOL    HW217286   2.599   0.044  12.042 -0.3546  0.5486  0.0845
 1885SOL     OW17287   0.330   2.429   3.718 -0.0907  0.5032  1.0390
 1885SOL    HW117288   0.294   2.480   3.791  1.9485  0.7564  1.8700
 1885SOL    HW217289   0.281   2.348   3.731  1.5131 -0.7331 -0.7003
 1886SOL     OW17290   4.606   4.118   2.631 -0.3546 -0.5369  0.4192
 1886SOL    HW117291   4.700   4.101   2.623 -0.0843  0.1423  2.1134
 1886SOL    HW217292   4.585   4.069   2.711  0.0572  1.0588  1.5060
 1887SOL     OW17293   1.477   1.713   5.318 -0.4681  0.7594  0.4221
 1887SOL    HW117294   1.534   1.669   5.381 -2.5335 -2.2423  0.1905
 1887SOL    HW217295   1.533   1.779   5.276  0.7308 -0.7132 -0.2929
 1888SOL     OW17296   2.163   4.417   2.202  0.1523 -0.1530  0.2531
 1888SOL    HW117297   2.196   4.505   2.219 -1.9386  1.2360 -2.8605
 1888SOL    HW217298   2.182   4.410   2.108 -1.6777  1.6542 -0.2482
 1889SOL     OW17299   1.089   0.387   7.323  0.6007  0.0481 -0.2472
 1889SOL    HW117300   1.099   0.482   7.327 -0.9335  0.0776  2.5677
 1889SOL    HW217301   1.179   0.360   7.340  0.8223  1.1751  0.3966
 1890SOL     OW17302   2.290   1.634   7.658  0.0677 -0.4939  0.3210
 1890SOL    HW117303   2.328   1.602   7.576 -0.5131  0.2174 -0.2265
 1890SOL    HW217304   2.205   1.590   7.661  0.4687 -1.1767  1.6645
 1891SOL     OW17305   3.291   4.064   5.050 -0.1761 -0.5351  0.1850
 1891SOL    HW117306   3.316   3.987   5.102 -1.9183 -0.6795  0.7980
 1891SOL    HW217307   3.196   4.076   5.053  0.0244  1.2388 -1.1877
 1892SOL     OW17308   1.398   2.394   1.527  0.0922 -0.3683  0.7953
 1892SOL    HW117309   1.402   2.451   1.605  1.7741  0.4682  0.1154
 1892SOL    HW217310   1.491   2.372   1.523  0.6076  2.1704 -1.6636
 1893SOL     OW17311   3.948   2.060   9.234  0.0331 -0.7860 -0.4098
 1893SOL    HW117312   4.008   2.099   9.297 -0.4760 -0.1855 -0.2946
 1893SOL    HW217313   3.911   2.131   9.181 -0.3969 -0.4572  0.3251
 1894SOL     OW17314   1.974   2.895  11.751 -0.0472  0.2464 -0.0651
 1894SOL    HW117315   2.032   2.868  11.822 -0.1243  1.1233  0.3336
 1894SOL    HW217316   1.930   2.970  11.793  0.4747 -0.4247  1.6623
 1895SOL     OW17317   4.347   4.280   9.807  0.1988  0.2648  0.0561
 1895SOL    HW117318   4.344   4.346   9.876 -2.8526  0.6278 -0.4405
 1895SOL    HW217319   4.301   4.209   9.853 -2.3138  2.5954  1.1580
 1896SOL     OW17320   2.445   2.387  15.406  0.3614  0.2408 -0.3361
 1896SOL    HW117321   2.527   2.383  15.357  1.5923 -1.0712  1.8377
 1896SOL    HW217322   2.396   2.314  15.367 -0.2285  1.1981 -1.3725
 1897SOL     OW17323   1.882   3.162  12.765 -0.1456 -0.2683  0.1928
 1897SOL    HW117324   1.851   3.231  12.707  0.0077 -1.9985 -1.9358
 1897SOL    HW217325   1.936   3.119  12.699  0.6727  2.1629 -0.7424
 1898SOL     OW17326   2.619   3.315  17.316  0.5847 -0.2859  0.0180
 1898SOL    HW117327   2.570   3.354  17.243 -2.9822  0.5413  2.8840
 1898SOL    HW217328   2.631   3.386  17.378  0.1620  1.0231 -1.4173
 1899SOL     OW17329   3.715   2.010   6.504 -0.0586  0.0086 -0.3709
 1899SOL    HW117330   3.700   1.916   6.507 -1.3301  0.1807 -1.1528
 1899SOL    HW217331   3.633   2.034   6.549  0.0468  1.7457 -1.0832
 1900SOL     OW17332   1.844   1.978   1.083 -0.3596 -0.1569 -0.1773
 1900SOL    HW117333   1.797   2.032   1.019 -1.7556  1.1811  1.9805
 1900SOL    HW217334   1.927   2.023   1.100 -1.6783  1.9280  0.7023
 1901SOL     OW17335   0.374   2.486  16.122  0.0713  0.2760  0.4013
 1901SOL    HW117336   0.413   2.430  16.190  1.0046  0.6624  0.1893
 1901SOL    HW217337   0.316   2.417  16.092  1.5635 -1.4274  1.3637
 1902SOL     OW17338   4.686   3.968   8.066  0.1958  0.4549  0.5957
 1902SOL    HW117339   4.730   3.966   8.151  1.6522  1.5748 -0.1316
 1902SOL    HW217340   0.024   3.938   8.011  0.4948  0.4380  0.9988
 1903SOL     OW17341   4.005   0.103  10.936 -0.0940 -0.0040  0.2600
 1903SOL    HW117342   3.950   0.026  10.930 -1.4345  0.8996  0.9648
 1903SOL    HW217343   3.938   0.169  10.951 -0.7953 -0.4824 -0.8518
 1904SOL     OW17344   0.064   1.400  11.891 -0.3592 -0.3221 -0.8083
 1904SOL    HW117345   4.718   1.360  11.860 -0.0932 -3.4334  2.4717
 1904SOL    HW217346   0.094   1.432  11.806  0.5100 -0.2037 -0.4593
 1905SOL     OW17347   0.974   0.092   7.580  0.5313 -0.2644  0.3456
 1905SOL    HW117348   0.918   0.152   7.629  1.2040  0.9713 -0.3973
 1905SOL    HW217349   0.915   0.047   7.520 -1.6181  0.1605  2.1415
 1906SOL     OW17350   2.267   4.535   9.721  0.0448  0.1209  0.0564
 1906SOL    HW117351   2.297   4.607   9.666  0.2509 -0.2518 -0.3260
 1906SOL    HW217352   2.249   4.578   9.804  0.8838  2.0470 -0.7623
 1907SOL     OW17353   0.556   4.444   1.146  0.4537  0.4153 -0.5260
 1907SOL    HW117354   0.526   4.481   1.063  1.1057 -0.7930 -1.2963
 1907SOL    HW217355   0.624   4.383   1.117 -0.9714 -0.9830 -0.9838
 1908SOL     OW17356   0.583   4.020   0.830 -0.2512  0.1881 -0.1943
 1908SOL    HW117357   0.572   4.000   0.737 -1.4697  2.1080 -0.4658
 1908SOL    HW217358   0.624   4.107   0.823  1.1029 -0.4572 -0.2012
 1909SOL     OW17359   2.235   3.137  13.523  0.2898 -0.1159 -0.0894
 1909SOL    HW117360   2.278   3.127  13.439 -0.2927 -0.7581 -0.3153
 1909SOL    HW217361   2.176   3.061  13.530 -0.2843  0.3451  0.1333
 1910SOL     OW17362   4.335   4.034   5.486 -0.1990  0.4591 -0.7671
 1910SOL    HW117363   4.340   3.980   5.565 -0.5006 -2.4936 -2.7579
 1910SOL    HW217364   4.241   4.046   5.495 -0.4165 -1.4638 -0.3500
 1911SOL     OW17365   0.174   3.069   2.470 -0.0613 -0.0556  0.1143
 1911SOL    HW117366   0.163   3.146   2.415  3.5706 -0.5133 -1.2377
 1911SOL    HW217367   0.205   3.005   2.406 -1.3860 -0.1859 -0.3918
 1912SOL     OW17368   3.184   1.884   8.995 -0.2878 -0.3218 -0.4009
 1912SOL    HW117369   3.223   1.926   9.072  1.7120  0.0922 -1.6490
 1912SOL    HW217370   3.098   1.926   9.006 -1.5282 -3.2745  1.3219
 1913SOL     OW17371   0.771   2.125   8.268 -0.0258 -0.3761 -0.1614
 1913SOL    HW117372   0.716   2.159   8.197  1.5405  0.2069 -1.0857
 1913SOL    HW217373   0.853   2.112   8.221 -1.0806 -1.3911 -1.7208
 1914SOL     OW17374   2.095   3.921  11.638 -0.1117 -0.5594 -0.5224
 1914SOL    HW117375   2.110   4.014  11.622 -2.9075 -0.0088  0.1009
 1914SOL    HW217376   2.074   3.894  11.548 -0.1609 -0.0519 -0.6625
 1915SOL     OW17377   2.079   3.937   2.559 -0.0028 -0.4128  0.0033
 1915SOL    HW117378   2.167   3.906   2.583 -0.4438 -1.5136  0.1930
 1915SOL    HW217379   2.073   4.008   2.624  0.1882 -0.5329  0.1525
 1916SOL     OW17380   1.544   0.565   5.719  0.0575  0.3187  0.4197
 1916SOL    HW117381   1.598   0.556   5.797  0.9548  2.0415 -0.0203
 1916SOL    HW217382   1.590   0.515   5.651  0.8255  2.1422 -0.3889
 1917SOL     OW17383   3.551   2.142  13.461 -0.1017  0.4379 -0.3668
 1917SOL    HW117384   3.633   2.093  13.464 -1.2762 -1.6393 -1.8558
 1917SOL    HW217385   3.506   2.110  13.539  0.8891 -0.3975 -0.1340
 1918SOL     OW17386   3.817   4.190   8.964 -0.3119  0.0831 -0.7236
 1918SOL    HW117387   3.823   4.226   9.053  0.1737 -3.0547  0.4890
 1918SOL    HW217388   3.888   4.126   8.964 -0.6768 -0.3171 -0.9254
 1919SOL     OW17389   1.917   1.794   6.886 -0.9832  0.1381  0.0898
 1919SOL    HW117390   1.988   1.773   6.947 -1.0994 -1.2061 -0.2308
 1919SOL    HW217391   1.859   1.842   6.944 -0.3836  0.0309  0.7842
 1920SOL     OW17392   0.462   3.453   3.590 -0.4090 -0.3350  0.1573
 1920SOL    HW117393   0.450   3.547   3.598 -0.6425 -0.4449  1.1661
 1920SOL    HW217394   0.370   3.427   3.603  0.3009 -1.7464  2.4343
 1921SOL     OW17395   2.720   2.527   4.104  0.1688  0.2103  0.6660
 1921SOL    HW117396   2.663   2.504   4.030 -1.0105  2.8111  0.7826
 1921SOL    HW217397   2.732   2.442   4.146 -0.3056 -0.2751 -0.1911
 1922SOL     OW17398   2.895   1.047   6.813  0.0312  0.3209  0.1505
 1922SOL    HW117399   2.946   0.988   6.868 -0.0563  0.1112  0.0068
 1922SOL    HW217400   2.830   1.071   6.879  0.3816 -0.6272  0.8238
 1923SOL     OW17401   4.116   2.223   2.398 -0.3731 -0.0651 -0.2514
 1923SOL    HW117402   4.180   2.275   2.351  1.4315 -0.2559  2.0251
 1923SOL    HW217403   4.130   2.129   2.387  1.5771 -0.0912  2.5572
 1924SOL     OW17404   1.040   0.975   2.406  0.1596  0.3109 -0.1190
 1924SOL    HW117405   0.968   0.925   2.368 -1.1485  1.0981  1.3463
 1924SOL    HW217406   1.061   1.036   2.336 -0.7338 -0.3481 -0.9605
 1925SOL     OW17407   2.730   0.236   2.169 -0.2198 -0.2988 -0.0574
 1925SOL    HW117408   2.674   0.164   2.142 -0.6157  0.7614 -2.0124
 1925SOL    HW217409   2.668   0.307   2.157  0.3670  0.1230 -0.6022
 1926SOL     OW17410   0.909   3.958  15.202  0.6839  0.5056 -0.0157
 1926SOL    HW117411   0.932   3.931  15.291 -0.4085 -1.4086 -0.3161
 1926SOL    HW217412   0.996   3.953  15.163  0.8786  1.0769  0.3629
 1927SOL     OW17413   1.445   3.721   7.463 -0.2887 -0.3000  0.2000
 1927SOL    HW117414   1.436   3.814   7.483 -0.3622 -0.1873 -0.3529
 1927SOL    HW217415   1.389   3.685   7.532 -0.1443  2.5370  1.8148
 1928SOL     OW17416   3.871   1.492   8.422 -0.1422 -0.7031  0.2824
 1928SOL    HW117417   3.916   1.499   8.506  1.6590 -0.4566 -0.7096
 1928SOL    HW217418   3.834   1.404   8.429  1.1539 -1.0076  2.8591
 1929SOL     OW17419   2.293   4.690  10.850 -0.5776 -0.0355 -0.2295
 1929SOL    HW117420   2.319   4.598  10.860 -3.6131 -0.8572  0.2737
 1929SOL    HW217421   2.325   4.718  10.936 -0.5569  2.0071 -0.9145
 1930SOL     OW17422   0.479   4.519   0.914  0.2658 -0.3172 -0.5131
 1930SOL    HW117423   0.413   4.456   0.886 -2.3419  0.8271  3.0990
 1930SOL    HW217424   0.493   4.561   0.829 -1.4456  0.2865 -0.5053
 1931SOL     OW17425   1.454   3.947   5.199 -0.4082  0.8756  0.4830
 1931SOL    HW117426   1.393   3.902   5.141 -0.1978  1.1422  0.0572
 1931SOL    HW217427   1.439   4.038   5.173 -0.4044  0.6178 -0.4328
 1932SOL     OW17428   3.763   1.383   4.771  0.3276 -0.4892 -0.1612
 1932SOL    HW117429   3.727   1.311   4.719 -0.5432  0.8361 -1.3968
 1932SOL    HW217430   3.686   1.417   4.817  0.9870 -1.9566  2.0517
 1933SOL     OW17431   0.787   0.496   1.854 -0.2049 -0.3995 -0.0625
 1933SOL    HW117432   0.803   0.576   1.804 -3.0293  0.5678  0.5553
 1933SOL    HW217433   0.855   0.434   1.827  0.8421  1.5870 -1.9486
 1934SOL     OW17434   0.778   4.242   0.343  0.2393  0.1026  0.0905
 1934SOL    HW117435   0.829   4.196   0.410  1.2560  0.4101 -0.4734
 1934SOL    HW217436   0.848   4.268   0.283 -0.8029  0.4657 -0.9842
 1935SOL     OW17437   0.819   0.836   5.776 -0.1072  0.0079  0.7674
 1935SOL    HW117438   0.779   0.882   5.850 -1.0008  0.4915 -0.0176
 1935SOL    HW217439   0.912   0.856   5.792 -1.0170  3.4139  1.9429
 1936SOL     OW17440   3.822   2.221   0.170 -0.3297 -0.0882  0.0782
 1936SOL    HW117441   3.879   2.297   0.178 -2.3694  1.6156 -1.7452
 1936SOL    HW217442   3.740   2.256   0.205 -0.8454 -0.5883 -0.6134
 1937SOL     OW17443   2.141   0.026  11.659  0.4184  0.3416 -0.0664
 1937SOL    HW117444   2.235   0.017  11.672 -0.2951 -0.8044  4.2279
 1937SOL    HW217445   2.108   0.062  11.742 -0.7251  0.0447 -0.3861
 1938SOL     OW17446   3.069   0.813   3.771  0.2477  0.1074  0.5459
 1938SOL    HW117447   3.117   0.763   3.705 -0.4706  0.3133 -0.1328
 1938SOL    HW217448   2.984   0.816   3.728  1.8656  2.5972 -2.3707
 1939SOL     OW17449   3.802   0.907  16.063 -0.4685 -0.3767  0.1410
 1939SOL    HW117450   3.846   0.824  16.078  0.0355 -0.1648 -0.1941
 1939SOL    HW217451   3.839   0.956  16.137  1.1144  1.3805 -1.8094
 1940SOL     OW17452   3.365   2.424   5.535 -0.0245 -0.2687 -0.6119
 1940SOL    HW117453   3.310   2.494   5.569  2.4179  1.4578 -0.2545
 1940SOL    HW217454   3.298   2.361   5.506  0.9954 -0.9746 -1.4402
 1941SOL     OW17455   2.234   4.132  10.061 -0.4704  0.0563 -0.7263
 1941SOL    HW117456   2.153   4.154  10.107  0.9685  0.1766  1.7355
 1941SOL    HW217457   2.228   4.201   9.995  1.3000  0.7997 -0.1103
 1942SOL     OW17458   3.432   1.063  13.221 -0.2617  0.1853  0.3029
 1942SOL    HW117459   3.405   1.108  13.301  2.5120  1.2026  0.6823
 1942SOL    HW217460   3.449   0.976  13.256 -0.2944  0.3063  0.6221
 1943SOL     OW17461   2.864   1.773  11.328 -0.1979 -0.3308  0.2568
 1943SOL    HW117462   2.850   1.685  11.362  0.8468 -1.2913 -1.7995
 1943SOL    HW217463   2.917   1.817  11.394 -2.1731 -1.0611  2.3315
 1944SOL     OW17464   0.896   3.639  16.340  0.0487  0.1557  0.0792
 1944SOL    HW117465   0.881   3.671  16.251 -1.7452  1.8103  0.9637
 1944SOL    HW217466   0.867   3.715  16.391  0.5253  0.9281 -0.7815
 1945SOL     OW17467   3.942   2.587   7.167  0.4902 -0.0854 -0.1071
 1945SOL    HW117468   3.945   2.554   7.077  2.5247  0.1350 -0.1213
 1945SOL    HW217469   3.993   2.667   7.156  0.9803 -0.7183 -2.3669
 1946SOL     OW17470   4.067   1.715   7.253 -0.1655  0.9720  0.0337
 1946SOL    HW117471   4.031   1.665   7.325 -2.2194 -0.3162 -1.8840
 1946SOL    HW217472   4.046   1.656   7.181 -1.2370  0.7137  0.5743
 1947SOL     OW17473   0.024   2.493  16.309  0.3789 -0.2926 -0.1483
 1947SOL    HW117474   4.716   2.433  16.247  1.1295 -1.5656  0.5572
 1947SOL    HW217475   0.009   2.580  16.271  0.6367 -0.2178 -0.0783
 1948SOL     OW17476   4.446   2.222   2.289 -0.0418  0.3602  0.6191
 1948SOL    HW117477   4.537   2.216   2.259 -0.2931  0.6840 -0.1910
 1948SOL    HW217478   4.390   2.206   2.213  0.3900  1.8383 -0.0145
 1949SOL     OW17479   3.391   3.703  11.306  0.7908  0.1439  0.3344
 1949SOL    HW117480   3.307   3.724  11.267  1.3888  1.0891 -0.4542
 1949SOL    HW217481   3.447   3.779  11.289 -1.1596  1.0751 -1.9620
 1950SOL     OW17482   0.544   3.578   1.320 -0.6379 -0.3850  0.2961
 1950SOL    HW117483   0.518   3.557   1.231  2.2686 -0.7967 -0.4366
 1950SOL    HW217484   0.472   3.545   1.374 -1.6368 -2.1461 -2.1213
 1951SOL     OW17485   2.605   4.186   1.668 -0.0521 -0.0836 -0.0373
 1951SOL    HW117486   2.515   4.210   1.690  0.7216  0.3270  2.5758
 1951SOL    HW217487   2.610   4.091   1.682 -1.8132  0.0327  1.3462
 1952SOL     OW17488   0.419   2.756  14.852 -0.5829  0.2774  0.0543
 1952SOL    HW117489   0.377   2.672  14.834  0.2401 -0.1060 -0.0767
 1952SOL    HW217490   0.405   2.801  14.769 -0.2794  0.8911  0.3360
 1953SOL     OW17491   3.173   4.080   4.639  0.4324 -0.0032 -0.1849
 1953SOL    HW117492   3.133   4.021   4.702  0.0051 -0.7559 -1.1645
 1953SOL    HW217493   3.104   4.084   4.573  1.9826 -0.2074 -1.8304
 1954SOL     OW17494   4.706   0.856   7.370 -0.3784 -0.0852  0.0595
 1954SOL    HW117495   0.016   0.910   7.306 -1.8461  0.9749 -0.0760
 1954SOL    HW217496   0.035   0.786   7.388 -1.2489 -0.8252  0.2913
 1955SOL     OW17497   3.031   2.925   8.740  0.2433  0.4865 -0.0869
 1955SOL    HW117498   3.017   2.898   8.831 -1.3159  0.2123 -0.3935
 1955SOL    HW217499   3.005   2.846   8.692  2.8143  1.8854 -3.8020
 1956SOL     OW17500   0.388   1.170   7.134 -0.3397  0.2222  0.5491
 1956SOL    HW117501   0.344   1.251   7.159  0.3600  1.0484 -0.8868
 1956SOL    HW217502   0.378   1.159   7.039 -2.5519 -3.0369  1.1522
 1957SOL     OW17503   3.026   0.859   5.704 -0.2302  0.1113 -0.0431
 1957SOL    HW117504   2.954   0.904   5.659  0.1167  0.3659 -0.3493
 1957SOL    HW217505   3.021   0.779   5.652  0.5401  0.2356 -0.3021
 1958SOL     OW17506   1.409   2.969   2.796 -0.3601 -0.0981 -0.1441
 1958SOL    HW117507   1.412   2.873   2.795 -0.4815 -0.0642 -2.2442
 1958SOL    HW217508   1.364   2.988   2.879  0.7122  2.0215 -0.0516
 1959SOL     OW17509   2.368   0.034   5.721  0.2486  0.9929  0.6204
 1959SOL    HW117510   2.428   0.094   5.766  3.0596  0.3042 -2.1543
 1959SOL    HW217511   2.435   4.714   5.679 -0.6379 -0.6151  1.3003
 1960SOL     OW17512   2.553   3.841   8.666 -0.2533  0.2356 -0.1659
 1960SOL    HW117513   2.492   3.915   8.657 -1.4397 -0.5424  1.4166
 1960SOL    HW217514   2.585   3.832   8.576 -1.7411 -0.1561 -0.6427
 1961SOL     OW17515   2.203   3.029   8.283 -0.3744 -0.4440 -0.0182
 1961SOL    HW117516   2.125   2.987   8.318  0.5519 -1.5269  0.7471
 1961SOL    HW217517   2.156   3.087   8.224  1.1173  1.2636  0.4629
 1962SOL     OW17518   3.123   3.644   4.362 -0.0843 -0.3298  0.0516
 1962SOL    HW117519   3.192   3.708   4.380  1.2845 -1.9030  0.4401
 1962SOL    HW217520   3.109   3.652   4.268 -1.3398 -1.0019  0.1776
 1963SOL     OW17521   0.312   2.348  15.698 -0.0110  0.3651 -0.0646
 1963SOL    HW117522   0.267   2.315  15.776 -1.0874  0.9223 -0.4445
 1963SOL    HW217523   0.402   2.361  15.726 -0.4578 -2.6715  2.6735
 1964SOL     OW17524   2.703   2.430   2.263 -0.2067 -0.0821 -0.1265
 1964SOL    HW117525   2.761   2.506   2.254 -1.8531  1.5076  2.7162
 1964SOL    HW217526   2.682   2.411   2.172 -1.4248 -0.9488  0.3414
 1965SOL     OW17527   3.721   1.155   3.949  0.5434 -1.2528 -0.1428
 1965SOL    HW117528   3.732   1.246   3.921  0.9653 -0.9818  0.9352
 1965SOL    HW217529   3.636   1.142   3.906  0.6671 -0.7232 -0.5524
 1966SOL     OW17530   3.012   3.739   7.081  0.0102 -0.2407  0.1457
 1966SOL    HW117531   3.107   3.742   7.079 -0.0827  1.6538 -1.4179
 1966SOL    HW217532   2.996   3.783   7.165  0.6983 -0.1649  0.2312
 1967SOL     OW17533   2.662   4.342  14.238 -0.1161 -0.2031 -0.6021
 1967SOL    HW117534   2.618   4.427  14.241  0.9152  0.3343 -0.4840
 1967SOL    HW217535   2.639   4.329  14.146 -0.2990 -0.9255 -0.4540
 1968SOL     OW17536   2.666   4.590   1.822 -0.1047  0.6274 -0.8582
 1968SOL    HW117537   2.693   4.527   1.755  1.1572  0.9732 -0.6794
 1968SOL    HW217538   2.593   4.630   1.775  0.5431  1.1338 -1.4525
 1969SOL     OW17539   1.735   1.834   4.936  0.2324  0.0586 -0.0339
 1969SOL    HW117540   1.817   1.798   4.904 -0.0406 -0.4960 -0.1029
 1969SOL    HW217541   1.717   1.906   4.876 -3.4773  0.4609  1.5330
 1970SOL     OW17542   3.436   2.478   0.979  0.1609 -0.4175  1.2728
 1970SOL    HW117543   3.434   2.559   0.927  1.5900 -0.2543  1.4876
 1970SOL    HW217544   3.483   2.432   0.910  0.4766  1.4992  0.2064
 1971SOL     OW17545   1.728   3.266   6.781  0.2561  0.3517 -1.7408
 1971SOL    HW117546   1.753   3.335   6.842 -0.7281 -0.2406 -0.6559
 1971SOL    HW217547   1.669   3.225   6.844  1.6198  1.5117  0.2694
 1972SOL     OW17548   3.487   2.019   3.335 -0.3286  0.0354 -0.1603
 1972SOL    HW117549   3.423   1.948   3.340  1.1842 -1.2885 -0.0292
 1972SOL    HW217550   3.568   1.973   3.313  0.0656  0.1316  1.0873
 1973SOL     OW17551   0.147   0.616   2.879  0.3911 -0.0659 -0.4118
 1973SOL    HW117552   0.103   0.542   2.922 -0.0464  1.1573  1.2351
 1973SOL    HW217553   0.171   0.665   2.957  1.0106 -0.8211 -0.1240
 1974SOL     OW17554   4.390   1.465   5.781 -0.6728  0.1274 -0.2555
 1974SOL    HW117555   4.467   1.502   5.823 -2.1528  2.7279  0.1611
 1974SOL    HW217556   4.410   1.511   5.700 -0.5635  0.3287 -0.1137
 1975SOL     OW17557   2.998   2.511   8.974 -0.3042 -0.2917  0.2939
 1975SOL    HW117558   2.951   2.505   9.057  1.2530  0.7948  1.2368
 1975SOL    HW217559   2.935   2.502   8.903 -0.0406  1.7730 -0.1937
 1976SOL     OW17560   2.482   4.292   0.546 -0.2469 -0.3362  0.1466
 1976SOL    HW117561   2.406   4.267   0.494 -0.2830 -0.6675  0.3585
 1976SOL    HW217562   2.494   4.217   0.604  3.4014 -2.5730 -3.4845
 1977SOL     OW17563   1.448   2.404   2.127 -0.4382 -0.2582 -0.3226
 1977SOL    HW117564   1.473   2.314   2.105  1.3831 -0.8418  4.1189
 1977SOL    HW217565   1.386   2.424   2.057  0.2067 -0.3381 -0.9129
 1978SOL     OW17566   1.725   3.534   5.919  0.3168 -0.1279 -0.0030
 1978SOL    HW117567   1.768   3.577   5.845  1.0601 -2.1815 -0.7655
 1978SOL    HW217568   1.636   3.571   5.922  0.5735  0.8900 -4.7296
 1979SOL     OW17569   1.418   1.265   6.094 -0.6175  0.1354  0.4046
 1979SOL    HW117570   1.487   1.301   6.150  0.9674 -2.0058 -0.1902
 1979SOL    HW217571   1.349   1.327   6.117 -0.5340  0.9302 -1.5348
 1980SOL     OW17572   2.268   1.194   4.055  0.5771  0.6525 -0.0492
 1980SOL    HW117573   2.313   1.274   4.085  1.2054 -0.3311  1.6379
 1980SOL    HW217574   2.226   1.159   4.133 -1.1835 -2.0227 -2.2133
 1981SOL     OW17575   2.919   3.372   3.060 -0.0558 -0.1978  0.5126
 1981SOL    HW117576   2.995   3.413   3.100  1.5022 -0.1198 -2.5261
 1981SOL    HW217577   2.940   3.280   3.077  1.5198  0.1629  0.4780
 1982SOL     OW17578   2.679   1.804   8.359 -0.2999  0.1217  0.2657
 1982SOL    HW117579   2.661   1.740   8.290  1.0891  0.2120 -0.1855
 1982SOL    HW217580   2.657   1.887   8.315 -3.0688 -0.1180  1.1751
 1983SOL     OW17581   3.160   3.124   6.461  0.1069  0.3047 -0.2117
 1983SOL    HW117582   3.201   3.207   6.438  1.6517 -0.7790 -1.3472
 1983SOL    HW217583   3.117   3.101   6.378 -1.3873  3.1530 -0.2236
 1984SOL     OW17584   2.471   2.125  13.364  0.9629 -0.2716 -0.4954
 1984SOL    HW117585   2.518   2.097  13.443  1.1472  0.6056 -0.2975
 1984SOL    HW217586   2.463   2.216  13.393  0.2576  0.3692 -2.7205
 1985SOL     OW17587   2.126   0.494   2.156 -0.3525  0.9498 -0.1175
 1985SOL    HW117588   2.129   0.464   2.247  0.3117  0.0096 -0.4532
 1985SOL    HW217589   2.148   0.585   2.177 -0.8004  1.6115 -2.5237
 1986SOL     OW17590   1.511   1.437   2.743  0.4855 -0.8156 -0.3309
 1986SOL    HW117591   1.523   1.371   2.674 -0.3325 -0.2477 -1.0126
 1986SOL    HW217592   1.590   1.413   2.791  0.4127 -0.3801 -0.0005
 1987SOL     OW17593   4.484   3.312   7.938  0.2376  0.9568 -0.2106
 1987SOL    HW117594   4.458   3.401   7.918 -0.7786  0.3554 -1.5445
 1987SOL    HW217595   4.483   3.308   8.034  0.5316 -1.3409 -0.2826
 1988SOL     OW17596   1.038   1.824   5.583  0.1132 -0.2795  0.6920
 1988SOL    HW117597   1.129   1.799   5.574 -0.0960 -0.7910  0.0504
 1988SOL    HW217598   0.996   1.740   5.598 -0.2285 -0.1028  0.7325
 1989SOL     OW17599   2.327   2.238   5.846  0.1611  0.0951 -0.3179
 1989SOL    HW117600   2.372   2.195   5.774  1.0773 -1.6324  1.3099
 1989SOL    HW217601   2.406   2.276   5.884  0.3195  2.6031 -3.0663
 1990SOL     OW17602   3.712   3.690   7.051 -0.0795  0.3060 -0.0896
 1990SOL    HW117603   3.639   3.670   6.992 -1.5722  0.8108  1.5730
 1990SOL    HW217604   3.683   3.651   7.133  0.1693 -0.6686 -0.4551
 1991SOL     OW17605   0.460   0.747   4.843 -0.2912  0.2254  0.3436
 1991SOL    HW117606   0.545   0.778   4.811  0.2275  0.7498  2.2192
 1991SOL    HW217607   0.474   0.726   4.935  0.6562  1.1541  0.4133
 1992SOL     OW17608   1.599   2.637  14.958 -0.2946  1.1253  0.8555
 1992SOL    HW117609   1.568   2.642  15.048  0.9827 -1.7192  1.4445
 1992SOL    HW217610   1.528   2.586  14.921  0.6567  1.2574 -1.1629
 1993SOL     OW17611   2.877   2.640  13.546 -0.2306  0.3857  0.6273
 1993SOL    HW117612   2.856   2.568  13.487 -2.5524  0.3490  1.4954
 1993SOL    HW217613   2.795   2.688  13.556  0.2250  0.9073  1.8124
 1994SOL     OW17614   4.203   1.306   5.098 -0.2981  0.1203  0.0447
 1994SOL    HW117615   4.112   1.322   5.073 -0.1518  0.1082 -0.5016
 1994SOL    HW217616   4.188   1.251   5.175 -1.8300  1.1161  0.4556
 1995SOL     OW17617   0.556   1.467  11.011 -0.1202  0.0666 -0.0393
 1995SOL    HW117618   0.574   1.397  11.074 -0.5565  0.8070  0.9049
 1995SOL    HW217619   0.470   1.435  10.984 -0.2507  1.3724 -1.2220
 1996SOL     OW17620   2.669   4.151   1.962  0.1957 -0.7395  0.1201
 1996SOL    HW117621   2.594   4.092   1.950 -0.5480  0.2569 -0.1479
 1996SOL    HW217622   2.737   4.100   2.005  1.8810 -0.3777 -2.1039
 1997SOL     OW17623   0.652   2.749  17.174  0.1535  0.2523 -0.2027
 1997SOL    HW117624   0.620   2.712  17.092  2.5201 -1.1658 -0.4767
 1997SOL    HW217625   0.699   2.674  17.211  1.8537 -0.0907 -3.0605
 1998SOL     OW17626   1.712   0.911   9.989  0.1729  0.3242  0.1409
 1998SOL    HW117627   1.778   0.911   9.919  1.0031  1.0443  0.9133
 1998SOL    HW217628   1.694   1.005   9.994  2.0257  0.6020  1.7654
 1999SOL     OW17629   3.028   3.980  16.358 -0.4246 -0.0952  0.3739
 1999SOL    HW117630   2.947   3.994  16.310 -0.1823 -2.4407 -0.7147
 1999SOL    HW217631   3.073   4.060  16.329 -1.2173  0.4631  0.7160
 2000SOL     OW17632   4.521   1.401   3.483  0.2591  0.4151 -0.2434
 2000SOL    HW117633   4.547   1.428   3.395 -0.1200  1.3891 -0.0626
 2000SOL    HW217634   4.606   1.418   3.525 -0.0992  0.1288  0.5951
 2001SOL     OW17635   2.429   0.447   3.988 -0.0926 -0.4039  0.0647
 2001SOL    HW117636   2.426   0.422   3.895 -1.8834 -1.6255  0.4430
 2001SOL    HW217637   2.507   0.502   3.985  0.0953 -0.7638 -1.9052
 2002SOL     OW17638   4.328   3.284   7.374 -0.3722  0.1756 -0.0414
 2002SOL    HW117639   4.359   3.357   7.429  1.9056 -2.0190  1.5829
 2002SOL    HW217640   4.400   3.268   7.314 -2.0457 -2.3392 -1.3549
 2003SOL     OW17641   0.178   1.508   4.027 -0.6044  0.8218 -0.1561
 2003SOL    HW117642   0.267   1.472   4.026 -0.8569  0.1864  0.5961
 2003SOL    HW217643   0.190   1.590   3.978  1.0828 -1.1906 -3.1207
 2004SOL     OW17644   1.932   1.441   9.356 -0.6640 -0.2384  0.0189
 2004SOL    HW117645   1.840   1.465   9.370 -0.7992 -0.8002  0.1112
 2004SOL    HW217646   1.950   1.483   9.272  1.3480  1.6922  1.4346
 2005SOL     OW17647   0.486   1.387   5.476  0.2859  0.3407 -0.0152
 2005SOL    HW117648   0.560   1.378   5.537  0.9754 -0.3473 -0.9510
 2005SOL    HW217649   0.530   1.411   5.394  0.3452 -1.3377 -0.4804
 2006SOL     OW17650   3.069   4.241  12.392 -0.0177  0.8121 -0.1304
 2006SOL    HW117651   3.059   4.146  12.390 -0.2567  0.8276  0.2809
 2006SOL    HW217652   3.145   4.246  12.450  0.8763  0.8502 -1.3157
 2007SOL     OW17653   0.048   1.566  12.962  0.0349 -0.4730  0.7202
 2007SOL    HW117654   0.137   1.602  12.959 -0.2522  0.3076  1.3466
 2007SOL    HW217655   0.026   1.544  12.872 -0.8107  1.3649  0.4631
 2008SOL     OW17656   2.968   0.256   8.658  0.7018 -0.0374 -0.5800
 2008SOL    HW117657   3.057   0.234   8.629  0.9488 -0.2339  0.2984
 2008SOL    HW217658   2.972   0.352   8.652 -1.5703  0.0655 -0.2370
 2009SOL     OW17659   1.820   0.834   8.164  0.3023 -0.5742 -0.0065
 2009SOL    HW117660   1.880   0.860   8.095  1.4720 -1.7012  0.5985
 2009SOL    HW217661   1.784   0.748   8.142  0.8723 -1.0660  0.9862
 2010SOL     OW17662   3.270   3.544   1.319 -0.8951 -0.1558 -0.1488
 2010SOL    HW117663   3.278   3.637   1.339 -2.7772 -0.0815  0.2129
 2010SOL    HW217664   3.244   3.547   1.227  0.5649  1.0092 -0.5252
 2011SOL     OW17665   2.962   3.808   4.520 -0.0794 -0.3565  0.5842
 2011SOL    HW117666   2.879   3.762   4.509 -0.9312  1.5430 -0.8531
 2011SOL    HW217667   3.036   3.748   4.511  2.3128  2.7896 -0.5797
 2012SOL     OW17668   3.833   3.456  17.614 -0.1722 -0.3072  0.3582
 2012SOL    HW117669   3.847   3.536  17.564 -0.3296 -0.1146  0.6165
 2012SOL    HW217670   3.748   3.424  17.583 -0.5273  2.1012 -1.1673
 2013SOL     OW17671   3.800   1.767   2.396  0.0586 -0.1212 -0.0002
 2013SOL    HW117672   3.796   1.807   2.483 -0.9222  0.9263 -0.5190
 2013SOL    HW217673   3.881   1.717   2.400  0.2918  0.2118 -0.6442
 2014SOL     OW17674   0.645   1.630   6.585  0.3026  0.4062  0.0044
 2014SOL    HW117675   0.734   1.641   6.550  1.3037 -0.3206  2.2932
 2014SOL    HW217676   0.593   1.594   6.513 -0.8574  1.4427  0.3281
 2015SOL     OW17677   3.774   0.136   6.672 -0.2838 -0.1585  0.1776
 2015SOL    HW117678   3.737   0.060   6.627 -1.2186 -0.0868  0.8076
 2015SOL    HW217679   3.710   0.174   6.734 -0.5040 -1.9276  1.0395
 2016SOL     OW17680   3.489   0.933   8.957 -0.0767 -0.0099 -0.5629
 2016SOL    HW117681   3.441   0.984   8.892 -1.6424  0.8016  1.2614
 2016SOL    HW217682   3.574   0.977   8.952 -0.7566  1.3381 -0.0453
 2017SOL     OW17683   2.865   3.052   3.848  0.4968  1.0803 -0.0538
 2017SOL    HW117684   2.782   3.101   3.845 -0.9070 -1.1566  1.6089
 2017SOL    HW217685   2.828   2.974   3.890  0.6803  0.5539 -0.8508
 2018SOL     OW17686   4.429   3.846   4.184  0.1417 -0.1478 -0.0696
 2018SOL    HW117687   4.492   3.908   4.220 -0.1881  0.0009  0.2534
 2018SOL    HW217688   4.470   3.763   4.210  1.7783  0.9206  0.7329
 2019SOL     OW17689   3.589   2.044   9.784  0.0823  0.0032 -0.1435
 2019SOL    HW117690   3.645   1.968   9.767  1.3666  0.7120  0.8669
 2019SOL    HW217691   3.662   2.105   9.778  0.6958 -0.8348 -1.1706
 2020SOL     OW17692   0.297   3.027   9.221  0.1479  0.1362  0.0722
 2020SOL    HW117693   0.296   2.972   9.299  0.1850  0.0262 -0.0054
 2020SOL    HW217694   0.344   2.969   9.160 -0.2448  0.2673 -0.3572
 2021SOL     OW17695   1.071   4.345   3.776  0.1086  0.4194  0.3204
 2021SOL    HW117696   1.065   4.429   3.821 -1.9226 -0.4625  1.7145
 2021SOL    HW217697   0.981   4.330   3.744  0.1479  0.8035  0.0297
 2022SOL     OW17698   4.581   0.129  10.802  0.0017 -0.3432 -0.3153
 2022SOL    HW117699   4.659   0.184  10.806  0.6638 -1.2324 -0.9348
 2022SOL    HW217700   4.615   0.046  10.837 -1.1486  0.2857  2.2644
 2023SOL     OW17701   3.094   3.511   8.641 -0.1418  0.0830 -0.3919
 2023SOL    HW117702   3.067   3.593   8.598 -2.0341  0.0012  0.6730
 2023SOL    HW217703   3.081   3.521   8.735  0.1334 -1.6631 -0.1760
 2024SOL     OW17704   0.631   3.392   5.306 -0.2848 -0.4094  0.4136
 2024SOL    HW117705   0.540   3.368   5.325  0.1029 -1.7053  0.6400
 2024SOL    HW217706   0.655   3.316   5.252 -1.3071 -0.7399  0.4100
 2025SOL     OW17707   4.695   1.007   9.396  0.4905 -0.1042  0.6066
 2025SOL    HW117708   0.016   1.071   9.351 -1.6185  0.6656 -0.8691
 2025SOL    HW217709   4.710   1.031   9.488 -0.8591  0.0480  0.7894
 2026SOL     OW17710   1.135   2.371   1.446 -0.8236  0.6151  0.1638
 2026SOL    HW117711   1.108   2.444   1.390 -1.8607 -0.2579 -0.4806
 2026SOL    HW217712   1.222   2.392   1.480 -1.0092 -0.1983  1.1363
 2027SOL     OW17713   1.853   1.160   4.209 -0.2952 -0.4650  0.7765
 2027SOL    HW117714   1.835   1.217   4.283 -1.9008 -0.0350  0.0569
 2027SOL    HW217715   1.948   1.152   4.213 -0.3682  0.1721  3.5723
 2028SOL     OW17716   1.277   2.287  10.682 -0.2894 -0.5766  0.0520
 2028SOL    HW117717   1.216   2.361  10.680  0.2943 -0.0829  0.3004
 2028SOL    HW217718   1.259   2.260  10.772 -2.5669 -1.7172 -0.7538
 2029SOL     OW17719   0.189   4.410   7.039  0.0589  0.0517  0.2028
 2029SOL    HW117720   0.239   4.330   7.020 -1.0091 -0.0740 -2.0967
 2029SOL    HW217721   0.102   4.370   7.036  0.7594 -1.5261  0.5084
 2030SOL     OW17722   4.728   3.273   6.142 -0.5020 -0.2999  0.0638
 2030SOL    HW117723   0.071   3.217   6.150 -0.7277 -0.5192  0.6956
 2030SOL    HW217724   4.663   3.218   6.186 -1.3593  1.3518  0.8496
 2031SOL     OW17725   3.685   2.169   7.339  0.2662  0.3224 -0.4059
 2031SOL    HW117726   3.763   2.117   7.319 -0.3181 -0.9686  0.6226
 2031SOL    HW217727   3.665   2.216   7.258  1.5547  2.5553  0.6099
 2032SOL     OW17728   0.515   0.797   6.586  0.1177  0.6657 -0.4031
 2032SOL    HW117729   0.511   0.726   6.650  2.1526 -0.9326 -2.0740
 2032SOL    HW217730   0.481   0.764   6.502  2.4956 -1.0486 -0.6781
 2033SOL     OW17731   3.402   3.017   6.527 -0.1890 -0.1251  0.5100
 2033SOL    HW117732   3.408   2.984   6.437 -0.3189  0.3809  0.3139
 2033SOL    HW217733   3.325   3.073   6.521 -0.2428 -0.6196 -3.4209
 2034SOL     OW17734   4.142   1.318   9.292  0.2898  0.2285 -0.9678
 2034SOL    HW117735   4.076   1.368   9.244  0.6399  0.6066 -1.0591
 2034SOL    HW217736   4.204   1.388   9.313 -0.4625  0.4952  0.3261
 2035SOL     OW17737   1.582   1.883   4.438  0.3372 -0.0934  0.6098
 2035SOL    HW117738   1.545   1.794   4.438 -0.3194  0.1765 -2.0502
 2035SOL    HW217739   1.566   1.921   4.352 -2.3084  2.2045  2.1329
 2036SOL     OW17740   1.974   2.153  11.364  0.2701 -0.8109 -0.1165
 2036SOL    HW117741   1.951   2.132  11.454 -0.5744  1.0995  0.0930
 2036SOL    HW217742   1.890   2.190  11.337  0.0964 -0.6967  0.5926
 2037SOL     OW17743   1.813   4.453  16.557  0.2000  0.2690  0.2940
 2037SOL    HW117744   1.856   4.493  16.633  1.0044 -0.2061  0.0873
 2037SOL    HW217745   1.791   4.521  16.494  1.1646 -1.5629 -1.9962
 2038SOL     OW17746   1.088   4.397   5.175 -0.8073 -0.0735  0.2123
 2038SOL    HW117747   1.128   4.404   5.262 -0.8564  0.1570  0.2163
 2038SOL    HW217748   1.122   4.312   5.149 -1.3053 -0.0917 -0.3768
 2039SOL     OW17749   0.777   0.006  15.410 -0.2740  0.2068  0.4377
 2039SOL    HW117750   0.734   4.709  15.490  1.3610  0.7123  1.5100
 2039SOL    HW217751   0.857   0.049  15.440  1.3585 -2.1010 -0.5852
 2040SOL     OW17752   0.598   0.357   1.681  0.2621 -0.0532 -0.9804
 2040SOL    HW117753   0.647   0.399   1.611  0.8346  1.1794  0.1669
 2040SOL    HW217754   0.646   0.384   1.760 -0.0050 -1.9902 -0.1453
 2041SOL     OW17755   3.417   0.206  14.709 -0.5443  0.6667 -0.5597
 2041SOL    HW117756   3.508   0.220  14.735 -0.2490 -0.9227 -0.7288
 2041SOL    HW217757   3.433   0.126  14.659 -0.1640 -0.6435  1.6352
 2042SOL     OW17758   3.475   4.538   2.984 -0.4590 -0.2983 -0.2499
 2042SOL    HW117759   3.537   4.473   2.951  0.2061 -0.6033  1.5855
 2042SOL    HW217760   3.519   4.623   2.983 -3.2038  1.1167 -1.0995
 2043SOL     OW17761   1.957   4.192   4.880  0.2828  0.6579 -0.0733
 2043SOL    HW117762   1.932   4.284   4.878 -1.6535  0.1673  2.8353
 2043SOL    HW217763   1.879   4.142   4.855 -0.2763  1.2047  0.6092
 2044SOL     OW17764   1.568   0.896   2.593 -0.2745 -0.5718 -0.2044
 2044SOL    HW117765   1.646   0.948   2.576 -0.6596 -0.1764 -0.7899
 2044SOL    HW217766   1.506   0.969   2.592 -0.6068 -0.8527  0.1300
 2045SOL     OW17767   0.485   1.996   1.098 -0.0919 -0.2619  0.2669
 2045SOL    HW117768   0.426   2.001   1.173 -0.6364  1.2325 -0.2649
 2045SOL    HW217769   0.552   2.055   1.132  0.2345 -1.3643  1.5418
 2046SOL     OW17770   0.149   0.802  16.886  0.5604  0.0535  0.4008
 2046SOL    HW117771   0.075   0.813  16.944 -0.5140  1.8495 -1.3215
 2046SOL    HW217772   0.222   0.819  16.945  3.0949 -1.8667 -2.1154
 2047SOL     OW17773   1.924   1.749   0.635 -0.4044  0.2342 -0.0116
 2047SOL    HW117774   1.960   1.706   0.558 -0.6420 -3.3583  1.9173
 2047SOL    HW217775   1.848   1.693   0.650  0.5814 -1.2941 -0.7528
 2048SOL     OW17776   4.398   2.004   2.479  0.3115 -0.8446 -0.1117
 2048SOL    HW117777   4.451   1.945   2.425 -0.7314 -0.0250 -2.0430
 2048SOL    HW217778   4.413   2.078   2.419  2.8195 -1.7847 -0.6445
 2049SOL     OW17779   1.553   0.221   6.305  0.0242 -0.2777 -0.4182
 2049SOL    HW117780   1.532   0.160   6.376 -1.1032  1.8010  1.0097
 2049SOL    HW217781   1.636   0.181   6.278  0.7474  1.0658 -0.1436
 2050SOL     OW17782   0.854   0.606   9.201  0.2930  0.1226 -0.1073
 2050SOL    HW117783   0.869   0.687   9.153  1.7955  0.1150  0.3414
 2050SOL    HW217784   0.804   0.641   9.275  1.2015  0.2221  0.4744
 2051SOL     OW17785   0.185   1.205   8.441  0.5415  0.0113  0.2204
 2051SOL    HW117786   0.191   1.236   8.350  0.6764  0.1273  0.2690
 2051SOL    HW217787   0.278   1.192   8.462  0.8058  0.0914 -0.8991
 2052SOL     OW17788   1.744   0.366   3.649 -0.5081 -0.4568 -0.6727
 2052SOL    HW117789   1.776   0.300   3.709  3.0025 -1.5777 -3.7801
 2052SOL    HW217790   1.808   0.369   3.577 -1.0212 -0.6808 -1.1415
 2053SOL     OW17791   0.812   0.030   1.362 -0.2292 -0.4889 -0.1710
 2053SOL    HW117792   0.820   4.686   1.416 -0.0765 -1.6158 -1.8316
 2053SOL    HW217793   0.742   0.077   1.408  0.6621 -0.3435  1.0441
 2054SOL     OW17794   0.827   0.530   4.502 -0.9116 -0.8485  0.0885
 2054SOL    HW117795   0.755   0.592   4.493 -1.1463 -1.2294 -0.6669
 2054SOL    HW217796   0.839   0.504   4.411  1.7728  1.3044 -0.1838
 2055SOL     OW17797   2.777   3.659  13.838 -0.0393  0.4620  0.1056
 2055SOL    HW117798   2.729   3.738  13.812 -2.7924 -0.2396  3.1233
 2055SOL    HW217799   2.866   3.685  13.814  0.2012 -0.5609 -0.1440
 2056SOL     OW17800   1.924   4.268   1.979 -0.1772 -0.0120 -0.3544
 2056SOL    HW117801   1.851   4.207   1.986  0.1208 -0.5493 -1.7118
 2056SOL    HW217802   1.900   4.335   1.916  0.9880 -1.3029 -2.2052
 2057SOL     OW17803   1.146   2.341   0.600  0.0886 -0.1702 -0.2257
 2057SOL    HW117804   1.142   2.337   0.695 -0.5974  2.4858 -0.1438
 2057SOL    HW217805   1.148   2.247   0.580 -1.4612  0.0615 -1.4694
 2058SOL     OW17806   1.342   1.095   3.104  0.1497 -0.0052 -0.3987
 2058SOL    HW117807   1.270   1.149   3.137 -2.2797 -2.7578 -1.2082
 2058SOL    HW217808   1.366   1.139   3.022  2.9617 -0.9442 -0.0970
 2059SOL     OW17809   3.446   3.004   6.255 -0.7335  0.6490  0.8228
 2059SOL    HW117810   3.370   2.984   6.200 -0.1426  0.4039  0.0998
 2059SOL    HW217811   3.475   3.079   6.204 -0.4000  0.6516  1.0192
 2060SOL     OW17812   3.587   4.059   5.480 -0.3697  0.2473 -0.0897
 2060SOL    HW117813   3.558   3.969   5.496 -2.7067  0.6803 -1.9833
 2060SOL    HW217814   3.603   4.053   5.386  0.2899  0.2858  0.0152
 2061SOL     OW17815   1.979   4.481   4.074  0.3869  0.1291 -0.0977
 2061SOL    HW117816   2.041   4.544   4.038  0.7527 -0.7592 -1.0038
 2061SOL    HW217817   1.932   4.453   3.995 -0.6814  1.8645 -0.0848
 2062SOL     OW17818   1.554   3.052   7.443  0.0386 -0.1331 -1.0556
 2062SOL    HW117819   1.640   3.069   7.481  0.0076 -0.8440 -0.6813
 2062SOL    HW217820   1.542   2.960   7.467 -4.1748  0.3612 -1.2693
 2063SOL     OW17821   0.574   4.133  12.434 -0.4224 -0.4951  0.0310
 2063SOL    HW117822   0.531   4.105  12.515  2.0705 -1.7520  0.8971
 2063SOL    HW217823   0.499   4.162  12.382  0.1327  0.3669 -0.2992
 2064SOL     OW17824   0.944   4.100   1.501 -0.4360 -0.0119 -0.0779
 2064SOL    HW117825   1.011   4.056   1.553  0.5370 -0.8278 -2.0513
 2064SOL    HW217826   0.867   4.050   1.527 -0.2594 -0.0964  0.2863
 2065SOL     OW17827   1.130   0.472  16.825 -0.3151 -0.0610 -0.3573
 2065SOL    HW117828   1.178   0.520  16.757  0.4176 -0.6330 -0.2491
 2065SOL    HW217829   1.145   0.537  16.894 -0.6864 -0.4019  0.0404
 2066SOL     OW17830   1.481   1.227   2.529  0.0732 -0.2418  0.2872
 2066SOL    HW117831   1.428   1.302   2.502  1.2950  0.8210  0.8346
 2066SOL    HW217832   1.421   1.153   2.533  0.7512 -0.6452  2.7359
 2067SOL     OW17833   2.759   2.339  11.856 -0.2451 -0.1822 -0.1194
 2067SOL    HW117834   2.769   2.410  11.793  1.4925  0.7578  1.2275
 2067SOL    HW217835   2.838   2.294  11.826 -0.7129 -1.4412  0.5507
 2068SOL     OW17836   2.743   2.120   3.621 -0.3158 -0.1864 -0.7019
 2068SOL    HW117837   2.717   2.180   3.551  0.8703  2.6456  1.2808
 2068SOL    HW217838   2.835   2.144   3.620 -0.1589 -0.7784 -0.2856
 2069SOL     OW17839   4.660   2.326   2.602  0.4097  0.2230 -0.0137
 2069SOL    HW117840   4.639   2.242   2.643  2.2013 -0.6274 -0.8415
 2069SOL    HW217841   0.004   2.303   2.552 -0.1016 -2.5724  0.4562
 2070SOL     OW17842   0.661   1.966   6.365  0.0868 -0.2413 -0.0930
 2070SOL    HW117843   0.649   1.897   6.300 -3.1744  0.4186 -0.2017
 2070SOL    HW217844   0.736   2.013   6.329  0.1998  0.3839  0.9560
 2071SOL     OW17845   3.039   0.630   1.758  0.4840  0.0099  0.1896
 2071SOL    HW117846   2.956   0.586   1.742 -0.8700  2.9381 -0.8371
 2071SOL    HW217847   3.097   0.582   1.699 -0.7061 -0.5236 -0.5474
 2072SOL     OW17848   3.674   1.749  12.316  0.0881 -0.0563  0.1520
 2072SOL    HW117849   3.673   1.773  12.409 -1.4278 -1.5735  0.5181
 2072SOL    HW217850   3.763   1.782  12.300  0.8535 -2.0832  0.2015
 2073SOL     OW17851   1.298   1.757   1.780 -0.4189  0.3860  0.6293
 2073SOL    HW117852   1.255   1.837   1.748  0.2172  0.9476  1.1736
 2073SOL    HW217853   1.255   1.694   1.723  1.9016 -0.3397 -0.2960
 2074SOL     OW17854   2.482   0.455   6.658  0.0246  0.2355 -0.1601
 2074SOL    HW117855   2.486   0.549   6.639  2.0124 -0.1343 -1.6130
 2074SOL    HW217856   2.392   0.442   6.627 -0.2385  0.9149  0.3130
 2075SOL     OW17857   3.263   4.220  17.570  0.0290 -0.1947 -0.0347
 2075SOL    HW117858   3.169   4.210  17.581  0.0793 -1.3603 -0.6511
 2075SOL    HW217859   3.282   4.129  17.594 -1.2689 -0.8726 -1.6095
 2076SOL     OW17860   2.473   3.448   3.867 -0.4422  0.4014 -0.3928
 2076SOL    HW117861   2.523   3.417   3.791 -0.4026  1.4418 -0.8037
 2076SOL    HW217862   2.535   3.488   3.929 -1.0679 -0.1719  0.5998
 2077SOL     OW17863   0.349   1.486   2.007  0.1492 -0.0341 -0.5069
 2077SOL    HW117864   0.441   1.473   1.985  0.3630  0.1211  0.2717
 2077SOL    HW217865   0.352   1.570   2.052 -1.3984  0.2035 -0.8399
 2078SOL     OW17866   1.506   4.663   0.874 -0.1610 -0.1135  0.1886
 2078SOL    HW117867   1.494   0.015   0.913  0.9966 -0.0072  0.3104
 2078SOL    HW217868   1.599   4.669   0.852  0.2740 -0.8145  1.8664
 2079SOL     OW17869   3.174   3.249   7.170  0.0416  0.2729  0.1826
 2079SOL    HW117870   3.084   3.265   7.199  0.0465  1.5793 -0.4851
 2079SOL    HW217871   3.219   3.240   7.254  0.4503  0.2069 -0.0438
 2080SOL     OW17872   4.680   0.263   7.050 -0.1638 -1.1489 -0.3661
 2080SOL    HW117873   4.706   0.271   7.141  0.8603 -3.5366 -0.4485
 2080SOL    HW217874   4.623   0.336   7.025  0.2256 -1.0329 -0.9326
 2081SOL     OW17875   3.548   2.756   6.446 -0.6331  0.8528 -0.5247
 2081SOL    HW117876   3.520   2.803   6.367 -2.0044 -0.7503 -0.9816
 2081SOL    HW217877   3.624   2.810   6.470  0.4683 -1.1579  0.5449
 2082SOL     OW17878   1.443   3.933   9.877  0.3262  0.7329  0.2442
 2082SOL    HW117879   1.465   3.863   9.938  0.3050 -0.5279 -1.1912
 2082SOL    HW217880   1.367   3.970   9.921  0.1893 -0.2135  0.7990
 2083SOL     OW17881   2.157   0.568  14.435 -0.5663  0.2973  0.2872
 2083SOL    HW117882   2.100   0.639  14.405  0.4795  1.4036  0.9285
 2083SOL    HW217883   2.209   0.545  14.358 -1.1144  2.5248 -0.7405
 2084SOL     OW17884   0.051   2.297   8.434  0.0654 -0.6629 -0.7660
 2084SOL    HW117885   4.731   2.318   8.510 -0.6045 -0.7980 -1.2057
 2084SOL    HW217886   4.723   2.321   8.365 -2.1028  0.0819  1.4339
 2085SOL     OW17887   4.375   2.209   3.851 -0.1336  0.0330  0.0270
 2085SOL    HW117888   4.440   2.271   3.882 -2.5751  1.4441  2.3175
 2085SOL    HW217889   4.364   2.159   3.932  1.0534  0.5243  0.4883
 2086SOL     OW17890   1.135   0.602   6.468 -0.5637  0.4271  0.2567
 2086SOL    HW117891   1.148   0.518   6.512 -0.5078  1.1415  1.5924
 2086SOL    HW217892   1.047   0.592   6.432 -0.9695  1.4142  0.9939
 2087SOL     OW17893   1.487   2.740   8.190  0.1154  0.2847  0.4353
 2087SOL    HW117894   1.568   2.719   8.236 -0.3422  1.3566  1.7221
 2087SOL    HW217895   1.503   2.828   8.158  0.7485 -0.5927 -1.6678
 2088SOL     OW17896   1.613   3.297  15.560  0.4349  0.1106  0.5400
 2088SOL    HW117897   1.609   3.222  15.620  0.4233  0.3566  0.8489
 2088SOL    HW217898   1.618   3.267  15.469  1.2867  1.4779  0.1467
 2089SOL     OW17899   1.806   1.150   5.218  0.1456  0.4161  0.0703
 2089SOL    HW117900   1.762   1.078   5.174  0.0467  0.5946 -0.1161
 2089SOL    HW217901   1.756   1.220   5.178 -1.9083 -1.8354 -1.3008
 2090SOL     OW17902   1.753   1.365   0.571 -0.2481 -0.4818 -0.0946
 2090SOL    HW117903   1.769   1.277   0.606 -0.5595 -0.3033  0.5081
 2090SOL    HW217904   1.800   1.418   0.637 -0.4899  1.6541 -1.6315
 2091SOL     OW17905   1.102   4.379  17.733  0.0182  0.8099 -0.1464
 2091SOL    HW117906   1.148   4.360  17.651  1.0247 -0.2812  0.6755
 2091SOL    HW217907   1.160   4.451   0.021  1.4431 -0.3589 -0.0795
 2092SOL     OW17908   3.943   0.291   6.896  0.1274  0.4163 -0.6751
 2092SOL    HW117909   3.927   0.266   6.805  0.9836 -3.3166  0.1922
 2092SOL    HW217910   3.913   0.214   6.945 -0.8706  0.7642 -0.7394
 2093SOL     OW17911   3.163   2.659   8.024  0.3665  0.2691 -0.0665
 2093SOL    HW117912   3.152   2.735   7.968 -3.3753 -0.3230 -0.1318
 2093SOL    HW217913   3.094   2.664   8.090 -0.3948 -1.9656 -0.6795
 2094SOL     OW17914   2.059   3.891   9.428 -0.2855 -0.6985 -0.5101
 2094SOL    HW117915   2.088   3.899   9.519 -1.8354  0.2430 -0.1107
 2094SOL    HW217916   2.046   3.983   9.406  0.2435 -1.0721 -2.3565
 2095SOL     OW17917   1.115   0.335   4.548  0.3448 -0.4504 -0.5761
 2095SOL    HW117918   1.097   0.381   4.630  1.6620  0.5581 -0.8448
 2095SOL    HW217919   1.134   0.406   4.487  0.2697 -0.7437 -0.9433
 2096SOL     OW17920   2.559   0.831   7.919 -0.0373  0.8579 -0.4559
 2096SOL    HW117921   2.491   0.799   7.977  2.0673  1.3541  2.2931
 2096SOL    HW217922   2.567   0.925   7.937  0.7693  0.7365 -0.1603
 2097SOL     OW17923   2.954   1.888   5.313 -0.3461  0.1774  0.1284
 2097SOL    HW117924   2.913   1.972   5.292  0.4584  0.4570 -0.3395
 2097SOL    HW217925   2.890   1.849   5.372 -1.7252  1.5152 -0.4930
 2098SOL     OW17926   1.695   0.164  15.257 -0.2314 -0.7058 -0.0764
 2098SOL    HW117927   1.720   0.254  15.275 -1.5873 -0.7421  2.1075
 2098SOL    HW217928   1.758   0.141  15.189  1.9460 -1.8914  2.3431
 2099SOL     OW17929   2.388   0.954  13.070  0.3514  0.1386 -0.2076
 2099SOL    HW117930   2.329   1.017  13.028 -1.1794  0.9272  3.1091
 2099SOL    HW217931   2.477   0.969  13.039  0.5457 -1.2220 -0.3112
 2100SOL     OW17932   2.415   0.283   6.194  0.1263  0.3432  0.4813
 2100SOL    HW117933   2.448   0.193   6.181 -2.2815 -0.2694 -1.4333
 2100SOL    HW217934   2.493   0.325   6.229  0.8486  0.5628 -1.4051
 2101SOL     OW17935   4.106   1.969   7.852 -0.6788  0.2131  0.6960
 2101SOL    HW117936   4.109   2.011   7.766 -0.7423  1.5215  1.3357
 2101SOL    HW217937   4.016   1.936   7.849 -1.0853  1.2841  1.2309
 2102SOL     OW17938   1.741   2.844   4.339  0.2769  0.1557 -0.4742
 2102SOL    HW117939   1.763   2.752   4.357 -2.3419 -0.4000 -0.0875
 2102SOL    HW217940   1.775   2.857   4.251 -0.5479 -0.8760 -0.9493
 2103SOL     OW17941   2.628   3.981  12.649 -0.1555 -0.2628 -0.3907
 2103SOL    HW117942   2.656   4.066  12.684  0.6184 -0.5740 -0.2449
 2103SOL    HW217943   2.624   4.007  12.557 -1.8154  0.4112 -0.1284
 2104SOL     OW17944   3.405   1.700   1.854 -0.1173  0.3960 -0.2044
 2104SOL    HW117945   3.463   1.727   1.783  1.4732 -1.9983  0.1799
 2104SOL    HW217946   3.347   1.651   1.797 -0.6172 -0.8490  1.3773
 2105SOL     OW17947   2.676   0.048   1.471 -0.1783 -0.2030 -0.5307
 2105SOL    HW117948   2.628   0.048   1.554 -0.3317 -2.0103 -0.6154
 2105SOL    HW217949   2.657   0.136   1.439 -1.4694 -0.0361  0.6660
 2106SOL     OW17950   2.889   3.475   2.568 -0.5197  0.3192  0.4820
 2106SOL    HW117951   2.852   3.456   2.654 -1.1748 -1.3076 -0.1782
 2106SOL    HW217952   2.854   3.396   2.528 -3.1858  1.0467  1.3350
 2107SOL     OW17953   2.538   3.389   9.983 -0.0436  0.7950 -0.3248
 2107SOL    HW117954   2.553   3.303  10.023  0.4419  1.5226  1.0580
 2107SOL    HW217955   2.546   3.447  10.059 -0.6657 -1.1497  1.2294
 2108SOL     OW17956   3.512   1.055   6.745 -0.5326  0.0874  0.8249
 2108SOL    HW117957   3.421   1.044   6.772 -0.5789  0.5280  0.8330
 2108SOL    HW217958   3.549   0.966   6.743  0.3414  0.4335  1.5469
 2109SOL     OW17959   3.690   1.517  10.159 -0.3097 -0.0149 -0.2184
 2109SOL    HW117960   3.702   1.422  10.153 -2.9686 -0.2094 -2.5680
 2109SOL    HW217961   3.747   1.534  10.234 -0.3602 -2.7711  0.4593
 2110SOL     OW17962   4.595   0.440   3.477 -0.5141 -0.0701  0.3252
 2110SOL    HW117963   4.630   0.461   3.564 -1.7203  1.8587  0.3155
 2110SOL    HW217964   4.503   0.453   3.498 -0.8781 -1.3629 -0.4756
 2111SOL     OW17965   1.159   0.459  11.511  0.4833  0.3780 -0.6685
 2111SOL    HW117966   1.225   0.392  11.532 -0.8295  0.0469  2.3017
 2111SOL    HW217967   1.078   0.412  11.491  0.9319 -0.7286  0.1190
 2112SOL     OW17968   0.199   4.633   9.217 -0.3800  0.2549  0.7211
 2112SOL    HW117969   0.247   4.673   9.290 -0.2364  0.3181  0.5936
 2112SOL    HW217970   0.150   4.709   9.185 -1.6206 -0.2814  1.3583
 2113SOL     OW17971   1.649   1.201   3.444 -0.2459  0.2169  0.4868
 2113SOL    HW117972   1.607   1.117   3.460 -2.2150  0.7070 -1.9584
 2113SOL    HW217973   1.631   1.247   3.526  2.0862  1.1254  0.4789
 2114SOL     OW17974   3.287   2.857   8.395 -0.3271  0.1903  0.3064
 2114SOL    HW117975   3.347   2.787   8.421  0.2269  0.8872  0.9375
 2114SOL    HW217976   3.288   2.914   8.472  1.1684  0.1533  0.3111
 2115SOL     OW17977   4.619   3.632   8.987  0.2672  0.3062  0.3122
 2115SOL    HW117978   4.547   3.569   8.998  1.1001 -0.9253 -1.3039
 2115SOL    HW217979   4.695   3.575   9.000  1.5962  2.2325  1.0568
 2116SOL     OW17980   3.496   4.013  13.056 -0.0107  0.5285 -0.3066
 2116SOL    HW117981   3.420   4.052  13.099  1.0183  3.1586 -0.8936
 2116SOL    HW217982   3.466   3.923  13.042  1.2641  0.2181 -1.0121
 2117SOL     OW17983   4.216   2.962   5.388  0.4623 -0.3680  0.0774
 2117SOL    HW117984   4.156   3.033   5.366 -0.2905 -1.7427 -2.2758
 2117SOL    HW217985   4.276   2.952   5.314  1.7343 -0.8608  1.1773
 2118SOL     OW17986   2.505   2.291   1.777 -0.0675 -0.3470  0.4710
 2118SOL    HW117987   2.438   2.259   1.838  0.4294 -2.6469 -0.1960
 2118SOL    HW217988   2.565   2.334   1.838  1.0740 -2.0411  0.5384
 2119SOL     OW17989   2.246   3.659   3.147  0.2544 -0.1996  0.6461
 2119SOL    HW117990   2.204   3.613   3.221  0.9015  0.9756  1.7432
 2119SOL    HW217991   2.330   3.615   3.135  0.7861  1.7630 -2.5901
 2120SOL     OW17992   4.177   0.635   2.738  0.9679 -0.5680  0.6032
 2120SOL    HW117993   4.131   0.591   2.810 -0.4607  0.3985  0.2713
 2120SOL    HW217994   4.143   0.724   2.741 -1.0489 -1.3151 -0.7905
 2121SOL     OW17995   3.211   1.287  17.197  0.0670 -0.1730  0.5307
 2121SOL    HW117996   3.119   1.314  17.197  0.0910 -0.0745 -0.4747
 2121SOL    HW217997   3.196   1.198  17.228  0.1595 -0.1181  0.7357
 2122SOL     OW17998   0.257   4.388  16.008  0.3672  0.2046  0.1476
 2122SOL    HW117999   0.235   4.435  15.928  1.4464  1.6226  0.6864
 2122SOL    HW218000   0.173   4.345  16.020  0.0345  1.6235  2.9445
 2123SOL     OW18001   4.250   0.408  12.296 -0.3882  0.2402  0.3564
 2123SOL    HW118002   4.282   0.358  12.372 -1.6666 -0.2555  0.5573
 2123SOL    HW218003   4.230   0.495  12.329 -0.2210 -0.0714  1.2910
 2124SOL     OW18004   0.574   1.161   8.162  0.3296  0.1478  0.0226
 2124SOL    HW118005   0.638   1.181   8.231  2.2821 -3.5137 -0.7351
 2124SOL    HW218006   0.629   1.167   8.084  0.6452  3.0924  0.4846
 2125SOL     OW18007   4.380   1.981   1.759  0.8285  0.4157  0.6535
 2125SOL    HW118008   4.347   1.904   1.806  0.0779  0.1895 -0.2274
 2125SOL    HW218009   4.326   1.981   1.680  0.8030  0.7158  0.6738
 2126SOL     OW18010   4.086   0.670   8.940 -0.1704  0.7328  0.9645
 2126SOL    HW118011   4.120   0.634   8.858 -1.1796 -1.2275  1.4105
 2126SOL    HW218012   4.093   0.765   8.926  1.3265  0.6590  1.1927
 2127SOL     OW18013   2.164   0.942  12.671 -0.3586 -0.1147 -0.0560
 2127SOL    HW118014   2.180   0.848  12.666  2.9731  0.4061  0.2577
 2127SOL    HW218015   2.209   0.970  12.591 -3.0136  2.2959 -0.6895
 2128SOL     OW18016   0.100   2.138   7.293 -0.9270 -0.2999 -0.0399
 2128SOL    HW118017   0.177   2.084   7.310  0.4877  0.7824 -3.0209
 2128SOL    HW218018   0.130   2.218   7.251  0.1205 -0.7731 -0.2009
 2129SOL     OW18019   3.683   2.447   4.689  0.1718  0.4224  0.1613
 2129SOL    HW118020   3.739   2.411   4.620  0.4624  0.1013  0.5676
 2129SOL    HW218021   3.725   2.530   4.709  0.2114  0.6948 -1.0489
 2130SOL     OW18022   3.057   2.264   2.266  0.8407 -0.0690  0.4924
 2130SOL    HW118023   3.125   2.207   2.303 -0.2440 -0.9774  1.1080
 2130SOL    HW218024   2.987   2.198   2.264  0.4000  0.3746  1.1560
 2131SOL     OW18025   0.333   2.414  12.894  0.4664 -0.5029 -0.1476
 2131SOL    HW118026   0.286   2.333  12.872  2.0941 -1.0933 -1.4579
 2131SOL    HW218027   0.347   2.459  12.811 -3.2562  0.7509 -0.0846
 2132SOL     OW18028   1.504   4.404  14.555  0.1692  0.3205 -0.5727
 2132SOL    HW118029   1.433   4.355  14.596 -0.4675  0.9536 -0.9184
 2132SOL    HW218030   1.518   4.474  14.619 -1.0846 -1.6989  1.8897
 2133SOL     OW18031   2.999   2.067   2.026 -0.3392  0.4198  0.7600
 2133SOL    HW118032   3.041   2.020   2.099  0.0147 -0.5387 -0.0657
 2133SOL    HW218033   2.906   2.057   2.044 -1.2390  2.0987 -3.0533
 2134SOL     OW18034   0.894   4.356   2.801  0.1423 -0.0020  0.3053
 2134SOL    HW118035   0.834   4.295   2.759 -2.5080  2.4437  0.6048
 2134SOL    HW218036   0.902   4.427   2.738 -0.9448 -0.1394  0.0281
 2135SOL     OW18037   4.384   0.798  17.165 -0.4220  0.4280 -0.0673
 2135SOL    HW118038   4.298   0.793  17.123 -0.8111  1.4743  0.6225
 2135SOL    HW218039   4.358   0.783  17.256  0.7740  1.6706  0.4783
 2136SOL     OW18040   4.324   3.916  14.338  0.1518  0.5810 -0.0917
 2136SOL    HW118041   4.247   3.861  14.327  1.0689 -0.2463 -2.5082
 2136SOL    HW218042   4.325   3.917  14.433 -2.8299 -0.9030 -0.0425
 2137SOL     OW18043   1.256   2.756   6.353 -0.2592 -0.3794 -0.2997
 2137SOL    HW118044   1.183   2.764   6.290 -0.4154 -0.2163 -0.0985
 2137SOL    HW218045   1.233   2.828   6.411  3.5177 -1.6401  2.7443
 2138SOL     OW18046   1.268   0.278   1.177  0.0544 -0.4578  0.5093
 2138SOL    HW118047   1.176   0.291   1.155  0.3900 -0.9365 -1.2005
 2138SOL    HW218048   1.252   0.218   1.250  0.6562 -0.3204  0.7507
 2139SOL     OW18049   4.119   2.543   8.127 -0.1631  0.2972 -0.4876
 2139SOL    HW118050   4.167   2.532   8.045 -1.5495  0.2007 -1.2694
 2139SOL    HW218051   4.133   2.456   8.164  0.2371  0.4314 -0.3191
 2140SOL     OW18052   4.342   1.805   7.884  0.0827  0.0251 -0.0082
 2140SOL    HW118053   4.349   1.789   7.789  1.2868 -1.5185  0.3375
 2140SOL    HW218054   4.265   1.858   7.901  1.2259  1.2595  1.2712
 2141SOL     OW18055   2.538   3.761   3.451  0.3139 -0.2446  0.2594
 2141SOL    HW118056   2.570   3.801   3.371 -2.4281  0.2169 -0.6063
 2141SOL    HW218057   2.621   3.751   3.496  0.5606  1.6054  0.2219
 2142SOL     OW18058   3.699   4.367   8.357  1.0371  0.1546 -0.0247
 2142SOL    HW118059   3.766   4.429   8.386  0.3045  0.9162  0.0468
 2142SOL    HW218060   3.743   4.321   8.286 -0.5701 -2.4855  0.7053
 2143SOL     OW18061   1.491   0.503   7.432  0.2341  0.2076 -0.0392
 2143SOL    HW118062   1.473   0.410   7.426  0.2028  0.1215  1.4238
 2143SOL    HW218063   1.497   0.524   7.339  0.5544 -0.3677 -0.1458
 2144SOL     OW18064   1.205   0.080   6.588 -0.4551  0.2150 -0.1850
 2144SOL    HW118065   1.111   0.065   6.594 -0.3408 -0.1987  0.6381
 2144SOL    HW218066   1.236   0.053   6.675 -0.3280 -1.0607 -0.6246
 2145SOL     OW18067   3.859   0.010   9.864 -0.1224  0.2324  0.0557
 2145SOL    HW118068   3.804   4.677   9.824  0.4720  0.3289 -0.9193
 2145SOL    HW218069   3.945   4.704   9.868 -0.7933 -1.4360 -2.7775
 2146SOL     OW18070   3.409   3.379  16.181  0.2703 -0.2932 -0.3743
 2146SOL    HW118071   3.401   3.390  16.276 -0.1500 -0.4670 -0.3925
 2146SOL    HW218072   3.320   3.391  16.149 -0.1024 -1.5281  0.2220
 2147SOL     OW18073   0.564   0.425  10.284  0.7541  0.5162  0.0128
 2147SOL    HW118074   0.547   0.332  10.300 -0.7816  0.5199 -1.5408
 2147SOL    HW218075   0.637   0.442  10.344  0.2913 -2.3654  1.4033
 2148SOL     OW18076   2.896   3.007   5.577 -0.1208  0.6874 -0.2853
 2148SOL    HW118077   2.803   3.006   5.601 -0.2253 -2.4782 -0.7516
 2148SOL    HW218078   2.905   3.091   5.533  0.7388  1.0918  0.6858
 2149SOL     OW18079   4.613   2.511   9.152 -0.0391  0.5054 -0.7414
 2149SOL    HW118080   4.663   2.588   9.122  1.0923  0.0423 -0.0553
 2149SOL    HW218081   4.564   2.558   9.219 -0.3847 -2.9137  1.3623
 2150SOL     OW18082   0.009   2.001  14.630 -0.4946 -0.4461 -0.1816
 2150SOL    HW118083   4.655   2.011  14.596 -0.9649 -0.0428  1.1621
 2150SOL    HW218084   4.722   1.927  14.687  1.0420 -1.0941 -0.4532
 2151SOL     OW18085   0.491   1.346   4.780 -0.1789 -0.1986  0.1135
 2151SOL    HW118086   0.479   1.254   4.756 -2.1560  0.8080 -2.6966
 2151SOL    HW218087   0.409   1.364   4.825 -0.0619 -1.2245  0.7224
 2152SOL     OW18088   1.710   2.763  14.383  0.9530 -0.0183 -0.1665
 2152SOL    HW118089   1.654   2.686  14.369  0.2010  0.1981  1.7483
 2152SOL    HW218090   1.725   2.803  14.297  0.1128 -4.3625 -2.3241
 2153SOL     OW18091   2.504   0.024   1.684  0.4869 -0.2432 -0.6322
 2153SOL    HW118092   2.438   4.691   1.665  1.5272 -1.5116  0.2513
 2153SOL    HW218093   2.460   0.106   1.706 -1.1109 -1.0413 -0.8724
 2154SOL     OW18094   3.013   3.019   2.913 -0.4932  0.4089  0.0057
 2154SOL    HW118095   2.983   2.952   2.852  0.4779 -1.5884  1.7332
 2154SOL    HW218096   2.931   3.038   2.959 -0.3719  1.4602 -0.2082
 2155SOL     OW18097   4.404   3.258  14.361  0.4371  0.1933  0.0168
 2155SOL    HW118098   4.353   3.338  14.350 -1.2236 -0.3763  3.3716
 2155SOL    HW218099   4.378   3.218  14.278 -0.4756  1.0365 -0.1020
 2156SOL     OW18100   2.044   2.712   3.398  0.2763  0.3923 -0.7006
 2156SOL    HW118101   1.986   2.755   3.460 -0.5584 -0.9250 -0.5753
 2156SOL    HW218102   2.011   2.623   3.388  0.4706  0.1455  0.8444
 2157SOL     OW18103   4.549   4.517  15.887 -0.6701  0.2853 -0.4187
 2157SOL    HW118104   4.481   4.466  15.930  0.5789 -1.9297 -1.0538
 2157SOL    HW218105   4.530   4.506  15.793  1.5614 -0.5766 -0.7697
 2158SOL     OW18106   3.968   0.774   6.525  0.0901 -0.0716  0.2319
 2158SOL    HW118107   4.029   0.771   6.451 -0.9181  0.9248 -0.6406
 2158SOL    HW218108   3.905   0.833   6.483 -0.8856 -1.5065 -0.3304
 2159SOL     OW18109   3.090   4.175   6.138  0.0178 -0.3258 -0.0302
 2159SOL    HW118110   3.053   4.221   6.062  1.9846  0.4949 -0.4901
 2159SOL    HW218111   3.083   4.084   6.110 -0.0782 -0.1076 -0.7156
 2160SOL     OW18112   0.425   4.214   2.394 -0.1219 -0.2457 -0.3897
 2160SOL    HW118113   0.383   4.192   2.477  0.6239  2.5573  0.7351
 2160SOL    HW218114   0.513   4.178   2.395  0.3882  1.0192 -0.4680
 2161SOL     OW18115   3.536   4.001   2.017 -0.1292 -0.1532 -0.5184
 2161SOL    HW118116   3.562   4.087   2.049  0.3225 -0.6037  0.3299
 2161SOL    HW218117   3.621   3.958   2.014 -0.9670 -1.8844  0.1057
 2162SOL     OW18118   2.196   3.172   5.418 -0.2615 -0.1110 -0.5008
 2162SOL    HW118119   2.123   3.114   5.437  1.5028 -2.2542 -0.3137
 2162SOL    HW218120   2.153   3.255   5.397 -0.0281 -0.3373 -1.8839
 2163SOL     OW18121   3.335   1.455  11.876  0.1245 -0.3320 -0.1100
 2163SOL    HW118122   3.366   1.409  11.799  0.1742 -2.1471  0.9987
 2163SOL    HW218123   3.265   1.397  11.905  0.5256 -1.2795 -1.0429
 2164SOL     OW18124   2.165   3.579   5.090  0.0300 -0.0436 -0.3699
 2164SOL    HW118125   2.172   3.537   5.005 -1.1298  1.9779 -1.4664
 2164SOL    HW218126   2.190   3.507   5.148 -1.6036  1.2359  1.9725
 2165SOL     OW18127   3.761   3.781  16.013 -0.4555 -0.2319 -0.2954
 2165SOL    HW118128   3.763   3.697  15.967 -0.3641  1.0814 -2.6745
 2165SOL    HW218129   3.705   3.772  16.090 -1.5051  0.4358 -0.9636
 2166SOL     OW18130   3.666   4.188   7.186  0.1229  0.7307  0.9306
 2166SOL    HW118131   3.709   4.259   7.137 -0.9878  2.1020  1.9422
 2166SOL    HW218132   3.648   4.131   7.111 -1.4567  1.3691  0.8329
 2167SOL     OW18133   0.881   0.141   3.180 -0.6583 -0.2962 -0.5276
 2167SOL    HW118134   0.919   0.188   3.254 -1.6693  2.1583 -1.5955
 2167SOL    HW218135   0.943   0.068   3.172  1.8053  1.6881  0.3085
 2168SOL     OW18136   1.362   0.434   2.565  0.8254 -0.4297 -0.3435
 2168SOL    HW118137   1.368   0.371   2.494 -1.2139  0.8262 -1.6059
 2168SOL    HW218138   1.351   0.516   2.517 -1.5795 -1.1565 -1.0121
 2169SOL     OW18139   3.282   2.391   3.777  0.1732 -0.0315 -0.5038
 2169SOL    HW118140   3.341   2.466   3.768 -1.7582  1.6355  0.5370
 2169SOL    HW218141   3.197   2.434   3.771  1.3161  1.9722 -2.1923
 2170SOL     OW18142   0.843   1.161   6.546 -0.0106 -0.1112  0.0931
 2170SOL    HW118143   0.842   1.253   6.518 -0.4140 -0.4809 -1.1175
 2170SOL    HW218144   0.876   1.157   6.635 -0.3527 -0.0729  0.2195
 2171SOL     OW18145   3.248   0.758   9.952 -0.1898  0.0145 -0.1838
 2171SOL    HW118146   3.219   0.692  10.015  2.0204 -2.8806 -2.1973
 2171SOL    HW218147   3.252   0.696   9.879 -0.0072  0.6250 -0.6925
 2172SOL     OW18148   4.382   1.271   4.788 -0.4077 -0.2054  0.2655
 2172SOL    HW118149   4.412   1.211   4.720 -0.3811 -0.2395  0.3074
 2172SOL    HW218150   4.286   1.264   4.787 -0.4178 -0.1656  2.2130
 2173SOL     OW18151   3.941   1.162   0.772 -0.2423 -0.2211 -0.0699
 2173SOL    HW118152   3.904   1.117   0.847  2.7277 -1.3916  0.7078
 2173SOL    HW218153   3.907   1.251   0.782  0.6261  0.5447 -3.8268
 2174SOL     OW18154   0.178   2.304  16.057  0.0850  0.6931  0.5158
 2174SOL    HW118155   0.188   2.262  15.972  0.2779 -1.7655  1.7577
 2174SOL    HW218156   0.095   2.265  16.085 -0.6533  1.7902 -0.1526
 2175SOL     OW18157   3.651   1.438   8.109  0.2134 -0.8066  0.2936
 2175SOL    HW118158   3.624   1.360   8.059 -2.0305  1.1528 -1.5549
 2175SOL    HW218159   3.631   1.506   8.045 -1.1583 -1.6155 -0.1597
 2176SOL     OW18160   4.094   0.001   2.195  0.6226  0.4967  1.0686
 2176SOL    HW118161   4.017   0.044   2.233  0.4842  2.3114 -1.2015
 2176SOL    HW218162   4.061   4.719   2.107 -0.4426 -0.3484  1.6215
 2177SOL     OW18163   4.366   0.884   5.554 -0.4849  0.4353 -0.8239
 2177SOL    HW118164   4.394   0.856   5.467 -2.3637 -1.9625 -0.6670
 2177SOL    HW218165   4.370   0.978   5.537 -2.0199  1.0004  2.0243
 2178SOL     OW18166   2.218   0.760  17.319  0.1441  0.1952 -0.4062
 2178SOL    HW118167   2.124   0.774  17.329 -0.1180 -0.7113 -1.4950
 2178SOL    HW218168   2.249   0.777  17.408 -2.5538 -0.1811  0.6154
 2179SOL     OW18169   3.844   2.397  13.710  0.0270  0.2352 -0.4426
 2179SOL    HW118170   3.792   2.336  13.762  0.2164 -0.8105 -1.4842
 2179SOL    HW218171   3.889   2.441  13.783  0.2957  1.1321 -1.1467
 2180SOL     OW18172   1.479   3.430   5.605  0.1364 -0.0520  0.7493
 2180SOL    HW118173   1.438   3.408   5.521 -1.3357  0.8020  1.2326
 2180SOL    HW218174   1.572   3.434   5.585 -0.0638 -1.8039 -0.5208
 2181SOL     OW18175   3.396   3.577  10.208 -0.2217  0.7651 -0.2987
 2181SOL    HW118176   3.434   3.553  10.123  1.7551 -0.2145  0.8754
 2181SOL    HW218177   3.307   3.606  10.186 -0.6747  0.5751  1.3064
 2182SOL     OW18178   0.102   0.224   9.785 -0.3235  0.8334  0.5434
 2182SOL    HW118179   0.095   0.315   9.812 -0.4451  1.0758 -0.3196
 2182SOL    HW218180   0.089   0.181   9.870  0.9295 -1.2931 -0.3529
 2183SOL     OW18181   2.008   4.538   6.550  0.2753 -0.4460 -0.3255
 2183SOL    HW118182   1.959   4.458   6.571 -0.8797  0.3039 -0.1427
 2183SOL    HW218183   1.934   4.598   6.553  0.9021  0.2916  0.1225
 2184SOL     OW18184   0.073   2.844  14.798  0.1719 -0.0043 -0.8236
 2184SOL    HW118185   0.120   2.871  14.720 -2.7299  1.5033 -2.0591
 2184SOL    HW218186   0.146   2.849  14.860  1.0858  0.5811 -1.9464
 2185SOL     OW18187   0.135   4.367   2.571  0.8368  0.2606 -0.3152
 2185SOL    HW118188   0.141   4.273   2.586 -0.1139  0.3392  0.5442
 2185SOL    HW218189   0.158   4.379   2.479 -1.2272  0.0331 -0.8487
 2186SOL     OW18190   0.897   1.504   3.339 -0.2610  0.4287 -0.1979
 2186SOL    HW118191   0.943   1.524   3.258 -1.1684  1.6167 -0.4142
 2186SOL    HW218192   0.969   1.472   3.393  0.1310  0.4971 -0.6808
 2187SOL     OW18193   2.782   3.313   5.898 -0.1083  0.2060  0.4274
 2187SOL    HW118194   2.807   3.325   5.990  0.6063 -0.2533  0.2934
 2187SOL    HW218195   2.687   3.322   5.909  0.0514  3.3916 -0.9676
 2188SOL     OW18196   3.327   2.623   3.534  0.4954 -0.4376 -0.0864
 2188SOL    HW118197   3.377   2.554   3.491 -0.2059 -0.4661 -0.8457
 2188SOL    HW218198   3.268   2.650   3.463 -0.5854  0.5873  1.1832
 2189SOL     OW18199   0.904   3.149   9.759  0.2192 -0.0165  0.5150
 2189SOL    HW118200   0.961   3.111   9.825 -1.5951 -2.8110  0.4873
 2189SOL    HW218201   0.966   3.164   9.688  0.5279  2.1604  1.2693
 2190SOL     OW18202   1.867   1.365   3.896  0.0939 -0.4316  0.3583
 2190SOL    HW118203   1.870   1.375   3.991  0.0812 -0.4582  0.3617
 2190SOL    HW218204   1.935   1.298   3.886 -0.3384 -0.9746  1.0275
 2191SOL     OW18205   2.046   2.906  16.786  0.5582  0.2699  0.4674
 2191SOL    HW118206   2.123   2.928  16.838 -0.3631  2.6545  0.8121
 2191SOL    HW218207   2.009   2.835  16.839 -0.5943 -0.1062 -0.8273
 2192SOL     OW18208   0.084   0.932   3.776 -0.1853  0.2295  0.3419
 2192SOL    HW118209   0.052   0.974   3.856 -1.6955  0.8925 -0.6087
 2192SOL    HW218210   0.036   0.851   3.789  1.1323 -0.7770 -0.9975
 2193SOL     OW18211   3.489   2.910   5.183  0.2465  0.1167 -0.4644
 2193SOL    HW118212   3.429   2.916   5.110 -0.7570  0.3656  0.3846
 2193SOL    HW218213   3.430   2.940   5.252  2.0176  1.6047  0.4182
 2194SOL     OW18214   3.046   4.493   3.472  0.3858  0.3466  0.3971
 2194SOL    HW118215   3.070   4.454   3.388  0.3313  0.0926  0.4992
 2194SOL    HW218216   2.965   4.538   3.451  0.5989  1.3143  1.6362
 2195SOL     OW18217   1.066   1.326  13.188 -0.1171 -0.1422  0.0769
 2195SOL    HW118218   1.043   1.397  13.248  0.9626  3.0886 -3.2911
 2195SOL    HW218219   1.151   1.367  13.170 -0.6591  1.0620  0.2379
 2196SOL     OW18220   3.805   0.367   7.320 -0.0018  0.6284 -0.2850
 2196SOL    HW118221   3.827   0.446   7.272  0.2918 -0.1534 -1.4182
 2196SOL    HW218222   3.839   0.303   7.258 -1.7942  0.8903 -1.5331
 2197SOL     OW18223   1.558   3.542   1.362 -0.1363 -0.2805 -0.3268
 2197SOL    HW118224   1.618   3.576   1.296 -1.7108  1.4123 -0.8721
 2197SOL    HW218225   1.615   3.484   1.412 -2.1434 -2.4166 -0.4888
 2198SOL     OW18226   2.479   1.567  11.279 -0.2924 -0.1104 -0.4951
 2198SOL    HW118227   2.539   1.549  11.206  1.3081  1.5929  0.3939
 2198SOL    HW218228   2.462   1.477  11.305  0.6710  0.1802  1.1247
 2199SOL     OW18229   1.441   2.789   3.191  0.2232  0.1409  0.3669
 2199SOL    HW118230   1.512   2.777   3.127 -0.5435 -0.8839 -0.2827
 2199SOL    HW218231   1.437   2.885   3.190  0.4598  0.1400 -3.3040
 2200SOL     OW18232   3.878   2.064   3.284  0.3962 -0.1968 -0.0636
 2200SOL    HW118233   3.870   2.023   3.370 -1.7867  0.7807  0.2095
 2200SOL    HW218234   3.973   2.056   3.274  0.5642  1.1715  0.3322
 2201SOL     OW18235   2.976   3.754  11.935  0.4790  0.5410  0.1770
 2201SOL    HW118236   2.949   3.710  12.016  0.6449 -1.5523 -0.9062
 2201SOL    HW218237   3.030   3.685  11.897  0.5237 -0.0625  1.3321
 2202SOL     OW18238   4.172   3.578   7.675 -0.1098 -0.3228 -0.3165
 2202SOL    HW118239   4.222   3.592   7.756 -0.6849  1.2959 -0.2321
 2202SOL    HW218240   4.124   3.500   7.701 -1.8310  0.9315  0.2579
 2203SOL     OW18241   1.310   3.427   4.471 -0.1476 -0.3955 -0.1083
 2203SOL    HW118242   1.344   3.499   4.524  2.9058 -1.9058 -0.0323
 2203SOL    HW218243   1.388   3.373   4.468 -0.4122 -0.8573  1.0551
 2204SOL     OW18244   1.994   1.430   1.901 -0.0707  0.0261 -0.3461
 2204SOL    HW118245   2.079   1.443   1.943  0.9161 -1.2272 -1.9909
 2204SOL    HW218246   2.013   1.410   1.810 -0.7919 -1.3930 -0.1828
 2205SOL     OW18247   3.553   1.194  12.016 -0.0958  0.3247  0.3035
 2205SOL    HW118248   3.579   1.134  12.086 -3.4025 -2.3450 -0.7826
 2205SOL    HW218249   3.639   1.230  11.992  0.6875  0.1046  2.8368
 2206SOL     OW18250   0.786   3.966   8.630  0.5418 -0.3182 -0.0928
 2206SOL    HW118251   0.758   3.985   8.541  0.0291 -0.8538 -0.0462
 2206SOL    HW218252   0.832   3.883   8.621 -1.0956 -1.5639  2.8384
 2207SOL     OW18253   4.000   2.088  17.329 -0.0399 -0.0158  0.1737
 2207SOL    HW118254   3.907   2.108  17.343 -0.3968 -0.0819 -1.9889
 2207SOL    HW218255   4.033   2.168  17.370  1.9535  0.4925 -2.3979
 2208SOL     OW18256   0.645   3.072   7.324 -0.0218 -0.4969 -0.3375
 2208SOL    HW118257   0.671   3.164   7.335 -0.6418 -0.3032 -0.4962
 2208SOL    HW218258   0.669   3.044   7.412 -4.0499 -3.3461 -0.1277
 2209SOL     OW18259   1.434   0.249   9.953 -0.2219 -0.2817  0.1141
 2209SOL    HW118260   1.339   0.257   9.951 -0.1734 -0.0064 -0.9776
 2209SOL    HW218261   1.459   0.339   9.932 -0.1692 -0.0929  0.9904
 2210SOL     OW18262   0.912   1.332   0.054 -0.2948  0.0161  0.0377
 2210SOL    HW118263   0.919   1.241   0.024  0.0693  0.4369 -1.1797
 2210SOL    HW218264   1.005   1.353   0.065  0.2070 -1.4044 -1.4291
 2211SOL     OW18265   0.057   1.047   6.966 -0.8192  0.5795  0.0246
 2211SOL    HW118266   4.723   1.113   6.953 -1.0113  0.3105 -0.3254
 2211SOL    HW218267   0.032   0.990   6.893  0.7480 -0.7672  0.5371
 2212SOL     OW18268   2.864   0.523   2.508  0.2963 -0.1447 -0.5641
 2212SOL    HW118269   2.880   0.459   2.577 -1.9499  0.2278  0.3050
 2212SOL    HW218270   2.861   0.596   2.570  2.4655  0.2175 -0.9058
 2213SOL     OW18271   0.123   2.868   8.748  0.2416  0.2705 -0.3822
 2213SOL    HW118272   0.080   2.935   8.694  0.8715  2.2651  1.5646
 2213SOL    HW218273   0.181   2.909   8.812 -1.3880  0.7835  0.7644
 2214SOL     OW18274   1.840   2.803   6.070  0.1233 -0.0133  0.1860
 2214SOL    HW118275   1.894   2.840   6.140 -0.4302 -0.0616  0.6393
 2214SOL    HW218276   1.888   2.723   6.049 -1.4090 -0.3859 -1.8856
 2215SOL     OW18277   0.078   0.805   5.460  0.3354 -0.2379 -0.0755
 2215SOL    HW118278   0.055   0.882   5.409 -0.6607 -0.9229 -0.6526
 2215SOL    HW218279   0.056   0.726   5.412  0.3807 -0.3709  0.1206
 2216SOL     OW18280   3.267   3.965   7.239 -0.7335 -0.0570 -0.2698
 2216SOL    HW118281   3.311   4.049   7.250  2.2038 -2.0381  3.1256
 2216SOL    HW218282   3.319   3.916   7.303 -0.3413  1.5338  0.6354
 2217SOL     OW18283   0.273   3.912   4.306 -0.2875  0.3910 -0.7850
 2217SOL    HW118284   0.342   3.977   4.317  0.1102 -0.2099  0.2093
 2217SOL    HW218285   0.240   3.920   4.395  1.3181  1.5187 -0.2967
 2218SOL     OW18286   4.395   4.127  11.482 -0.1415 -0.8766  0.1878
 2218SOL    HW118287   4.462   4.059  11.472  0.2658 -0.4615  0.0454
 2218SOL    HW218288   4.455   4.200  11.502 -0.8245  0.1137 -1.4353
 2219SOL     OW18289   3.401   3.585   8.882  0.2107 -0.8898  0.1622
 2219SOL    HW118290   3.317   3.550   8.911 -0.0826 -0.2820  0.0413
 2219SOL    HW218291   3.429   3.638   8.956 -1.2371  1.8445 -1.2682
 2220SOL     OW18292   4.409   3.814  17.495 -0.9708  0.8643  0.5829
 2220SOL    HW118293   4.419   3.719  17.489 -0.7769  1.0230 -1.5715
 2220SOL    HW218294   4.492   3.846  17.459 -0.0683 -0.4477  1.5043
 2221SOL     OW18295   2.822   1.763   6.495  0.6533  0.0273  0.5924
 2221SOL    HW118296   2.911   1.797   6.493 -0.2607  2.3031 -1.2405
 2221SOL    HW218297   2.784   1.835   6.546  1.7318  0.3738  0.8988
 2222SOL     OW18298   1.513   1.007   8.400  0.1429  0.3189  0.4462
 2222SOL    HW118299   1.563   1.082   8.432 -0.6894  1.2354 -0.4117
 2222SOL    HW218300   1.540   0.995   8.308  0.8522 -0.9462  0.8173
 2223SOL     OW18301   4.402   4.473   5.767  0.0642  0.0685 -0.0699
 2223SOL    HW118302   4.321   4.514   5.796  1.4332  1.8247  1.2504
 2223SOL    HW218303   4.370   4.422   5.693 -0.4688  1.3011 -0.6886
 2224SOL     OW18304   4.152   0.753   6.024 -0.2039  0.3138 -0.0898
 2224SOL    HW118305   4.160   0.658   6.019 -0.1474  0.3511 -0.7410
 2224SOL    HW218306   4.083   0.781   5.963 -0.5784 -1.5618 -0.5085
 2225SOL     OW18307   2.224   0.401   7.517  0.5176 -0.2860 -0.0292
 2225SOL    HW118308   2.253   0.488   7.546  2.4820 -0.4247 -1.5482
 2225SOL    HW218309   2.273   0.359   7.587 -0.7277  1.0092  1.6294
 2226SOL     OW18310   1.709   2.931   5.556 -0.3390 -0.8611 -0.3181
 2226SOL    HW118311   1.736   2.925   5.648 -1.4735  1.3134  0.1347
 2226SOL    HW218312   1.640   2.864   5.560  0.2711 -1.5611 -1.3540
 2227SOL     OW18313   1.071   4.489   7.331 -0.3349  0.4398 -0.0170
 2227SOL    HW118314   1.020   4.412   7.356  1.8382 -1.1536 -0.4501
 2227SOL    HW218315   1.142   4.498   7.395  0.7458  0.6466 -1.2338
 2228SOL     OW18316   3.100   1.993  10.298  0.5947 -0.5716  0.4446
 2228SOL    HW118317   3.172   2.014  10.358  0.2511 -0.0013  0.6541
 2228SOL    HW218318   3.128   2.043  10.221  0.6424 -0.1488  0.7334
 2229SOL     OW18319   0.431   1.486   4.002 -0.0883  0.1612  0.2796
 2229SOL    HW118320   0.486   1.465   4.078 -0.8036 -1.8086  0.2412
 2229SOL    HW218321   0.419   1.578   4.026 -1.0747  0.2413 -0.5431
 2230SOL     OW18322   4.486   2.060   4.503  0.1985 -0.1259 -0.5573
 2230SOL    HW118323   4.463   1.982   4.453 -0.1144  0.8146 -1.8794
 2230SOL    HW218324   4.576   2.030   4.515 -0.5297 -1.8802  0.4910
 2231SOL     OW18325   3.954   1.134   1.063 -0.4167  0.0725  0.4615
 2231SOL    HW118326   3.960   1.217   1.110  1.3195  0.7388 -0.9334
 2231SOL    HW218327   4.009   1.080   1.121  1.0277  0.2719 -0.7066
 2232SOL     OW18328   0.267   3.777   5.171 -0.1403  0.8528  0.3012
 2232SOL    HW118329   0.245   3.863   5.136  0.6370  1.0280  0.2391
 2232SOL    HW218330   0.353   3.766   5.132  0.3272 -0.7527  1.8040
 2233SOL     OW18331   3.046   0.083   2.859 -0.2516  0.4759 -0.4768
 2233SOL    HW118332   2.998   0.025   2.918  1.1026  1.8271  1.9459
 2233SOL    HW218333   3.004   0.164   2.890  0.3788  0.8046 -0.4822
 2234SOL     OW18334   0.278   3.481   2.260  0.4582  0.4012 -0.2995
 2234SOL    HW118335   0.330   3.525   2.328  1.3349 -1.0039 -0.0644
 2234SOL    HW218336   0.230   3.558   2.229 -0.3777 -2.0314 -4.9568
 2235SOL     OW18337   3.346   4.688   4.847  0.6380  0.1451 -0.5828
 2235SOL    HW118338   3.386   4.696   4.761  1.7781 -0.8238 -0.1384
 2235SOL    HW218339   3.336   0.040   4.886 -0.6134  0.2927 -1.2344
 2236SOL     OW18340   1.812   0.124  14.999 -0.6080 -0.6605  0.2713
 2236SOL    HW118341   1.856   0.053  15.047  0.1460 -0.5444 -0.2552
 2236SOL    HW218342   1.848   0.125  14.911 -0.9252 -2.0207  0.1122
 2237SOL     OW18343   2.346   2.028   3.329  0.6282  0.3947  0.1273
 2237SOL    HW118344   2.421   2.074   3.367  1.5567  0.6055 -1.9837
 2237SOL    HW218345   2.329   1.957   3.391  0.6374  0.7880  0.5818
 2238SOL     OW18346   1.543   0.411  14.364 -0.2827 -0.0193  0.0689
 2238SOL    HW118347   1.551   0.502  14.333  0.7110 -0.4866 -1.0413
 2238SOL    HW218348   1.541   0.371  14.277 -0.9083 -1.3845  0.7231
 2239SOL     OW18349   0.721   1.126   7.918  0.4176  0.1458 -0.4103
 2239SOL    HW118350   0.806   1.163   7.896  0.6874 -0.0929  0.2331
 2239SOL    HW218351   0.669   1.148   7.840 -1.1841  1.7742  1.0970
 2240SOL     OW18352   2.325   2.335   5.141  0.3581 -0.0002 -0.0642
 2240SOL    HW118353   2.312   2.253   5.187  0.3923 -0.5417 -1.0151
 2240SOL    HW218354   2.231   2.355   5.132 -0.1154 -0.9793  2.8237
 2241SOL     OW18355   2.322   4.284   4.859  0.1999  0.0860 -0.1898
 2241SOL    HW118356   2.240   4.274   4.811 -0.2249  0.5230  0.4427
 2241SOL    HW218357   2.370   4.330   4.790 -1.4446 -3.1165 -3.4558
 2242SOL     OW18358   1.769   3.909  14.631 -0.2866  0.3196 -0.4790
 2242SOL    HW118359   1.682   3.945  14.645 -0.4306 -0.6813  1.1567
 2242SOL    HW218360   1.793   3.966  14.558  1.2613 -0.6868 -0.7568
 2243SOL     OW18361   2.461   2.898   4.319  0.5179  0.1845 -0.1171
 2243SOL    HW118362   2.470   2.960   4.392 -3.3269 -2.0886  2.2428
 2243SOL    HW218363   2.483   2.817   4.364  0.9719  0.7872  0.7660
 2244SOL     OW18364   2.791   4.046   4.882  0.5367 -0.1445  0.2742
 2244SOL    HW118365   2.766   4.133   4.913 -0.1024 -0.5554  0.9000
 2244SOL    HW218366   2.711   4.009   4.845 -0.0689  1.4239  0.0110
 2245SOL     OW18367   4.365   2.364   9.366 -0.0557 -0.6322  0.0078
 2245SOL    HW118368   4.411   2.439   9.404  1.2822 -2.0607  1.2801
 2245SOL    HW218369   4.331   2.408   9.289 -0.4549 -2.2501 -0.7411
 2246SOL     OW18370   3.675   3.411   2.744  0.5382  0.1993  0.4687
 2246SOL    HW118371   3.630   3.335   2.705  0.6211  1.0479 -1.2772
 2246SOL    HW218372   3.747   3.422   2.681 -0.6459 -1.1577 -1.1408
 2247SOL     OW18373   0.620   0.067   7.791  0.2484 -0.2971 -0.2741
 2247SOL    HW118374   0.647   0.027   7.873  1.8496  3.5204  1.0226
 2247SOL    HW218375   0.526   0.047   7.793  0.5105 -1.6577 -1.2643
 2248SOL     OW18376   2.747   0.543   4.744 -0.2592 -0.0062  0.1546
 2248SOL    HW118377   2.725   0.451   4.734  1.6542 -0.2533 -1.6849
 2248SOL    HW218378   2.817   0.531   4.809 -2.3421  0.7905  2.5398
 2249SOL     OW18379   2.363   0.819  17.540 -0.7168  0.2011  0.4156
 2249SOL    HW118380   2.440   0.871  17.563 -1.7011  1.3894  1.0195
 2249SOL    HW218381   2.393   0.731  17.563 -0.3208  0.0526 -0.6387
 2250SOL     OW18382   0.532   2.992   3.517 -0.0540 -0.5872  0.5633
 2250SOL    HW118383   0.493   3.072   3.484 -0.6922 -0.9269  0.4872
 2250SOL    HW218384   0.477   2.931   3.467 -3.6186  3.8378 -0.8496
 2251SOL     OW18385   0.289   3.419   4.178 -0.1182 -0.3039 -0.1360
 2251SOL    HW118386   0.222   3.439   4.244  2.5793  2.1788  1.8081
 2251SOL    HW218387   0.237   3.359   4.124  2.5535 -1.5689 -1.3127
 2252SOL     OW18388   3.677   2.807   7.772 -0.0886 -0.2520 -0.0474
 2252SOL    HW118389   3.615   2.808   7.846  1.3648 -1.8748  1.1753
 2252SOL    HW218390   3.725   2.725   7.786  0.6568  0.4743  1.6912
 2253SOL     OW18391   1.209   4.578   4.419 -0.0407 -0.3246  0.3105
 2253SOL    HW118392   1.228   4.669   4.444  4.0435 -1.2153  0.5141
 2253SOL    HW218393   1.212   4.535   4.505  0.4627  2.1421  1.5512
 2254SOL     OW18394   1.718   3.653   1.169  0.0104  0.1424  0.0500
 2254SOL    HW118395   1.653   3.704   1.121 -0.4094 -0.1757  0.2813
 2254SOL    HW218396   1.747   3.591   1.103 -1.0461 -0.0026 -0.2803
 2255SOL     OW18397   2.213   3.202   3.180 -0.0156 -0.0319  0.2139
 2255SOL    HW118398   2.262   3.148   3.243 -2.0668  2.2598  3.6953
 2255SOL    HW218399   2.246   3.163   3.099 -0.4296 -0.4879  0.2623
 2256SOL     OW18400   4.044   2.306  12.980  0.1922  0.0894  0.5219
 2256SOL    HW118401   4.057   2.250  13.056  0.9048  0.8897  0.9844
 2256SOL    HW218402   4.136   2.333  12.976  0.7864 -1.7738  1.5326
 2257SOL     OW18403   0.899   3.372   0.825  0.1583  0.2115 -0.3319
 2257SOL    HW118404   0.840   3.435   0.867 -1.4942 -1.1620 -0.6149
 2257SOL    HW218405   0.988   3.400   0.846 -0.4036  0.5709  1.5422
 2258SOL     OW18406   2.973   0.071   7.014  0.0099  0.1189  0.0479
 2258SOL    HW118407   2.991   0.059   7.107  1.0547  1.0117 -0.0366
 2258SOL    HW218408   3.028   0.146   6.993  0.9814 -0.1332  1.7309
 2259SOL     OW18409   4.075   1.052   2.484  0.9752 -0.2744 -0.0467
 2259SOL    HW118410   4.014   0.983   2.457 -0.3433  1.0824 -0.5147
 2259SOL    HW218411   4.046   1.053   2.575  0.3394  0.9089 -0.2589
 2260SOL     OW18412   1.236   0.262  13.066 -0.5409  0.3200 -0.2492
 2260SOL    HW118413   1.170   0.235  13.130 -1.3208  2.2712 -0.2117
 2260SOL    HW218414   1.196   0.348  13.052  1.0141  0.8875 -1.1285
 2261SOL     OW18415   0.321   2.152  17.059  0.2359 -0.5039 -0.1868
 2261SOL    HW118416   0.337   2.058  17.059  0.7917 -0.4145  0.3222
 2261SOL    HW218417   0.226   2.155  17.065  0.1596 -2.0089 -0.7416
 2262SOL     OW18418   1.370   2.201  17.250 -0.1993  0.6624  0.0771
 2262SOL    HW118419   1.321   2.144  17.310 -2.1300  1.2728 -0.9455
 2262SOL    HW218420   1.409   2.260  17.315  0.2376 -0.4615  0.8446
 2263SOL     OW18421   2.979   2.320   5.158 -0.5654 -0.3319 -0.0128
 2263SOL    HW118422   3.058   2.272   5.135  0.2443 -0.0433  2.1395
 2263SOL    HW218423   2.939   2.257   5.218 -0.3845  0.1523  0.6227
 2264SOL     OW18424   1.539   4.723   6.059 -0.2192 -0.5617 -0.7458
 2264SOL    HW118425   1.623   4.716   6.105  0.2717  0.1550 -1.5204
 2264SOL    HW218426   1.566   0.027   5.976 -0.0224  1.8499  0.4512
 2265SOL     OW18427   2.730   0.904   2.822  0.4639 -0.3351 -0.0789
 2265SOL    HW118428   2.673   0.871   2.752 -0.6500 -0.0577  0.7057
 2265SOL    HW218429   2.811   0.935   2.781  0.1388 -1.0933 -1.2963
 2266SOL     OW18430   1.571   1.450   4.185  0.2714  0.3323  0.6744
 2266SOL    HW118431   1.477   1.435   4.198 -0.0753  0.0698 -2.0564
 2266SOL    HW218432   1.609   1.415   4.265 -0.3989 -1.1843  0.3329
 2267SOL     OW18433   4.231   1.610  13.976 -0.3803  0.0138  0.3182
 2267SOL    HW118434   4.285   1.607  14.056 -0.7595  2.9567  0.6738
 2267SOL    HW218435   4.228   1.518  13.949  0.9824  0.1803 -0.3743
 2268SOL     OW18436   4.267   1.576   7.005  0.6775 -0.6117  0.3110
 2268SOL    HW118437   4.321   1.508   7.045  0.5151  0.1043  1.7359
 2268SOL    HW218438   4.180   1.551   7.033  0.6491  0.2206  0.9579
 2269SOL     OW18439   1.369   4.642   7.679 -0.4108 -0.5174  0.2207
 2269SOL    HW118440   1.380   4.704   7.751  0.1982  0.1071 -0.4152
 2269SOL    HW218441   1.453   4.600   7.666 -0.3449 -0.0730 -0.7834
 2270SOL     OW18442   0.274   0.404   3.827 -0.5971 -0.5835  0.3440
 2270SOL    HW118443   0.293   0.437   3.915 -0.5054  0.6412 -0.1450
 2270SOL    HW218444   0.188   0.440   3.807  0.4692  1.0052 -1.3025
 2271SOL     OW18445   4.547   0.762   7.171 -0.2971 -0.0624  0.3262
 2271SOL    HW118446   4.615   0.751   7.238 -1.0951  0.2002  1.1770
 2271SOL    HW218447   4.545   0.854   7.146  0.2775 -0.1165  0.0854
 2272SOL     OW18448   0.835   4.460   5.826  0.1176 -0.6711 -0.2152
 2272SOL    HW118449   0.891   4.512   5.883 -0.3124 -1.2901  0.7533
 2272SOL    HW218450   0.818   4.525   5.757  1.0808  0.9617  1.0834
 2273SOL     OW18451   4.450   0.311  12.995  0.5037  0.2025  0.4536
 2273SOL    HW118452   4.434   0.398  12.960  2.8500 -0.5241 -2.3943
 2273SOL    HW218453   4.435   0.317  13.090  1.8333 -1.7544  0.8084
 2274SOL     OW18454   4.162   3.065   4.304  0.2643  0.2430 -0.3234
 2274SOL    HW118455   4.230   3.058   4.237 -0.1020 -0.3868 -0.6303
 2274SOL    HW218456   4.189   3.148   4.344  0.2617 -0.9164  2.0742
 2275SOL     OW18457   2.678   4.028   8.980  0.2151 -0.2568 -0.6776
 2275SOL    HW118458   2.719   3.951   9.020  2.1290  0.7862 -0.6359
 2275SOL    HW218459   2.696   4.024   8.886 -2.5755 -3.6786 -1.1038
 2276SOL     OW18460   4.357   2.324   3.146 -0.7562  0.3071 -0.2096
 2276SOL    HW118461   4.388   2.322   3.056  0.1725  0.0383  0.1219
 2276SOL    HW218462   4.435   2.294   3.192 -0.0841  2.2768 -0.0811
 2277SOL     OW18463   1.677   1.869   1.295  0.5496 -0.2477  0.6242
 2277SOL    HW118464   1.599   1.924   1.298  1.0583  0.4367  1.1489
 2277SOL    HW218465   1.735   1.927   1.245 -1.0217 -0.2269 -1.1560
 2278SOL     OW18466   0.596   0.769  17.411  0.0226  0.3691  0.0028
 2278SOL    HW118467   0.529   0.706  17.385 -0.0025  0.5653 -0.4037
 2278SOL    HW218468   0.549   0.847  17.382 -0.6410 -0.3780 -0.9201
 2279SOL     OW18469   0.205   4.455   6.199 -0.3785  0.2546  0.0074
 2279SOL    HW118470   0.276   4.426   6.142  0.7288  2.6455  0.1533
 2279SOL    HW218471   0.196   4.544   6.165  3.0819  0.3905 -0.5257
 2280SOL     OW18472   0.692   2.896   7.543  0.1106  0.2453 -0.1661
 2280SOL    HW118473   0.693   2.902   7.638  0.8487  1.2533 -0.2370
 2280SOL    HW218474   0.649   2.811   7.537  0.7301 -0.0628 -0.2438
 2281SOL     OW18475   2.680   1.386   8.556 -0.1835 -0.0784 -0.7013
 2281SOL    HW118476   2.612   1.451   8.542 -0.4158 -0.2846 -0.5350
 2281SOL    HW218477   2.757   1.436   8.529  0.9070 -3.0615 -3.2133
 2282SOL     OW18478   2.877   4.069   8.532  0.0375  0.1557  0.0450
 2282SOL    HW118479   2.852   4.014   8.458 -1.0118  0.3254  0.2604
 2282SOL    HW218480   2.893   4.152   8.488 -1.1258 -0.0173 -0.7017
 2283SOL     OW18481   0.100   1.712   2.219  0.2357  0.4351  0.3077
 2283SOL    HW118482   0.146   1.727   2.137 -1.2663  0.2220 -0.5736
 2283SOL    HW218483   0.162   1.753   2.280  0.0802  0.9969  0.0940
 2284SOL     OW18484   2.231   0.578   8.433 -0.0221  0.0659 -0.1934
 2284SOL    HW118485   2.309   0.629   8.454  0.4969 -1.0675  0.6213
 2284SOL    HW218486   2.186   0.581   8.518 -0.3962 -2.7429 -0.3003
 2285SOL     OW18487   1.267   0.400   2.999  0.0086 -0.1175  0.0934
 2285SOL    HW118488   1.177   0.374   3.015 -0.0975  0.3132  0.1848
 2285SOL    HW218489   1.251   0.472   2.938  1.2913  0.8967  0.9402
 2286SOL     OW18490   3.522   1.184   5.070  0.1383  0.4644 -0.1342
 2286SOL    HW118491   3.572   1.241   5.128  1.2835  1.3285 -1.9449
 2286SOL    HW218492   3.441   1.184   5.121 -0.1398 -2.1963 -0.6021
 2287SOL     OW18493   3.656   1.588   1.930 -0.2602  0.6922  0.0944
 2287SOL    HW118494   3.662   1.666   1.984  1.8209 -0.5959  1.7411
 2287SOL    HW218495   3.576   1.618   1.887 -0.0943  2.4927  1.0767
 2288SOL     OW18496   3.021   3.508   7.659  0.3187 -0.0472  0.1218
 2288SOL    HW118497   2.976   3.449   7.599  0.4614 -0.2157  0.1806
 2288SOL    HW218498   3.076   3.562   7.603 -0.6920  1.9417  1.0515
 2289SOL     OW18499   2.054   1.570   5.090  0.7199 -0.2878 -0.1548
 2289SOL    HW118500   2.088   1.512   5.022 -1.0878 -0.1153 -1.2080
 2289SOL    HW218501   2.108   1.649   5.090 -0.3618  0.4529  1.9545
 2290SOL     OW18502   0.556   3.886   5.293  0.2877 -0.6294  0.2367
 2290SOL    HW118503   0.468   3.915   5.271  0.0396 -1.6421 -0.0926
 2290SOL    HW218504   0.577   3.820   5.227  0.6223 -0.6857  0.4014
 2291SOL     OW18505   1.217   2.483   1.993  0.2332  0.1165  0.4178
 2291SOL    HW118506   1.131   2.485   1.952 -0.0237  2.7268  1.1014
 2291SOL    HW218507   1.209   2.549   2.061 -0.8302 -0.9482  1.3117
 2292SOL     OW18508   4.061   0.045   0.601 -0.2254 -0.4799 -0.0254
 2292SOL    HW118509   4.083   0.034   0.509  0.4930  1.7051 -0.1080
 2292SOL    HW218510   4.110   4.704   0.636 -0.9086 -0.3572  1.1881
 2293SOL     OW18511   1.948   3.486   0.083 -0.4157 -0.2453 -0.1727
 2293SOL    HW118512   1.901   3.507   0.003  0.1983  2.7369  0.2611
 2293SOL    HW218513   1.873   3.489   0.142 -0.6210  1.8969 -0.5705
 2294SOL     OW18514   2.243   2.856   5.225  0.5863  0.2905 -0.3248
 2294SOL    HW118515   2.312   2.790   5.216 -1.3764 -1.7059 -0.6730
 2294SOL    HW218516   2.224   2.847   5.318 -0.0994 -0.9979 -0.5875
 2295SOL     OW18517   1.764   0.855   3.304  0.0333  0.2792  0.0701
 2295SOL    HW118518   1.675   0.889   3.314 -0.6520 -1.7026  0.6204
 2295SOL    HW218519   1.820   0.927   3.334  0.0272 -0.8291  2.7162
 2296SOL     OW18520   0.143   1.173  14.879  0.4372  0.0082 -0.6343
 2296SOL    HW118521   0.098   1.091  14.900 -1.8681  1.5530  0.3820
 2296SOL    HW218522   0.229   1.141  14.852 -0.4170 -2.6368 -0.2753
 2297SOL     OW18523   2.441   1.187   0.746 -0.0599  0.0713 -0.2270
 2297SOL    HW118524   2.496   1.111   0.767  0.6513  0.0472 -2.1552
 2297SOL    HW218525   2.503   1.225   0.683  1.2879 -1.7851 -0.0474
 2298SOL     OW18526   3.447   1.593   1.116 -0.6746  0.0684  0.3815
 2298SOL    HW118527   3.467   1.647   1.192  0.4213 -2.0042  1.5687
 2298SOL    HW218528   3.509   1.631   1.052  0.6498 -0.8705  1.1032
 2299SOL     OW18529   4.681   1.818   4.840  0.1408 -0.1007  0.8965
 2299SOL    HW118530   4.730   1.740   4.814 -0.2996  0.5513 -1.9128
 2299SOL    HW218531   4.683   1.807   4.935  0.6462  0.8554  0.9914
 2300SOL     OW18532   0.511   1.223   6.177  0.3868  0.0086 -0.1392
 2300SOL    HW118533   0.445   1.163   6.211 -2.4792  4.0312  1.4129
 2300SOL    HW218534   0.592   1.181   6.206 -0.0497 -0.6864  0.0501
 2301SOL     OW18535   2.856   1.910   7.945  0.3295 -0.3365  0.0949
 2301SOL    HW118536   2.862   1.955   7.860  1.4451 -1.8321 -0.6087
 2301SOL    HW218537   2.765   1.912   7.975 -0.1829  0.4864 -1.5013
 2302SOL     OW18538   2.659   0.138   4.948 -0.2581 -0.0680 -0.3383
 2302SOL    HW118539   2.563   0.142   4.938 -0.1862  2.2516 -0.0826
 2302SOL    HW218540   2.685   0.071   4.885  0.3862 -1.1714  1.0892
 2303SOL     OW18541   2.242   1.854   3.559 -0.0990 -0.1938 -0.1039
 2303SOL    HW118542   2.301   1.798   3.609 -2.5280 -0.2497  2.7146
 2303SOL    HW218543   2.157   1.822   3.590 -0.5421  1.7187  0.6788
 2304SOL     OW18544   1.037   3.695   7.811  0.4842 -0.4464  0.0092
 2304SOL    HW118545   1.029   3.752   7.888  2.6390  0.4824 -0.4752
 2304SOL    HW218546   0.949   3.666   7.786  0.1169  0.2102  0.5599
 2305SOL     OW18547   1.420   2.532   1.780  0.4656 -0.4624 -0.3684
 2305SOL    HW118548   1.393   2.621   1.758 -0.4511 -0.6868 -0.1537
 2305SOL    HW218549   1.347   2.489   1.826  0.4494 -1.4939 -1.3693
 2306SOL     OW18550   4.117   1.024   1.252 -0.0016 -0.0671 -0.6864
 2306SOL    HW118551   4.208   1.047   1.236 -0.8018  1.3965 -3.0721
 2306SOL    HW218552   4.110   0.928   1.248  0.9368 -0.1525 -0.3604
 2307SOL     OW18553   0.972   3.855   1.052 -0.3198 -0.2857 -0.0489
 2307SOL    HW118554   1.017   3.933   1.085  2.0694 -2.0343  0.8529
 2307SOL    HW218555   0.923   3.812   1.122  1.2236 -1.9829 -0.0155
 2308SOL     OW18556   2.915   4.221   9.592 -0.2230 -0.5935  0.1837
 2308SOL    HW118557   2.878   4.293   9.642 -1.2804 -0.6475 -0.5234
 2308SOL    HW218558   2.849   4.181   9.535  1.6585  0.6367 -2.8112
 2309SOL     OW18559   1.137   3.124  13.825  0.2275  0.3030  0.1629
 2309SOL    HW118560   1.076   3.163  13.764 -1.0925 -0.5211  0.9637
 2309SOL    HW218561   1.197   3.090  13.758 -0.0681 -0.3790  0.2462
 2310SOL     OW18562   2.750   0.552  12.811  0.1025 -0.2363  0.1647
 2310SOL    HW118563   2.783   0.523  12.897 -1.9110 -0.9327  0.7077
 2310SOL    HW218564   2.752   0.647  12.825 -1.5949 -0.2790  0.6937
 2311SOL     OW18565   1.482   0.523   8.813 -0.8751  0.0697  0.3069
 2311SOL    HW118566   1.491   0.540   8.719 -2.0131 -1.4353 -0.0749
 2311SOL    HW218567   1.425   0.448   8.800  1.0259 -1.3766  0.3945
 2312SOL     OW18568   0.163   3.134   7.613  0.0983 -0.1172 -0.1859
 2312SOL    HW118569   0.134   3.212   7.565 -0.4614 -0.5935 -0.6281
 2312SOL    HW218570   0.257   3.137   7.600  0.1681 -0.4475  0.2321
 2313SOL     OW18571   0.145   3.213   8.515 -0.1466  0.2713 -0.0455
 2313SOL    HW118572   0.077   3.193   8.579 -1.4652 -0.5709 -1.6908
 2313SOL    HW218573   0.149   3.308   8.514 -0.8073  0.3135  1.3513
 2314SOL     OW18574   4.180   2.061   3.721  0.1087  0.4454  0.0837
 2314SOL    HW118575   4.250   2.106   3.768  0.6670 -0.7324  0.3860
 2314SOL    HW218576   4.102   2.114   3.739  1.9456  2.1651  2.9188
 2315SOL     OW18577   3.462   0.357  11.950  0.0507 -0.0705 -0.1120
 2315SOL    HW118578   3.530   0.420  11.971 -0.2191  0.6693 -1.4699
 2315SOL    HW218579   3.479   0.286  12.012  2.0153  0.9323  0.4997
 2316SOL     OW18580   0.527   1.678   8.898 -0.6882  0.3497  0.1916
 2316SOL    HW118581   0.501   1.769   8.913 -2.9333 -0.4086  1.0164
 2316SOL    HW218582   0.476   1.666   8.818 -0.8198  5.7466 -0.5141
 2317SOL     OW18583   3.791   1.454  17.167 -0.5303 -0.3693 -0.3682
 2317SOL    HW118584   3.827   1.540  17.185 -0.9716 -0.3242  0.3112
 2317SOL    HW218585   3.702   1.466  17.201  0.5565  0.7847  2.0369
 2318SOL     OW18586   2.733   2.617   8.162  0.3666 -0.0705 -0.4056
 2318SOL    HW118587   2.712   2.599   8.070  1.8844 -0.6507 -0.6436
 2318SOL    HW218588   2.795   2.547   8.184  0.2109  0.1676  0.7708
 2319SOL     OW18589   4.220   1.587   3.155  0.7154 -0.8031  0.0765
 2319SOL    HW118590   4.261   1.571   3.070  2.1086 -0.4441  0.6836
 2319SOL    HW218591   4.237   1.500   3.191 -2.3865 -1.1295  0.7464
 2320SOL     OW18592   1.162   2.558  11.571 -0.2149  0.1919  0.1253
 2320SOL    HW118593   1.124   2.634  11.528  1.0590  0.5279 -0.3973
 2320SOL    HW218594   1.194   2.590  11.656  0.2072  1.2405 -0.4386
 2321SOL     OW18595   1.340   2.598   5.534 -0.3240  0.3803  0.0088
 2321SOL    HW118596   1.340   2.581   5.440  1.1069 -1.2196  0.2999
 2321SOL    HW218597   1.366   2.691   5.537  0.9583  0.0946 -2.1081
 2322SOL     OW18598   0.797   2.346   3.444 -0.3451  0.7573  0.0332
 2322SOL    HW118599   0.835   2.432   3.459  0.0633  0.6920 -0.6396
 2322SOL    HW218600   0.733   2.335   3.515 -1.0369 -1.6380 -0.9625
 2323SOL     OW18601   1.455   4.205   5.518 -0.0589  0.1976 -0.3584
 2323SOL    HW118602   1.450   4.115   5.487 -0.3199  1.2408 -3.3207
 2323SOL    HW218603   1.479   4.196   5.611  0.0306 -1.2400 -0.5238
 2324SOL     OW18604   3.945   0.988   4.290  0.2415  0.3171  0.3968
 2324SOL    HW118605   3.912   1.060   4.236  1.9306  0.6717 -0.1761
 2324SOL    HW218606   3.959   1.037   4.371 -0.8498 -0.0181  0.7772
 2325SOL     OW18607   1.512   2.779   7.482 -0.6696  0.3568 -0.0955
 2325SOL    HW118608   1.426   2.745   7.507 -1.6393  2.5905 -0.3108
 2325SOL    HW218609   1.568   2.710   7.518  0.4858  0.4419 -1.7725
 2326SOL     OW18610   1.078   3.098   7.337 -0.2225  0.0507  0.1087
 2326SOL    HW118611   1.104   3.067   7.423  2.6069  3.2382  0.3943
 2326SOL    HW218612   0.997   3.047   7.340 -0.9794  1.1721 -1.1394
 2327SOL     OW18613   1.395   1.539   6.465 -0.3235 -0.2809  0.2776
 2327SOL    HW118614   1.306   1.540   6.430 -0.7738  0.9581  1.4744
 2327SOL    HW218615   1.377   1.541   6.559 -1.1810 -1.2600  0.1381
 2328SOL     OW18616   1.802   4.619   1.119 -0.1159 -0.4811 -0.0025
 2328SOL    HW118617   1.715   4.586   1.141 -1.5522  3.1835 -0.2505
 2328SOL    HW218618   1.782   4.712   1.118 -2.4333 -0.9969 -0.9641
 2329SOL     OW18619   3.618   1.831   6.079  0.3772  0.2558  0.1798
 2329SOL    HW118620   3.708   1.798   6.078 -0.4404 -1.9181 -1.2431
 2329SOL    HW218621   3.637   1.925   6.072  0.9594  0.1960  0.9057
 2330SOL     OW18622   2.213   1.229   2.219 -0.3136  0.2024 -0.2280
 2330SOL    HW118623   2.248   1.192   2.300  1.9743 -2.6973 -2.5059
 2330SOL    HW218624   2.204   1.146   2.172 -0.9050  0.7096 -1.0091
 2331SOL     OW18625   2.296   4.063   3.914  0.3010 -0.1902  0.4695
 2331SOL    HW118626   2.325   4.002   3.982  2.3652  1.0961  0.7769
 2331SOL    HW218627   2.241   4.004   3.864  1.1208  0.5841 -1.3374
 2332SOL     OW18628   2.118   1.365   5.821  0.2131 -0.1447 -0.6930
 2332SOL    HW118629   2.079   1.329   5.741  1.5666 -0.2014 -1.3354
 2332SOL    HW218630   2.142   1.282   5.861  1.0782  0.0219 -0.8612
 2333SOL     OW18631   0.483   0.162   0.755  0.1269 -0.3009 -0.2433
 2333SOL    HW118632   0.571   0.141   0.785 -0.2731 -0.9095  0.5237
 2333SOL    HW218633   0.513   0.211   0.678 -0.0269  0.5403  0.2324
 2334SOL     OW18634   2.084   3.356   8.936  0.0861  0.7724 -0.2994
 2334SOL    HW118635   2.010   3.388   8.988 -0.8288 -0.1319 -1.0471
 2334SOL    HW218636   2.108   3.443   8.905 -2.0431  1.0332 -1.2526
 2335SOL     OW18637   1.469   4.243  17.296 -0.2245 -0.1941 -0.0628
 2335SOL    HW118638   1.507   4.287  17.220 -0.8090  1.0753  0.3702
 2335SOL    HW218639   1.494   4.153  17.278 -1.3016 -0.1021 -1.9792
 2336SOL     OW18640   4.342   1.850   4.344 -0.3420 -0.0416  0.8073
 2336SOL    HW118641   4.346   1.772   4.400 -0.3886  0.0540  0.9430
 2336SOL    HW218642   4.326   1.800   4.264 -0.3383  2.6086 -0.8183
 2337SOL     OW18643   1.406   1.063   4.200 -0.5067  0.2045 -0.7337
 2337SOL    HW118644   1.437   1.037   4.113 -0.7476  1.4103 -1.1719
 2337SOL    HW218645   1.402   0.976   4.241  0.9653 -0.1745 -1.4119
 2338SOL     OW18646   2.520   0.986  14.946 -0.0147 -0.6605 -0.3573
 2338SOL    HW118647   2.506   0.900  14.987 -1.6999 -0.8766 -1.3755
 2338SOL    HW218648   2.426   1.006  14.950  0.3541  0.8059  1.3019
 2339SOL     OW18649   1.426   0.812  15.885 -0.3284 -0.1864 -0.1419
 2339SOL    HW118650   1.502   0.810  15.825 -1.2010 -0.4778 -1.2428
 2339SOL    HW218651   1.388   0.895  15.856  0.3971  0.3348  0.3995
 2340SOL     OW18652   1.946   3.975  14.392  0.3407  0.6789  0.0286
 2340SOL    HW118653   1.886   3.957  14.319  0.7166  4.1257 -1.1629
 2340SOL    HW218654   2.025   3.997  14.343 -0.2810  3.6227  0.2905
 2341SOL     OW18655   3.976   3.497   0.690 -0.2277  0.3588 -0.2242
 2341SOL    HW118656   4.005   3.508   0.599 -2.7785 -0.8658 -1.1802
 2341SOL    HW218657   3.905   3.437   0.667  1.2606 -0.3801 -2.8989
 2342SOL     OW18658   2.260   3.460   1.180  0.1221  0.1961 -0.4164
 2342SOL    HW118659   2.214   3.541   1.203 -0.4772 -0.8438  1.9351
 2342SOL    HW218660   2.339   3.494   1.137  0.3024 -0.8254 -0.8809
 2343SOL     OW18661   4.286   3.533  14.371 -0.5522  0.6659 -0.0529
 2343SOL    HW118662   4.223   3.598  14.340  1.6338  0.2893 -5.2340
 2343SOL    HW218663   4.222   3.468  14.342 -1.3209  0.9652  0.9674
 2344SOL     OW18664   3.234   3.229   7.443  0.2744 -0.0102  0.2625
 2344SOL    HW118665   3.243   3.147   7.492 -0.7968 -0.4772 -0.3269
 2344SOL    HW218666   3.154   3.274   7.473 -1.1826 -2.0432 -0.6277
 2345SOL     OW18667   0.638   1.727  10.924 -0.4148 -0.4800 -0.5918
 2345SOL    HW118668   0.615   1.638  10.950  0.9825 -0.6326  0.1274
 2345SOL    HW218669   0.722   1.736  10.969 -0.4626 -1.5428 -0.3102
 2346SOL     OW18670   0.161   3.562   4.832  0.0308  0.0632  0.3665
 2346SOL    HW118671   0.087   3.567   4.893 -0.7585 -2.3557 -0.3747
 2346SOL    HW218672   0.209   3.643   4.850 -2.1159  0.8256  2.7037
 2347SOL     OW18673   4.542   0.320   4.817 -0.1311  0.5048 -0.1609
 2347SOL    HW118674   4.556   0.236   4.862 -0.5863 -0.5591 -1.9895
 2347SOL    HW218675   4.628   0.360   4.827  0.2101 -0.9329  2.6555
 2348SOL     OW18676   2.396   0.157   4.883 -0.0122 -0.1922 -0.4376
 2348SOL    HW118677   2.407   0.243   4.922  1.5372  0.6526 -2.7325
 2348SOL    HW218678   2.329   0.117   4.939 -0.6520  2.0203  0.3719
 2349SOL     OW18679   3.199   1.554   1.739 -0.1085 -0.5689 -0.1014
 2349SOL    HW118680   3.168   1.638   1.705 -1.8011 -0.3345  2.0372
 2349SOL    HW218681   3.175   1.493   1.669 -1.2167  0.7007 -0.8327
 2350SOL     OW18682   3.974   1.972  11.037 -0.2884  0.3584  0.1453
 2350SOL    HW118683   4.022   1.893  11.063 -2.0573 -1.1007 -1.0532
 2350SOL    HW218684   3.988   1.961  10.943  1.2215  1.9461  0.1871
 2351SOL     OW18685   0.920   1.320   6.057  0.0812  0.3221  0.2908
 2351SOL    HW118686   0.846   1.303   5.998  1.0645  0.4876 -0.9832
 2351SOL    HW218687   0.887   1.403   6.091 -1.2798 -0.8347  1.8387
 2352SOL     OW18688   1.080   2.819  10.267  0.0981 -0.2157  0.3439
 2352SOL    HW118689   1.115   2.789  10.351 -0.3377 -0.4421  0.4447
 2352SOL    HW218690   1.047   2.902  10.301  0.3832  0.2226 -0.4469
 2353SOL     OW18691   2.730   4.535  11.455  1.0174 -0.2955 -0.4743
 2353SOL    HW118692   2.639   4.505  11.458  0.5306  1.2796  0.4990
 2353SOL    HW218693   2.744   4.555  11.548  2.2516  2.3645 -1.2244
 2354SOL     OW18694   2.882   0.327   2.728  0.3480  0.5365 -0.3253
 2354SOL    HW118695   2.795   0.312   2.765  0.3269 -0.8395 -0.9227
 2354SOL    HW218696   2.940   0.321   2.804 -1.1922  0.2344  0.8357
 2355SOL     OW18697   1.922   3.084   9.107 -0.3665  0.0647 -0.1350
 2355SOL    HW118698   1.874   3.157   9.067 -2.0406 -0.2700  1.2744
 2355SOL    HW218699   1.930   3.108   9.199  4.5444 -1.2012 -0.2576
 2356SOL     OW18700   3.485   3.226  15.393 -0.9491  0.2225 -0.0339
 2356SOL    HW118701   3.438   3.250  15.473 -0.6226 -1.2657  0.5995
 2356SOL    HW218702   3.460   3.135  15.379 -0.8646  0.3411 -0.9860
 2357SOL     OW18703   4.399   3.515   7.516 -0.0032 -0.1667  0.1242
 2357SOL    HW118704   4.459   3.537   7.587  0.0080 -1.5354  0.5557
 2357SOL    HW218705   4.317   3.522   7.566  2.0379  0.0892  3.4518
 2358SOL     OW18706   0.207   3.027   6.765 -0.0410  0.2587  0.1797
 2358SOL    HW118707   0.208   3.111   6.810  2.5611  0.1556  0.3231
 2358SOL    HW218708   0.158   2.965   6.819 -1.9101  0.4114 -1.3477
 2359SOL     OW18709   0.196   1.224  13.561  0.0872 -0.1895 -0.0903
 2359SOL    HW118710   0.242   1.295  13.606 -0.0359  0.3462 -0.7978
 2359SOL    HW218711   0.109   1.222  13.601  1.2923 -0.9622  2.4889
 2360SOL     OW18712   2.839   0.880   3.645  0.4367 -0.1512 -0.1090
 2360SOL    HW118713   2.747   0.856   3.636  1.3950 -3.1726 -1.8122
 2360SOL    HW218714   2.864   0.913   3.558  0.3779  0.9001  0.2754
 2361SOL     OW18715   1.882   1.584  10.666 -0.1467  0.1189 -0.6345
 2361SOL    HW118716   1.864   1.533  10.587  2.4495 -2.8427  0.6930
 2361SOL    HW218717   1.858   1.525  10.737 -2.6534  4.4442  2.0706
 2362SOL     OW18718   0.487   4.507   0.370 -0.1350  0.2462 -0.1375
 2362SOL    HW118719   0.564   4.477   0.322  1.7271  1.2932  2.2004
 2362SOL    HW218720   0.430   4.537   0.299 -0.5254  2.9344  1.3243
 2363SOL     OW18721   0.467   2.275   4.794 -0.7641  0.0918 -0.1486
 2363SOL    HW118722   0.448   2.193   4.748 -1.8633  0.0918  0.2966
 2363SOL    HW218723   0.411   2.331   4.740  0.4360  0.3005 -1.1599
 2364SOL     OW18724   2.987   1.590   3.982  0.5394 -0.1334  0.1466
 2364SOL    HW118725   2.975   1.495   3.987 -3.4080  0.3934  1.0249
 2364SOL    HW218726   2.940   1.603   3.900 -1.8740 -1.2964  1.3492
 2365SOL     OW18727   3.009   4.218  17.646 -0.1771 -0.4315 -0.5004
 2365SOL    HW118728   3.052   4.296  17.680 -2.7496  0.0272  1.7255
 2365SOL    HW218729   2.937   4.260  17.599  1.1965  2.4119 -0.0373
 2366SOL     OW18730   3.852   2.956   7.196 -0.1132 -0.4366 -0.2811
 2366SOL    HW118731   3.830   2.934   7.106 -0.6334 -0.5975 -0.1149
 2366SOL    HW218732   3.841   3.050   7.201 -0.6294 -0.4763 -0.7256
 2367SOL     OW18733   3.835   3.242   7.871 -0.5326  0.2164 -0.2232
 2367SOL    HW118734   3.898   3.185   7.916  2.5570  2.2965 -1.8972
 2367SOL    HW218735   3.755   3.191   7.879 -0.6085  0.4156  0.3390
 2368SOL     OW18736   1.878   2.436   8.293 -0.0577 -0.1124  0.0660
 2368SOL    HW118737   1.922   2.509   8.250  0.1405 -1.4193 -1.9361
 2368SOL    HW218738   1.913   2.357   8.252  1.5297  0.6092  0.0555
 2369SOL     OW18739   1.635   4.430   2.235  0.6965  0.1561 -0.0747
 2369SOL    HW118740   1.687   4.469   2.304 -0.5400 -0.8279  1.4083
 2369SOL    HW218741   1.630   4.340   2.267  3.2496 -0.1714 -0.6346
 2370SOL     OW18742   4.172   1.745   6.251 -0.1114  0.0043 -0.4193
 2370SOL    HW118743   4.206   1.706   6.171 -0.0320  1.5914 -1.1773
 2370SOL    HW218744   4.212   1.687   6.315 -0.0680  0.6643  0.1610
 2371SOL     OW18745   1.218   0.680   3.218 -0.6413 -0.5344  0.1137
 2371SOL    HW118746   1.217   0.661   3.124  2.6725 -0.7922  0.1222
 2371SOL    HW218747   1.149   0.620   3.248 -0.5195 -0.1247  1.2267
 2372SOL     OW18748   0.787   1.152   6.223 -0.3653  0.0483 -0.5158
 2372SOL    HW118749   0.818   1.147   6.313 -0.0618 -1.1971 -0.6885
 2372SOL    HW218750   0.855   1.208   6.184 -1.9238  2.6487  0.5233
 2373SOL     OW18751   2.294   4.460  11.972 -0.2342  0.3114  0.5955
 2373SOL    HW118752   2.322   4.487  11.885 -1.1865  4.5798  1.6218
 2373SOL    HW218753   2.369   4.479  12.028 -0.8144  3.3429  0.3235
 2374SOL     OW18754   0.622   0.570  14.061 -0.0425  0.3269  0.3886
 2374SOL    HW118755   0.686   0.500  14.075 -1.7336 -0.6534  3.3254
 2374SOL    HW218756   0.627   0.582  13.966 -0.5502  0.3442  0.3622
 2375SOL     OW18757   2.380   1.385   4.482 -0.5929 -0.3225 -0.1487
 2375SOL    HW118758   2.465   1.350   4.457 -0.5303  0.7185 -1.3627
 2375SOL    HW218759   2.394   1.480   4.490  1.2179 -0.6685  0.6740
 2376SOL     OW18760   1.590   3.850   6.694  0.8695 -0.8071  0.0234
 2376SOL    HW118761   1.588   3.893   6.608  1.9596  1.6555  1.2203
 2376SOL    HW218762   1.665   3.791   6.690  0.7803 -0.8656 -0.7508
 2377SOL     OW18763   1.692   3.235   7.927  0.3812  0.1021  0.0797
 2377SOL    HW118764   1.623   3.264   7.867  2.0257 -1.7046 -2.7282
 2377SOL    HW218765   1.644   3.228   8.009 -1.4364 -2.8359 -1.2043
 2378SOL     OW18766   0.263   3.811   6.225  0.2517 -0.1390  0.1916
 2378SOL    HW118767   0.350   3.834   6.192  0.3185  1.0875  1.2000
 2378SOL    HW218768   0.234   3.751   6.156  1.9428 -0.1620 -0.4847
 2379SOL     OW18769   0.676   1.023   3.337  0.8846  0.1421  0.5216
 2379SOL    HW118770   0.685   1.114   3.308 -1.1127 -0.2798 -1.4574
 2379SOL    HW218771   0.758   0.984   3.305 -0.0349 -1.7219  0.4420
 2380SOL     OW18772   4.411   3.631  12.515 -0.0617  0.0228 -0.1103
 2380SOL    HW118773   4.471   3.585  12.574 -0.8193 -0.9187 -0.0702
 2380SOL    HW218774   4.417   3.720  12.549 -1.7902  0.0359  0.1393
 2381SOL     OW18775   1.802   4.524   8.148  0.4935  0.4983  0.0744
 2381SOL    HW118776   1.866   4.594   8.159 -0.4751  1.3488  0.2831
 2381SOL    HW218777   1.835   4.474   8.223 -3.2419 -0.3908  1.1464
 2382SOL     OW18778   0.581   4.234   3.722  0.0705 -0.1662 -0.1993
 2382SOL    HW118779   0.486   4.236   3.706  0.2648 -1.0929 -1.4578
 2382SOL    HW218780   0.586   4.150   3.769  1.8840 -0.4737 -0.9605
 2383SOL     OW18781   4.485   1.097   7.899 -0.4792  0.0096 -0.3721
 2383SOL    HW118782   4.495   1.024   7.838  2.3699 -0.2379  0.3508
 2383SOL    HW218783   4.576   1.126   7.897 -0.0958 -1.3046 -1.7054
 2384SOL     OW18784   0.770   3.176   5.483 -0.0733  0.1061 -0.1493
 2384SOL    HW118785   0.680   3.209   5.477 -0.7088 -1.1465  2.1639
 2384SOL    HW218786   0.795   3.147   5.396 -2.1465  3.2782 -1.8131
 2385SOL     OW18787   3.984   0.776  12.113 -0.3736 -0.2784  0.8580
 2385SOL    HW118788   4.076   0.757  12.095 -0.3874  0.3134  0.1513
 2385SOL    HW218789   3.949   0.771  12.024  0.6884 -1.9787  0.5292
 2386SOL     OW18790   2.250   1.330  16.209 -0.1918  0.5556  0.3423
 2386SOL    HW118791   2.304   1.252  16.204 -1.6412 -0.4149 -0.0694
 2386SOL    HW218792   2.289   1.396  16.152 -1.3415  0.6303 -0.3528
 2387SOL     OW18793   3.800   0.587   6.633  0.5325  0.0903  0.0250
 2387SOL    HW118794   3.744   0.660   6.660  1.5689  0.1325  2.0530
 2387SOL    HW218795   3.881   0.637   6.624  1.5090 -0.9987  2.8200
 2388SOL     OW18796   4.473   4.723  11.911  0.3166  0.4653 -0.3391
 2388SOL    HW118797   4.476   0.044  11.989  2.7127  0.6120 -0.5240
 2388SOL    HW218798   4.448   0.051  11.843 -1.3455 -1.2094 -1.2495
 2389SOL     OW18799   1.953   0.292   7.183 -0.4477 -0.2644  0.0901
 2389SOL    HW118800   1.917   0.358   7.242  0.2567  0.1296  0.0736
 2389SOL    HW218801   2.048   0.303   7.173 -0.1622 -2.4807  0.2340
 2390SOL     OW18802   0.483   3.841  14.477  0.4561  0.2250  0.5848
 2390SOL    HW118803   0.433   3.761  14.460 -0.3121  0.4524  1.7587
 2390SOL    HW218804   0.522   3.838  14.564 -1.0597  0.8027  1.2884
 2391SOL     OW18805   3.804   3.127  16.547  0.3915 -0.0357  0.5020
 2391SOL    HW118806   3.760   3.119  16.631  0.1117 -1.0651  0.2647
 2391SOL    HW218807   3.741   3.084  16.489  1.5723 -0.1626 -0.6907
 2392SOL     OW18808   2.047   1.272   2.446 -0.2005  0.0804 -0.0703
 2392SOL    HW118809   2.140   1.263   2.464 -0.4808  1.7875  2.2792
 2392SOL    HW218810   2.039   1.250   2.353 -1.6063  0.9161 -0.1534
 2393SOL     OW18811   2.056   3.783   8.685  0.2873  0.1030 -0.7257
 2393SOL    HW118812   2.063   3.877   8.696  0.1855  0.1935 -1.4580
 2393SOL    HW218813   2.123   3.767   8.618 -0.9405 -1.9729 -1.4627
 2394SOL     OW18814   3.772   2.602   7.439 -0.0674 -0.0947  0.0770
 2394SOL    HW118815   3.769   2.697   7.449 -2.2055 -0.4627  2.9340
 2394SOL    HW218816   3.728   2.587   7.355  0.5129 -1.1384 -0.0456
 2395SOL     OW18817   4.241   4.453   6.387 -0.1629  0.9064  0.2878
 2395SOL    HW118818   4.238   4.485   6.297  0.5885  1.0496  0.3171
 2395SOL    HW218819   4.337   4.450   6.390 -0.3127 -3.7476  0.5905
 2396SOL     OW18820   4.487   2.162   1.948  0.2028 -0.3390 -0.1028
 2396SOL    HW118821   4.410   2.146   2.002 -1.0389 -1.5348 -2.2280
 2396SOL    HW218822   4.474   2.100   1.876 -1.4305  1.2902 -1.2009
 2397SOL     OW18823   2.150   2.463   5.732 -0.7887 -0.1360  0.1241
 2397SOL    HW118824   2.214   2.523   5.772 -1.0300 -0.1069  0.4659
 2397SOL    HW218825   2.164   2.375   5.768 -3.2200 -0.8987 -0.8413
 2398SOL     OW18826   2.655   0.422   5.971 -0.4287  0.1006 -0.4455
 2398SOL    HW118827   2.680   0.495   5.913  1.0794 -0.0904 -0.0295
 2398SOL    HW218828   2.725   0.411   6.035  0.2044 -0.5845 -1.2644
 2399SOL     OW18829   4.084   2.141   5.746 -0.6301 -0.1932  0.1328
 2399SOL    HW118830   4.104   2.211   5.808 -0.8809  0.0368 -0.0407
 2399SOL    HW218831   4.025   2.181   5.682 -0.8175 -0.5073  0.1088
 2400SOL     OW18832   1.913   1.163   4.836 -0.1861 -0.2321  0.1353
 2400SOL    HW118833   1.834   1.156   4.783 -1.3370 -2.4502  2.1141
 2400SOL    HW218834   1.912   1.075   4.876 -0.1330 -0.7731 -1.0723
 2401SOL     OW18835   4.163   1.674   4.911  0.0920 -0.0268 -0.0308
 2401SOL    HW118836   4.113   1.640   4.985 -2.4023 -2.1736 -2.7111
 2401SOL    HW218837   4.144   1.606   4.847  1.4316  0.5278 -1.0125
 2402SOL     OW18838   2.813   0.302   0.916 -0.4450  0.2725  0.0729
 2402SOL    HW118839   2.744   0.255   0.869 -1.2069 -0.1420  1.5673
 2402SOL    HW218840   2.816   0.243   0.992 -2.7490 -0.9988 -0.8067
 2403SOL     OW18841   4.337   2.634   2.301  0.5852 -0.4973 -0.0170
 2403SOL    HW118842   4.375   2.570   2.362 -0.5117 -2.0239 -0.9421
 2403SOL    HW218843   4.396   2.635   2.226  0.1965 -0.5855 -0.3260
 2404SOL     OW18844   2.791   2.053  15.410 -0.1423 -0.1159  0.1121
 2404SOL    HW118845   2.794   2.074  15.317  1.0790 -1.8111 -0.2361
 2404SOL    HW218846   2.841   2.126  15.446 -0.0772  1.0831 -2.3999
 2405SOL     OW18847   0.713   1.479   9.005  0.9240 -0.2405 -0.1515
 2405SOL    HW118848   0.646   1.518   8.949 -2.1410 -0.9794  2.9847
 2405SOL    HW218849   0.737   1.548   9.066  1.2489 -0.0681 -0.4727
 2406SOL     OW18850   4.323   4.688   7.431 -0.4388 -0.5556 -0.1188
 2406SOL    HW118851   4.382   0.023   7.402  1.9510 -2.0371  1.1823
 2406SOL    HW218852   4.365   4.647   7.507 -0.6854 -0.2274  0.1949
 2407SOL     OW18853   3.590   1.247   9.148  0.6495 -0.3335  0.0215
 2407SOL    HW118854   3.511   1.228   9.096  1.1583 -0.4172 -0.7254
 2407SOL    HW218855   3.616   1.327   9.102  2.0119  0.9258  3.0118
 2408SOL     OW18856   3.504   1.237   7.446 -0.1178  0.1170 -0.3064
 2408SOL    HW118857   3.525   1.143   7.448 -1.7137 -0.2270  0.6757
 2408SOL    HW218858   3.517   1.256   7.538  0.5329 -1.9082  0.0246
 2409SOL     OW18859   1.582   0.055  12.213 -0.3507  0.0539 -0.7097
 2409SOL    HW118860   1.620   4.706  12.239 -2.1883 -0.9404 -1.2422
 2409SOL    HW218861   1.498   0.045  12.259  0.1725  0.6888  0.3872
 2410SOL     OW18862   2.084   4.543   9.148 -0.5971 -0.1858  0.0743
 2410SOL    HW118863   2.063   4.588   9.066 -2.3267 -1.8654 -0.4108
 2410SOL    HW218864   2.076   4.453   9.119 -0.0708 -0.7874  1.7959
 2411SOL     OW18865   0.967   0.064   5.138  0.2171 -0.3987 -0.2712
 2411SOL    HW118866   0.910   0.009   5.084  1.5879 -0.6115 -1.5213
 2411SOL    HW218867   0.947   0.154   5.112 -1.0759 -0.6555 -0.1458
 2412SOL     OW18868   3.305   1.885   5.712  0.0686  0.5416 -0.4908
 2412SOL    HW118869   3.350   1.957   5.756  1.5063 -0.1176 -0.8694
 2412SOL    HW218870   3.360   1.812   5.741 -0.1363  0.6103  0.0583
 2413SOL     OW18871   4.490   4.624   2.350  0.2131  0.5553  0.5575
 2413SOL    HW118872   4.429   4.697   2.340 -0.3092 -0.0860 -0.8663
 2413SOL    HW218873   4.561   4.666   2.301 -1.0679  2.0238 -0.0182
 2414SOL     OW18874   4.387   2.892   7.381 -0.3257  0.0474  0.5913
 2414SOL    HW118875   4.475   2.895   7.342 -0.3562  0.9239  0.5968
 2414SOL    HW218876   4.334   2.905   7.303  1.7016  0.9075 -0.6490
 2415SOL     OW18877   1.126   3.477   5.384  0.6117 -0.1336  0.2054
 2415SOL    HW118878   1.144   3.564   5.419 -0.9817  0.7152 -1.0358
 2415SOL    HW218879   1.212   3.436   5.383  0.5940 -0.1751  0.3684
 2416SOL     OW18880   2.904   4.353  17.291  0.2832  0.1815  0.7984
 2416SOL    HW118881   2.980   4.403  17.260  0.4713 -0.3929  0.3345
 2416SOL    HW218882   2.900   4.374  17.384 -0.1097  0.8240  0.6352
 2417SOL     OW18883   4.011   4.064   5.617  0.5430  0.2834 -0.0899
 2417SOL    HW118884   4.040   4.071   5.526  2.0222 -3.5098  0.0687
 2417SOL    HW218885   4.027   4.153   5.647 -0.5881  0.4771 -0.0396
 2418SOL     OW18886   0.518   0.336   3.695 -0.2076 -0.2590 -0.1136
 2418SOL    HW118887   0.528   0.401   3.626  1.2597 -0.1953  0.1501
 2418SOL    HW218888   0.437   0.354   3.743 -0.0755 -1.2319  0.4795
 2419SOL     OW18889   0.681   0.194   8.538  0.1217 -0.5070 -1.1069
 2419SOL    HW118890   0.617   0.261   8.561  0.9653 -0.1276  0.1871
 2419SOL    HW218891   0.636   0.122   8.582  1.3240  0.2671  1.4296
 2420SOL     OW18892   3.828   1.151   1.504  0.5701  0.0955 -0.1329
 2420SOL    HW118893   3.774   1.095   1.448  0.7484  1.3088 -1.5195
 2420SOL    HW218894   3.787   1.135   1.588  0.8497  0.9552  0.1667
 2421SOL     OW18895   2.121   1.261   4.529  0.3791 -0.0171 -0.1688
 2421SOL    HW118896   2.193   1.323   4.537  2.2573 -1.9205 -2.2151
 2421SOL    HW218897   2.165   1.195   4.583 -0.8053 -0.9146 -0.2754
 2422SOL     OW18898   3.029   4.059   2.353 -0.7220  0.1922  0.1436
 2422SOL    HW118899   3.118   4.082   2.326  0.2866 -1.7828  1.7876
 2422SOL    HW218900   2.973   4.110   2.295  0.9643  1.0280 -0.7402
 2423SOL     OW18901   2.317   1.885   7.404  0.5312 -0.6914  0.7791
 2423SOL    HW118902   2.347   1.795   7.416 -1.5128 -1.4497  0.0991
 2423SOL    HW218903   2.365   1.917   7.327 -0.8390 -2.5226 -0.8118
 2424SOL     OW18904   1.988   3.553   7.204  0.4589 -0.3974 -0.4251
 2424SOL    HW118905   2.005   3.637   7.162  0.8476 -0.7293 -0.9326
 2424SOL    HW218906   2.073   3.531   7.242 -0.3714 -0.7984  1.2177
 2425SOL     OW18907   2.600   0.977   0.810  0.3454 -0.3463  0.6725
 2425SOL    HW118908   2.559   0.893   0.828 -2.6782  1.0567  0.5312
 2425SOL    HW218909   2.692   0.956   0.798 -0.1921 -0.9867 -2.3303
 2426SOL     OW18910   4.492   4.179   8.147  0.2269 -0.5401  0.1359
 2426SOL    HW118911   4.524   4.219   8.065  1.2187 -2.7248 -0.5394
 2426SOL    HW218912   4.569   4.125   8.165 -0.6308 -1.8188 -0.1083
 2427SOL     OW18913   1.223   1.077  12.423  0.4276 -0.0318  0.1952
 2427SOL    HW118914   1.251   1.162  12.390  0.5819 -0.4616 -0.8025
 2427SOL    HW218915   1.261   1.021  12.355  0.4629 -2.1575  1.9704
 2428SOL     OW18916   2.520   4.470  14.715 -0.3240 -0.4176  0.4349
 2428SOL    HW118917   2.543   4.509  14.630 -0.7362  2.8455  1.8238
 2428SOL    HW218918   2.521   4.380  14.685 -0.5148  0.0793 -1.0568
 2429SOL     OW18919   2.699   3.991   5.887 -0.3139 -0.3144  0.5617
 2429SOL    HW118920   2.716   3.992   5.793  1.2611  1.3430  0.8954
 2429SOL    HW218921   2.777   3.957   5.932  0.6154 -0.1702 -0.9659
 2430SOL     OW18922   3.998   4.193   8.298 -0.8687  0.2384 -0.3632
 2430SOL    HW118923   3.930   4.165   8.238 -1.0838 -1.7488  0.8203
 2430SOL    HW218924   4.076   4.177   8.244 -0.7682 -1.8520  0.4364
 2431SOL     OW18925   2.880   1.616   2.329 -0.4721 -0.1077  0.0879
 2431SOL    HW118926   2.822   1.687   2.301 -1.4639 -0.9196  0.0918
 2431SOL    HW218927   2.819   1.544   2.341 -1.3725  0.4206 -1.3331
 2432SOL     OW18928   2.239   0.686   7.197 -0.1686  0.6712 -0.1901
 2432SOL    HW118929   2.189   0.739   7.136  0.8242  0.6522 -1.0284
 2432SOL    HW218930   2.167   0.655   7.251  0.2970 -0.6055 -0.2767
 2433SOL     OW18931   1.676   4.562   2.508 -0.0902  0.1330  0.2986
 2433SOL    HW118932   1.590   4.586   2.542 -0.1507 -1.2234  1.0847
 2433SOL    HW218933   1.721   4.530   2.586 -1.1587  1.0360  1.2797
 2434SOL     OW18934   0.608   4.687   8.665 -0.1014 -0.2514 -0.5041
 2434SOL    HW118935   0.537   4.703   8.728  0.7123  0.4320  0.2308
 2434SOL    HW218936   0.682   4.670   8.722 -0.6397 -0.2479  0.1893
 2435SOL     OW18937   1.443   3.614   4.664 -0.0914 -0.3114  0.4130
 2435SOL    HW118938   1.453   3.709   4.671  1.5776 -0.3714 -1.0453
 2435SOL    HW218939   1.503   3.590   4.734  3.3088  0.9574 -2.0246
 2436SOL     OW18940   3.524   3.055   4.894  0.0183  0.0165  0.4224
 2436SOL    HW118941   3.601   3.014   4.854  0.0238  1.0007 -0.5778
 2436SOL    HW218942   3.470   2.978   4.913  0.0794 -0.2760 -0.5811
 2437SOL     OW18943   3.686   1.401   7.337  0.5489  0.1010  0.0970
 2437SOL    HW118944   3.659   1.489   7.363 -1.6375 -0.9957  1.5021
 2437SOL    HW218945   3.614   1.353   7.378  0.3230  1.3835  1.2283
 2438SOL     OW18946   0.337   0.876   5.180  0.1732 -0.0398 -0.0895
 2438SOL    HW118947   0.401   0.931   5.226 -0.3457  1.4727 -1.1766
 2438SOL    HW218948   0.312   0.953   5.128 -0.4551  0.1539  0.4981
 2439SOL     OW18949   1.318   3.582   8.720  0.4264 -0.8235 -0.2544
 2439SOL    HW118950   1.259   3.510   8.698 -0.9045 -0.4700  2.2228
 2439SOL    HW218951   1.401   3.539   8.737 -0.0191 -0.6640  2.3030
 2440SOL     OW18952   1.574   2.811   7.201 -0.4767  0.2020  0.1198
 2440SOL    HW118953   1.670   2.811   7.205 -0.4411 -0.3833 -0.7396
 2440SOL    HW218954   1.557   2.780   7.290  0.3668  0.1833  0.2713
 2441SOL     OW18955   0.093   3.260   4.060 -0.3941 -0.0343  0.0139
 2441SOL    HW118956   0.105   3.184   4.003  0.8797  0.7199 -0.7323
 2441SOL    HW218957   0.059   3.225   4.142  0.6000  1.1603  0.9368
 2442SOL     OW18958   1.859   3.835   1.340  0.4334  0.6119 -0.2426
 2442SOL    HW118959   1.802   3.779   1.287 -0.7513  0.5064  1.1431
 2442SOL    HW218960   1.810   3.836   1.422  0.4423 -0.0097 -0.2300
 2443SOL     OW18961   1.598   1.560   2.143 -0.2343  0.1749 -0.6194
 2443SOL    HW118962   1.673   1.594   2.094  0.7811 -0.4577  0.4802
 2443SOL    HW218963   1.522   1.607   2.109 -0.8727 -0.5610 -0.1974
 2444SOL     OW18964   3.180   0.934  16.534  0.0992  0.2530 -0.1104
 2444SOL    HW118965   3.178   0.961  16.442 -0.1972  1.0834  0.1434
 2444SOL    HW218966   3.186   0.839  16.521  1.3328  0.4139 -0.6983
 2445SOL     OW18967   4.699   3.839   0.573 -0.4105  0.1184  0.0095
 2445SOL    HW118968   4.697   3.840   0.668  0.7372 -0.2757  0.0427
 2445SOL    HW218969   0.049   3.797   0.556 -0.8800 -0.1554 -1.7194
 2446SOL     OW18970   1.502   2.218  15.071  0.5754  0.0763  0.5733
 2446SOL    HW118971   1.473   2.302  15.033  0.0200 -0.5880 -0.4724
 2446SOL    HW218972   1.534   2.183  14.988 -1.2764  1.4294 -0.7268
 2447SOL     OW18973   0.976   1.504  13.429  0.3040 -0.3812 -0.0528
 2447SOL    HW118974   0.941   1.441  13.492  2.7784  0.5087  2.2310
 2447SOL    HW218975   0.902   1.563  13.425 -1.4989 -2.6997 -1.0972
 2448SOL     OW18976   1.966   1.818  10.164 -0.5044 -0.4039  0.6571
 2448SOL    HW118977   1.911   1.876  10.112  0.2405 -1.3191 -1.1278
 2448SOL    HW218978   1.972   1.869  10.245  1.2778  0.8039 -0.2267
 2449SOL     OW18979   4.625   3.023   4.669 -0.3920  0.6676 -0.4065
 2449SOL    HW118980   4.697   3.046   4.610  0.5002 -2.5050 -0.5012
 2449SOL    HW218981   4.643   3.090   4.735  3.3151 -2.3979  1.6996
 2450SOL     OW18982   3.927   1.714   6.317 -0.0565 -0.0983 -0.9015
 2450SOL    HW118983   4.012   1.752   6.299 -0.5640  2.0360  1.2899
 2450SOL    HW218984   3.919   1.675   6.230  1.0361 -0.2726 -0.9172
 2451SOL     OW18985   1.076   3.093   1.889  0.3101 -0.1832 -0.1593
 2451SOL    HW118986   0.991   3.068   1.853 -0.9504  0.6829  2.1884
 2451SOL    HW218987   1.114   3.129   1.809 -0.6058 -2.9400 -1.8406
 2452SOL     OW18988   0.123   3.879  11.969 -0.4645 -0.6159  0.2775
 2452SOL    HW118989   0.089   3.959  12.009 -0.7308 -0.8907  0.6013
 2452SOL    HW218990   0.076   3.876  11.885 -1.9278  0.8542  1.0432
 2453SOL     OW18991   3.386   0.731   4.584  0.1351  0.6550  0.7417
 2453SOL    HW118992   3.452   0.798   4.572 -0.2943  1.2697  1.8160
 2453SOL    HW218993   3.396   0.709   4.677 -1.6223 -0.0686  0.7719
 2454SOL     OW18994   1.391   0.598  15.579  0.0098  0.4553 -0.0090
 2454SOL    HW118995   1.467   0.627  15.529  0.2621  0.4135  0.3485
 2454SOL    HW218996   1.351   0.552  15.506 -0.5567  2.3572 -0.9081
 2455SOL     OW18997   3.229   1.368   5.748 -0.0363  0.1019 -1.0186
 2455SOL    HW118998   3.162   1.404   5.806  2.0379 -1.3625  2.2224
 2455SOL    HW218999   3.229   1.276   5.774  0.1894  0.6672  0.9232
 2456SOL     OW19000   1.690   3.249   7.160 -0.0761  0.1822 -0.1410
 2456SOL    HW119001   1.698   3.323   7.101 -2.0789  0.8485  0.4324
 2456SOL    HW219002   1.658   3.187   7.094 -5.1749  0.3360  2.1456
 2457SOL     OW19003   0.719   0.141  17.117  0.2645  0.0243 -0.4368
 2457SOL    HW119004   0.662   0.199  17.168  0.3969 -0.2450  0.0199
 2457SOL    HW219005   0.805   0.149  17.158 -0.0517  0.5543  0.1231
 2458SOL     OW19006   1.712   4.242  14.572  0.2027 -0.3598  0.5154
 2458SOL    HW119007   1.637   4.301  14.576 -1.0460 -2.0864  2.2852
 2458SOL    HW219008   1.718   4.216  14.481 -0.6298  1.8005 -0.1488
 2459SOL     OW19009   0.453   2.063  14.875 -0.1536  0.3401 -0.0606
 2459SOL    HW119010   0.448   1.990  14.937  0.2312 -0.0487 -0.4913
 2459SOL    HW219011   0.420   2.134  14.930 -1.3569  1.0550 -1.7176
 2460SOL     OW19012   1.887   3.555   6.528 -0.6845 -0.0727 -0.1683
 2460SOL    HW119013   1.834   3.475   6.527  1.0506 -1.2866  2.7746
 2460SOL    HW219014   1.877   3.576   6.436  0.0415 -1.0916 -0.4915
 2461SOL     OW19015   2.025   0.659   7.642  0.3092 -0.0717 -0.2924
 2461SOL    HW119016   2.004   0.648   7.735 -0.4420  1.7222 -0.2440
 2461SOL    HW219017   2.116   0.630   7.636  0.2829 -0.4273  1.0026
 2462SOL     OW19018   1.322   2.138   4.870 -0.2662  0.3798 -0.2973
 2462SOL    HW119019   1.384   2.155   4.800  1.1749 -2.7000  0.2214
 2462SOL    HW219020   1.282   2.056   4.840  1.8835 -0.8696  0.2309
 2463SOL     OW19021   1.414   0.847   2.842 -0.0155 -0.7074 -0.0816
 2463SOL    HW119022   1.456   0.821   2.759  0.4855  1.0501 -0.3741
 2463SOL    HW219023   1.401   0.942   2.836  0.0852 -0.6730  0.2791
 2464SOL     OW19024   3.802   3.522   9.271  0.2107  0.3098 -0.0989
 2464SOL    HW119025   3.839   3.478   9.347  0.5866  1.6036  0.4710
 2464SOL    HW219026   3.710   3.542   9.291 -0.5090 -1.0383 -2.0147
 2465SOL     OW19027   3.350   3.073   1.099  0.1101  0.4838  0.2807
 2465SOL    HW119028   3.384   3.034   1.180 -1.1344  0.5609  0.8272
 2465SOL    HW219029   3.386   3.161   1.101 -0.3141  0.7063 -1.7789
 2466SOL     OW19030   0.456   1.983   9.523  0.5810 -0.1097 -0.3370
 2466SOL    HW119031   0.524   2.020   9.579  1.7335 -2.3019 -0.2687
 2466SOL    HW219032   0.454   2.049   9.454 -2.9146 -1.4415 -1.5483
 2467SOL     OW19033   1.009   3.417   7.040  0.2277 -0.3236 -0.2492
 2467SOL    HW119034   1.069   3.344   7.053  1.0450  0.4871  0.5488
 2467SOL    HW219035   1.065   3.479   6.993  0.2988  0.0659  0.3413
 2468SOL     OW19036   0.411   4.152   4.353 -0.0266 -0.4531  0.2001
 2468SOL    HW119037   0.344   4.217   4.374 -0.2333 -0.2825 -0.9943
 2468SOL    HW219038   0.477   4.212   4.319 -1.0522 -0.9874 -2.7002
 2469SOL     OW19039   0.808   0.393   3.620  0.0909  0.4895  0.4443
 2469SOL    HW119040   0.808   0.445   3.700 -0.9939 -0.3057  0.9468
 2469SOL    HW219041   0.780   0.305   3.640  0.3694  0.2271 -0.2945
 2470SOL     OW19042   0.454   0.355   4.420  0.7876  0.4378 -0.0192
 2470SOL    HW119043   0.523   0.292   4.401  0.9724  0.3959  0.8054
 2470SOL    HW219044   0.387   0.301   4.462  2.0376 -0.7665  0.4187
 2471SOL     OW19045   3.138   3.411   2.817  0.3099  0.3821  0.3146
 2471SOL    HW119046   3.054   3.402   2.863  0.7048 -0.2282  0.9154
 2471SOL    HW219047   3.169   3.496   2.846  2.3086 -0.4650  0.6520
 2472SOL     OW19048   3.551   0.654   9.032 -0.6845 -0.2039 -0.4768
 2472SOL    HW119049   3.584   0.613   8.952  3.5996 -0.4705  1.4374
 2472SOL    HW219050   3.532   0.742   8.999 -3.0671 -0.2452  0.7349
 2473SOL     OW19051   0.932   0.654  13.900  0.2102  0.5905 -0.4692
 2473SOL    HW119052   0.927   0.579  13.958  0.9431  0.4929 -0.5392
 2473SOL    HW219053   0.843   0.640  13.865 -0.1180  3.9215 -0.9796
 2474SOL     OW19054   3.552   2.850   5.535  0.1282 -0.4604  0.0784
 2474SOL    HW119055   3.565   2.945   5.546 -0.5308 -0.2122 -1.1992
 2474SOL    HW219056   3.571   2.857   5.441 -2.5146  2.8543 -0.2196
 2475SOL     OW19057   3.139   0.831   2.269 -0.0740 -0.0407 -0.0745
 2475SOL    HW119058   3.195   0.800   2.198  0.0432 -1.3736  0.5915
 2475SOL    HW219059   3.095   0.755   2.308  0.4928 -0.7537 -0.8329
 2476SOL     OW19060   0.253   3.966  12.354 -0.4242 -0.7048 -0.2010
 2476SOL    HW119061   0.324   3.958  12.418 -2.3451  0.9159  2.1330
 2476SOL    HW219062   0.305   3.969  12.275 -0.1693 -0.6546 -0.0306
 2477SOL     OW19063   0.991   4.427   0.488  0.2559 -0.5566 -0.6597
 2477SOL    HW119064   0.965   4.457   0.400 -1.4621  0.0475  0.0465
 2477SOL    HW219065   1.023   4.338   0.473 -0.7202 -1.2552  1.5262
 2478SOL     OW19066   1.445   2.407   3.519  0.7347 -0.4582  0.4125
 2478SOL    HW119067   1.475   2.343   3.584  1.0182 -1.1756 -0.4283
 2478SOL    HW219068   1.350   2.407   3.528  0.7967  0.5490  1.0160
 2479SOL     OW19069   0.479   4.118   8.562 -0.3194 -0.3637 -0.4977
 2479SOL    HW119070   0.431   4.086   8.639 -0.7173 -4.6195 -2.5121
 2479SOL    HW219071   0.456   4.047   8.501  0.5783 -2.1565  1.2618
 2480SOL     OW19072   3.389   2.482   6.662 -0.0273 -0.0153 -0.8577
 2480SOL    HW119073   3.380   2.412   6.597 -2.7792  0.2471 -0.7557
 2480SOL    HW219074   3.319   2.541   6.635 -0.4930 -0.3953 -0.4698
 2481SOL     OW19075   2.066   4.153   5.313  0.2814  0.1321 -0.2907
 2481SOL    HW119076   2.126   4.089   5.276  2.2782  1.5019  0.5721
 2481SOL    HW219077   2.077   4.224   5.250  3.0258 -1.9457 -2.1277
 2482SOL     OW19078   4.496   2.968  14.791  0.3077  0.0101  0.0518
 2482SOL    HW119079   4.501   3.013  14.876  0.7502 -0.6309  0.3625
 2482SOL    HW219080   4.532   3.043  14.743 -1.1745 -0.0469 -1.1258
 2483SOL     OW19081   1.906   2.650   3.826 -0.1564  0.0441 -0.1561
 2483SOL    HW119082   1.995   2.613   3.827  0.0015  0.4189 -0.5706
 2483SOL    HW219083   1.887   2.664   3.734  1.1879 -1.1037 -0.6182
 2484SOL     OW19084   3.912   4.139   1.650 -0.6092 -0.0551  0.0748
 2484SOL    HW119085   3.937   4.124   1.559 -0.2862 -0.6532  0.2662
 2484SOL    HW219086   3.899   4.234   1.649  1.2065  0.1934 -0.3968
 2485SOL     OW19087   0.172   2.153  11.986 -0.2438  0.2077  0.1784
 2485SOL    HW119088   0.206   2.124  11.902  1.4603  0.4173  0.7927
 2485SOL    HW219089   0.082   2.168  11.959  0.0795  3.6186  0.9176
 2486SOL     OW19090   4.259   1.066   2.136 -0.2933 -0.0157 -0.6157
 2486SOL    HW119091   4.182   1.010   2.129  0.4246 -1.2183  1.1574
 2486SOL    HW219092   4.225   1.146   2.095 -1.4405  0.9045  2.1122
 2487SOL     OW19093   0.218   4.391   2.108 -0.3644  0.1466  0.5466
 2487SOL    HW119094   0.186   4.460   2.165  1.3256  1.0604  0.3855
 2487SOL    HW219095   0.157   4.400   2.035 -0.5683 -2.2167  0.4229
 2488SOL     OW19096   1.266   2.605   7.521 -0.6858 -0.1645  0.5749
 2488SOL    HW119097   1.276   2.557   7.603  2.1258  1.3489  1.1429
 2488SOL    HW219098   1.207   2.676   7.546 -0.7020  0.3860 -1.0223
 2489SOL     OW19099   3.701   1.227   6.841  0.0890 -0.0098 -0.3257
 2489SOL    HW119100   3.669   1.282   6.912  0.7231  0.5506 -0.4798
 2489SOL    HW219101   3.623   1.172   6.832 -0.1394 -0.3198  3.6519
 2490SOL     OW19102   0.395   1.090   9.342  0.5187  0.2296  0.1919
 2490SOL    HW119103   0.427   1.120   9.427  0.6782 -1.2989  0.6703
 2490SOL    HW219104   0.325   1.030   9.366 -1.1931  1.7626 -0.8991
 2491SOL     OW19105   3.297   1.350   4.328  0.1094 -0.6183 -0.0635
 2491SOL    HW119106   3.212   1.391   4.342  0.2679 -0.2741 -0.1019
 2491SOL    HW219107   3.264   1.272   4.284  2.5700 -1.3185 -0.6902
 2492SOL     OW19108   1.727   0.426  16.847  0.4271  0.1684  0.7726
 2492SOL    HW119109   1.776   0.347  16.870 -1.3036 -1.3503 -0.8471
 2492SOL    HW219110   1.644   0.389  16.817  1.0648 -0.9809  0.4427
 2493SOL     OW19111   0.248   3.695   8.227  0.2849  0.4448 -0.6724
 2493SOL    HW119112   0.161   3.699   8.267 -0.1357 -1.2956 -1.4043
 2493SOL    HW219113   0.229   3.614   8.178 -2.3930 -0.8681  2.5730
 2494SOL     OW19114   3.862   1.349   5.422  0.2847 -0.0618  0.0935
 2494SOL    HW119115   3.939   1.405   5.428  0.4798 -0.5650  2.5452
 2494SOL    HW219116   3.799   1.406   5.468  1.1206  1.0130 -0.1163
 2495SOL     OW19117   0.510   0.117   6.382  0.3581  0.3206 -0.0390
 2495SOL    HW119118   0.532   0.031   6.419 -2.3026 -0.5088 -0.3877
 2495SOL    HW219119   0.595   0.160   6.381 -0.6468  2.2709 -1.2247
 2496SOL     OW19120   1.798   2.570   5.599 -0.7551 -0.0556  0.1926
 2496SOL    HW119121   1.879   2.565   5.548 -0.9484  2.1514 -0.3376
 2496SOL    HW219122   1.745   2.541   5.524 -2.3816  1.8694  0.6034
 2497SOL     OW19123   3.805   1.863   2.665 -0.0789 -0.0890 -0.0726
 2497SOL    HW119124   3.898   1.878   2.679 -0.3325 -0.7016  2.2844
 2497SOL    HW219125   3.796   1.829   2.754  0.2617 -0.5631 -0.2168
 2498SOL     OW19126   1.308   3.739   0.566  0.5767  0.4353 -0.0110
 2498SOL    HW119127   1.384   3.796   0.548  1.1620  0.0266  1.1859
 2498SOL    HW219128   1.304   3.761   0.659  0.7391 -0.9934  0.3276
 2499SOL     OW19129   1.892   3.989   7.133  0.2507 -0.3163  0.0615
 2499SOL    HW119130   1.948   3.913   7.116  1.7251  0.2835  2.2645
 2499SOL    HW219131   1.950   4.041   7.189  1.0394  0.5533 -1.5736
 2500SOL     OW19132   0.295   1.245   4.543 -0.3378 -0.4173 -0.1606
 2500SOL    HW119133   0.264   1.177   4.483  3.1628 -0.2106 -2.2226
 2500SOL    HW219134   0.304   1.199   4.626 -0.2621  0.2694  0.2168
 2501SOL     OW19135   0.443   2.249   7.249 -0.3091 -0.2159  0.5581
 2501SOL    HW119136   0.428   2.160   7.282  1.4959  0.0991  2.1825
 2501SOL    HW219137   0.362   2.292   7.276 -0.8410 -1.8639  1.6015
 2502SOL     OW19138   1.483   4.398  14.892  0.2481  0.3301  0.2029
 2502SOL    HW119139   1.472   4.303  14.896 -1.5151  0.2604 -5.3916
 2502SOL    HW219140   1.402   4.430  14.852  1.9254  1.5162 -2.3294
 2503SOL     OW19141   0.218   3.485   8.511  0.5372 -0.1211 -0.1105
 2503SOL    HW119142   0.235   3.558   8.570  0.0887 -1.8833  2.2151
 2503SOL    HW219143   0.298   3.485   8.458  0.1273  1.6502 -0.7204
 2504SOL     OW19144   3.824   3.120  17.600  0.4824 -0.0930 -0.7457
 2504SOL    HW119145   3.770   3.058  17.553  0.1181 -1.3931  1.3836
 2504SOL    HW219146   3.763   3.193  17.610  1.3563  0.5030  0.2666
 2505SOL     OW19147   3.900   2.001   7.272  0.2856  0.4084  0.0504
 2505SOL    HW119148   3.892   1.953   7.190  0.9501  1.0298 -0.3819
 2505SOL    HW219149   3.949   1.932   7.316  0.7835 -0.9387 -2.5913
 2506SOL     OW19150   3.850   2.330   4.489 -0.1881 -0.2716  0.4270
 2506SOL    HW119151   3.932   2.348   4.534  0.6387 -1.2867 -0.6582
 2506SOL    HW219152   3.857   2.235   4.490 -1.3550 -0.3734 -0.4883
 2507SOL     OW19153   0.269   1.475  15.143  0.2424 -0.2704  0.1507
 2507SOL    HW119154   0.219   1.449  15.065 -2.5475  0.3453  1.7388
 2507SOL    HW219155   0.272   1.393  15.193  0.4430 -0.6667 -0.5034
 2508SOL     OW19156   0.815   0.264  15.171 -0.1742 -0.1439 -0.1462
 2508SOL    HW119157   0.762   0.324  15.118  0.8150 -0.4170 -1.4559
 2508SOL    HW219158   0.839   0.188  15.118 -1.2241 -0.3180 -0.3704
 2509SOL     OW19159   4.355   3.972   9.442 -0.4135  0.5581  0.0140
 2509SOL    HW119160   4.336   4.062   9.469 -1.2059  0.6244 -0.7783
 2509SOL    HW219161   4.318   3.921   9.515  0.3171 -2.0344 -1.4145
 2510SOL     OW19162   3.687   3.922   2.685 -0.1637 -0.1713 -0.4848
 2510SOL    HW119163   3.711   4.003   2.730 -2.3281 -0.5415  1.3058
 2510SOL    HW219164   3.768   3.893   2.642 -0.4249 -0.2352 -0.9304
 2511SOL     OW19165   1.113   1.992  11.108 -0.4057  0.1146  0.6892
 2511SOL    HW119166   1.039   2.007  11.167 -1.2503  0.1692 -0.3624
 2511SOL    HW219167   1.182   1.972  11.171  0.4953 -1.1066 -0.6952
 2512SOL     OW19168   4.552   4.153   6.337 -0.6017 -0.3063  0.2113
 2512SOL    HW119169   4.552   4.074   6.283 -1.5453  0.2187 -0.5587
 2512SOL    HW219170   4.542   4.108   6.421 -0.3651 -1.0250 -0.1466
 2513SOL     OW19171   2.298   3.599   2.013  0.4103 -0.5765  0.0351
 2513SOL    HW119172   2.269   3.686   1.985  1.4669  0.0881  1.0302
 2513SOL    HW219173   2.327   3.566   1.928  1.7412  1.0597 -0.1430
 2514SOL     OW19174   3.447   1.768  14.571 -0.4384  0.1805  0.1751
 2514SOL    HW119175   3.445   1.760  14.476  1.7466  1.0113  0.0539
 2514SOL    HW219176   3.410   1.856  14.584  1.5533  0.9520  0.5664
 2515SOL     OW19177   3.013   4.122   5.015 -0.5266 -0.2396  0.2144
 2515SOL    HW119178   2.927   4.108   4.975 -1.1427  0.0792  1.4210
 2515SOL    HW219179   2.993   4.070   5.094 -0.9976 -0.5597 -0.1142
 2516SOL     OW19180   0.064   3.799   1.438  0.3435 -0.0627  0.1058
 2516SOL    HW119181   0.152   3.830   1.421  0.4628  0.4244  1.6183
 2516SOL    HW219182   0.012   3.841   1.369  1.3435 -0.8967 -1.1420
 2517SOL     OW19183   4.493   3.398  14.616 -0.0781 -0.5690  0.4595
 2517SOL    HW119184   4.529   3.319  14.657 -0.1436 -1.1704 -0.6386
 2517SOL    HW219185   4.468   3.360  14.531 -1.1978  0.1168  0.4803
 2518SOL     OW19186   0.505   4.585   5.132  0.0564 -0.3612  0.4424
 2518SOL    HW119187   0.568   4.633   5.077  0.7611  0.6205  2.1050
 2518SOL    HW219188   0.486   4.509   5.078 -0.9510  0.7624 -0.8087
 2519SOL     OW19189   0.961   4.236   2.442 -0.3412  0.2351  0.2094
 2519SOL    HW119190   0.963   4.260   2.535  1.0586  0.5879  0.0890
 2519SOL    HW219191   0.995   4.146   2.440  2.2334  1.2040  0.6440
 2520SOL     OW19192   2.243   0.646   2.499  0.2421 -0.4828 -0.2080
 2520SOL    HW119193   2.226   0.652   2.405 -0.2765 -0.8607 -0.1399
 2520SOL    HW219194   2.296   0.567   2.493 -0.1473 -0.8273  0.8722
 2521SOL     OW19195   4.543   2.349   9.683 -0.7173  0.5095 -0.3905
 2521SOL    HW119196   4.594   2.412   9.631 -0.8734  0.2897 -0.8157
 2521SOL    HW219197   4.597   2.343   9.762 -0.8117  2.2109 -0.1884
 2522SOL     OW19198   4.054   4.186   9.614  0.2653 -0.1870  0.2179
 2522SOL    HW119199   4.005   4.183   9.531  0.5413 -1.4093  0.1061
 2522SOL    HW219200   4.146   4.191   9.587  0.0265  1.3543 -0.3029
 2523SOL     OW19201   2.335   1.699  12.125  0.0075  0.4676 -0.5369
 2523SOL    HW119202   2.409   1.674  12.069  0.3983 -2.9927  1.5576
 2523SOL    HW219203   2.282   1.620  12.109 -0.1808 -0.1765  3.4267
 2524SOL     OW19204   0.989   0.630  10.641  0.0912  0.5182 -0.1597
 2524SOL    HW119205   0.993   0.606  10.548  0.9731  3.0017 -0.7639
 2524SOL    HW219206   0.930   0.704  10.634 -0.5788 -0.0567 -0.6014
 2525SOL     OW19207   4.446   0.216  11.755 -0.5146  0.9807  0.4087
 2525SOL    HW119208   4.400   0.295  11.782  0.6281  1.3486  1.3123
 2525SOL    HW219209   4.387   0.185  11.687  1.4411 -0.4462 -0.6665
 2526SOL     OW19210   3.552   4.496   9.507  0.0894  0.9966 -0.1827
 2526SOL    HW119211   3.460   4.483   9.485 -0.1161  0.3562  1.0575
 2526SOL    HW219212   3.595   4.484   9.422 -0.4804 -2.4158  0.0306
 2527SOL     OW19213   0.378   2.371   8.239  0.3625  0.1095  0.2936
 2527SOL    HW119214   0.317   2.415   8.180  1.1676  0.4521 -0.2712
 2527SOL    HW219215   0.442   2.440   8.255  0.4214  0.3586 -1.0875
 2528SOL     OW19216   2.573   1.047   3.296 -0.3631  0.9648 -0.2451
 2528SOL    HW119217   2.511   1.082   3.232  0.8374  0.8997 -1.4452
 2528SOL    HW219218   2.633   1.020   3.227  0.1779  0.5583  0.3754
 2529SOL     OW19219   0.973   4.299  16.442 -0.2122  0.1599 -0.4495
 2529SOL    HW119220   0.965   4.206  16.462  0.3160  0.0517 -0.7397
 2529SOL    HW219221   0.942   4.289  16.352  1.2853  0.7779 -1.0437
 2530SOL     OW19222   0.620   3.134   6.378 -0.0003 -0.1328 -0.3206
 2530SOL    HW119223   0.658   3.064   6.430  1.0649  1.8104  1.5150
 2530SOL    HW219224   0.528   3.121   6.399  0.0543 -0.5302 -0.3347
 2531SOL     OW19225   3.145   2.335   4.409 -0.5771 -0.3326 -0.9233
 2531SOL    HW119226   3.234   2.335   4.444 -1.5748 -1.1483  1.6280
 2531SOL    HW219227   3.113   2.257   4.455  0.9931  0.3450  1.3068
 2532SOL     OW19228   3.665   3.412   7.738  0.1907 -0.4993  0.0111
 2532SOL    HW119229   3.719   3.487   7.713 -1.8319  1.0866  0.3680
 2532SOL    HW219230   3.722   3.374   7.805  1.2013 -0.4580 -0.8208
 2533SOL     OW19231   1.920   2.405  12.979 -0.1089 -0.0862  0.3696
 2533SOL    HW119232   1.904   2.495  12.951 -1.7809 -1.0613 -1.8300
 2533SOL    HW219233   1.931   2.420  13.073  1.2109 -0.2222  0.2309
 2534SOL     OW19234   3.945   0.222  14.412  0.1449  0.1354  0.3556
 2534SOL    HW119235   3.947   0.318  14.406 -1.4933  0.0515 -1.5171
 2534SOL    HW219236   4.037   0.214  14.439  0.6536 -0.7398 -1.5957
 2535SOL     OW19237   4.288   2.368   4.422  0.0505 -0.0975 -1.1501
 2535SOL    HW119238   4.253   2.331   4.341 -1.6204 -0.0823 -0.4284
 2535SOL    HW219239   4.258   2.303   4.485  2.0951 -1.0184 -1.1178
 2536SOL     OW19240   0.981   0.894   5.108  0.1788  0.5865  0.5504
 2536SOL    HW119241   0.908   0.835   5.089 -0.2118  0.4514  2.5148
 2536SOL    HW219242   0.953   0.972   5.059  1.1748  0.9274  0.5220
 2537SOL     OW19243   0.791   2.667  16.600 -0.2063 -0.0180  0.4269
 2537SOL    HW119244   0.854   2.598  16.585 -1.8323 -1.8244  1.9216
 2537SOL    HW219245   0.781   2.701  16.511  0.3552 -0.5970  0.1507
 2538SOL     OW19246   3.973   0.057  17.433  0.3121  0.3936  0.2564
 2538SOL    HW119247   4.047   0.117  17.429  0.1212  0.5014 -1.5260
 2538SOL    HW219248   3.914   0.131  17.450  0.4029  0.4469  0.3442
 2539SOL     OW19249   0.525   1.367   4.236  0.0075  0.5551 -0.2556
 2539SOL    HW119250   0.536   1.351   4.330  0.6215 -0.8010 -0.5706
 2539SOL    HW219251   0.574   1.296   4.196  1.5937  1.1892  0.5766
 2540SOL     OW19252   3.811   0.482   8.586  0.3592  0.1307 -0.1765
 2540SOL    HW119253   3.907   0.481   8.586  0.3694  0.9086  0.3291
 2540SOL    HW219254   3.804   0.402   8.638  2.1372  0.3492  0.4209
 2541SOL     OW19255   1.260   4.730   9.847 -0.3932 -0.0488  0.2428
 2541SOL    HW119256   1.335   4.709   9.792 -0.1688  0.8686  0.2105
 2541SOL    HW219257   1.301   4.715   9.932 -0.6711  0.6670  0.5031
 2542SOL     OW19258   1.259   3.982  17.346 -0.1931 -0.0515 -0.4700
 2542SOL    HW119259   1.199   4.045  17.307 -1.0235 -0.4855  0.1143
 2542SOL    HW219260   1.283   3.928  17.270  1.9903  3.8524 -2.6051
 2543SOL     OW19261   1.597   0.699  15.414  0.2833  0.0897  0.4308
 2543SOL    HW119262   1.529   0.701  15.346  0.0930 -0.1808  0.6109
 2543SOL    HW219263   1.658   0.632  15.384 -0.9878 -0.4885 -0.9063
 2544SOL     OW19264   2.237   3.738   8.489  0.3738  0.0815  0.2172
 2544SOL    HW119265   2.214   3.685   8.413  0.2240  0.0871  0.2584
 2544SOL    HW219266   2.291   3.674   8.535  0.3218 -0.0560  0.0863
 2545SOL     OW19267   4.336   0.464   3.564 -0.1848  0.2124  0.0610
 2545SOL    HW119268   4.333   0.559   3.571  0.3780  0.1148  1.6214
 2545SOL    HW219269   4.288   0.443   3.644 -1.6152  0.2930 -0.7786
 2546SOL     OW19270   3.697   1.445   8.966  0.1809  0.2549 -0.0944
 2546SOL    HW119271   3.711   1.398   8.883  2.8467  1.0544 -0.0904
 2546SOL    HW219272   3.637   1.509   8.928 -0.1853 -1.7649 -2.9163
 2547SOL     OW19273   1.865   4.665   4.863  0.1414  0.3524 -0.6734
 2547SOL    HW119274   1.833   0.018   4.842 -1.3940 -0.5233 -1.9297
 2547SOL    HW219275   1.800   4.648   4.931  1.5106 -1.1509  0.2906
 2548SOL     OW19276   0.599   3.383   6.638 -0.1555 -0.5820 -0.5522
 2548SOL    HW119277   0.608   3.297   6.598  0.6506 -0.7922  0.0653
 2548SOL    HW219278   0.561   3.443   6.574  2.3227  0.8661 -0.7109
 2549SOL     OW19279   0.705   2.124   3.184  0.2935  0.1443 -0.0362
 2549SOL    HW119280   0.619   2.150   3.151  0.3121  0.5316  0.2182
 2549SOL    HW219281   0.743   2.198   3.231 -0.9255  1.4314 -1.0553
 2550SOL     OW19282   1.378   0.862  17.588  0.7118  0.0793 -0.2362
 2550SOL    HW119283   1.408   0.889  17.502  2.6394  0.5219  0.5880
 2550SOL    HW219284   1.324   0.934  17.620  1.3869  0.0619  0.9734
 2551SOL     OW19285   1.621   4.387   3.341  0.9859 -0.2063  0.0884
 2551SOL    HW119286   1.562   4.461   3.325  1.1182  0.1152  1.0472
 2551SOL    HW219287   1.587   4.365   3.428 -0.7152 -0.6093 -0.6850
 2552SOL     OW19288   1.164   4.704   7.215 -0.6138 -0.1706 -0.1082
 2552SOL    HW119289   1.177   0.028   7.290  3.0912 -1.2906  0.1118
 2552SOL    HW219290   1.147   4.617   7.251 -1.1346 -0.4075 -0.9252
 2553SOL     OW19291   2.527   4.128  16.642  0.0051  0.8514 -0.3394
 2553SOL    HW119292   2.593   4.072  16.602  0.5097  0.0193  1.6233
 2553SOL    HW219293   2.571   4.170  16.716 -1.6392 -2.4270  2.5731
 2554SOL     OW19294   3.087   4.503  17.550 -0.5149 -0.1274  0.2924
 2554SOL    HW119295   3.136   4.585  17.558 -1.2875  0.6126 -2.7461
 2554SOL    HW219296   3.065   4.496  17.643 -1.8691 -1.3804 -0.1189
 2555SOL     OW19297   3.082   0.959   1.699  0.2717  0.3377 -0.0291
 2555SOL    HW119298   3.015   0.892   1.713  0.0822  0.7673  1.1193
 2555SOL    HW219299   3.090   0.948   1.604 -0.3124 -1.9208  0.1710
 2556SOL     OW19300   4.714   4.136   3.353 -0.0168  0.1424 -0.1175
 2556SOL    HW119301   4.720   4.164   3.445 -1.0260  0.0938 -0.0323
 2556SOL    HW219302   0.054   4.183   3.316  0.7069  1.8677  3.5494
 2557SOL     OW19303   0.862   1.410   6.475 -0.0623  0.8025 -0.2804
 2557SOL    HW119304   0.793   1.459   6.431 -2.1916 -1.1300  0.9211
 2557SOL    HW219305   0.928   1.478   6.483 -0.1526  0.6943  1.2587
 2558SOL     OW19306   1.416   3.512  10.869  0.6905  0.5579 -0.1912
 2558SOL    HW119307   1.370   3.446  10.921  0.2350 -0.2807 -1.6798
 2558SOL    HW219308   1.390   3.580  10.931  0.3326  1.2386 -1.0883
 2559SOL     OW19309   1.150   2.568  12.519  0.8351  0.6952 -0.2912
 2559SOL    HW119310   1.214   2.497  12.526 -1.9229 -1.8967 -1.1071
 2559SOL    HW219311   1.123   2.567  12.428  0.2546  2.0490 -0.1319
 2560SOL     OW19312   2.674   0.754   6.736 -0.2319  0.0233 -0.6941
 2560SOL    HW119313   2.696   0.705   6.657 -1.7904 -1.3906 -0.2563
 2560SOL    HW219314   2.582   0.777   6.726 -0.6352 -0.8088  1.0723
 2561SOL     OW19315   2.955   0.289   2.993  0.2717  0.0359  0.2426
 2561SOL    HW119316   2.878   0.300   3.048  0.2648  2.0521 -0.1849
 2561SOL    HW219317   3.016   0.288   3.066  1.3005 -0.6937 -0.6195
 2562SOL     OW19318   2.158   4.080  17.595 -0.1017 -0.0959 -0.4281
 2562SOL    HW119319   2.101   4.021  17.547 -0.9085  0.5842 -0.2956
 2562SOL    HW219320   2.115   4.088  17.680  1.1267 -0.7818  0.2712
 2563SOL     OW19321   0.370   3.458   1.503 -0.0256  0.2651  0.0664
 2563SOL    HW119322   0.312   3.523   1.543 -0.4963  0.1411 -0.4193
 2563SOL    HW219323   0.312   3.384   1.483 -0.5834  0.3448  1.4069
 2564SOL     OW19324   3.050   4.154   7.136 -0.1583  0.0992  0.7017
 2564SOL    HW119325   3.015   4.065   7.128  0.3968  0.1594 -2.4973
 2564SOL    HW219326   3.034   4.167   7.229  3.9446  0.7936  1.3265
 2565SOL     OW19327   2.580   1.772   6.863 -0.2477  0.3878 -0.0825
 2565SOL    HW119328   2.510   1.822   6.821  0.4974  0.5350 -1.1782
 2565SOL    HW219329   2.605   1.713   6.792 -3.4505 -0.9657 -0.0732
 2566SOL     OW19330   4.146   3.328  12.727  0.1094  0.2320  0.2012
 2566SOL    HW119331   4.056   3.302  12.747 -0.0274  1.2361  0.9028
 2566SOL    HW219332   4.150   3.416  12.765 -4.0973  0.3275  0.4446
 2567SOL     OW19333   4.587   0.081   7.789  0.3061  0.5708 -0.3600
 2567SOL    HW119334   4.626   0.146   7.848  0.8049  0.4578 -0.5580
 2567SOL    HW219335   4.519   0.044   7.845  1.1837  2.0407  1.6717
 2568SOL     OW19336   0.239   0.283   6.142  0.3740  0.2362  0.4824
 2568SOL    HW119337   0.223   0.291   6.236  0.8636 -1.7164  0.7319
 2568SOL    HW219338   0.287   0.200   6.140 -1.6074 -0.9125  0.8046
 2569SOL     OW19339   4.097   0.699  13.067  0.9901 -0.3517  0.6827
 2569SOL    HW119340   4.053   0.704  12.982  3.4878 -0.8891 -0.6380
 2569SOL    HW219341   4.082   0.605  13.075  0.4069 -0.3657 -0.5568
 2570SOL     OW19342   1.749   2.870  12.487  0.2360 -0.5501  0.0680
 2570SOL    HW119343   1.824   2.921  12.518  1.4822 -1.2056 -1.8586
 2570SOL    HW219344   1.702   2.937  12.437  0.6277 -0.6013 -0.3695
 2571SOL     OW19345   1.152   4.539   6.434  0.1989  0.4913 -0.4678
 2571SOL    HW119346   1.080   4.574   6.487 -0.5513  0.1155 -1.2342
 2571SOL    HW219347   1.171   4.619   6.384  1.3049 -0.0291 -0.8628
 2572SOL     OW19348   4.628   2.118   3.616  0.2327 -0.4588  0.1678
 2572SOL    HW119349   4.590   2.111   3.703  0.9323  0.5974  0.5564
 2572SOL    HW219350   4.591   2.043   3.570  1.0771 -1.2222  0.7206
 2573SOL     OW19351   4.318   4.711   7.852 -0.1563  0.2068 -0.1431
 2573SOL    HW119352   4.305   4.726   7.758  4.4029  1.8971 -0.5018
 2573SOL    HW219353   4.355   4.623   7.844 -0.0709 -0.2381  5.2167
 2574SOL     OW19354   1.226   2.364  12.752  0.1399 -0.2808 -0.2778
 2574SOL    HW119355   1.255   2.433  12.693 -1.5060  0.5219 -0.1614
 2574SOL    HW219356   1.290   2.366  12.823 -2.1892 -0.1096  1.8495
 2575SOL     OW19357   1.989   3.336   1.282  0.0900 -0.3837 -0.4594
 2575SOL    HW119358   2.034   3.405   1.234 -0.5264  0.8742  0.7693
 2575SOL    HW219359   2.058   3.314   1.346 -2.0140 -1.2651  1.5136
 2576SOL     OW19360   0.267   2.014   5.297  0.0620 -0.5618  0.3693
 2576SOL    HW119361   0.352   2.052   5.319  0.0421  0.1246 -0.7344
 2576SOL    HW219362   0.298   1.974   5.216  0.7562 -2.0265  1.3466
 2577SOL     OW19363   1.135   2.773   5.124 -0.1905  0.5475  0.1347
 2577SOL    HW119364   1.145   2.771   5.219  1.0587  0.4070 -0.0070
 2577SOL    HW219365   1.188   2.850   5.103 -0.0380  0.7793  1.3355
 2578SOL     OW19366   3.430   0.003   0.851 -0.5564  0.2295 -0.1850
 2578SOL    HW119367   3.438   0.004   0.756  0.3448 -1.4437 -0.1236
 2578SOL    HW219368   3.345   4.697   0.865  0.0550 -1.5883 -1.7146
 2579SOL     OW19369   1.908   4.011  12.760  0.3636 -0.1139  0.1693
 2579SOL    HW119370   1.860   4.062  12.825 -0.0032  0.0921 -0.2665
 2579SOL    HW219371   1.964   4.080  12.723 -0.5920  0.7878  0.4186
 2580SOL     OW19372   3.932   2.241   7.153  0.5541  0.3561 -0.0357
 2580SOL    HW119373   3.902   2.170   7.095  3.0828 -1.9469  1.4820
 2580SOL    HW219374   3.942   2.186   7.231  1.7126  0.7895  0.1188
 2581SOL     OW19375   2.145   2.493  14.748 -0.1513 -0.4609  0.1157
 2581SOL    HW119376   2.139   2.434  14.823 -0.3004 -0.5753  0.0135
 2581SOL    HW219377   2.171   2.428  14.682  1.8068 -1.2702  1.6964
 2582SOL     OW19378   4.547   2.860  12.179 -0.2963 -0.1319  0.7458
 2582SOL    HW119379   4.617   2.850  12.244  2.1908 -2.6981 -2.3162
 2582SOL    HW219380   4.544   2.953  12.158  0.6846  0.0908  1.6025
 2583SOL     OW19381   2.096   4.008  11.960  0.9736 -0.0439 -0.0967
 2583SOL    HW119382   2.089   4.097  11.925  1.0023 -0.0993 -0.2434
 2583SOL    HW219383   2.112   4.030  12.052  1.1354  0.3946 -0.2305
 2584SOL     OW19384   0.941   1.716  11.003 -0.5748  0.3983 -0.1391
 2584SOL    HW119385   0.927   1.622  10.992  1.1902  0.1717 -0.5379
 2584SOL    HW219386   1.033   1.730  11.025 -0.7262  0.8185  0.2301
 2585SOL     OW19387   4.317   0.149   7.184 -0.0384 -0.2059 -0.2813
 2585SOL    HW119388   4.246   0.205   7.218  0.9188  0.4539  0.6175
 2585SOL    HW219389   4.399   0.188   7.213  1.6937 -1.6288 -3.2667
 2586SOL     OW19390   0.676   3.484   1.576 -0.5816 -0.1448 -0.2818
 2586SOL    HW119391   0.635   3.561   1.535 -0.5626 -1.4359 -2.7532
 2586SOL    HW219392   0.654   3.489   1.669  0.2252  0.9698 -0.1527
 2587SOL     OW19393   2.073   1.811   7.103 -0.1463  0.0644  0.3743
 2587SOL    HW119394   2.020   1.875   7.149  0.6606 -0.4510  2.0101
 2587SOL    HW219395   2.082   1.739   7.165 -2.3509 -0.2929  0.2794
 2588SOL     OW19396   0.455   1.780   1.421  0.1717  0.1032  0.0714
 2588SOL    HW119397   0.487   1.716   1.357  1.0629  1.5723 -0.9583
 2588SOL    HW219398   0.363   1.755   1.420  0.7378 -2.0735  0.2312
 2589SOL     OW19399   2.718   0.877   8.442 -0.4276 -0.2177 -0.7746
 2589SOL    HW119400   2.663   0.917   8.374 -1.3284 -0.3607 -0.1402
 2589SOL    HW219401   2.716   0.787   8.411  0.6057 -0.3839 -0.3570
 2590SOL     OW19402   1.463   1.275   4.363 -0.1802  0.2627 -0.4429
 2590SOL    HW119403   1.444   1.260   4.456 -0.4463  1.4791 -0.3059
 2590SOL    HW219404   1.461   1.184   4.333 -1.2831  0.4737 -1.0091
 2591SOL     OW19405   0.818   3.875  14.704  0.5520  0.4104  0.1044
 2591SOL    HW119406   0.768   3.931  14.764  1.9087 -0.0301  1.6379
 2591SOL    HW219407   0.775   3.790  14.716  0.0541  0.6602  0.0996
 2592SOL     OW19408   1.008   0.286   0.202 -0.1842 -0.1084  0.3515
 2592SOL    HW119409   1.076   0.347   0.172 -0.9943  0.8124  0.3838
 2592SOL    HW219410   0.975   0.269   0.114 -1.7694 -3.7181  1.6285
 2593SOL     OW19411   2.133   2.459   4.236 -0.0996 -0.5222 -0.0942
 2593SOL    HW119412   2.146   2.376   4.190 -0.0882  0.6855 -2.2296
 2593SOL    HW219413   2.091   2.518   4.174  1.8804 -0.4950 -1.3986
 2594SOL     OW19414   1.889   0.548   4.380  0.6743 -0.0947 -0.0946
 2594SOL    HW119415   1.954   0.609   4.415  0.6927 -0.4770  0.5363
 2594SOL    HW219416   1.940   0.484   4.330 -1.4446 -1.6024 -0.2999
 2595SOL     OW19417   2.726   1.641   4.891 -0.0503 -0.3491  0.1137
 2595SOL    HW119418   2.702   1.707   4.956  0.8090  2.5521 -2.5026
 2595SOL    HW219419   2.756   1.695   4.818 -1.0302 -0.6838 -0.5348
 2596SOL     OW19420   1.286   3.075   3.599 -0.2248  0.0974 -0.2138
 2596SOL    HW119421   1.198   3.049   3.573 -0.9775  1.2323  1.1463
 2596SOL    HW219422   1.289   3.049   3.691  0.6995  2.1745  0.3572
 2597SOL     OW19423   0.267   4.472   4.019  0.0331  0.5704  0.2529
 2597SOL    HW119424   0.318   4.494   3.941 -0.3031  0.9645  0.1471
 2597SOL    HW219425   0.329   4.470   4.092  1.7122  2.7653 -1.1105
 2598SOL     OW19426   3.358   3.190   5.601  0.2581  0.4641 -0.3683
 2598SOL    HW119427   3.291   3.243   5.644 -0.2969 -0.2448 -0.3469
 2598SOL    HW219428   3.354   3.106   5.647 -2.7004  0.9488  0.2788
 2599SOL     OW19429   2.163   3.844   7.479 -0.8624  0.2127 -0.2259
 2599SOL    HW119430   2.251   3.818   7.452 -1.9557 -2.3478 -1.2702
 2599SOL    HW219431   2.116   3.762   7.490 -0.4349  0.2459  1.7203
 2600SOL     OW19432   1.489   4.019   0.003 -0.0781 -0.0537  0.0092
 2600SOL    HW119433   1.449   3.932  17.731  0.0539 -0.1073 -0.0545
 2600SOL    HW219434   1.573   3.998   0.043 -1.1154 -0.7819  1.8208
 2601SOL     OW19435   2.597   2.256   8.178 -0.1464 -0.2594 -0.6232
 2601SOL    HW119436   2.647   2.205   8.242 -0.0605 -0.0833 -0.5506
 2601SOL    HW219437   2.645   2.249   8.095  0.9678  1.4456 -0.1202
 2602SOL     OW19438   0.898   4.000   0.698  0.3519 -0.6436 -0.2129
 2602SOL    HW119439   0.822   3.953   0.664 -1.3882  1.7840  0.3351
 2602SOL    HW219440   0.921   3.939   0.769  2.2703 -0.9101 -1.0545
 2603SOL     OW19441   1.699   1.484  13.260 -0.0437 -0.8426 -0.8062
 2603SOL    HW119442   1.611   1.520  13.275  1.5847  2.6332  0.5868
 2603SOL    HW219443   1.715   1.488  13.166  1.7852 -0.7183 -0.4776
 2604SOL     OW19444   0.731   2.995   4.735  0.2519  0.5804 -0.2532
 2604SOL    HW119445   0.681   3.076   4.726  0.5289  0.6403 -1.3022
 2604SOL    HW219446   0.762   2.999   4.826  0.9131 -0.2794 -0.4423
 2605SOL     OW19447   3.000   1.462   8.961 -0.4418 -0.4639  0.1675
 2605SOL    HW119448   2.929   1.514   8.924 -0.3028 -0.4531 -0.0786
 2605SOL    HW219449   2.965   1.383   9.003 -0.5825  0.6238  2.0878
 2606SOL     OW19450   3.571   3.285   3.695 -0.2668 -0.2569  0.3122
 2606SOL    HW119451   3.546   3.193   3.704 -0.7806 -0.4618 -3.2946
 2606SOL    HW219452   3.621   3.279   3.614  1.5557  1.2330  1.3420
 2607SOL     OW19453   1.062   4.128   7.639  0.5119  0.1512 -0.6207
 2607SOL    HW119454   0.980   4.114   7.686  0.2555  2.6266 -0.3077
 2607SOL    HW219455   1.033   4.164   7.555  0.2360 -0.3227 -0.7304
 2608SOL     OW19456   4.491   0.269   7.360 -0.1928  0.0130  0.2373
 2608SOL    HW119457   4.583   0.290   7.346  0.1533 -0.6284  1.4798
 2608SOL    HW219458   4.458   0.358   7.348 -0.3543 -0.3659 -1.9921
 2609SOL     OW19459   4.209   1.511   9.657 -0.5377 -0.1100 -0.2422
 2609SOL    HW119460   4.197   1.605   9.646 -0.0276  0.2270  2.1048
 2609SOL    HW219461   4.193   1.493   9.750 -0.0001 -0.1427 -0.1595
 2610SOL     OW19462   1.887   1.866   3.091  0.4614 -0.0990  0.1553
 2610SOL    HW119463   1.851   1.892   3.176 -1.8365  0.5103 -1.0147
 2610SOL    HW219464   1.935   1.787   3.117  1.8249  0.3638 -0.9319
 2611SOL     OW19465   0.185   1.295   5.332 -0.2297 -0.0026 -0.2547
 2611SOL    HW119466   0.163   1.307   5.424 -1.3689 -0.6911 -0.4389
 2611SOL    HW219467   0.266   1.245   5.331 -0.3757 -0.2261 -2.8761
 2612SOL     OW19468   0.114   1.116   7.634 -0.0005  0.7291 -0.0231
 2612SOL    HW119469   0.188   1.105   7.575 -0.0967 -3.0321  0.5998
 2612SOL    HW219470   0.097   1.211   7.629 -0.6298  0.5813 -0.7080
 2613SOL     OW19471   3.989   2.760   2.813  0.2182  0.6964 -0.4021
 2613SOL    HW119472   3.971   2.791   2.725  1.1515  0.1851 -0.7750
 2613SOL    HW219473   3.900   2.748   2.846  0.1571  1.0967 -0.4225
 2614SOL     OW19474   1.864   1.133   7.900 -0.5891  0.1919  0.2949
 2614SOL    HW119475   1.804   1.205   7.915  0.8301  1.4578 -0.0721
 2614SOL    HW219476   1.812   1.054   7.917  0.7180 -0.4630  1.3306
 2615SOL     OW19477   1.216   3.771   3.038  0.2544 -0.2422 -0.3980
 2615SOL    HW119478   1.168   3.689   3.037  1.7667 -1.1263 -0.7496
 2615SOL    HW219479   1.151   3.831   3.001 -0.0434  0.7705  1.7918
 2616SOL     OW19480   2.858   0.038   3.220  0.9168  0.2135 -0.4349
 2616SOL    HW119481   2.800   4.699   3.199  0.2116  0.4225  0.8240
 2616SOL    HW219482   2.942   4.730   3.200 -0.0687 -2.3956  0.9740
 2617SOL     OW19483   1.879   2.631   1.974  0.1959  1.0063  1.1379
 2617SOL    HW119484   1.798   2.626   2.025 -0.5304 -0.9422 -0.1937
 2617SOL    HW219485   1.853   2.709   1.924  0.7402  0.7115  0.3825
 2618SOL     OW19486   3.823   2.639   0.557 -0.0538  0.2485  0.1018
 2618SOL    HW119487   3.859   2.551   0.562 -1.2776 -0.2523  0.1948
 2618SOL    HW219488   3.783   2.634   0.470  0.1350 -2.8398  0.1861
 2619SOL     OW19489   1.744   4.486   2.755 -0.1833 -0.2397  0.5019
 2619SOL    HW119490   1.651   4.488   2.778 -0.7000 -3.0900 -1.4041
 2619SOL    HW219491   1.787   4.443   2.829  0.5299 -0.7925 -0.2412
 2620SOL     OW19492   4.442   2.907  17.008 -0.0298  0.0729 -0.2315
 2620SOL    HW119493   4.413   2.906  16.917 -1.5445  0.6795  0.2326
 2620SOL    HW219494   4.531   2.941  17.001  1.5427 -3.4995  2.0923
 2621SOL     OW19495   1.176   1.784  10.327 -0.3995 -0.1315 -0.1795
 2621SOL    HW119496   1.093   1.745  10.354  0.7520 -1.5138  1.3690
 2621SOL    HW219497   1.228   1.755  10.402 -1.7740 -0.2921  0.7181
 2622SOL     OW19498   0.010   2.604   2.257 -0.5596 -0.0787  0.2353
 2622SOL    HW119499   4.712   2.694   2.258  0.2305  0.2063  0.0810
 2622SOL    HW219500   4.683   2.560   2.315 -1.0712 -1.1529 -1.1165
 2623SOL     OW19501   0.504   4.318   0.709  0.3029  0.3615  0.5566
 2623SOL    HW119502   0.580   4.367   0.680  1.9317 -2.2618  0.4055
 2623SOL    HW219503   0.438   4.367   0.660 -1.1943 -2.1558  0.0278
 2624SOL     OW19504   0.829   0.429  10.784  0.1666 -0.5066 -0.0796
 2624SOL    HW119505   0.868   0.354  10.830  0.6555 -0.3008 -0.1625
 2624SOL    HW219506   0.903   0.486  10.765  1.6889 -3.4540 -3.1226
 2625SOL     OW19507   1.625   0.977   6.548 -0.2202 -0.1371 -0.7739
 2625SOL    HW119508   1.585   1.018   6.472 -1.5085 -1.6228 -0.9074
 2625SOL    HW219509   1.559   0.917   6.582  1.2226 -2.1380 -1.5158
 2626SOL     OW19510   4.449   1.864   0.728 -0.2712 -0.2634  0.1341
 2626SOL    HW119511   4.381   1.815   0.773  2.6580 -2.2361  2.4081
 2626SOL    HW219512   4.394   1.927   0.681  0.0308  1.2093  1.7873
 2627SOL     OW19513   2.471   3.395   0.839  0.1813 -0.3237  0.1466
 2627SOL    HW119514   2.439   3.305   0.826 -0.3821 -0.1553  0.3507
 2627SOL    HW219515   2.476   3.404   0.934  1.0790 -2.6069  0.3162
 2628SOL     OW19516   1.398   3.308  10.658  0.4538 -0.0257  0.2002
 2628SOL    HW119517   1.388   3.353  10.574  0.0892  1.7643  1.1950
 2628SOL    HW219518   1.424   3.374  10.722  1.9714  0.3644 -0.8133
 2629SOL     OW19519   0.087   0.931   6.692 -0.3806 -0.1701 -0.0825
 2629SOL    HW119520   0.058   0.840   6.683 -0.5513 -0.0588 -0.6749
 2629SOL    HW219521   0.065   0.968   6.607  0.0255 -1.2104 -0.6355
 2630SOL     OW19522   1.007   0.351  10.430  0.3853  0.2716 -0.2994
 2630SOL    HW119523   0.937   0.348  10.366  0.9109 -0.5728 -0.8220
 2630SOL    HW219524   1.041   0.441  10.426  0.1333  0.2628 -2.5075
 2631SOL     OW19525   1.300   1.774   4.714 -0.2588  0.0402 -0.1377
 2631SOL    HW119526   1.337   1.825   4.641  1.8244 -0.5682  0.5028
 2631SOL    HW219527   1.225   1.826   4.741 -0.1254  0.2577 -0.1800
 2632SOL     OW19528   3.090   2.091   9.643  0.6385  0.1604 -0.1030
 2632SOL    HW119529   3.008   2.047   9.617  0.7688  1.3931 -2.6714
 2632SOL    HW219530   3.104   2.058   9.731  1.6508 -2.0163 -1.0772
 2633SOL     OW19531   2.512   2.377   7.835  0.4193  0.2659  0.5828
 2633SOL    HW119532   2.539   2.388   7.743 -0.3521  0.3408  0.3657
 2633SOL    HW219533   2.558   2.449   7.879 -0.6553  1.8845 -0.9170
 2634SOL     OW19534   0.028   4.108   2.295  0.8177 -0.6794 -0.0926
 2634SOL    HW119535   0.040   4.193   2.253  0.0661 -0.3088  0.4436
 2634SOL    HW219536   0.108   4.062   2.272  2.5888  2.4089 -0.0806
 2635SOL     OW19537   1.511   3.613   4.946 -0.8023 -0.0364 -0.0269
 2635SOL    HW119538   1.425   3.584   4.977 -0.1035 -1.2761  0.7538
 2635SOL    HW219539   1.569   3.558   4.999 -0.9901 -1.9820 -1.8921
 2636SOL     OW19540   3.204   2.527   9.239  0.1108 -0.2538  0.0265
 2636SOL    HW119541   3.295   2.514   9.263  0.3330 -1.2309 -1.3394
 2636SOL    HW219542   3.204   2.618   9.210 -0.5991 -0.2614 -0.0032
 2637SOL     OW19543   2.681   3.836   7.922  0.0508 -0.0099  0.1361
 2637SOL    HW119544   2.616   3.775   7.957 -2.3267  1.4568 -1.7678
 2637SOL    HW219545   2.767   3.793   7.922  0.1083  0.1073 -0.3681
 2638SOL     OW19546   1.558   4.507   8.308  0.3707  0.1469  0.5827
 2638SOL    HW119547   1.620   4.543   8.245  1.4166  0.7857  1.9538
 2638SOL    HW219548   1.549   4.420   8.270 -0.0458  0.3182  0.2870
 2639SOL     OW19549   0.354   3.868   4.048 -0.3066  0.4789 -0.4575
 2639SOL    HW119550   0.330   3.888   4.138  0.0541 -2.8539  0.3565
 2639SOL    HW219551   0.306   3.936   4.000  0.7633  1.3238 -0.3451
 2640SOL     OW19552   2.334   0.517   0.686  0.2227  0.5427 -0.1505
 2640SOL    HW119553   2.273   0.523   0.613  0.8605 -1.3849 -0.8262
 2640SOL    HW219554   2.284   0.455   0.739 -0.6735  0.5182 -1.0298
 2641SOL     OW19555   2.531   1.091   7.696  0.8244  0.5002  0.3560
 2641SOL    HW119556   2.458   1.077   7.636  0.2817  2.4014  0.5805
 2641SOL    HW219557   2.578   1.008   7.681  1.7725  0.9741  0.7193
 2642SOL     OW19558   1.225   1.139   7.587 -0.5518  0.2690  0.1846
 2642SOL    HW119559   1.240   1.177   7.673  0.7296  1.1213 -0.4223
 2642SOL    HW219560   1.129   1.143   7.591 -0.6109 -0.4053 -0.6066
 2643SOL     OW19561   4.730   2.605   5.656 -0.6859  0.2317  0.4429
 2643SOL    HW119562   0.020   2.589   5.748 -0.1345  0.0013  0.2533
 2643SOL    HW219563   4.715   2.516   5.624 -0.4250  1.4196 -2.9429
 2644SOL     OW19564   3.782   1.745   6.545 -0.6493 -0.2762 -0.2049
 2644SOL    HW119565   3.830   1.734   6.463 -0.9070  4.2669 -0.9225
 2644SOL    HW219566   3.851   1.728   6.609 -0.3344 -0.9390 -0.7225
 2645SOL     OW19567   1.506   0.498   9.951  0.1243 -0.2397  0.0112
 2645SOL    HW119568   1.537   0.540   9.871 -0.1002  0.8149  0.4692
 2645SOL    HW219569   1.523   0.563  10.020 -0.3928  0.2558 -0.3261
 2646SOL     OW19570   0.359   2.392  11.068 -0.1010 -0.4248 -0.2083
 2646SOL    HW119571   0.430   2.390  11.133 -0.2621  0.9249 -0.0017
 2646SOL    HW219572   0.285   2.387  11.128  0.7304  0.1954  0.8727
 2647SOL     OW19573   1.757   1.117   3.133  0.3366 -0.6525  0.6447
 2647SOL    HW119574   1.697   1.043   3.123  1.2787 -1.3508  0.1817
 2647SOL    HW219575   1.713   1.159   3.207  0.2979 -0.9567  0.7962
 2648SOL     OW19576   3.945   1.080  10.154 -0.3408  0.1512 -0.2358
 2648SOL    HW119577   3.995   1.144  10.204 -0.0326 -1.0891  1.0435
 2648SOL    HW219578   3.924   1.007  10.212  0.2463  0.9239  0.9633
 2649SOL     OW19579   0.416   1.434  15.898 -0.6142  0.6841  0.1809
 2649SOL    HW119580   0.361   1.465  15.826  0.6844  3.2809  0.2807
 2649SOL    HW219581   0.356   1.401  15.965  2.9735  0.6123  3.3751
 2650SOL     OW19582   3.028   2.354   7.033  0.1235  0.1531 -0.0562
 2650SOL    HW119583   3.017   2.416   6.961  0.0268 -0.4138 -0.5316
 2650SOL    HW219584   2.952   2.304   7.003  0.1910  0.9830 -1.6387
 2651SOL     OW19585   0.796   3.864   2.830  0.3405 -0.2734  0.5730
 2651SOL    HW119586   0.880   3.867   2.875 -0.9321 -0.3277  3.0007
 2651SOL    HW219587   0.746   3.833   2.906 -1.9740  2.0067  0.0020
 2652SOL     OW19588   2.211   4.320   8.840 -0.2949  0.0558  0.2657
 2652SOL    HW119589   2.259   4.364   8.911 -0.1084  0.7815 -0.3154
 2652SOL    HW219590   2.188   4.396   8.786 -1.1915  0.3367  1.0453
 2653SOL     OW19591   2.859   3.779  12.276  0.2436  0.1849 -0.0836
 2653SOL    HW119592   2.935   3.829  12.244 -0.2276  1.5083  0.8398
 2653SOL    HW219593   2.900   3.725  12.342  0.9068  0.8776  0.0730
 2654SOL     OW19594   4.136   4.529   5.709 -0.1793 -0.0077 -0.4652
 2654SOL    HW119595   4.145   4.574   5.625  0.2316  2.2866  0.8251
 2654SOL    HW219596   4.055   4.568   5.743 -0.2743  0.1980 -0.9335
 2655SOL     OW19597   0.729   4.415   0.618  0.0256 -0.0168  0.1458
 2655SOL    HW119598   0.704   4.503   0.590  1.7510  1.0246  1.8458
 2655SOL    HW219599   0.812   4.401   0.574  0.0747  0.8493 -0.0345
 2656SOL     OW19600   2.437   4.251   7.620  0.3880 -0.0538  0.8012
 2656SOL    HW119601   2.462   4.176   7.674  2.9051 -1.4781 -2.3337
 2656SOL    HW219602   2.355   4.220   7.582  0.8961  2.0351 -1.9784
 2657SOL     OW19603   0.250   0.015  17.373 -0.4014 -0.3935 -0.0465
 2657SOL    HW119604   0.293   0.044  17.293 -0.7039 -2.4475 -0.9471
 2657SOL    HW219605   0.317   0.046  17.435 -1.5886  2.3374 -0.1053
 2658SOL     OW19606   3.625   3.835  14.375  0.5749 -0.7809  0.2357
 2658SOL    HW119607   3.555   3.900  14.367  2.5577  1.4834  0.9573
 2658SOL    HW219608   3.688   3.894  14.417  0.7332 -0.0574 -1.0063
 2659SOL     OW19609   3.456   2.523   9.347 -0.1322 -0.4587 -0.5693
 2659SOL    HW119610   3.491   2.443   9.387  0.8212 -0.4216 -1.3556
 2659SOL    HW219611   3.524   2.584   9.372 -1.3907  0.8746 -0.4154
 2660SOL     OW19612   2.657   2.904   8.801  0.8677 -0.4450 -0.1066
 2660SOL    HW119613   2.636   2.924   8.710 -0.4720 -0.0309  0.2870
 2660SOL    HW219614   2.567   2.891   8.831  0.1964  0.2632 -1.8383
 2661SOL     OW19615   4.302   0.578  11.422  0.4080  0.5522  0.3241
 2661SOL    HW119616   4.344   0.623  11.495  1.0382 -1.8666  1.4748
 2661SOL    HW219617   4.315   0.484  11.437 -0.4645  0.1154 -1.5876
 2662SOL     OW19618   3.485   3.529   4.267  0.0004 -0.3633  0.0660
 2662SOL    HW119619   3.433   3.452   4.291 -0.5246 -0.0851 -0.1546
 2662SOL    HW219620   3.478   3.584   4.345  0.8641 -0.1026 -0.0440
 2663SOL     OW19621   3.198   1.200   2.937 -0.3209 -0.1656  0.3702
 2663SOL    HW119622   3.248   1.251   3.000 -0.0560 -0.1210  0.1258
 2663SOL    HW219623   3.215   1.249   2.857 -1.2091  0.5259  0.6086
 2664SOL     OW19624   1.440   0.243  15.212  0.0118  0.2510 -1.0023
 2664SOL    HW119625   1.524   0.197  15.217 -2.3023 -3.6936  1.6822
 2664SOL    HW219626   1.391   0.166  15.184 -2.0216  1.7409 -1.4700
 2665SOL     OW19627   4.719   1.858   6.690  0.0723  0.1762  0.5364
 2665SOL    HW119628   4.686   1.793   6.752 -1.4891  1.7757  1.3785
 2665SOL    HW219629   4.666   1.843   6.612  0.9012 -0.4554  0.0994
 2666SOL     OW19630   2.525   1.802   3.116 -0.1612  0.6041  0.3470
 2666SOL    HW119631   2.562   1.746   3.185 -1.6235 -0.5848  0.1671
 2666SOL    HW219632   2.528   1.883   3.166 -0.5728  0.5231  0.4991
 2667SOL     OW19633   1.708   2.623  12.381  0.0906 -0.1639  0.3931
 2667SOL    HW119634   1.708   2.708  12.426  2.3139  0.6758 -1.2179
 2667SOL    HW219635   1.737   2.575  12.459 -2.1015 -0.9775  0.7153
 2668SOL     OW19636   2.490   3.821  16.821  0.0453  0.4591 -0.2141
 2668SOL    HW119637   2.548   3.876  16.874 -1.7447  0.5307  1.6532
 2668SOL    HW219638   2.448   3.888  16.766 -0.5054 -1.6321 -2.3669
 2669SOL     OW19639   4.621   2.053   8.180  0.1603  0.5907 -0.2621
 2669SOL    HW119640   4.567   2.126   8.149 -1.2014 -0.3998 -0.2062
 2669SOL    HW219641   4.592   1.990   8.114  1.1218  0.6227 -0.7217
 2670SOL     OW19642   0.185   2.928   3.186  0.0931 -0.0556  0.6894
 2670SOL    HW119643   0.237   2.903   3.110  1.0301  1.8534  0.7188
 2670SOL    HW219644   0.096   2.911   3.155 -0.7539 -0.4959  3.4301
 2671SOL     OW19645   0.864   0.101   5.410 -0.1757 -0.2011 -0.6688
 2671SOL    HW119646   0.870   0.096   5.315 -0.0482 -1.6264 -0.5883
 2671SOL    HW219647   0.802   0.173   5.420 -0.2556 -0.5852  1.6751
 2672SOL     OW19648   1.830   2.804   2.396  0.6399 -1.0135 -0.9344
 2672SOL    HW119649   1.752   2.855   2.374 -0.1783 -2.4547 -1.3047
 2672SOL    HW219650   1.801   2.766   2.479  2.1609  1.3737  0.6952
 2673SOL     OW19651   1.366   1.599   3.267  0.3976 -0.8042  0.3331
 2673SOL    HW119652   1.342   1.636   3.352 -1.2364 -3.5929  1.0727
 2673SOL    HW219653   1.419   1.524   3.293  0.5003 -0.7256  0.3507
 2674SOL     OW19654   2.390   3.945   2.233  0.1315 -0.2106  0.1789
 2674SOL    HW119655   2.447   3.878   2.271 -1.9221 -1.7637  0.5412
 2674SOL    HW219656   2.307   3.917   2.270  1.5008 -3.8236  0.5010
 2675SOL     OW19657   1.688   4.275  17.027 -0.0789 -0.2188  0.3666
 2675SOL    HW119658   1.652   4.363  17.033 -0.1385 -0.3064  1.3101
 2675SOL    HW219659   1.723   4.276  16.938 -0.6438  4.3271  0.2094
 2676SOL     OW19660   0.168   1.597   8.940  0.1937  0.4453  0.4518
 2676SOL    HW119661   0.178   1.681   8.894  0.9485  0.2217  0.2112
 2676SOL    HW219662   0.079   1.607   8.974  0.6748  3.9830  0.6665
 2677SOL     OW19663   2.802   2.884   8.038 -0.4956  0.0795 -0.5396
 2677SOL    HW119664   2.752   2.840   7.970  1.7533  0.5272 -2.4759
 2677SOL    HW219665   2.822   2.813   8.099  1.8517  1.9335  0.8518
 2678SOL     OW19666   2.748   3.794  12.782  0.1814 -0.2252 -0.6253
 2678SOL    HW119667   2.674   3.787  12.841  1.4698  1.1159  1.1336
 2678SOL    HW219668   2.728   3.849  12.706 -1.0944 -0.0734 -0.1675
 2679SOL     OW19669   4.352   1.067  11.328 -0.2519 -0.1338 -0.1835
 2679SOL    HW119670   4.410   1.044  11.401 -1.7093 -2.2850  0.2752
 2679SOL    HW219671   4.325   0.985  11.288 -2.1370 -0.4974  1.8305
 2680SOL     OW19672   1.125   0.453   5.624 -0.4712 -0.2895 -0.5539
 2680SOL    HW119673   1.048   0.454   5.680 -0.0738 -1.5769  0.0222
 2680SOL    HW219674   1.176   0.528   5.652  0.4845 -0.6908 -1.1836
 2681SOL     OW19675   2.284   4.258   7.897 -0.2749 -0.4234 -0.2538
 2681SOL    HW119676   2.258   4.315   7.825 -0.6286  0.6207  0.6952
 2681SOL    HW219677   2.347   4.310   7.947 -0.2848 -0.6747  0.0179
 2682SOL     OW19678   1.644   2.457   4.500  0.5317 -0.0562  0.2638
 2682SOL    HW119679   1.642   2.538   4.551 -0.0466 -0.8308  1.4623
 2682SOL    HW219680   1.647   2.394   4.572  1.4207  0.6922  0.8791
 2683SOL     OW19681   3.245   1.640   4.517  0.0623 -0.2075 -0.1167
 2683SOL    HW119682   3.193   1.705   4.470  1.7738  1.4381  0.2627
 2683SOL    HW219683   3.220   1.666   4.605  1.4588  3.0195 -0.6853
 2684SOL     OW19684   1.736   1.547  12.106  0.4707 -0.2811  0.4764
 2684SOL    HW119685   1.765   1.585  12.189 -1.0291 -1.2264  1.4340
 2684SOL    HW219686   1.646   1.521  12.126  0.4286  1.1762  2.2352
 2685SOL     OW19687   4.289   0.339   6.315 -0.0496 -0.2892  0.7526
 2685SOL    HW119688   4.298   0.250   6.349 -0.0966 -0.6581 -0.2082
 2685SOL    HW219689   4.238   0.316   6.237  0.1743 -1.1946  0.8801
 2686SOL     OW19690   2.784   1.690   7.516  0.2253 -0.1440 -0.0202
 2686SOL    HW119691   2.835   1.722   7.590  1.5517 -0.3044 -0.8738
 2686SOL    HW219692   2.787   1.597   7.539 -0.3096 -0.7153 -2.2609
 2687SOL     OW19693   1.056   1.880   2.431 -0.2745  0.0965 -0.0947
 2687SOL    HW119694   1.139   1.912   2.464  0.2865 -2.0326  0.5684
 2687SOL    HW219695   1.053   1.926   2.348  0.2460 -0.1270 -0.2368
 2688SOL     OW19696   2.208   4.488   3.084  0.2357  0.0524 -0.5704
 2688SOL    HW119697   2.283   4.532   3.046  1.8979 -3.7873 -1.7174
 2688SOL    HW219698   2.141   4.550   3.057  0.5895 -0.3556 -2.3677
 2689SOL     OW19699   3.533   4.160   8.903  0.2992 -0.1088 -0.0560
 2689SOL    HW119700   3.609   4.209   8.934  1.0507  0.2699 -2.4933
 2689SOL    HW219701   3.577   4.124   8.826  0.1996  0.9361 -0.6025
 2690SOL     OW19702   4.569   3.955   6.513  0.0269  0.1372  0.4825
 2690SOL    HW119703   4.662   3.960   6.490 -0.3414  1.2951 -0.7734
 2690SOL    HW219704   4.552   3.866   6.483  0.2005  0.2468  0.0605
 2691SOL     OW19705   1.296   4.141  17.034 -0.1758 -0.1943  0.2900
 2691SOL    HW119706   1.251   4.166  17.115 -0.7122  0.2132 -0.1383
 2691SOL    HW219707   1.222   4.136  16.974 -1.1824  2.7852  1.2726
 2692SOL     OW19708   1.932   2.792   5.013 -0.1345 -0.0766  0.2361
 2692SOL    HW119709   1.929   2.719   5.075 -1.6276 -1.6921 -1.7517
 2692SOL    HW219710   1.979   2.746   4.944  2.3717  1.1473  1.1203
 2693SOL     OW19711   0.840   1.285   4.529 -0.2714 -0.0977 -0.5197
 2693SOL    HW119712   0.840   1.200   4.485 -3.3189  0.0617 -0.8472
 2693SOL    HW219713   0.928   1.320   4.518 -0.3708  0.6342  0.9148
 2694SOL     OW19714   0.773   4.499   4.013 -0.1730  0.3140 -0.3459
 2694SOL    HW119715   0.745   4.496   4.105  0.5693 -0.0258 -0.1322
 2694SOL    HW219716   0.806   4.410   4.000  0.0461  0.2706  0.5272
 2695SOL     OW19717   1.493   3.618   3.080  0.0504 -0.0691 -0.3770
 2695SOL    HW119718   1.556   3.689   3.072 -0.6797  0.4355 -1.6146
 2695SOL    HW219719   1.417   3.665   3.045 -1.0894 -1.8669 -0.3016
 2696SOL     OW19720   3.223   0.810  13.196 -0.4633 -0.6300 -0.2808
 2696SOL    HW119721   3.163   0.882  13.215  2.7189  1.9902 -0.1955
 2696SOL    HW219722   3.252   0.779  13.282  2.7334  0.7727 -0.8611
 2697SOL     OW19723   0.153   0.281   6.388  0.1115  0.6614 -0.5495
 2697SOL    HW119724   0.155   0.344   6.459  0.4951  1.4947 -1.3013
 2697SOL    HW219725   0.068   0.246   6.414 -0.0891  1.7963  0.3041
 2698SOL     OW19726   0.158   1.957  14.422 -0.3600 -0.2572 -0.0903
 2698SOL    HW119727   0.162   2.039  14.372  0.6772 -1.1769 -1.4790
 2698SOL    HW219728   0.122   1.992  14.504 -3.2285  0.2346 -1.5778
 2699SOL     OW19729   1.592   2.330   4.765 -0.1114  0.3720 -0.0849
 2699SOL    HW119730   1.601   2.388   4.841  1.3405  0.1547 -0.1010
 2699SOL    HW219731   1.506   2.358   4.732  0.2986  0.2519 -1.2600
 2700SOL     OW19732   0.588   3.495  17.715  0.0823  0.2274  0.0113
 2700SOL    HW119733   0.564   3.406  17.690  2.6681 -0.5509  0.3360
 2700SOL    HW219734   0.603   3.533  17.628 -2.9098  4.3364  1.2903
 2701SOL     OW19735   3.626   2.142   8.359 -0.2029 -0.4872  0.0708
 2701SOL    HW119736   3.563   2.075   8.387  1.7869 -2.2987  0.2563
 2701SOL    HW219737   3.697   2.089   8.323 -2.2484 -3.3524  0.2308
 2702SOL     OW19738   3.724   4.535   9.738 -0.4686  0.1903 -0.2145
 2702SOL    HW119739   3.740   4.441   9.746  0.0526  0.4658  2.0399
 2702SOL    HW219740   3.651   4.536   9.677 -0.2207 -0.5385 -0.5181
 2703SOL     OW19741   2.705   2.237   7.586 -0.3978  0.4596 -0.1100
 2703SOL    HW119742   2.675   2.184   7.511 -1.5554  0.3707  0.4246
 2703SOL    HW219743   2.651   2.315   7.574  0.4923  0.9970 -0.6282
 2704SOL     OW19744   3.628   2.798   4.492 -0.2002  0.0354  0.0774
 2704SOL    HW119745   3.650   2.888   4.466  0.4724 -0.2722 -0.4056
 2704SOL    HW219746   3.537   2.786   4.465 -0.1037 -0.5820  0.0246
 2705SOL     OW19747   1.001   3.542   5.969 -0.3243  0.6865  0.5846
 2705SOL    HW119748   0.977   3.590   5.890  0.6541 -2.5852 -1.7288
 2705SOL    HW219749   1.063   3.485   5.923 -1.2216  0.1518  0.0326
 2706SOL     OW19750   2.451   3.874   8.190 -0.6372  0.0293 -0.3169
 2706SOL    HW119751   2.385   3.920   8.139 -0.5624  0.3062 -0.1702
 2706SOL    HW219752   2.500   3.815   8.133 -0.1768 -0.6165  0.7286
 2707SOL     OW19753   1.935   4.185   3.544 -0.2983 -0.1308 -0.2311
 2707SOL    HW119754   1.937   4.252   3.475 -1.2147 -0.1139 -0.2458
 2707SOL    HW219755   2.008   4.129   3.519  2.0096  2.8401 -0.2002
 2708SOL     OW19756   2.828   0.971   6.304  0.5933  0.1675 -0.2884
 2708SOL    HW119757   2.779   1.040   6.349  0.8399  1.2249 -1.6639
 2708SOL    HW219758   2.856   0.912   6.374 -0.1452 -0.5378 -0.5900
 2709SOL     OW19759   3.330   2.222   3.994  0.1840 -0.1628  0.7935
 2709SOL    HW119760   3.348   2.267   3.911 -0.0505  0.7443  1.2320
 2709SOL    HW219761   3.370   2.284   4.054 -2.0911  0.1871  1.9291
 2710SOL     OW19762   3.256   2.089   3.680 -0.1111 -0.2875 -0.4364
 2710SOL    HW119763   3.321   2.020   3.672 -1.7196 -1.7096 -1.4081
 2710SOL    HW219764   3.305   2.164   3.712 -1.1810 -0.3406  1.3170
 2711SOL     OW19765   2.403   1.938   5.073  0.1073 -0.0373 -0.1661
 2711SOL    HW119766   2.376   2.013   5.125  3.6910  0.6543  0.6832
 2711SOL    HW219767   2.408   1.977   4.986 -0.6479  1.3301  0.4070
 2712SOL     OW19768   3.341   2.869   4.936  0.0128  0.0396  0.0917
 2712SOL    HW119769   3.369   2.777   4.929 -1.9926 -0.5511 -0.2329
 2712SOL    HW219770   3.247   2.865   4.918 -0.2875  1.1196  1.4356
 2713SOL     OW19771   2.311   1.476   9.120 -0.3201  0.4470 -0.4279
 2713SOL    HW119772   2.369   1.404   9.143 -0.8129  0.4532  0.8599
 2713SOL    HW219773   2.367   1.530   9.065  2.2231 -0.4036  1.3543
 2714SOL     OW19774   1.043   4.084   2.016 -0.3263 -0.3857 -0.1938
 2714SOL    HW119775   1.090   4.117   2.092 -1.8030  0.1754  0.4617
 2714SOL    HW219776   1.051   4.158   1.956 -1.1481 -0.1134  0.0348
 2715SOL     OW19777   3.474   4.644   6.512 -0.0073 -0.1265 -0.2661
 2715SOL    HW119778   3.535   4.573   6.491  1.3176  0.6333  1.0689
 2715SOL    HW219779   3.412   4.595   6.567  2.0429  1.2416  3.2649
 2716SOL     OW19780   3.368   0.187   2.368  0.4909  0.4036  0.4559
 2716SOL    HW119781   3.279   0.172   2.334  0.2691 -1.4259  1.8499
 2716SOL    HW219782   3.346   0.176   2.460  0.2012 -0.4251  0.2875
 2717SOL     OW19783   1.679   2.897   5.055 -0.2774 -0.5938  0.3251
 2717SOL    HW119784   1.677   2.863   5.145  1.0620 -1.9142 -0.1525
 2717SOL    HW219785   1.771   2.877   5.037 -0.2351 -0.1932  0.0931
 2718SOL     OW19786   4.593   4.254   5.620  0.5701 -0.3828 -0.3086
 2718SOL    HW119787   4.628   4.166   5.630 -2.9572 -1.7141  0.1655
 2718SOL    HW219788   4.660   4.312   5.656 -0.7401 -0.5829  2.4247
 2719SOL     OW19789   1.616   2.981  13.323  0.0844 -0.1356 -0.3906
 2719SOL    HW119790   1.576   3.062  13.353  0.6165 -0.1411  0.3241
 2719SOL    HW219791   1.675   2.951  13.391 -1.4717  1.2343  1.5481
 2720SOL     OW19792   0.460   0.617   4.465  0.1795 -0.1082  0.5478
 2720SOL    HW119793   0.467   0.521   4.460 -1.6480 -0.2079  0.0798
 2720SOL    HW219794   0.368   0.632   4.484  0.2940 -0.4547  1.4009
 2721SOL     OW19795   2.102   3.770  16.551 -0.2121 -0.4609  0.0251
 2721SOL    HW119796   2.075   3.750  16.462  1.9034  2.1460 -1.1898
 2721SOL    HW219797   2.184   3.819  16.538 -1.1370  2.3877  4.9081
 2722SOL     OW19798   1.674   4.383   7.322  0.1421  0.2442  0.4721
 2722SOL    HW119799   1.693   4.290   7.331  0.2069  0.2699  0.6044
 2722SOL    HW219800   1.754   4.426   7.291 -0.3515  1.1519  0.4545
 2723SOL     OW19801   2.440   2.437   9.669  0.0102  0.6461 -0.7971
 2723SOL    HW119802   2.349   2.462   9.687 -0.6184 -2.6633  0.7118
 2723SOL    HW219803   2.425   2.351   9.630  0.1667 -0.3056  1.2744
 2724SOL     OW19804   1.330   2.907  14.211 -0.5007 -0.0729  0.0002
 2724SOL    HW119805   1.393   2.942  14.147  0.1747 -2.4961 -0.6746
 2724SOL    HW219806   1.251   2.914  14.158  1.8218  0.7961 -3.3309
 2725SOL     OW19807   4.424   1.759   7.155 -0.3351  0.1616 -0.0409
 2725SOL    HW119808   4.514   1.744   7.124  0.1373 -0.1836  1.5291
 2725SOL    HW219809   4.376   1.705   7.092 -0.0150 -0.3858  0.1867
 2726SOL     OW19810   4.302   0.142  11.529 -0.3047  0.0112  0.1779
 2726SOL    HW119811   4.315   0.205  11.458 -2.7820 -1.9974 -2.0625
 2726SOL    HW219812   4.338   0.070  11.478 -1.8406  0.2362 -1.2278
 2727SOL     OW19813   3.640   3.714   5.761  0.0523 -0.5843  0.2058
 2727SOL    HW119814   3.711   3.774   5.783  0.2766 -0.6739 -0.2710
 2727SOL    HW219815   3.656   3.654   5.834  0.4668  0.0784  0.6544
 2728SOL     OW19816   3.747   1.379  15.073  0.0385  0.6125  0.6874
 2728SOL    HW119817   3.841   1.366  15.087  0.3048  0.3713 -1.2660
 2728SOL    HW219818   3.713   1.290  15.064  0.0537  0.7047 -0.3401
 2729SOL     OW19819   1.930   0.766  11.260  0.3282 -0.2302 -0.3024
 2729SOL    HW119820   1.891   0.824  11.195  0.5753 -0.4309 -0.6306
 2729SOL    HW219821   1.851   0.743  11.309  0.6223 -2.2656 -0.8191
 2730SOL     OW19822   3.571   2.601   3.971 -0.2105 -0.5744  0.0554
 2730SOL    HW119823   3.482   2.615   4.003  0.2671  0.2269  1.0448
 2730SOL    HW219824   3.561   2.550   3.891  0.5751  1.4125 -1.3121
 2731SOL     OW19825   3.706   3.259   9.510  0.0280  0.4650 -0.4059
 2731SOL    HW119826   3.650   3.283   9.437 -0.6662  2.0089  0.6231
 2731SOL    HW219827   3.651   3.277   9.586  1.4866 -0.9019  0.9861
 2732SOL     OW19828   2.719   1.252   2.904 -0.5119  0.4007  0.5211
 2732SOL    HW119829   2.654   1.303   2.856  1.8470  1.7909 -1.2150
 2732SOL    HW219830   2.724   1.166   2.862  0.2535  0.0124  1.3921
 2733SOL     OW19831   0.498   1.771   8.391 -0.6540  0.0530 -0.0912
 2733SOL    HW119832   0.561   1.727   8.335 -0.8222  0.7632 -0.8365
 2733SOL    HW219833   0.500   1.728   8.477 -0.6351 -1.6774 -0.9727
 2734SOL     OW19834   2.216   4.141   9.120 -0.4820  0.0218 -0.7659
 2734SOL    HW119835   2.305   4.141   9.154 -0.7877 -1.2318  0.0619
 2734SOL    HW219836   2.163   4.151   9.199  0.5561 -2.3110  0.2421
 2735SOL     OW19837   3.002   4.294   1.967  0.2924  0.0745  0.0888
 2735SOL    HW119838   2.969   4.249   1.889 -0.1696  0.4793  0.0547
 2735SOL    HW219839   3.096   4.284   1.950  0.3411  2.7946 -1.3360
 2736SOL     OW19840   4.209   1.340   4.529 -0.1818 -0.2096 -0.1007
 2736SOL    HW119841   4.293   1.385   4.538 -0.3886  0.4895 -1.6117
 2736SOL    HW219842   4.192   1.327   4.436  3.5756 -0.9436 -0.7007
 2737SOL     OW19843   3.221   3.938   6.981  0.2367  0.3435 -0.2923
 2737SOL    HW119844   3.205   4.032   6.969  0.0431  0.3912  0.3635
 2737SOL    HW219845   3.241   3.940   7.074  0.5766  0.0587 -0.3607
 2738SOL     OW19846   2.951   1.337  14.008  0.6294  0.3293 -0.7227
 2738SOL    HW119847   2.903   1.299  14.082  1.0416  1.2819  0.0334
 2738SOL    HW219848   2.988   1.413  14.053  0.7571  0.2038 -0.6127
 2739SOL     OW19849   1.601   2.926  11.615  0.1366  0.2269 -0.0566
 2739SOL    HW119850   1.630   2.942  11.705 -0.0668 -0.8044  0.1918
 2739SOL    HW219851   1.654   2.993  11.570  0.6167  0.2962  0.6081
 2740SOL     OW19852   1.234   4.524   4.087  0.4472 -0.1017 -1.5658
 2740SOL    HW119853   1.193   4.492   4.007 -1.1387 -0.2879 -0.6743
 2740SOL    HW219854   1.158   4.532   4.144  0.3344  0.7284 -1.8330
 2741SOL     OW19855   2.032   3.296  12.135 -0.4149  0.0833  0.0661
 2741SOL    HW119856   2.014   3.238  12.209 -0.2021 -1.4765 -1.1054
 2741SOL    HW219857   1.990   3.375  12.167 -1.2943  0.0729 -1.0627
 2742SOL     OW19858   2.129   2.657  10.647 -0.0165  0.1266 -0.3169
 2742SOL    HW119859   2.064   2.599  10.606  0.5329 -0.2234 -0.6804
 2742SOL    HW219860   2.100   2.648  10.738 -0.4750 -1.4534 -0.6118
 2743SOL     OW19861   1.896   3.926   7.619  0.6535 -0.6675 -0.0289
 2743SOL    HW119862   1.950   3.917   7.542 -1.6017  0.4476 -1.7477
 2743SOL    HW219863   1.955   3.949   7.691  0.2136 -0.0960  0.1503
 2744SOL     OW19864   0.599   4.094   2.964 -0.2780  0.2586  0.4141
 2744SOL    HW119865   0.649   4.077   3.044 -1.2756 -0.6070  0.8591
 2744SOL    HW219866   0.550   4.173   2.987  0.0147  0.7314 -0.5885
 2745SOL     OW19867   0.221   0.141   3.902  0.8549  0.3453  0.5206
 2745SOL    HW119868   0.235   0.234   3.883 -2.9324  0.3902 -1.9525
 2745SOL    HW219869   0.146   0.149   3.961 -1.4751  0.2216 -2.4107
 2746SOL     OW19870   3.266   4.192   5.807 -0.1586  0.1256  0.6467
 2746SOL    HW119871   3.268   4.097   5.815  1.2215 -0.1449 -2.9643
 2746SOL    HW219872   3.353   4.222   5.782 -0.8918  1.9588  0.2471
 2747SOL     OW19873   2.950   0.131  14.293  0.0150  0.1700 -0.3548
 2747SOL    HW119874   2.924   0.064  14.357 -0.1869 -0.3345 -0.9697
 2747SOL    HW219875   2.989   0.190  14.358 -0.4269 -0.2823  0.3290
 2748SOL     OW19876   2.891   4.383   2.786  0.2967 -0.5344  0.3987
 2748SOL    HW119877   2.821   4.368   2.850  0.4247 -0.3747  0.5739
 2748SOL    HW219878   2.943   4.311   2.821  0.1060 -0.5313  0.6858
 2749SOL     OW19879   2.229   4.307   1.499  1.2279 -1.0032  0.5988
 2749SOL    HW119880   2.140   4.287   1.528  0.1014 -0.1582 -2.3287
 2749SOL    HW219881   2.288   4.296   1.574  2.6151 -1.4016 -0.5598
 2750SOL     OW19882   0.109   1.813   8.723  0.3207  0.2454 -0.1923
 2750SOL    HW119883   0.059   1.859   8.791 -0.7946  0.8443 -1.4091
 2750SOL    HW219884   0.046   1.821   8.651 -2.2191  1.5762  2.1525
 2751SOL     OW19885   0.231   2.198  15.470  0.0362 -0.1976 -0.2154
 2751SOL    HW119886   0.231   2.103  15.477  1.4796 -0.3447 -2.0058
 2751SOL    HW219887   0.229   2.221  15.563 -1.7258  2.5889 -0.9516
 2752SOL     OW19888   1.951   0.955  10.617  0.4792  0.1054  0.2395
 2752SOL    HW119889   1.951   0.942  10.522  1.1850 -0.2546  0.2889
 2752SOL    HW219890   1.930   0.867  10.646  2.2116 -1.1285 -2.2831
 2753SOL     OW19891   0.811   0.663   7.289 -0.1252 -0.4310  0.2413
 2753SOL    HW119892   0.844   0.741   7.245 -0.5946  0.7317  1.9911
 2753SOL    HW219893   0.716   0.666   7.277 -0.0337  0.5292 -0.2274
 2754SOL     OW19894   4.557   2.337   4.509  0.2903 -0.0517  0.1244
 2754SOL    HW119895   4.531   2.247   4.493  1.0878 -0.6269  2.1377
 2754SOL    HW219896   4.485   2.393   4.480 -0.7892 -2.2674 -1.4246
 2755SOL     OW19897   0.841   3.150   9.205 -0.2378  0.8005 -0.5246
 2755SOL    HW119898   0.915   3.202   9.173  0.8832 -0.2986  0.2930
 2755SOL    HW219899   0.814   3.206   9.278 -2.6272 -3.1725  1.6557
 2756SOL     OW19900   0.385   2.705   5.893 -0.1397 -0.5560  0.0813
 2756SOL    HW119901   0.363   2.627   5.842 -0.5414 -0.6243  0.3676
 2756SOL    HW219902   0.301   2.750   5.900 -0.2665 -0.6491 -0.7673
 2757SOL     OW19903   3.568   3.968   4.574 -0.1472  0.3211 -0.2764
 2757SOL    HW119904   3.605   3.934   4.492 -0.4778 -2.7273  0.8616
 2757SOL    HW219905   3.476   3.941   4.569  0.4144 -1.7678  0.9238
 2758SOL     OW19906   4.106   4.167   7.165 -0.3723  0.2769  0.3794
 2758SOL    HW119907   4.063   4.163   7.250 -0.1693 -1.1210  0.4150
 2758SOL    HW219908   4.127   4.075   7.150  1.7792  0.3850  2.7516
 2759SOL     OW19909   2.591   1.680   5.917  1.3746 -0.1620  0.3297
 2759SOL    HW119910   2.583   1.603   5.973  0.2275  0.9202  1.6455
 2759SOL    HW219911   2.508   1.722   5.938  0.8512 -1.9779  1.9121
 2760SOL     OW19912   2.511   2.734   7.505  0.7728  0.2365  0.2339
 2760SOL    HW119913   2.564   2.738   7.426 -0.5878  2.6180 -0.5274
 2760SOL    HW219914   2.425   2.722   7.464  2.0437 -1.1220 -2.0492
 2761SOL     OW19915   3.351   1.973   8.204  0.5701 -0.2488 -0.5555
 2761SOL    HW119916   3.359   2.003   8.295  0.7885  1.5277 -1.1646
 2761SOL    HW219917   3.260   1.946   8.212  0.1324  1.2039 -0.6168
 2762SOL     OW19918   2.823   2.918   4.451  0.3216 -0.3088 -0.2383
 2762SOL    HW119919   2.829   2.835   4.403  1.8810 -0.5255  0.3247
 2762SOL    HW219920   2.917   2.932   4.462  0.4170  0.8725 -2.5437
 2763SOL     OW19921   1.623   1.311   0.850  0.1799 -0.2550  0.0633
 2763SOL    HW119922   1.554   1.338   0.910 -0.3729 -0.9661 -0.2421
 2763SOL    HW219923   1.696   1.366   0.876 -0.1518 -0.4507  1.4059
 2764SOL     OW19924   1.063   0.455   7.698  0.0169 -0.0742 -0.0242
 2764SOL    HW119925   1.013   0.510   7.637 -0.3844 -0.4474 -0.0356
 2764SOL    HW219926   1.005   0.461   7.775 -0.9085  3.7019 -0.9835
 2765SOL     OW19927   3.481   3.059  15.015  0.6503 -0.6548 -0.2854
 2765SOL    HW119928   3.517   3.038  14.929 -2.0540  0.0974 -1.6334
 2765SOL    HW219929   3.552   3.100  15.064  0.9207  1.6995 -2.6371
 2766SOL     OW19930   2.038   3.650   3.904 -0.1048 -0.2377 -0.1085
 2766SOL    HW119931   2.042   3.555   3.916 -1.8107 -0.5556 -2.0672
 2766SOL    HW219932   1.952   3.653   3.863  0.9000  0.2902 -2.2169
 2767SOL     OW19933   3.187   2.124   5.128  0.2184 -0.4722 -0.4420
 2767SOL    HW119934   3.139   2.042   5.114  0.7146 -0.7207 -0.7046
 2767SOL    HW219935   3.241   2.131   5.049  1.0760  0.2121  0.2199
 2768SOL     OW19936   4.150   4.160   0.828 -0.0496 -0.4780 -0.3540
 2768SOL    HW119937   4.123   4.240   0.784  1.8705 -0.3436 -1.2671
 2768SOL    HW219938   4.067   4.134   0.868  0.0016 -1.4614 -0.8772
 2769SOL     OW19939   3.712   2.769   4.159 -0.0337 -0.0166 -0.2251
 2769SOL    HW119940   3.645   2.831   4.186 -0.4075  0.1642 -1.5833
 2769SOL    HW219941   3.656   2.708   4.113  1.8284 -0.4667 -1.8847
 2770SOL     OW19942   3.706   3.956   7.030 -0.2725  0.2950 -0.1641
 2770SOL    HW119943   3.768   3.973   6.959  0.3285 -0.0616  0.2827
 2770SOL    HW219944   3.695   3.861   7.029 -2.6132  0.5473  1.5534
 2771SOL     OW19945   3.608   4.273   2.060 -0.1527  0.3181  0.3597
 2771SOL    HW119946   3.698   4.295   2.083 -0.3066  0.3467  0.9472
 2771SOL    HW219947   3.554   4.308   2.131  0.3064  1.4412  0.1495
 2772SOL     OW19948   3.697   2.884  13.064  0.7921 -0.0984 -0.4600
 2772SOL    HW119949   3.714   2.963  13.116 -0.8679  0.4304 -0.7321
 2772SOL    HW219950   3.623   2.846  13.112  1.4824  0.0778  0.7490
 2773SOL     OW19951   1.913   2.488   3.381  0.3425  0.0446  0.2528
 2773SOL    HW119952   1.889   2.460   3.469  0.4807  0.3118  0.3750
 2773SOL    HW219953   1.826   2.492   3.340  0.5688  2.4410 -0.0020
 2774SOL     OW19954   3.669   1.597   6.935  0.1334  0.5785  0.5816
 2774SOL    HW119955   3.742   1.645   6.895  0.7140 -0.8568 -0.1192
 2774SOL    HW219956   3.597   1.641   6.890  0.7797  0.7786 -0.2668
 2775SOL     OW19957   3.490   4.321   6.853  0.1465  0.1601 -0.2600
 2775SOL    HW119958   3.415   4.337   6.796  0.4483  0.8904 -0.4513
 2775SOL    HW219959   3.498   4.227   6.837 -0.7421 -0.4345  2.7022
 2776SOL     OW19960   4.062   3.435   5.874 -0.2001  0.2013  0.2042
 2776SOL    HW119961   4.136   3.402   5.924 -1.1286  1.7499  2.5667
 2776SOL    HW219962   4.085   3.528   5.882 -1.9009  0.7027 -0.6436
 2777SOL     OW19963   4.184   2.199  16.759  0.4663  0.4796  0.4173
 2777SOL    HW119964   4.133   2.229  16.835  2.2540  0.7554  1.5004
 2777SOL    HW219965   4.118   2.205  16.689 -0.9258 -0.4329  1.6573
 2778SOL     OW19966   4.187   1.958   1.557  0.0212 -0.4563  0.2359
 2778SOL    HW119967   4.126   2.032   1.555 -0.1637 -0.6629 -1.8781
 2778SOL    HW219968   4.136   1.878   1.543 -0.0353  0.0272 -2.3824
 2779SOL     OW19969   0.625   1.433   7.988 -0.1905 -0.0172  0.1187
 2779SOL    HW119970   0.574   1.457   8.066  2.0387  1.0104  1.2552
 2779SOL    HW219971   0.712   1.420   8.026  1.1697  0.7357 -2.7029
 2780SOL     OW19972   2.882   2.069  13.342 -0.2320 -0.2928 -0.5967
 2780SOL    HW119973   2.949   2.114  13.393  1.1518 -0.9593 -1.8637
 2780SOL    HW219974   2.800   2.115  13.360  0.6249  0.3577  1.6953
 2781SOL     OW19975   4.009   4.105   4.625  0.5096  0.6658 -0.1355
 2781SOL    HW119976   3.932   4.090   4.680 -1.8344 -0.2990 -3.7137
 2781SOL    HW219977   4.063   4.165   4.676  0.9298 -2.4337  3.0245
 2782SOL     OW19978   4.416   4.403  15.654 -0.4184  0.8031  0.4559
 2782SOL    HW119979   4.448   4.432  15.568  2.4581 -0.8839  0.9642
 2782SOL    HW219980   4.330   4.445  15.655 -1.7892 -2.0161 -0.8216
 2783SOL     OW19981   2.003   3.596  14.135 -0.4486  0.5573  0.3868
 2783SOL    HW119982   1.915   3.598  14.173 -0.2930  1.9528  0.6436
 2783SOL    HW219983   2.048   3.664  14.184 -0.1038  0.6367 -0.0404
 2784SOL     OW19984   0.751   3.787   3.140  0.4720 -0.1394 -0.0509
 2784SOL    HW119985   0.716   3.701   3.116 -1.7449  0.7162  0.1058
 2784SOL    HW219986   0.841   3.758   3.150  0.3093  0.2407  2.4255
 2785SOL     OW19987   0.730   0.864   8.185 -0.5667  0.4849  0.3168
 2785SOL    HW119988   0.691   0.836   8.102 -0.1581  0.8990 -0.0164
 2785SOL    HW219989   0.692   0.805   8.250  0.7271  0.0055  0.6407
 2786SOL     OW19990   1.984   2.970   3.757  0.0840  0.0440 -0.7446
 2786SOL    HW119991   1.971   2.944   3.848 -1.4724  1.6597 -0.4947
 2786SOL    HW219992   1.967   3.065   3.758 -0.2290 -0.0772  3.3301
 2787SOL     OW19993   3.091   2.852  16.609 -0.0830  0.4129  0.1744
 2787SOL    HW119994   3.144   2.809  16.677 -0.1537  0.5640  0.3269
 2787SOL    HW219995   3.008   2.805  16.620 -0.4233  1.7620  3.6215
 2788SOL     OW19996   4.059   0.224   9.968  0.6777  0.3106 -0.0044
 2788SOL    HW119997   4.104   0.168   9.905  1.0632 -0.0767  0.6035
 2788SOL    HW219998   3.977   0.243   9.923  0.0478 -0.8180  0.6694
 2789SOL     OW19999   0.288   3.471   6.914 -0.4698  0.6387 -0.3563
 2789SOL    HW120000   0.372   3.518   6.912  0.6239 -1.3154 -0.3087
 2789SOL    HW220001   0.293   3.420   6.833  2.5413  1.9855 -1.0241
 2790SOL     OW20002   0.287   2.826   2.410 -0.0620  0.3425 -0.4238
 2790SOL    HW120003   0.259   2.865   2.493 -2.0477 -3.2787  0.5738
 2790SOL    HW220004   0.278   2.733   2.429  1.5662  0.3438  0.4123
 2791SOL     OW20005   4.113   0.960   2.769 -0.0195  0.5789  0.0488
 2791SOL    HW120006   4.192   0.946   2.822  2.2678 -1.8605 -4.0576
 2791SOL    HW220007   4.042   0.935   2.829  1.3280  0.0774  1.4392
 2792SOL     OW20008   4.636   3.865   3.338 -0.7250  0.4654 -0.4401
 2792SOL    HW120009   4.599   3.828   3.418  0.3450  0.4200  0.0285
 2792SOL    HW220010   4.656   3.953   3.369 -0.4887  0.5231 -0.7483
 2793SOL     OW20011   4.142   3.181   3.690 -0.3865  0.6117 -0.5372
 2793SOL    HW120012   4.136   3.144   3.777  0.8579  0.7935 -0.3729
 2793SOL    HW220013   4.053   3.215   3.680  0.3707  2.6982 -0.2061
 2794SOL     OW20014   3.198   2.873   7.399  0.5655 -0.0038 -0.0477
 2794SOL    HW120015   3.262   2.803   7.384  0.3343 -0.4894  1.2066
 2794SOL    HW220016   3.117   2.831   7.430 -0.2123  2.1586  0.8338
 2795SOL     OW20017   3.155   2.731   2.991  0.1894 -0.0578 -0.1960
 2795SOL    HW120018   3.189   2.742   2.902 -0.2022  0.0742 -0.3269
 2795SOL    HW220019   3.174   2.814   3.034  1.9363 -0.9892  0.8598
 2796SOL     OW20020   4.102   2.076   0.198  0.0036  0.1913  0.0087
 2796SOL    HW120021   4.022   2.123   0.173 -0.4339 -1.1306 -1.0527
 2796SOL    HW220022   4.154   2.151   0.227 -1.9549  1.7903 -0.6029
 2797SOL     OW20023   3.795   4.041  14.575  0.1523  0.0185  0.3784
 2797SOL    HW120024   3.871   4.097  14.554 -0.9879  1.3949 -0.0612
 2797SOL    HW220025   3.837   3.958  14.554  0.0123 -0.3705  1.6562
 2798SOL     OW20026   1.064   2.485   2.413 -0.0072  0.7759  0.0112
 2798SOL    HW120027   0.995   2.420   2.397 -1.2297  1.9525  0.5386
 2798SOL    HW220028   1.146   2.437   2.429  0.5526  1.7624  0.0768
 2799SOL     OW20029   4.445   4.085   3.535  0.1772 -0.4818 -0.3640
 2799SOL    HW120030   4.507   4.156   3.519  0.0421 -0.1534  0.5884
 2799SOL    HW220031   4.376   4.134   3.579 -0.5790 -1.6878 -0.1857
 2800SOL     OW20032   3.952   3.797   2.955 -0.1223 -0.5169  0.2823
 2800SOL    HW120033   3.986   3.880   2.921  0.4902 -0.9040 -0.0539
 2800SOL    HW220034   3.944   3.746   2.875  3.4609 -1.6913  0.6628
 2801SOL     OW20035   0.315   3.566   9.310  0.1064  0.1897 -0.2569
 2801SOL    HW120036   0.389   3.549   9.368 -0.3735 -0.7740  0.0561
 2801SOL    HW220037   0.357   3.573   9.224  1.0789  1.9083  0.3487
 2802SOL     OW20038   3.206   4.521   4.983 -0.4182 -0.0859 -0.6337
 2802SOL    HW120039   3.273   4.563   4.930 -0.4966 -1.5729 -1.9137
 2802SOL    HW220040   3.176   4.454   4.922 -1.6259  0.8272 -1.0426
 2803SOL     OW20041   2.320   3.954  16.573  0.0386 -0.1279 -0.1865
 2803SOL    HW120042   2.339   3.972  16.480  1.9445  2.1912  0.6467
 2803SOL    HW220043   2.375   4.023  16.610 -2.6935  1.6449  0.6075
 2804SOL     OW20044   1.763   2.888   2.685 -0.3422 -0.1652 -0.4848
 2804SOL    HW120045   1.739   2.961   2.742 -0.7305 -1.4346  0.9718
 2804SOL    HW220046   1.823   2.936   2.627  1.2549 -1.0666  0.4191
 2805SOL     OW20047   2.409   0.698   2.004 -0.1192 -0.2973  0.6179
 2805SOL    HW120048   2.480   0.635   1.997 -0.3157 -0.5870  1.2123
 2805SOL    HW220049   2.350   0.669   1.935  1.6971  1.3096 -1.6096
 2806SOL     OW20050   3.603   3.486   5.376 -0.1841  1.0763 -0.1895
 2806SOL    HW120051   3.549   3.433   5.317 -0.7368 -0.1174  1.3942
 2806SOL    HW220052   3.658   3.525   5.308  0.2247  1.4962  0.3876
 2807SOL     OW20053   2.840   2.303   3.188  0.1390  0.5352 -0.0726
 2807SOL    HW120054   2.851   2.271   3.098 -0.3777  0.8809 -0.2566
 2807SOL    HW220055   2.846   2.398   3.181  0.0471  0.4891 -0.7313
 2808SOL     OW20056   0.326   2.069   1.318 -0.1542 -0.0125 -0.2506
 2808SOL    HW120057   0.287   2.156   1.311 -1.5442 -0.4930  1.3937
 2808SOL    HW220058   0.245   2.022   1.340 -0.3385  0.4674  0.1039
 2809SOL     OW20059   0.123   3.654   5.385  0.3734 -0.3330 -0.0466
 2809SOL    HW120060   0.185   3.588   5.416  0.9614  1.0302  1.6816
 2809SOL    HW220061   0.174   3.690   5.313 -2.3302  2.8733 -0.3834
 2810SOL     OW20062   1.044   2.983   3.961 -0.3513 -0.3965 -0.0633
 2810SOL    HW120063   0.972   3.046   3.966  0.2347  0.3555 -1.0617
 2810SOL    HW220064   1.017   2.929   4.035  0.6022 -1.9888 -0.8708
 2811SOL     OW20065   4.253   0.564  16.974 -0.3942 -0.1026 -0.1465
 2811SOL    HW120066   4.306   0.565  16.894  0.3423  0.1232  0.3426
 2811SOL    HW220067   4.243   0.658  16.985 -3.3577 -0.5780  1.2850
 2812SOL     OW20068   4.297   2.169   9.147 -0.0979 -0.1965  0.1401
 2812SOL    HW120069   4.304   2.262   9.167 -2.1149  0.0571 -0.3050
 2812SOL    HW220070   4.244   2.148   9.224  0.4701 -0.4785  0.4548
 2813SOL     OW20071   3.787   2.174   8.619 -0.1591 -0.2101  0.0335
 2813SOL    HW120072   3.855   2.236   8.645  0.4121 -0.1134 -1.6713
 2813SOL    HW220073   3.773   2.199   8.527  0.3475  0.5881  0.1743
 2814SOL     OW20074   0.177   0.132   8.656 -0.7429 -0.6544  0.5503
 2814SOL    HW120075   0.169   0.172   8.743 -2.2338  1.8178 -0.7263
 2814SOL    HW220076   0.094   0.085   8.650 -2.4050  2.0966  1.6466
 2815SOL     OW20077   0.778   3.008   5.289  0.0398  0.4306  0.0139
 2815SOL    HW120078   0.774   2.964   5.204 -1.0450 -0.2868  0.4378
 2815SOL    HW220079   0.734   2.949   5.349  0.8629 -0.6594 -0.4457
 2816SOL     OW20080   1.617   0.498   9.047  0.3192 -0.2564  0.4961
 2816SOL    HW120081   1.548   0.519   8.984 -0.1531 -1.8878  0.4617
 2816SOL    HW220082   1.614   0.403   9.035  2.0948 -0.3450  0.7883
 2817SOL     OW20083   1.249   3.485   2.546  0.3087  0.6499  0.1079
 2817SOL    HW120084   1.205   3.450   2.468  0.5291 -2.4459  1.3716
 2817SOL    HW220085   1.212   3.571   2.565 -1.6659  0.3056 -2.0597
 2818SOL     OW20086   1.652   2.618   1.466  0.1223 -0.6883 -0.8789
 2818SOL    HW120087   1.595   2.667   1.406 -0.2701  0.9156  0.8169
 2818SOL    HW220088   1.727   2.620   1.407  0.2119 -1.1078 -0.7798
 2819SOL     OW20089   2.380   2.684   1.338 -0.0697 -0.0989 -0.0088
 2819SOL    HW120090   2.351   2.693   1.429 -0.2530 -0.6310 -0.0141
 2819SOL    HW220091   2.474   2.698   1.347  0.1433 -1.2566 -0.5363
 2820SOL     OW20092   0.898   4.167   5.793  0.2037  0.3591 -0.7370
 2820SOL    HW120093   0.918   4.261   5.797  1.1879  0.1880 -1.4981
 2820SOL    HW220094   0.946   4.152   5.711 -0.1216 -2.6372 -0.3739
 2821SOL     OW20095   1.667   1.673  16.700 -0.0351 -0.0485  0.5437
 2821SOL    HW120096   1.588   1.701  16.747  0.3728 -2.5397  2.7049
 2821SOL    HW220097   1.669   1.578  16.707  2.4136 -0.1167 -0.9617
 2822SOL     OW20098   4.130   2.963  10.759 -0.6549  0.4380  0.1627
 2822SOL    HW120099   4.091   2.930  10.678  1.7436 -1.4880 -0.1729
 2822SOL    HW220100   4.220   2.937  10.742 -1.1914 -1.4495  0.1740
 2823SOL     OW20101   2.147   1.230  14.953 -0.1408  0.5091 -0.4265
 2823SOL    HW120102   2.182   1.141  14.961 -0.1896  0.6337  1.2832
 2823SOL    HW220103   2.124   1.251  15.044 -1.6274  0.1178 -0.7023
 2824SOL     OW20104   3.159   4.593   7.527 -0.4334  0.3832 -0.4619
 2824SOL    HW120105   3.125   4.513   7.566  0.0823 -0.1582 -1.1304
 2824SOL    HW220106   3.130   4.645   7.602 -0.5088 -1.2915  0.6436
 2825SOL     OW20107   3.829   0.061  11.621  0.6336 -0.6143 -0.5640
 2825SOL    HW120108   3.904   0.073  11.680 -0.5222  1.7511  0.4163
 2825SOL    HW220109   3.783   0.143  11.639  1.6966  0.1852 -1.5267
 2826SOL     OW20110   2.106   2.798  11.984 -0.3991  0.0719 -0.1031
 2826SOL    HW120111   2.190   2.773  12.023 -0.9137 -1.4070  0.0225
 2826SOL    HW220112   2.051   2.794  12.062 -2.7810 -0.5921 -1.8303
 2827SOL     OW20113   1.273   4.482  10.351  0.3178 -0.2342  0.2390
 2827SOL    HW120114   1.207   4.527  10.405  0.1006 -3.5410  2.6627
 2827SOL    HW220115   1.350   4.524  10.388  0.7183 -0.8327  0.0691
 2828SOL     OW20116   2.012   0.795   5.532  0.4257  0.2067  0.3014
 2828SOL    HW120117   2.000   0.869   5.473  1.4443 -0.4313 -0.7069
 2828SOL    HW220118   2.029   0.717   5.479  1.3009  0.0900  0.7623
 2829SOL     OW20119   0.407   0.610   5.432 -0.1285  0.5248  0.4757
 2829SOL    HW120120   0.423   0.691   5.481 -1.3067  1.2608 -0.3412
 2829SOL    HW220121   0.486   0.569   5.466 -1.2242 -1.0526  1.1227
 2830SOL     OW20122   1.110   3.528   3.005 -0.2736 -0.1976  0.2326
 2830SOL    HW120123   1.134   3.437   3.025 -0.5422 -0.5597 -1.0383
 2830SOL    HW220124   1.074   3.516   2.917 -1.6522  3.0930  0.3573
 2831SOL     OW20125   4.078   0.943  11.013 -0.0449 -0.1743 -0.3636
 2831SOL    HW120126   4.102   0.911  11.099 -1.5104 -0.9575 -0.2403
 2831SOL    HW220127   4.086   0.857  10.972  0.4021 -0.1281 -0.3686
 2832SOL     OW20128   3.879   4.330   1.854  0.0944 -0.0873 -0.3729
 2832SOL    HW120129   3.906   4.366   1.770 -1.9910  1.4032 -0.4183
 2832SOL    HW220130   3.855   4.407   1.906 -1.6140 -1.2807  0.6058
 2833SOL     OW20131   4.337   2.291   3.504  0.0820 -0.1842 -0.0733
 2833SOL    HW120132   4.361   2.199   3.500 -3.9462 -1.2277 -0.4296
 2833SOL    HW220133   4.242   2.290   3.492  0.2843  0.0988 -1.7000
 2834SOL     OW20134   1.868   3.121   2.217 -0.8697 -0.1508 -0.2609
 2834SOL    HW120135   1.812   3.111   2.140 -1.5984 -1.5091  0.4333
 2834SOL    HW220136   1.934   3.055   2.196 -1.3368 -0.6012 -0.3185
 2835SOL     OW20137   3.808   4.477   7.158 -0.0435  0.0361  0.4249
 2835SOL    HW120138   3.888   4.519   7.190 -0.5131  1.1938  0.0997
 2835SOL    HW220139   3.846   4.420   7.092 -2.2048 -0.9106  0.0256
 2836SOL     OW20140   0.995   4.396   7.086  0.6674 -0.2072  0.3943
 2836SOL    HW120141   1.043   4.326   7.041  2.5531  1.4669 -0.1555
 2836SOL    HW220142   1.049   4.428   7.158  0.5635  2.0051 -0.5161
 2837SOL     OW20143   4.608   2.389  16.611 -0.0963 -0.5766  0.0839
 2837SOL    HW120144   4.536   2.420  16.555  1.0710  2.1309  0.0965
 2837SOL    HW220145   4.621   2.459  16.675  0.4105  1.3214 -2.0716
 2838SOL     OW20146   3.752   3.164   7.331 -0.2541 -0.2225 -0.1551
 2838SOL    HW120147   3.683   3.120   7.281 -0.0230  1.1488 -1.6829
 2838SOL    HW220148   3.714   3.165   7.418  0.6477  2.4100  0.2253
 2839SOL     OW20149   1.899   3.091   4.482 -0.3018 -0.0338  0.5315
 2839SOL    HW120150   1.824   3.047   4.442 -0.2155  0.5595 -0.2851
 2839SOL    HW220151   1.966   3.026   4.462 -1.0742 -1.0565  1.2636
 2840SOL     OW20152   4.506   4.119  13.001 -0.7873  0.5265 -0.4449
 2840SOL    HW120153   4.467   4.182  12.940 -1.0054 -0.1784 -1.0419
 2840SOL    HW220154   4.558   4.066  12.941 -2.6927 -0.2200 -1.4502
 2841SOL     OW20155   0.091   4.718   3.699  0.1823  0.3171 -0.1642
 2841SOL    HW120156   0.151   0.027   3.759  2.6506 -2.9556 -0.3010
 2841SOL    HW220157   0.004   0.018   3.722 -0.0093 -0.1992 -0.1208
 2842SOL     OW20158   0.033   1.885   5.218 -0.7962  0.9025  0.0636
 2842SOL    HW120159   0.056   1.802   5.258 -1.4589  1.5340  1.7680
 2842SOL    HW220160   0.104   1.940   5.250  0.3246 -0.6765  0.2744
 2843SOL     OW20161   0.619   4.710   3.160  0.2747  0.4934  0.2453
 2843SOL    HW120162   0.627   4.699   3.254 -0.8991  0.3303  0.3292
 2843SOL    HW220163   0.689   0.038   3.143 -0.8119  1.3810 -1.0545
 2844SOL     OW20164   0.925   4.278   7.421  0.2740 -0.2536  0.2560
 2844SOL    HW120165   0.886   4.225   7.351  0.7295  2.1848 -1.8273
 2844SOL    HW220166   0.849   4.308   7.471 -0.3874 -0.4564 -0.6238
 2845SOL     OW20167   2.228   4.193   5.907 -0.1304 -0.1062 -0.4793
 2845SOL    HW120168   2.211   4.283   5.935  0.2802 -0.1190 -0.2012
 2845SOL    HW220169   2.284   4.217   5.834 -0.0532 -3.1904 -1.4616
 2846SOL     OW20170   4.700   2.554   2.775  0.2319 -0.1619  0.5370
 2846SOL    HW120171   4.614   2.573   2.737  1.4303  2.2965 -0.8999
 2846SOL    HW220172   4.722   2.469   2.737  0.7407  0.3202 -0.2270
 2847SOL     OW20173   4.252   3.071   2.317  0.3783  0.2910  0.0833
 2847SOL    HW120174   4.217   3.003   2.374  1.7685 -0.5994 -0.1340
 2847SOL    HW220175   4.187   3.140   2.333  0.8611  0.8431 -0.3196
 2848SOL     OW20176   3.857   2.715   8.465  0.1334  0.0075 -0.3371
 2848SOL    HW120177   3.802   2.675   8.532  2.0399 -0.5921  0.8651
 2848SOL    HW220178   3.842   2.804   8.496  1.8930 -0.4066  1.7370
 2849SOL     OW20179   3.304   4.734   3.234 -0.0768 -0.1715 -0.2113
 2849SOL    HW120180   3.252   4.655   3.248  1.0053 -0.7625  0.5261
 2849SOL    HW220181   3.314   0.013   3.140 -1.7677 -0.0631 -0.3623
 2850SOL     OW20182   1.029   3.969  13.483 -0.1265 -0.0961  0.1408
 2850SOL    HW120183   0.958   3.908  13.500 -0.4246 -0.1714 -1.3688
 2850SOL    HW220184   1.064   3.988  13.570  1.5839  1.2583 -0.8367
 2851SOL     OW20185   3.378   2.232   4.563 -0.6765 -0.7075  0.0974
 2851SOL    HW120186   3.408   2.182   4.639  0.2969 -0.9734 -0.4637
 2851SOL    HW220187   3.379   2.320   4.600  1.2205 -1.1521  1.1139
 2852SOL     OW20188   2.229   1.528   2.664 -0.4800  0.0152 -0.3709
 2852SOL    HW120189   2.150   1.555   2.617  0.7868  1.1137 -1.8470
 2852SOL    HW220190   2.188   1.494   2.743  0.6610  0.7972  0.5451
 2853SOL     OW20191   0.355   1.259   9.114  0.1333  0.3084 -0.2167
 2853SOL    HW120192   0.373   1.352   9.105 -1.5258  0.6233 -0.2935
 2853SOL    HW220193   0.400   1.230   9.194 -1.0238  0.7784  0.6058
 2854SOL     OW20194   1.569   0.198   2.389  0.5524 -0.4239  0.5091
 2854SOL    HW120195   1.482   0.220   2.354  0.5480 -1.5637 -0.1789
 2854SOL    HW220196   1.615   0.282   2.383 -1.2696  0.6464  1.4168
 2855SOL     OW20197   3.658   3.309   3.241  0.4406  0.0769 -0.0033
 2855SOL    HW120198   3.653   3.368   3.316 -1.2607 -0.1830  0.0861
 2855SOL    HW220199   3.704   3.365   3.177  0.9504  1.2262  1.3789
 2856SOL     OW20200   0.888   2.610   6.489 -0.5142 -0.5747  0.1146
 2856SOL    HW120201   0.809   2.612   6.435 -0.3590 -0.8846 -0.1180
 2856SOL    HW220202   0.853   2.646   6.571 -1.4295 -1.2489  0.0175
 2857SOL     OW20203   0.881   0.442  14.100  0.9729  0.3175  0.5577
 2857SOL    HW120204   0.894   0.354  14.135  0.2402 -0.6582 -1.6220
 2857SOL    HW220205   0.897   0.495  14.178  0.0473  1.4892 -0.0475
 2858SOL     OW20206   0.674   2.436  15.148  0.0565 -0.1213  0.3420
 2858SOL    HW120207   0.762   2.412  15.119 -0.3718 -0.6979 -0.4810
 2858SOL    HW220208   0.657   2.520  15.107  0.7380  0.8373  2.0167
 2859SOL     OW20209   3.452   0.477   7.746 -0.0042 -0.0909 -0.2676
 2859SOL    HW120210   3.490   0.488   7.659  2.2336  1.0329  0.8626
 2859SOL    HW220211   3.518   0.535   7.783  0.9995  0.7585 -3.4439
 2860SOL     OW20212   1.574   0.780   0.132 -0.1875  0.0570  0.2342
 2860SOL    HW120213   1.578   0.876   0.130 -2.2437  0.1365 -0.4716
 2860SOL    HW220214   1.479   0.768   0.144 -0.5160  1.1016 -1.3443
 2861SOL     OW20215   4.449   1.233   2.900 -0.0008 -0.3370  0.1347
 2861SOL    HW120216   4.400   1.159   2.864 -0.9211 -0.6788  2.0938
 2861SOL    HW220217   4.381   1.273   2.954 -1.1189  0.3646 -1.7931
 2862SOL     OW20218   2.307   2.089   5.269  0.0466 -0.1002 -0.3176
 2862SOL    HW120219   2.372   2.083   5.339 -0.8003 -0.0458  0.4692
 2862SOL    HW220220   2.225   2.088   5.318  0.6564 -4.8465  0.6272
 2863SOL     OW20221   0.091   3.929   3.599  0.1031 -0.0639  0.3457
 2863SOL    HW120222   0.026   3.924   3.669 -0.9030 -2.7762 -0.7633
 2863SOL    HW220223   0.110   3.837   3.580 -0.8614 -0.2312  0.2023
 2864SOL     OW20224   2.796   2.653   6.709 -0.1772 -0.5694  0.0814
 2864SOL    HW120225   2.767   2.700   6.631 -0.4915 -0.7221  0.1071
 2864SOL    HW220226   2.771   2.562   6.690  0.1071 -0.2584 -1.8411
 2865SOL     OW20227   1.414   1.264   6.724 -0.2621 -0.3705 -0.1707
 2865SOL    HW120228   1.369   1.347   6.742  0.6704 -0.0292  0.5714
 2865SOL    HW220229   1.338   1.210   6.703 -0.7905  0.9462 -1.7681
 2866SOL     OW20230   1.982   1.684   4.420 -0.4885 -0.7287 -0.4087
 2866SOL    HW120231   1.955   1.774   4.440 -0.6610 -0.4454 -1.9215
 2866SOL    HW220232   1.905   1.636   4.450 -0.0928 -0.3106  1.3315
 2867SOL     OW20233   3.867   2.972  10.937  0.1485  0.0445  0.1295
 2867SOL    HW120234   3.789   3.025  10.920  0.0873  0.1263  0.6682
 2867SOL    HW220235   3.903   2.955  10.850  1.6535 -1.1266  0.9852
 2868SOL     OW20236   4.136   4.680   0.369 -0.5002 -0.1792 -0.2089
 2868SOL    HW120237   4.146   4.614   0.300  0.1404 -0.0539 -0.2393
 2868SOL    HW220238   4.220   4.724   0.357 -1.9692  2.4651 -0.8943
 2869SOL     OW20239   3.525   1.545   9.928  0.3646  0.8455 -0.3915
 2869SOL    HW120240   3.562   1.563  10.014  0.1974  0.7072 -0.2911
 2869SOL    HW220241   3.490   1.632   9.907 -0.7039  0.7942  1.1874
 2870SOL     OW20242   1.828   2.561   6.490 -0.2017 -0.7134  0.1916
 2870SOL    HW120243   1.825   2.472   6.524  0.0439 -0.3642  1.1497
 2870SOL    HW220244   1.854   2.540   6.401 -0.7276  2.8054 -0.7966
 2871SOL     OW20245   1.982   0.406   3.268 -0.2714  0.3059  0.0667
 2871SOL    HW120246   2.070   0.370   3.279 -0.8430 -1.5568 -1.3419
 2871SOL    HW220247   1.993   0.489   3.313  1.2598  0.7544 -1.1260
 2872SOL     OW20248   1.074   0.862   6.595  0.0410 -0.5434 -0.1546
 2872SOL    HW120249   1.104   0.776   6.567 -1.3140 -0.3099 -2.2986
 2872SOL    HW220250   0.981   0.840   6.597 -0.3525  1.1902  0.8170
 2873SOL     OW20251   3.852   3.488   3.951 -0.1003  0.1363 -0.8374
 2873SOL    HW120252   3.770   3.527   3.979  0.4814  1.1161 -0.4686
 2873SOL    HW220253   3.899   3.489   4.034 -1.1706 -2.7600 -0.2007
 2874SOL     OW20254   0.419   2.509   2.784  0.2914 -0.0018  0.3496
 2874SOL    HW120255   0.512   2.489   2.779  0.4245  0.8400 -0.5964
 2874SOL    HW220256   0.419   2.565   2.861 -0.1992 -0.7264  0.8727
 2875SOL     OW20257   1.675   0.290   8.498  0.8586 -0.4113  0.6462
 2875SOL    HW120258   1.624   0.239   8.435 -0.5920  0.8675  0.7953
 2875SOL    HW220259   1.662   0.383   8.478  2.0816 -0.6956 -1.4695
 2876SOL     OW20260   2.352   1.613  13.288 -0.1614  0.0576 -0.1101
 2876SOL    HW120261   2.304   1.656  13.359 -1.8885  0.2313 -1.3829
 2876SOL    HW220262   2.434   1.662  13.292 -1.4828  2.3695 -1.5396
 2877SOL     OW20263   3.328   3.772   4.757  0.0168 -0.2879  0.4501
 2877SOL    HW120264   3.232   3.775   4.764  0.0593 -2.0623  1.7601
 2877SOL    HW220265   3.352   3.817   4.839  0.6202 -1.0848  0.7057
 2878SOL     OW20266   1.131   4.660  10.810 -0.2093  0.0424  0.7737
 2878SOL    HW120267   1.146   0.013  10.774  4.1347 -0.5160  1.2496
 2878SOL    HW220268   1.176   4.660  10.894 -1.9602  0.7701  1.7125
 2879SOL     OW20269   2.135   3.594   6.723  0.1686  0.5881  0.5668
 2879SOL    HW120270   2.145   3.683   6.691 -0.5071 -0.1464 -1.7164
 2879SOL    HW220271   2.057   3.562   6.678  0.4298  2.6339 -1.3326
 2880SOL     OW20272   2.576   0.778   2.645 -0.4237 -0.3002 -0.7690
 2880SOL    HW120273   2.563   0.686   2.622  2.2177 -0.7200 -0.6408
 2880SOL    HW220274   2.498   0.796   2.697  0.1595  0.1279 -0.0359
 2881SOL     OW20275   3.147   2.536   8.327 -0.0091 -0.1486  0.3548
 2881SOL    HW120276   3.103   2.618   8.307 -1.2850 -0.9482 -0.0595
 2881SOL    HW220277   3.159   2.544   8.422  0.5607  1.7029  0.1310
 2882SOL     OW20278   0.683   4.197  10.796  0.9062  0.0881 -0.1782
 2882SOL    HW120279   0.617   4.264  10.811  0.3373 -1.1742  2.8439
 2882SOL    HW220280   0.672   4.143  10.874 -4.1355  0.4037 -0.6736
 2883SOL     OW20281   2.474   4.246   8.243  0.2771 -0.1965 -0.1322
 2883SOL    HW120282   2.523   4.220   8.166 -0.8166  0.1321 -0.9497
 2883SOL    HW220283   2.547   4.259   8.303  0.0320  0.0106  0.1238
 2884SOL     OW20284   0.506   1.129   8.607 -0.1157 -0.2059 -0.0577
 2884SOL    HW120285   0.535   1.040   8.588 -0.0125 -0.0677 -0.5458
 2884SOL    HW220286   0.450   1.112   8.682  0.7943 -2.0304  0.2026
 2885SOL     OW20287   0.796   1.008   2.941  0.0089 -0.1872  0.0970
 2885SOL    HW120288   0.702   1.023   2.945  0.5041  3.2946 -1.2995
 2885SOL    HW220289   0.806   1.012   2.846 -1.5826 -2.3321 -0.1587
 2886SOL     OW20290   3.317   2.509  14.774 -0.1541 -0.6154 -0.0979
 2886SOL    HW120291   3.296   2.546  14.860 -0.4280 -1.2475  0.1061
 2886SOL    HW220292   3.235   2.496  14.726  0.2710  1.5136 -1.4226
 2887SOL     OW20293   1.367   0.386  13.801  0.3240 -0.3255 -0.1280
 2887SOL    HW120294   1.397   0.357  13.715  0.4453 -0.9862  0.1418
 2887SOL    HW220295   1.345   0.304  13.845 -0.2580  1.0791  2.1935
 2888SOL     OW20296   1.864   3.358   6.055  0.0097  0.2843 -0.2917
 2888SOL    HW120297   1.928   3.391   5.992  1.6571 -1.0986  0.6605
 2888SOL    HW220298   1.790   3.404   6.015 -0.4790 -0.6633 -0.4817
 2889SOL     OW20299   2.714   0.871   7.661 -0.1760 -0.1292 -0.1347
 2889SOL    HW120300   2.698   0.831   7.746 -1.1197 -0.0194 -0.2486
 2889SOL    HW220301   2.795   0.916   7.683  1.3074 -2.6969 -0.3914
 2890SOL     OW20302   1.385   0.875  13.392  0.1343 -0.2473 -0.3005
 2890SOL    HW120303   1.351   0.875  13.303 -0.3090  0.9353 -0.1241
 2890SOL    HW220304   1.334   0.946  13.429  0.3970 -1.5281  2.5494
 2891SOL     OW20305   0.887   0.529   5.283 -0.1314 -0.6126 -0.2865
 2891SOL    HW120306   0.862   0.604   5.228  0.1289  0.3106  0.8450
 2891SOL    HW220307   0.944   0.573   5.346  1.0876 -1.1251 -1.0284
 2892SOL     OW20308   4.448   4.605   3.965  0.2166 -0.1636 -0.0031
 2892SOL    HW120309   4.401   4.534   4.010  2.6600 -1.1201  1.0550
 2892SOL    HW220310   4.538   4.586   3.992  0.6203  0.4000 -0.9512
 2893SOL     OW20311   0.506   2.316   0.858  0.4786  0.1582  0.3107
 2893SOL    HW120312   0.520   2.285   0.948 -0.6746  1.2956  0.8826
 2893SOL    HW220313   0.491   2.410   0.871 -1.2003 -0.4383  2.7080
 2894SOL     OW20314   0.655   2.378   8.912 -0.2752  0.3053  0.0453
 2894SOL    HW120315   0.684   2.308   8.971 -1.5822 -0.6834 -0.4761
 2894SOL    HW220316   0.615   2.443   8.970  0.4221  1.3088 -0.5930
 2895SOL     OW20317   1.382   4.627   3.013  0.8100 -0.6911 -0.2910
 2895SOL    HW120318   1.336   4.698   2.969  0.2780  0.5160  2.2544
 2895SOL    HW220319   1.467   4.669   3.000  0.2742  0.8758  1.3601
 2896SOL     OW20320   0.476   1.611   0.728  0.5930  0.1085 -0.3939
 2896SOL    HW120321   0.406   1.665   0.691 -1.4613 -2.5964 -0.4502
 2896SOL    HW220322   0.455   1.534   0.676 -1.5590  0.2156  0.3018
 2897SOL     OW20323   1.342   0.138   4.738 -0.3555  0.4728 -0.1022
 2897SOL    HW120324   1.322   0.092   4.820  0.3271  0.7225  0.2020
 2897SOL    HW220325   1.391   0.214   4.768  0.3915  0.2478 -0.7759
 2898SOL     OW20326   1.735   3.864   3.534  0.2015  0.5258  0.2462
 2898SOL    HW120327   1.709   3.946   3.492 -1.9381  0.8380  2.1824
 2898SOL    HW220328   1.707   3.803   3.466  0.9882 -0.1086  0.4955
 2899SOL     OW20329   3.522   3.205   0.603  0.8508  0.5144 -0.0679
 2899SOL    HW120330   3.507   3.203   0.508  1.8049 -0.6001 -0.1890
 2899SOL    HW220331   3.495   3.296   0.618 -1.9697 -0.5606  1.5202
 2900SOL     OW20332   4.187   3.536   6.685 -0.7025  0.5608 -0.1285
 2900SOL    HW120333   4.227   3.489   6.611 -0.1542  2.5070 -1.0500
 2900SOL    HW220334   4.155   3.608   6.631  0.3604  0.5889 -0.7269
 2901SOL     OW20335   3.530   4.179   3.504 -0.0687  0.2159 -0.1580
 2901SOL    HW120336   3.480   4.107   3.466 -3.9761  1.5245  2.5288
 2901SOL    HW220337   3.471   4.253   3.485 -1.9778 -1.5434 -1.0013
 2902SOL     OW20338   1.063   1.996   0.461 -0.1309  0.3580  0.0420
 2902SOL    HW120339   1.036   2.030   0.546 -0.8296  1.5651 -0.6628
 2902SOL    HW220340   1.145   2.035   0.434 -0.1331  0.4911  0.2269
 2903SOL     OW20341   3.822   4.663   0.370  0.7492 -0.1235 -0.5446
 2903SOL    HW120342   3.875   0.005   0.345 -0.1235  0.2800 -1.1587
 2903SOL    HW220343   3.871   4.586   0.341  1.7408  0.8926 -1.5731
 2904SOL     OW20344   1.845   1.053   5.670  0.0424  0.0734  1.0283
 2904SOL    HW120345   1.826   1.118   5.602  0.2890 -0.9741 -0.0535
 2904SOL    HW220346   1.918   1.021   5.617 -1.8803 -2.5812 -0.0508
 2905SOL     OW20347   3.409   2.572   7.594  0.1918  0.4516 -0.0284
 2905SOL    HW120348   3.480   2.508   7.603 -0.8524 -0.6012  0.8468
 2905SOL    HW220349   3.398   2.604   7.684 -0.9536  0.0724 -0.0318
 2906SOL     OW20350   3.198   1.094  12.149  0.6080 -0.4508 -0.3454
 2906SOL    HW120351   3.144   1.029  12.194 -0.3095  0.7623  0.2917
 2906SOL    HW220352   3.241   1.039  12.084  1.2624  0.1637 -0.4221
 2907SOL     OW20353   0.869   2.179   2.705 -0.3689 -0.1139  0.1174
 2907SOL    HW120354   0.796   2.153   2.649 -0.0952  1.2613 -0.8648
 2907SOL    HW220355   0.863   2.110   2.772  3.3710 -0.7856 -0.2224
 2908SOL     OW20356   3.701   4.228   6.048  0.3446 -0.3032 -0.0713
 2908SOL    HW120357   3.632   4.164   6.061  0.4124 -0.3384  0.1178
 2908SOL    HW220358   3.726   4.195   5.962 -0.7277 -0.5551 -0.2854
 2909SOL     OW20359   1.278   2.429   3.965 -0.2109  0.0303  0.2207
 2909SOL    HW120360   1.291   2.510   4.014 -0.1593 -0.0375  0.3203
 2909SOL    HW220361   1.360   2.419   3.916  0.0529 -0.3559  0.7393
 2910SOL     OW20362   0.042   4.664   6.682 -1.0064  0.2437  0.0586
 2910SOL    HW120363   0.113   4.727   6.672  1.1303 -1.8737  1.8016
 2910SOL    HW220364   0.082   4.592   6.730 -2.8442 -0.3937  0.6275
 2911SOL     OW20365   2.070   4.194  15.726  0.6614  0.3592  0.3350
 2911SOL    HW120366   2.061   4.289  15.735  1.5968  0.5248 -0.5120
 2911SOL    HW220367   2.144   4.196  15.665 -0.7189 -2.2218 -1.4177
 2912SOL     OW20368   2.631   0.541   1.864 -0.2655 -0.2396  0.5410
 2912SOL    HW120369   2.715   0.543   1.910 -0.2492 -1.6101  0.5580
 2912SOL    HW220370   2.640   0.462   1.812  0.7139 -0.5791  1.2250
 2913SOL     OW20371   2.450   0.261   9.729 -0.6836 -0.3733  0.1494
 2913SOL    HW120372   2.464   0.257   9.823  1.0450 -0.3149 -0.0978
 2913SOL    HW220373   2.434   0.355   9.721 -0.2447 -0.2872  0.2606
 2914SOL     OW20374   4.412   2.990   5.165  0.6511  0.0020 -0.1655
 2914SOL    HW120375   4.486   3.048   5.150  0.9981 -1.1442 -2.8093
 2914SOL    HW220376   4.350   3.037   5.111  0.7676 -1.4886 -1.5861
 2915SOL     OW20377   3.850   4.601   6.884 -0.4901 -0.1230 -0.2534
 2915SOL    HW120378   3.898   4.612   6.803 -2.3045 -1.6540 -1.5239
 2915SOL    HW220379   3.788   4.531   6.864 -0.4161  0.0738 -1.1461
 2916SOL     OW20380   4.618   2.874   7.220 -0.1739  0.1429 -0.4123
 2916SOL    HW120381   4.706   2.895   7.250  0.6110 -1.2633 -1.7633
 2916SOL    HW220382   4.642   2.883   7.128 -0.1630 -3.2609 -0.7510
 2917SOL     OW20383   2.019   0.276  12.697  0.1743  0.4083 -0.4442
 2917SOL    HW120384   2.037   0.362  12.658  0.2716 -0.3323 -2.0522
 2917SOL    HW220385   1.977   0.235  12.621  0.3448  0.3983 -0.5316
 2918SOL     OW20386   1.505   3.115   5.052  0.5193  0.1608 -0.0059
 2918SOL    HW120387   1.559   3.037   5.065  2.5312  1.3645 -1.2112
 2918SOL    HW220388   1.565   3.164   4.996 -2.0987  2.0268 -1.1694
 2919SOL     OW20389   0.612   3.089   0.866  0.0560 -0.3098 -0.0216
 2919SOL    HW120390   0.522   3.094   0.834  0.7286 -2.0846 -2.2412
 2919SOL    HW220391   0.658   3.078   0.782  2.1904 -0.2190  1.1254
 2920SOL     OW20392   4.279   3.927   8.536  0.3997  0.1172 -0.0243
 2920SOL    HW120393   4.353   3.907   8.479 -0.6294 -0.6131 -1.1163
 2920SOL    HW220394   4.277   4.022   8.537  3.4259  0.1738  1.0851
 2921SOL     OW20395   1.060   3.160   5.231  0.0533 -0.1103  0.1260
 2921SOL    HW120396   1.071   3.142   5.324 -1.8575 -0.0747  0.3604
 2921SOL    HW220397   1.028   3.250   5.228  0.5246  0.0274 -1.0592
 2922SOL     OW20398   4.229   0.971   5.180  0.2217  0.4125 -0.5805
 2922SOL    HW120399   4.287   0.896   5.194  1.2405  1.0665 -1.2841
 2922SOL    HW220400   4.262   1.032   5.246 -0.7827 -0.0465  0.3525
 2923SOL     OW20401   3.289   3.851   8.256 -0.0950  0.2109  0.0372
 2923SOL    HW120402   3.322   3.790   8.322  0.8775  0.6713 -0.0184
 2923SOL    HW220403   3.325   3.933   8.292  0.8800 -0.9328  1.6552
 2924SOL     OW20404   0.345   2.121   4.404 -0.1001 -0.5672 -0.4190
 2924SOL    HW120405   0.383   2.123   4.316  0.7794  0.0002 -0.0340
 2924SOL    HW220406   0.251   2.139   4.397 -0.5154 -1.8811  1.7552
 2925SOL     OW20407   2.463   0.790   3.130 -0.6182  1.0425 -0.1292
 2925SOL    HW120408   2.388   0.848   3.119 -1.0728  0.9948  2.7848
 2925SOL    HW220409   2.530   0.858   3.118  1.4905 -1.1915 -0.9996
 2926SOL     OW20410   0.755   3.478   6.868 -0.2302  0.1077  0.0305
 2926SOL    HW120411   0.738   3.436   6.784 -1.0703 -0.3252  0.4195
 2926SOL    HW220412   0.797   3.403   6.911 -0.7521  0.8715  1.8794
 2927SOL     OW20413   4.389   4.155   2.172  0.1597  0.3661  0.5092
 2927SOL    HW120414   4.409   4.115   2.256  0.9845  0.5338  0.3931
 2927SOL    HW220415   4.390   4.249   2.189 -0.2130  0.6564 -1.0354
 2928SOL     OW20416   0.354   4.690   2.892 -0.3730  0.3907  0.2395
 2928SOL    HW120417   0.330   4.610   2.939 -0.3963  0.4417  0.3150
 2928SOL    HW220418   0.285   4.694   2.825  1.3276  2.4281 -1.4227
 2929SOL     OW20419   0.272   4.171   0.720 -0.1757  0.4329 -0.3672
 2929SOL    HW120420   0.365   4.176   0.742 -0.4243  0.4562  0.6885
 2929SOL    HW220421   0.237   4.249   0.764  0.6533  1.1991 -1.0681
 2930SOL     OW20422   2.161   0.910   7.829  0.2921  0.4341  0.3879
 2930SOL    HW120423   2.210   0.945   7.756 -0.3877  0.0317 -0.2596
 2930SOL    HW220424   2.199   0.963   7.899 -2.6369  0.3350  2.0465
 2931SOL     OW20425   0.570   3.294   8.321 -0.6293  0.3059  0.3344
 2931SOL    HW120426   0.517   3.372   8.336 -1.1496  0.1925 -0.8479
 2931SOL    HW220427   0.497   3.234   8.304 -0.3836 -0.1800  1.0086
 2932SOL     OW20428   2.742   0.809   8.980 -0.0621  0.1371  0.1094
 2932SOL    HW120429   2.686   0.735   8.958  1.3105 -1.5177  2.2164
 2932SOL    HW220430   2.788   0.820   8.897  0.3708  0.7678  0.4296
 2933SOL     OW20431   1.147   0.497   4.809  0.2863  0.6538 -0.1927
 2933SOL    HW120432   1.196   0.439   4.867 -2.0993 -2.2574 -1.0928
 2933SOL    HW220433   1.221   0.555   4.792 -0.2694  1.6122  0.6755
 2934SOL     OW20434   4.532   4.007   2.854 -0.0132 -0.5565  0.3024
 2934SOL    HW120435   4.564   4.064   2.924 -1.7008  1.6643 -0.7266
 2934SOL    HW220436   4.477   3.943   2.899  0.6897 -0.9252  0.6260
 2935SOL     OW20437   1.121   4.434   8.144 -0.9953  0.1113  0.5454
 2935SOL    HW120438   1.144   4.512   8.194  1.6940 -0.9797  1.0213
 2935SOL    HW220439   1.039   4.463   8.105 -0.5608 -0.7775 -1.0525
 2936SOL     OW20440   4.352   1.555  12.163  0.4577  0.2371 -0.0401
 2936SOL    HW120441   4.270   1.604  12.172 -0.9561 -1.8416 -1.6019
 2936SOL    HW220442   4.337   1.486  12.226  1.1211  0.3620  0.2529
 2937SOL     OW20443   2.343   3.808  17.523  0.0564 -0.0880  0.1832
 2937SOL    HW120444   2.268   3.852  17.484  2.1880  1.4953 -2.1254
 2937SOL    HW220445   2.372   3.762  17.445  1.7021  0.2485  0.5987
 2938SOL     OW20446   1.728   1.452   8.395 -0.0260  0.3065 -0.1356
 2938SOL    HW120447   1.801   1.490   8.445 -1.8578  2.6066  0.8495
 2938SOL    HW220448   1.712   1.377   8.453 -1.1978  2.6281  2.5796
 2939SOL     OW20449   4.232   0.568   7.041  0.5475 -0.1177 -0.0870
 2939SOL    HW120450   4.230   0.514   6.962 -1.1321  0.3888 -0.3792
 2939SOL    HW220451   4.218   0.659   7.016  0.8998 -0.1621 -0.4525
 2940SOL     OW20452   2.496   3.215   7.698  0.1066  0.5601  0.8027
 2940SOL    HW120453   2.461   3.134   7.736  1.3570 -0.4854 -0.2636
 2940SOL    HW220454   2.560   3.176   7.638  0.2745 -0.0083  1.3497
 2941SOL     OW20455   3.593   3.105   7.900  0.2384 -0.2147 -0.0634
 2941SOL    HW120456   3.524   3.058   7.852 -0.3578  0.6106 -0.0090
 2941SOL    HW220457   3.580   3.067   7.986  3.0138 -1.4213 -0.2019
 2942SOL     OW20458   3.524   0.182   9.347 -0.3358  0.6509 -0.0950
 2942SOL    HW120459   3.485   0.205   9.432 -0.2147 -1.8232  0.6509
 2942SOL    HW220460   3.462   0.112   9.326 -0.3479 -0.0104  2.1209
 2943SOL     OW20461   4.311   3.259   6.923  0.3090  0.3846 -0.1824
 2943SOL    HW120462   4.266   3.288   7.002 -0.8535 -0.6950 -0.4410
 2943SOL    HW220463   4.333   3.347   6.895  0.7963  0.0725 -0.7881
 2944SOL     OW20464   0.597   1.511  11.556  0.4528 -0.4407 -0.2064
 2944SOL    HW120465   0.622   1.419  11.552 -1.8608 -1.0485 -0.5745
 2944SOL    HW220466   0.626   1.540  11.643 -1.1940 -1.0977  0.5681
 2945SOL     OW20467   4.615   3.547  11.686  0.0371 -0.3480 -0.8033
 2945SOL    HW120468   4.654   3.633  11.702  0.9230 -0.7529 -0.8326
 2945SOL    HW220469   4.681   3.515  11.625 -0.4076  0.1673 -1.5697
 2946SOL     OW20470   3.885   3.135   8.713  0.4455 -0.1847 -0.0700
 2946SOL    HW120471   3.941   3.191   8.765 -0.0558 -1.7998  2.2149
 2946SOL    HW220472   3.802   3.174   8.741  0.7466  0.2179  0.2391
 2947SOL     OW20473   0.555   2.538   6.464 -0.0193 -0.1523  0.7600
 2947SOL    HW120474   0.582   2.581   6.382 -0.8350 -0.2866  0.4261
 2947SOL    HW220475   0.557   2.444   6.446 -0.8964  0.3851 -2.0533
 2948SOL     OW20476   3.867   2.816  16.406  0.1697  1.0226  0.4731
 2948SOL    HW120477   3.817   2.845  16.482 -4.8472 -2.1698 -1.6155
 2948SOL    HW220478   3.957   2.821  16.439  0.3591  0.2491  0.0701
 2949SOL     OW20479   2.340   1.870   2.246  0.0486 -0.3190 -0.6278
 2949SOL    HW120480   2.262   1.915   2.213  1.1524  1.0644 -1.3719
 2949SOL    HW220481   2.409   1.892   2.183  0.1967  1.9745  0.3482
 2950SOL     OW20482   2.341   2.810   3.377 -0.1631 -0.1771 -0.0647
 2950SOL    HW120483   2.359   2.722   3.410 -0.5196 -0.1887  0.0971
 2950SOL    HW220484   2.289   2.845   3.449  0.9775 -0.1989  0.7682
 2951SOL     OW20485   4.428   3.049   2.841  0.8065 -0.2255  0.6097
 2951SOL    HW120486   4.365   2.979   2.826 -0.0751  0.6123  0.4059
 2951SOL    HW220487   4.468   3.061   2.754 -1.8760  1.4620 -0.3925
 2952SOL     OW20488   2.806   1.814  15.552  0.2820  0.2868  0.2483
 2952SOL    HW120489   2.842   1.860  15.627  1.0252 -0.6289  0.4514
 2952SOL    HW220490   2.782   1.893  15.503 -1.4971 -1.0402 -1.0276
 2953SOL     OW20491   1.402   0.776   4.250 -0.0023  0.7109 -0.3484
 2953SOL    HW120492   1.359   0.738   4.173 -3.5243  0.1682  1.8719
 2953SOL    HW220493   1.488   0.736   4.242 -0.0301  0.4909  0.5287
 2954SOL     OW20494   1.125   0.891   7.413 -0.1616 -0.0917  0.2885
 2954SOL    HW120495   1.164   0.960   7.361 -0.9494  0.5621  0.5589
 2954SOL    HW220496   1.170   0.909   7.496  1.1629  0.5112 -0.5617
 2955SOL     OW20497   0.316   2.704   7.062 -0.0891  0.4151  0.0074
 2955SOL    HW120498   0.382   2.669   7.002 -0.0518  1.5015 -0.5937
 2955SOL    HW220499   0.354   2.779   7.108  0.1307  0.7517 -0.7299
 2956SOL     OW20500   3.136   0.527  14.924 -0.5383  0.0249  0.2763
 2956SOL    HW120501   3.048   0.492  14.939 -0.3497 -0.2155  0.7997
 2956SOL    HW220502   3.172   0.471  14.855 -0.4402 -2.0498  2.0052
 2957SOL     OW20503   3.428   3.659   4.503  0.4805  0.2482 -0.1387
 2957SOL    HW120504   3.414   3.748   4.469 -0.9257 -0.5377 -1.6068
 2957SOL    HW220505   3.398   3.669   4.593  1.2159 -1.5606  0.2979
 2958SOL     OW20506   1.942   3.767   0.404 -0.4731 -0.2738 -0.3834
 2958SOL    HW120507   1.995   3.813   0.340  0.6572 -1.5750 -0.3690
 2958SOL    HW220508   2.002   3.707   0.448 -0.4318 -0.7010 -1.0320
 2959SOL     OW20509   2.911   0.253   1.963 -0.5488  0.3964 -0.1541
 2959SOL    HW120510   2.910   0.348   1.978  0.8676  0.0498  2.0582
 2959SOL    HW220511   2.858   0.226   2.037  0.7384  0.3994  0.7644
 2960SOL     OW20512   1.961   0.370   6.492 -0.0136 -0.1080  0.2243
 2960SOL    HW120513   1.953   0.326   6.576  0.6684  0.9980  0.8525
 2960SOL    HW220514   2.018   0.315   6.438 -0.2709 -1.2789  1.1588
 2961SOL     OW20515   1.519   0.710   3.107  0.0270 -0.5523  0.0261
 2961SOL    HW120516   1.480   0.780   3.054 -1.0069 -0.5022  0.8542
 2961SOL    HW220517   1.460   0.714   3.183  0.0005  1.2612 -0.0881
 2962SOL     OW20518   1.979   4.520  17.063 -0.0637  0.2511 -0.3263
 2962SOL    HW120519   2.051   4.583  17.061  0.5115 -0.4430 -1.4352
 2962SOL    HW220520   2.026   4.440  17.086 -0.2789  0.1151 -0.3562
 2963SOL     OW20521   0.374   2.678   7.732  0.2502  0.6780  0.0047
 2963SOL    HW120522   0.444   2.678   7.667  1.5515 -0.9970  1.4002
 2963SOL    HW220523   0.304   2.619   7.704  1.0825 -1.5163  2.4807
 2964SOL     OW20524   0.974   2.011  11.722  0.7194  0.4991 -0.4171
 2964SOL    HW120525   0.906   2.076  11.709 -0.1684 -0.3326  0.0587
 2964SOL    HW220526   0.917   1.937  11.744  0.4881  1.0863  0.9349
 2965SOL     OW20527   3.297   4.241   1.141  0.3267  0.1288  0.0339
 2965SOL    HW120528   3.386   4.219   1.171  0.8992  1.5288 -0.6744
 2965SOL    HW220529   3.311   4.335   1.138 -2.0454  0.4717 -0.0877
 2966SOL     OW20530   0.364   4.395   0.128 -0.3062 -0.0105 -0.5167
 2966SOL    HW120531   0.314   4.322   0.164  2.8898 -1.3270  1.2306
 2966SOL    HW220532   0.454   4.365   0.117  0.1260  0.7797  0.8917
 2967SOL     OW20533   2.410   2.291   6.587  0.1691 -0.3739  0.0437
 2967SOL    HW120534   2.455   2.235   6.650  0.1275 -1.5131 -0.9205
 2967SOL    HW220535   2.379   2.349   6.657 -0.9594  0.5915 -1.2477
 2968SOL     OW20536   4.029   3.355   7.728 -0.3001  0.1910  0.6713
 2968SOL    HW120537   4.038   3.292   7.655  0.0992  0.9149  0.0993
 2968SOL    HW220538   3.951   3.315   7.766 -1.2937 -0.2906 -1.8549
 2969SOL     OW20539   4.516   2.567   6.273 -0.0754 -0.2115  0.6619
 2969SOL    HW120540   4.572   2.540   6.346 -1.3209  1.9089  2.4068
 2969SOL    HW220541   4.548   2.656   6.256 -2.9301  0.9943  1.5747
 2970SOL     OW20542   1.799   0.576   4.019  0.5547  0.0596 -0.3825
 2970SOL    HW120543   1.705   0.564   4.011  0.7777  0.8716 -4.0576
 2970SOL    HW220544   1.822   0.483   4.021  1.5057  0.3372  2.6239
 2971SOL     OW20545   1.923   0.075   6.884  0.2633  0.1796  0.2660
 2971SOL    HW120546   1.858   0.023   6.931 -0.2378  1.1143  0.6075
 2971SOL    HW220547   1.987   0.078   6.955 -0.8500  0.3068  1.2586
 2972SOL     OW20548   3.146   4.454  12.886  0.1050 -0.1967 -0.6207
 2972SOL    HW120549   3.154   4.419  12.797 -2.2335 -0.3994 -0.7361
 2972SOL    HW220550   3.214   4.522  12.886 -0.1623  0.0692  0.0847
 2973SOL     OW20551   0.659   4.447   1.679 -0.1826 -0.2538 -0.1665
 2973SOL    HW120552   0.672   4.381   1.746  0.7732  2.6100  2.4857
 2973SOL    HW220553   0.640   4.404   1.596  1.2573 -0.8526 -0.1720
 2974SOL     OW20554   3.512   3.092   7.216  0.6668 -0.6237 -0.4186
 2974SOL    HW120555   3.457   3.039   7.159  2.0435 -1.2357 -1.1685
 2974SOL    HW220556   3.451   3.157   7.252  1.1612 -0.5492  0.3055
 2975SOL     OW20557   2.972   4.139   7.390  0.4194 -0.4551  0.2814
 2975SOL    HW120558   2.907   4.087   7.342  0.1524 -0.3197  0.5014
 2975SOL    HW220559   3.015   4.075   7.446 -1.9747 -2.6724 -0.3953
 2976SOL     OW20560   1.807   0.245   7.555  0.3529  0.4942  0.5086
 2976SOL    HW120561   1.810   0.340   7.557  1.6959  0.4560  0.0295
 2976SOL    HW220562   1.881   0.229   7.612 -0.6002  0.6775  1.7901
 2977SOL     OW20563   0.200   3.099  10.040 -0.6908  1.1954  0.3662
 2977SOL    HW120564   0.232   3.064  10.123  1.5283  0.7327 -0.6859
 2977SOL    HW220565   0.230   3.028   9.983 -0.7907 -0.9269  2.9603
 2978SOL     OW20566   0.169   4.161  14.991 -0.1983  0.3942 -0.1551
 2978SOL    HW120567   0.234   4.093  15.006 -0.8683 -0.1301  0.3596
 2978SOL    HW220568   0.139   4.187  15.078 -1.3747 -0.2986 -0.3593
 2979SOL     OW20569   0.882   2.698   3.211  0.3439  0.1403  0.0462
 2979SOL    HW120570   0.931   2.777   3.192  0.0331 -0.0364 -1.5237
 2979SOL    HW220571   0.797   2.739   3.227  0.3865  0.2745 -0.0681
 2980SOL     OW20572   2.834   3.070   4.834 -0.2851 -0.3255 -0.5895
 2980SOL    HW120573   2.882   3.109   4.761  0.2103  0.2684  0.0535
 2980SOL    HW220574   2.795   3.149   4.872  1.9330  0.2855  0.3976
 2981SOL     OW20575   2.739   3.081   9.371 -0.4260 -0.1698  0.1864
 2981SOL    HW120576   2.745   2.985   9.367  1.1119 -0.0912  0.7622
 2981SOL    HW220577   2.828   3.114   9.385 -0.8455  0.1706  2.1125
 2982SOL     OW20578   1.733   3.253   0.810 -0.5683 -0.6332  0.2954
 2982SOL    HW120579   1.662   3.195   0.837 -0.0282 -1.4268  0.0067
 2982SOL    HW220580   1.770   3.202   0.738  0.4403 -0.4207  0.6636
 2983SOL     OW20581   0.527   2.362   6.699 -0.5068 -0.7420  0.0440
 2983SOL    HW120582   0.447   2.327   6.740 -0.1362 -1.7872 -0.1151
 2983SOL    HW220583   0.533   2.312   6.618 -1.8937 -0.1933 -0.3927
 2984SOL     OW20584   1.384   3.377  17.042  0.3334  0.6483  0.0313
 2984SOL    HW120585   1.364   3.469  17.022 -1.0030  0.5015  0.7199
 2984SOL    HW220586   1.300   3.347  17.078 -0.4751 -0.5776 -2.7973
 2985SOL     OW20587   1.846   3.063  13.973  0.5342  0.3893  0.3189
 2985SOL    HW120588   1.904   3.136  13.994 -0.6587  1.0003  1.4705
 2985SOL    HW220589   1.820   3.085  13.883 -0.1940  1.1534  0.7063
 2986SOL     OW20590   1.138   4.078   1.082  0.0172  0.1357  0.0099
 2986SOL    HW120591   1.117   4.158   1.035  0.3492 -1.2816 -2.5806
 2986SOL    HW220592   1.216   4.045   1.037  0.5090 -0.8450  1.5859
 2987SOL     OW20593   3.617   0.846   2.902  0.9214 -0.2972 -0.0003
 2987SOL    HW120594   3.545   0.906   2.922  0.6288 -0.3051 -1.0425
 2987SOL    HW220595   3.584   0.761   2.872  0.2096  0.6022 -1.7737
 2988SOL     OW20596   2.242   4.250  10.666 -0.2724 -0.3576 -0.4714
 2988SOL    HW120597   2.234   4.202  10.749  0.3364 -0.8468 -0.6986
 2988SOL    HW220598   2.192   4.187  10.614 -1.1840  2.2197 -2.7324
 2989SOL     OW20599   1.787   2.384   8.542  0.3082  0.1689  0.7409
 2989SOL    HW120600   1.870   2.344   8.568  0.7799  0.1750 -0.7170
 2989SOL    HW220601   1.821   2.415   8.458  1.6054  0.6525  1.4340
 2990SOL     OW20602   3.611   3.133   2.652 -0.0194 -0.1424 -0.0482
 2990SOL    HW120603   3.597   3.039   2.642 -2.3554  0.0633  1.3172
 2990SOL    HW220604   3.664   3.144   2.573  0.8105 -1.4049  0.3195
 2991SOL     OW20605   1.754   3.201  16.436 -0.4252  0.7276 -0.0593
 2991SOL    HW120606   1.815   3.163  16.500 -3.2939 -1.7231  1.1829
 2991SOL    HW220607   1.680   3.237  16.485 -0.3853  0.0668  0.4850
 2992SOL     OW20608   2.489   3.240  15.217  0.2912 -0.3619  0.1563
 2992SOL    HW120609   2.409   3.190  15.208  0.5002 -0.7690  0.5961
 2992SOL    HW220610   2.544   3.165  15.195  1.3825  0.6523 -0.5746
 2993SOL     OW20611   3.639   0.449   9.271  0.9168  0.5959 -0.4549
 2993SOL    HW120612   3.648   0.467   9.177 -1.0403  0.6606 -0.6157
 2993SOL    HW220613   3.580   0.375   9.282  1.5630  0.1489  0.0042
 2994SOL     OW20614   2.638   3.338  17.012  0.6735  0.1557  0.2833
 2994SOL    HW120615   2.622   3.403  16.944 -1.6914  0.9407  1.5923
 2994SOL    HW220616   2.733   3.330  17.002  0.9227  0.4044  2.6798
 2995SOL     OW20617   2.312   2.552   6.144  0.4270  0.4354  0.0601
 2995SOL    HW120618   2.360   2.604   6.208  0.6969 -2.6572  2.3985
 2995SOL    HW220619   2.386   2.498   6.117  0.9857  1.2778 -0.0772
 2996SOL     OW20620   1.271   1.566  17.108 -0.5262 -0.1808 -0.6467
 2996SOL    HW120621   1.200   1.606  17.059 -0.2580 -0.1698 -1.0288
 2996SOL    HW220622   1.254   1.607  17.192 -0.5344 -2.4063  0.4499
 2997SOL     OW20623   0.130   3.806   1.952  0.4967 -0.2477 -0.0384
 2997SOL    HW120624   0.046   3.760   1.958  0.8185 -0.9278 -0.8229
 2997SOL    HW220625   0.105   3.895   1.929 -0.3965 -0.0752  1.5832
 2998SOL     OW20626   0.485   3.556   6.471  0.3302 -0.1955  0.0489
 2998SOL    HW120627   0.421   3.627   6.472  0.4853 -0.0669  1.2447
 2998SOL    HW220628   0.557   3.615   6.447  0.0387  0.0068 -0.3342
 2999SOL     OW20629   0.076   2.492   6.705  0.5498 -0.6685  0.3482
 2999SOL    HW120630   0.031   2.547   6.770  1.7861  0.8148 -0.0660
 2999SOL    HW220631   0.141   2.554   6.673 -1.5463  0.8680 -0.9986
 3000SOL     OW20632   1.310   1.918   7.266 -0.4683  0.8839  0.0828
 3000SOL    HW120633   1.325   2.005   7.228 -2.3603  0.2563 -2.1301
 3000SOL    HW220634   1.266   1.866   7.198 -2.6181  1.6779  0.8552
 3001SOL     OW20635   1.836   1.435   9.042 -0.1267  0.3432 -0.5345
 3001SOL    HW120636   1.846   1.439   8.947  1.0643 -1.2087 -0.4714
 3001SOL    HW220637   1.925   1.424   9.075 -1.1295  1.2729  2.5166
 3002SOL     OW20638   3.937   2.082   1.795 -0.2051  0.0243  0.1381
 3002SOL    HW120639   3.991   2.007   1.819 -0.6618  0.0189  1.1274
 3002SOL    HW220640   3.954   2.094   1.701 -1.1624  0.1036 -0.0314
 3003SOL     OW20641   2.229   0.319   3.358 -0.2975  0.6457  0.2375
 3003SOL    HW120642   2.239   0.401   3.406  1.1118  0.9436 -0.5597
 3003SOL    HW220643   2.316   0.323   3.318 -0.2807  0.8670  0.2935
 3004SOL     OW20644   0.772   3.599   9.156  0.2713 -0.2728 -0.3473
 3004SOL    HW120645   0.714   3.619   9.082  0.3105  0.2037 -0.2451
 3004SOL    HW220646   0.796   3.686   9.186 -0.6881  0.4858 -1.7732
 3005SOL     OW20647   3.303   2.439   5.855  0.8317  0.1772  0.5446
 3005SOL    HW120648   3.255   2.390   5.789 -1.2816  0.9036  1.5333
 3005SOL    HW220649   3.312   2.379   5.930  1.6547 -0.9303 -0.4412
 3006SOL     OW20650   1.086   2.094  10.555  0.2700 -0.3494  0.1570
 3006SOL    HW120651   1.097   2.006  10.590 -0.7238 -0.8144 -0.7223
 3006SOL    HW220652   1.165   2.142  10.583 -0.5654  1.4571 -0.5635
 3007SOL     OW20653   3.286   0.434   2.768  0.2587  0.1213 -0.2739
 3007SOL    HW120654   3.309   0.408   2.857 -1.4045 -1.3070 -0.2713
 3007SOL    HW220655   3.318   0.353   2.728 -2.3072 -0.6883 -0.6749
 3008SOL     OW20656   0.845   2.535   4.930  1.0284 -0.0943 -0.3392
 3008SOL    HW120657   0.871   2.560   4.841  0.7295 -0.5630 -0.5626
 3008SOL    HW220658   0.806   2.451   4.905 -1.1567  0.8920 -0.1643
 3009SOL     OW20659   4.323   3.451   2.425 -0.0654 -0.3456  0.0151
 3009SOL    HW120660   4.257   3.432   2.492  1.5745  0.7177  1.9003
 3009SOL    HW220661   4.270   3.408   2.357  2.6422 -1.0213 -1.6765
 3010SOL     OW20662   1.267   0.486   2.069 -0.1042  0.1357 -0.4705
 3010SOL    HW120663   1.184   0.449   2.040 -0.1900  0.0766 -0.1476
 3010SOL    HW220664   1.230   0.547   2.132 -0.7190  0.3379 -1.0368
 3011SOL     OW20665   2.054   2.754  14.716 -0.2090 -0.4342  0.1303
 3011SOL    HW120666   2.045   2.742  14.621  0.5682 -0.8870  0.1091
 3011SOL    HW220667   2.081   2.668  14.746 -2.2671 -1.2043 -0.2207
 3012SOL     OW20668   2.345   0.507   5.275 -0.0294 -0.1224  0.3646
 3012SOL    HW120669   2.277   0.572   5.291  1.6986  1.1419  2.6331
 3012SOL    HW220670   2.344   0.503   5.180  1.7659 -0.3696  0.3443
 3013SOL     OW20671   0.248   1.500   5.851 -0.3828  0.9144  0.1649
 3013SOL    HW120672   0.316   1.567   5.847  0.7067 -0.2066  0.1425
 3013SOL    HW220673   0.275   1.455   5.931  0.1939  1.9837  0.5679
 3014SOL     OW20674   2.600   3.902  13.846 -0.4099 -0.0570  0.2995
 3014SOL    HW120675   2.683   3.939  13.874 -1.5541  1.1281  2.0885
 3014SOL    HW220676   2.545   3.978  13.865 -0.5128  0.3127 -1.4633
 3015SOL     OW20677   0.687   3.720  14.080  0.5153 -0.0887 -0.0082
 3015SOL    HW120678   0.652   3.631  14.091  1.1029 -0.3562 -0.2902
 3015SOL    HW220679   0.697   3.738  14.173  2.8103  0.3484 -0.3463
 3016SOL     OW20680   4.681   0.081   4.945  0.3287 -0.0956 -0.2120
 3016SOL    HW120681   4.632   0.061   5.024  1.5921 -0.7201  0.4229
 3016SOL    HW220682   0.027   0.039   4.975  0.0420 -0.4236  0.0908
 3017SOL     OW20683   4.331   4.375   4.042  0.5419  0.4543  0.4033
 3017SOL    HW120684   4.352   4.334   4.126  0.9061 -0.8435 -0.3216
 3017SOL    HW220685   4.336   4.300   3.983 -0.9210  1.4206 -0.9414
 3018SOL     OW20686   2.780   2.043   5.821 -0.0551  0.0270  0.2703
 3018SOL    HW120687   2.763   1.985   5.894 -0.4197 -0.6372 -0.3434
 3018SOL    HW220688   2.696   2.041   5.776 -0.8479 -1.3163  1.8244
 3019SOL     OW20689   1.696   2.004   4.031 -0.4515  0.4554  0.2425
 3019SOL    HW120690   1.689   2.067   4.102 -0.7012 -0.0733  0.6898
 3019SOL    HW220691   1.613   1.957   4.040  0.8871 -1.6061  1.8680
 3020SOL     OW20692   0.372   3.123   0.761 -0.6414  0.4724  0.1008
 3020SOL    HW120693   0.295   3.147   0.812  0.7181  1.3340  1.7676
 3020SOL    HW220694   0.330   3.096   0.679 -0.6649  1.3709 -0.1796
 3021SOL     OW20695   2.115   1.405  16.969 -0.4434  0.0249 -0.7831
 3021SOL    HW120696   2.022   1.414  16.952 -0.3360 -0.2742 -1.5234
 3021SOL    HW220697   2.146   1.336  16.910  0.3826  0.0698 -0.4007
 3022SOL     OW20698   3.030   3.898   4.789 -0.3990 -0.1164 -0.3312
 3022SOL    HW120699   3.009   3.922   4.879  0.9553  0.3185 -0.1376
 3022SOL    HW220700   2.943   3.899   4.748  0.0062  2.3440 -1.1197
 3023SOL     OW20701   4.612   1.408   1.228  0.6442  0.7147 -0.3762
 3023SOL    HW120702   4.602   1.414   1.133  3.4533  1.1947 -0.6308
 3023SOL    HW220703   4.641   1.497   1.246 -0.0597  1.0575 -0.9126
 3024SOL     OW20704   4.266   1.556   7.974 -0.4168 -0.0261  0.3681
 3024SOL    HW120705   4.176   1.586   7.972 -0.4378  0.0794  2.5463
 3024SOL    HW220706   4.307   1.640   7.955  0.3561 -0.2891  0.8315
 3025SOL     OW20707   4.204   0.788   4.555  0.0384 -0.0845  0.0813
 3025SOL    HW120708   4.240   0.732   4.486 -0.6361  0.8666 -1.0217
 3025SOL    HW220709   4.203   0.878   4.524 -0.8830 -0.0981  0.0931
 3026SOL     OW20710   3.538   0.601   2.773  0.4165  0.3967 -0.1490
 3026SOL    HW120711   3.457   0.549   2.772  1.0484 -0.5718 -0.3253
 3026SOL    HW220712   3.597   0.533   2.806 -0.0694  1.2991  2.6144
 3027SOL     OW20713   0.493   0.697   5.782 -0.1247  0.3239  0.1095
 3027SOL    HW120714   0.537   0.769   5.827 -1.1172  0.2011  1.2752
 3027SOL    HW220715   0.466   0.737   5.700  0.1304 -0.3650 -0.3128
 3028SOL     OW20716   0.645   1.038   9.216  0.3810  0.1742 -0.3219
 3028SOL    HW120717   0.644   1.120   9.166 -1.5885 -0.4647 -1.3116
 3028SOL    HW220718   0.568   1.054   9.270 -0.3168 -2.8260 -0.4248
 3029SOL     OW20719   2.581   2.394   6.821  0.3063 -0.0861  0.1316
 3029SOL    HW120720   2.492   2.425   6.805 -0.0437 -3.0720 -3.8135
 3029SOL    HW220721   2.626   2.410   6.738 -0.9143  0.0586 -0.5007
 3030SOL     OW20722   2.966   4.020  11.771 -0.3942 -0.3286  0.4117
 3030SOL    HW120723   2.987   3.930  11.795 -2.9785 -0.5955  1.6082
 3030SOL    HW220724   2.947   4.059  11.856 -2.2450 -0.9298  0.2590
 3031SOL     OW20725   2.345   1.747   2.766 -0.5037 -0.5077  0.0403
 3031SOL    HW120726   2.303   1.824   2.728 -1.1526  0.5982  2.9661
 3031SOL    HW220727   2.302   1.674   2.723  0.7691 -0.1483 -1.8251
 3032SOL     OW20728   3.871   2.289   6.331 -0.1714  0.1701  0.0466
 3032SOL    HW120729   3.850   2.371   6.375 -2.8379 -1.5316  1.9709
 3032SOL    HW220730   3.877   2.315   6.239 -0.4950 -1.9023 -0.5679
 3033SOL     OW20731   1.225   4.674   1.532 -0.1085 -0.2272  0.2996
 3033SOL    HW120732   1.222   4.597   1.476 -1.5219  1.8355 -2.4633
 3033SOL    HW220733   1.267   4.638   1.610  1.1386  1.9105  0.6349
 3034SOL     OW20734   2.999   0.429  14.366 -0.5963  0.3053  0.3641
 3034SOL    HW120735   3.063   0.372  14.409  0.2801 -1.6038 -3.4879
 3034SOL    HW220736   2.948   0.461  14.441 -1.0398  1.8695 -0.6200
 3035SOL     OW20737   0.573   4.464   2.974 -0.6822  0.4748  0.0109
 3035SOL    HW120738   0.529   4.413   3.043 -0.3843  0.7162  0.3771
 3035SOL    HW220739   0.549   4.555   2.990  0.8161  1.0839 -1.2211
 3036SOL     OW20740   4.562   2.353   1.380  0.0201 -0.1780 -0.1629
 3036SOL    HW120741   4.630   2.316   1.435  2.2426  0.1621 -2.6596
 3036SOL    HW220742   4.497   2.392   1.439  2.3720 -0.1263  2.4043
 3037SOL     OW20743   1.906   3.256   4.046  0.5042  0.4527 -0.1101
 3037SOL    HW120744   1.970   3.257   4.117 -0.8386 -0.3041  1.1161
 3037SOL    HW220745   1.838   3.201   4.084  0.6128  1.2569  1.2497
 3038SOL     OW20746   2.907   3.289   2.141  0.1406 -0.4554 -0.3982
 3038SOL    HW120747   2.949   3.369   2.108 -0.7068  0.3821  0.5635
 3038SOL    HW220748   2.956   3.214   2.107  2.4665  0.7272  0.4176
 3039SOL     OW20749   3.056   4.592  10.375  0.4824  0.0070 -0.2149
 3039SOL    HW120750   3.067   4.634  10.460  1.1603  0.6916 -0.6372
 3039SOL    HW220751   3.014   4.512  10.405  0.1362  0.6392  0.9629
 3040SOL     OW20752   3.289   0.374  16.916  0.4897  0.1463  0.5263
 3040SOL    HW120753   3.328   0.295  16.878 -0.1650 -0.9231  2.1198
 3040SOL    HW220754   3.357   0.441  16.908 -0.4881  1.0161 -0.5343
 3041SOL     OW20755   0.249   3.736   1.039 -0.1589 -0.2919  0.3242
 3041SOL    HW120756   0.259   3.821   1.082 -0.7907  0.5632 -1.2303
 3041SOL    HW220757   0.261   3.760   0.947 -1.9955  0.2988  0.2498
 3042SOL     OW20758   0.438   0.079  17.541 -0.6571  0.3044  0.0142
 3042SOL    HW120759   0.517   0.131  17.531  1.5312 -2.4425  3.1616
 3042SOL    HW220760   0.475   0.005  17.590  1.3326  0.9214 -0.5601
 3043SOL     OW20761   0.156   4.545  15.161 -0.2786 -0.3372 -0.0355
 3043SOL    HW120762   0.165   4.458  15.200  0.2978  0.6271  1.9792
 3043SOL    HW220763   0.224   4.598  15.201 -0.4864 -0.3560  0.3467
 3044SOL     OW20764   3.113   4.524   9.504 -0.3436 -0.3668  0.3208
 3044SOL    HW120765   3.103   4.604   9.452  0.5420  0.5974  1.6509
 3044SOL    HW220766   3.112   4.470   9.425 -1.2890  2.4770 -1.6361
 3045SOL     OW20767   2.468   1.858   6.579 -0.3684  0.1109 -0.0036
 3045SOL    HW120768   2.428   1.771   6.587  1.8265 -0.8385  0.8686
 3045SOL    HW220769   2.483   1.859   6.484 -0.4360  1.4613 -0.0002
 3046SOL     OW20770   0.147   2.440   6.151 -0.0921  0.4737 -0.3551
 3046SOL    HW120771   0.175   2.513   6.206 -0.7850  0.2113  0.3559
 3046SOL    HW220772   0.098   2.392   6.218  3.0423  0.1638  1.7101
 3047SOL     OW20773   3.690   2.659   9.608  0.1198 -0.3025  0.3453
 3047SOL    HW120774   3.724   2.572   9.628  2.5140  0.0622 -2.0622
 3047SOL    HW220775   3.778   2.691   9.584 -1.0102  1.7580 -1.0720
 3048SOL     OW20776   0.997   4.149   5.537 -0.0590 -0.1973  0.2800
 3048SOL    HW120777   0.954   4.185   5.460  3.1911  2.4322 -0.3327
 3048SOL    HW220778   1.076   4.112   5.496 -1.8071 -0.7713 -2.5200
 3049SOL     OW20779   1.510   2.423  12.918 -0.4945 -0.5399  0.2426
 3049SOL    HW120780   1.595   2.380  12.913 -0.4702 -0.3748 -0.8130
 3049SOL    HW220781   1.509   2.483  12.843 -1.0185  0.9792  1.4445
 3050SOL     OW20782   3.582   4.709   5.508  0.1982  0.5680  0.1824
 3050SOL    HW120783   3.617   4.640   5.451  0.9170  0.0072  1.2793
 3050SOL    HW220784   3.512   4.658   5.550  0.2295  1.9361  1.9023
 3051SOL     OW20785   3.160   0.486   5.388  0.4732 -0.1106 -0.5398
 3051SOL    HW120786   3.225   0.543   5.430 -1.8024  0.5138  2.1474
 3051SOL    HW220787   3.089   0.549   5.393  0.8686  0.4379 -2.0718
 3052SOL     OW20788   4.667   3.203   4.895 -0.0339 -0.7223  0.4581
 3052SOL    HW120789   4.632   3.203   4.984  1.7934 -1.0909  1.1715
 3052SOL    HW220790   4.666   3.298   4.890  1.2456 -0.7002  0.6186
 3053SOL     OW20791   1.867   3.466  17.527  0.1850  0.2761 -0.3680
 3053SOL    HW120792   1.955   3.432  17.509  0.0623 -0.5694  0.6502
 3053SOL    HW220793   1.865   3.531  17.456  2.1532  1.4355  0.6354
 3054SOL     OW20794   2.374   1.604   7.367 -0.3401 -0.1779 -0.1930
 3054SOL    HW120795   2.400   1.513   7.353  0.3685 -0.2980  1.8850
 3054SOL    HW220796   2.398   1.643   7.283 -0.5273 -1.4614 -0.8447
 3055SOL     OW20797   2.619   3.860   9.520  0.0009  0.0236 -0.2866
 3055SOL    HW120798   2.660   3.847   9.605  1.5117  1.4686 -0.7879
 3055SOL    HW220799   2.552   3.792   9.528 -0.0065  0.1023  0.3029
 3056SOL     OW20800   0.856   3.794  11.803  0.4207 -0.1539  0.3462
 3056SOL    HW120801   0.837   3.714  11.853 -0.6346  1.8851  3.1928
 3056SOL    HW220802   0.927   3.825  11.859 -1.1492  1.1654  1.5962
 3057SOL     OW20803   3.917   0.781   2.903 -0.1359 -0.3164  0.0964
 3057SOL    HW120804   3.870   0.854   2.945 -0.5646  0.0153 -0.9655
 3057SOL    HW220805   3.904   0.713   2.969  0.6725 -0.5494  0.0081
 3058SOL     OW20806   4.089   3.793   6.994  0.5902 -0.0501 -0.3203
 3058SOL    HW120807   4.029   3.725   6.964  0.9557 -1.3641  1.9666
 3058SOL    HW220808   4.087   3.845   6.913  1.8684  0.0727 -0.2757
 3059SOL     OW20809   2.027   3.369  15.579 -0.0353  0.1409 -0.2001
 3059SOL    HW120810   2.067   3.426  15.644  2.1861 -1.6266 -0.0518
 3059SOL    HW220811   2.105   3.342  15.531 -1.1682 -0.0247 -1.9912
 3060SOL     OW20812   2.925   3.206   4.602  0.5400 -0.2444 -0.0208
 3060SOL    HW120813   3.000   3.227   4.546  0.2175 -1.6810 -1.0108
 3060SOL    HW220814   2.848   3.218   4.546  0.5624  1.8089  0.3967
 3061SOL     OW20815   3.554   1.164   3.450 -0.3237  0.0975 -0.5749
 3061SOL    HW120816   3.620   1.098   3.471  0.7442  0.8377 -1.6411
 3061SOL    HW220817   3.547   1.158   3.355 -0.4729  2.5961 -0.7142
 3062SOL     OW20818   2.665   0.266   2.847 -0.0050 -0.2110  0.6001
 3062SOL    HW120819   2.677   0.172   2.832 -1.0500 -0.0731 -1.1615
 3062SOL    HW220820   2.569   0.274   2.850 -0.0218 -0.4368  0.6771
 3063SOL     OW20821   2.346   2.493   6.744 -0.0369 -0.0490  0.1802
 3063SOL    HW120822   2.273   2.479   6.685 -0.9408 -0.5188  1.4177
 3063SOL    HW220823   2.356   2.588   6.738 -0.1982 -0.0985 -0.8268
 3064SOL     OW20824   4.316   0.657  12.420 -0.1262  0.4631  0.0682
 3064SOL    HW120825   4.377   0.718  12.464 -1.5019  0.9065  1.3683
 3064SOL    HW220826   4.348   0.651  12.330  2.8803 -0.8224  1.1901
 3065SOL     OW20827   2.662   0.645   6.482 -0.1286 -0.4285 -0.2680
 3065SOL    HW120828   2.701   0.667   6.398 -0.6540  0.3131 -0.3228
 3065SOL    HW220829   2.723   0.574   6.502 -0.3711 -0.9079 -1.2127
 3066SOL     OW20830   0.846   2.950   1.773  0.3624 -0.0961  0.0875
 3066SOL    HW120831   0.825   2.919   1.685  0.8404  1.4850 -0.5773
 3066SOL    HW220832   0.871   2.868   1.815  1.3639 -0.4803 -1.2444
 3067SOL     OW20833   4.050   1.865   8.724  0.0925  0.2216  0.1950
 3067SOL    HW120834   4.119   1.882   8.788 -1.5689 -0.7989  2.2629
 3067SOL    HW220835   4.096   1.884   8.642 -0.7818  1.4263 -0.0072
 3068SOL     OW20836   1.608   2.967   3.941 -0.4763  0.1811 -0.4971
 3068SOL    HW120837   1.598   3.030   3.870 -1.0052  1.4561  0.7106
 3068SOL    HW220838   1.524   2.932   3.912 -0.0973  0.6954 -2.2177
 3069SOL     OW20839   4.720   1.941   6.229  0.1751 -0.5633 -0.2863
 3069SOL    HW120840   4.707   1.846   6.229  1.8731 -0.8001 -0.3384
 3069SOL    HW220841   0.064   1.943   6.175  0.4008 -1.7274 -0.0099
 3070SOL     OW20842   3.579   1.222   6.426 -0.2471 -0.1233  0.5052
 3070SOL    HW120843   3.543   1.304   6.460 -1.5819 -0.2907 -0.5201
 3070SOL    HW220844   3.606   1.239   6.335 -0.3500  1.1534  0.7175
 3071SOL     OW20845   0.476   1.090   2.562 -0.3925  0.2047 -0.1819
 3071SOL    HW120846   0.509   1.178   2.578  0.6894 -0.5091  1.5749
 3071SOL    HW220847   0.459   1.066   2.654 -1.4490 -2.3235 -1.0274
 3072SOL     OW20848   4.725   2.267   1.825 -0.7257  0.2758  0.0109
 3072SOL    HW120849   4.667   2.237   1.894 -0.4084 -1.5125 -0.5079
 3072SOL    HW220850   0.051   2.318   1.880 -2.5269  1.0333  1.2751
 3073SOL     OW20851   0.935   4.527   1.859  0.0973 -0.2908  0.3670
 3073SOL    HW120852   0.854   4.565   1.892  0.4297 -0.2283  1.1355
 3073SOL    HW220853   0.965   4.612   1.826 -0.7821 -1.2656 -2.8758
 3074SOL     OW20854   2.447   4.297   6.436  0.8304 -0.3773  0.0591
 3074SOL    HW120855   2.363   4.308   6.481  1.1589  0.2016  0.5363
 3074SOL    HW220856   2.420   4.251   6.356  0.1345 -2.3002  1.3883
 3075SOL     OW20857   0.013   0.705   3.964  0.0097  0.2088  0.3211
 3075SOL    HW120858   0.009   0.615   3.997 -1.5633  0.7536  1.5517
 3075SOL    HW220859   0.060   0.758   4.029  0.6256 -0.8851  0.7711
 3076SOL     OW20860   1.004   4.261   6.497 -0.0271 -0.1680 -0.2524
 3076SOL    HW120861   0.955   4.186   6.531  0.8107  0.0174  1.3533
 3076SOL    HW220862   1.059   4.299   6.565 -0.3147  0.8603 -0.6050
 3077SOL     OW20863   0.493   1.424   6.789  0.0597 -0.2620 -0.7427
 3077SOL    HW120864   0.582   1.436   6.820 -0.5004 -0.3162  0.9020
 3077SOL    HW220865   0.502   1.431   6.694  0.7128 -2.3207 -0.8447
 3078SOL     OW20866   2.093   2.732   4.151 -0.0160 -0.6244  0.1721
 3078SOL    HW120867   2.164   2.788   4.120 -3.2416  3.4492  0.2125
 3078SOL    HW220868   2.017   2.777   4.115 -0.3061 -0.0013  1.6054
 3079SOL     OW20869   2.132   0.281   0.312  0.1187 -0.2830 -0.5180
 3079SOL    HW120870   2.118   0.375   0.323  1.8143 -0.5827  4.3017
 3079SOL    HW220871   2.088   0.239   0.386  0.9456  2.1002  1.3452
 3080SOL     OW20872   0.646   1.175  17.197 -0.2096 -0.2384  0.2735
 3080SOL    HW120873   0.665   1.236  17.126  0.3090  1.0292  1.4909
 3080SOL    HW220874   0.705   1.104  17.169  0.0049 -0.4448  1.2305
 3081SOL     OW20875   0.073   0.239   4.423 -0.0685  0.1515  0.0219
 3081SOL    HW120876   0.042   0.186   4.496  0.8695  0.8266  0.9206
 3081SOL    HW220877   0.005   0.307   4.416 -0.0626  0.0831 -0.7636
 3082SOL     OW20878   0.134   0.631   7.232 -0.0671  0.1075  0.5675
 3082SOL    HW120879   0.206   0.568   7.228  1.8549  2.4146 -1.2435
 3082SOL    HW220880   0.132   0.667   7.143  0.0578 -0.6561  0.2556
 3083SOL     OW20881   1.442   0.009   7.986  0.0626 -0.2278  0.0796
 3083SOL    HW120882   1.483   0.096   7.992 -0.5991  0.0012  1.3817
 3083SOL    HW220883   1.399   4.729   8.070 -1.4557  0.2289 -0.6047
 3084SOL     OW20884   1.917   2.882   8.074 -0.8444 -0.3482  0.1365
 3084SOL    HW120885   1.978   2.956   8.067  1.7242 -2.5566 -0.9504
 3084SOL    HW220886   1.858   2.901   8.001 -2.4939 -0.9550  1.3222
 3085SOL     OW20887   1.925   3.583   2.350  0.4783 -0.4174 -0.5801
 3085SOL    HW120888   1.874   3.552   2.276  0.3900  2.8475 -1.8958
 3085SOL    HW220889   1.882   3.541   2.424  1.2921  0.3918  0.3608
 3086SOL     OW20890   2.879   3.168   7.273 -0.2287 -0.5063  0.4079
 3086SOL    HW120891   2.884   3.085   7.226 -1.0045  1.0223 -2.3934
 3086SOL    HW220892   2.820   3.217   7.215  1.7761 -0.4899 -1.6223
 3087SOL     OW20893   4.692   0.956   3.034  0.0684 -0.0617 -0.6420
 3087SOL    HW120894   0.006   0.953   2.951 -0.5670  0.1278 -1.0239
 3087SOL    HW220895   4.636   0.879   3.028 -0.1828  0.1172 -0.6136
 3088SOL     OW20896   2.850   2.180   6.905 -0.9294  0.4976 -0.7563
 3088SOL    HW120897   2.888   2.199   6.819 -0.6838  0.1273 -0.7294
 3088SOL    HW220898   2.869   2.087   6.912  2.7638  1.4987  2.5668
 3089SOL     OW20899   4.252   2.490   9.140  0.5489  0.1045 -0.3725
 3089SOL    HW120900   4.269   2.499   9.046  0.9950 -1.7584 -0.4816
 3089SOL    HW220901   4.164   2.527   9.152  0.0163 -1.3666  0.3711
 3090SOL     OW20902   0.342   4.163  11.424  0.4901  0.2059  0.1105
 3090SOL    HW120903   0.418   4.158  11.482 -1.6360  0.2015  2.8411
 3090SOL    HW220904   0.353   4.091  11.361 -0.6403  0.0456  0.0991
 3091SOL     OW20905   1.737   4.638   6.551 -0.1548 -0.0640  0.0551
 3091SOL    HW120906   1.664   4.597   6.504 -0.9651  1.6209 -0.1497
 3091SOL    HW220907   1.721   4.732   6.539  1.0187  0.2978  1.3260
 3092SOL     OW20908   1.836   3.190   1.658 -0.1342 -0.7058  0.0119
 3092SOL    HW120909   1.914   3.244   1.672  0.4394 -1.2080 -1.2744
 3092SOL    HW220910   1.776   3.258   1.630 -0.9268 -1.8392 -1.0223
 3093SOL     OW20911   1.240   3.001   9.541 -0.1597  0.1112  0.3741
 3093SOL    HW120912   1.163   3.052   9.565  0.4878  0.1146  2.5019
 3093SOL    HW220913   1.290   3.004   9.623  0.0310  1.2703  0.2165
 3094SOL     OW20914   3.954   1.436   3.806 -0.5434 -0.3666 -0.1690
 3094SOL    HW120915   3.896   1.420   3.881  0.7662 -1.3463  0.6268
 3094SOL    HW220916   3.938   1.357   3.754 -0.4769 -2.1300  2.4673
 3095SOL     OW20917   3.330   1.383  14.926 -0.3039  0.1804  0.6777
 3095SOL    HW120918   3.396   1.391  14.995 -1.8548  0.1995  2.1652
 3095SOL    HW220919   3.304   1.474  14.912  1.1402  1.1454  4.3020
 3096SOL     OW20920   4.019   2.481  13.913  0.6782 -0.1364 -0.1594
 3096SOL    HW120921   4.087   2.460  13.977 -0.9383  0.3522  1.6934
 3096SOL    HW220922   4.021   2.576  13.926 -5.2565  0.5844 -4.4378
 3097SOL     OW20923   0.863   3.201   3.020 -0.2067 -0.5511 -0.1264
 3097SOL    HW120924   0.800   3.129   3.016  0.2080 -0.8950 -0.4652
 3097SOL    HW220925   0.860   3.243   2.934 -1.6773  1.7469  1.0413
 3098SOL     OW20926   4.230   3.336   1.118 -0.1127  0.0021  0.1217
 3098SOL    HW120927   4.210   3.307   1.028 -0.7770  0.5264  0.0959
 3098SOL    HW220928   4.161   3.282   1.156 -0.3261  1.5142  1.8435
 3099SOL     OW20929   4.510   1.806  16.762  0.5881 -0.6299 -0.3092
 3099SOL    HW120930   4.456   1.872  16.718  1.9712  0.0669 -0.9699
 3099SOL    HW220931   4.549   1.779  16.678  1.0245  0.6836 -0.5263
 3100SOL     OW20932   1.132   1.498   5.537 -0.6131 -0.5444  0.4333
 3100SOL    HW120933   1.041   1.495   5.567 -0.4409  1.0390  1.1481
 3100SOL    HW220934   1.179   1.438   5.595  1.6848  1.2602  0.4710
 3101SOL     OW20935   3.910   3.271   3.819 -0.4710 -0.1909 -0.6475
 3101SOL    HW120936   3.895   3.356   3.860 -0.8418 -1.1299  1.1361
 3101SOL    HW220937   3.943   3.226   3.896  0.4693 -0.0960 -0.9954
 3102SOL     OW20938   1.449   4.228   0.406  0.1277  0.9209 -0.3972
 3102SOL    HW120939   1.542   4.205   0.405  0.5682  2.7159 -0.9467
 3102SOL    HW220940   1.448   4.302   0.345  1.6633  0.7948 -0.5778
 3103SOL     OW20941   2.706   1.651   3.922  0.0305  0.0639 -0.4188
 3103SOL    HW120942   2.625   1.613   3.888  0.2837 -1.9915  1.2754
 3103SOL    HW220943   2.716   1.723   3.860  0.2283  0.3634 -0.0313
 3104SOL     OW20944   1.731   0.488   4.624 -0.4657 -0.1836  0.5916
 3104SOL    HW120945   1.692   0.414   4.577  2.1601 -1.2114  0.0691
 3104SOL    HW220946   1.800   0.509   4.560 -2.1863 -0.6284 -1.4322
 3105SOL     OW20947   3.961   2.347   3.925  0.0667 -0.0139  0.3073
 3105SOL    HW120948   3.949   2.300   4.007 -0.1915 -0.8827 -0.2276
 3105SOL    HW220949   3.915   2.426   3.952 -1.3903 -0.4191 -0.9753
 3106SOL     OW20950   4.613   0.475  10.865 -0.4812  0.6844 -0.2230
 3106SOL    HW120951   4.600   0.485  10.771 -0.2470  1.5372 -0.1593
 3106SOL    HW220952   4.525   0.458  10.898 -0.0748 -0.2775  0.3552
 3107SOL     OW20953   1.774   3.842   8.428  0.2583  0.7439  0.2404
 3107SOL    HW120954   1.823   3.827   8.347  3.7948  1.0258  2.3268
 3107SOL    HW220955   1.849   3.858   8.485  2.3728 -0.2553 -2.2498
 3108SOL     OW20956   2.805   0.075   6.111 -0.3697 -0.1365 -0.4446
 3108SOL    HW120957   2.757   0.055   6.191  1.0722 -0.4721  0.3170
 3108SOL    HW220958   2.814   0.169   6.123 -0.4762 -0.1572 -0.1943
 3109SOL     OW20959   0.754   2.775   1.048 -0.4215 -0.0759  0.3671
 3109SOL    HW120960   0.731   2.851   0.995  1.1397 -0.7833 -1.3361
 3109SOL    HW220961   0.740   2.802   1.139 -2.0973  1.9623 -0.4960
 3110SOL     OW20962   0.237   1.093   3.640  0.6119 -0.2716  0.5193
 3110SOL    HW120963   0.324   1.081   3.679  0.6658 -0.5657  0.3131
 3110SOL    HW220964   0.185   1.041   3.700 -0.7753 -0.7874 -1.1236
 3111SOL     OW20965   1.405   3.246  17.345 -0.2340 -0.0592  0.3674
 3111SOL    HW120966   1.440   3.192  17.273 -0.7651 -0.3496  0.3321
 3111SOL    HW220967   1.374   3.323  17.298 -0.5617 -0.8531 -0.7369
 3112SOL     OW20968   1.420   4.238   1.798 -0.2947  0.0993  0.3608
 3112SOL    HW120969   1.409   4.206   1.887  2.1380 -1.1047  0.2235
 3112SOL    HW220970   1.423   4.163   1.738 -0.0015 -0.4062  1.0142
 3113SOL     OW20971   2.489   3.804   9.946  0.3638 -0.0887 -0.1594
 3113SOL    HW120972   2.543   3.764  10.014  0.3365  0.0362 -0.0636
 3113SOL    HW220973   2.545   3.870   9.907  2.7016 -1.8284  0.2471
 3114SOL     OW20974   3.418   1.806   5.237 -0.0462 -0.4631  0.1889
 3114SOL    HW120975   3.368   1.746   5.181  0.3794 -1.9196  1.3724
 3114SOL    HW220976   3.348   1.858   5.276 -0.5932 -0.3208 -0.9771
 3115SOL     OW20977   0.301   0.990   3.092  0.1650 -0.7042  0.0469
 3115SOL    HW120978   0.221   0.939   3.103 -0.8031  0.6168 -1.0175
 3115SOL    HW220979   0.330   1.019   3.179  1.3080  2.6724 -1.4543
 3116SOL     OW20980   3.657   3.877   9.513 -0.1532  0.3882 -0.7570
 3116SOL    HW120981   3.676   3.970   9.499 -1.0717  0.7935  0.6491
 3116SOL    HW220982   3.618   3.885   9.600  0.1998  1.4376 -0.6944
 3117SOL     OW20983   4.209   1.772   1.820 -0.6570 -0.1212  0.3055
 3117SOL    HW120984   4.221   1.680   1.840  0.1100 -0.4316 -1.5510
 3117SOL    HW220985   4.160   1.769   1.737 -1.3968  0.7627  0.7074
 3118SOL     OW20986   2.817   0.712   1.391  0.2187 -1.0500 -0.6671
 3118SOL    HW120987   2.857   0.626   1.391  0.3336 -0.9966 -0.6353
 3118SOL    HW220988   2.806   0.741   1.300  0.9189  1.6520  0.1128
 3119SOL     OW20989   4.390   1.965   4.886 -0.2249 -0.3939 -0.3252
 3119SOL    HW120990   4.422   2.055   4.889 -0.2322 -0.5883  4.6078
 3119SOL    HW220991   4.437   1.935   4.963 -1.6258 -1.8868 -0.0500
 3120SOL     OW20992   1.130   3.708   8.399 -0.1015  0.1294  0.2546
 3120SOL    HW120993   1.079   3.767   8.343  1.7607 -0.8011 -2.4610
 3120SOL    HW220994   1.158   3.776   8.461  0.4792 -1.6147  1.8881
 3121SOL     OW20995   4.360   3.943   6.707  0.0198 -0.3450 -0.3595
 3121SOL    HW120996   4.400   3.947   6.620  1.5117  0.1407  0.3565
 3121SOL    HW220997   4.436   3.977   6.754 -1.8013 -0.0460  2.3726
 3122SOL     OW20998   2.605   2.934   6.584 -0.2766 -0.1611 -0.0081
 3122SOL    HW120999   2.612   3.013   6.531  2.7200 -1.9176 -2.1939
 3122SOL    HW221000   2.583   2.980   6.665  0.5548 -0.0744  0.1708
 3123SOL     OW21001   0.782   4.389   3.754  0.1608 -0.0023  0.1166
 3123SOL    HW121002   0.711   4.326   3.736 -1.5633  2.1970 -0.8357
 3123SOL    HW221003   0.734   4.435   3.823  1.4971  1.4466  0.0549
 3124SOL     OW21004   3.581   2.455   3.743  0.5779 -0.0111  0.2850
 3124SOL    HW121005   3.654   2.473   3.682 -0.8009  0.4627 -1.2181
 3124SOL    HW221006   3.543   2.380   3.697 -0.4433  1.7887 -1.7976
 3125SOL     OW21007   0.070   1.689   3.574 -0.3147  0.2222  0.2853
 3125SOL    HW121008   0.047   1.635   3.650  0.0584 -0.7077 -0.2591
 3125SOL    HW221009   0.014   1.650   3.506  0.4891 -1.1001  0.3713
 3126SOL     OW21010   2.322   3.820   2.615 -0.4359 -0.4700 -0.5213
 3126SOL    HW121011   2.323   3.736   2.662  0.1427 -0.0048  0.2870
 3126SOL    HW221012   2.410   3.824   2.579 -0.3076 -1.7668 -0.3599
 3127SOL     OW21013   0.034   1.851   2.571  0.2326  0.7714 -0.7327
 3127SOL    HW121014   4.703   1.911   2.605 -0.5297  1.3092 -3.1227
 3127SOL    HW221015   0.108   1.911   2.583  1.0016 -0.0364 -1.3950
 3128SOL     OW21016   0.238   3.469   8.090  0.0043  0.4093 -0.7174
 3128SOL    HW121017   0.275   3.381   8.088  0.4118  0.5908 -1.2774
 3128SOL    HW221018   0.147   3.442   8.103  0.2566 -0.8307 -1.5248
 3129SOL     OW21019   3.461   4.681   2.241  0.1387  0.1006  0.0422
 3129SOL    HW121020   3.502   4.712   2.160  0.1953 -1.2400 -0.4384
 3129SOL    HW221021   3.427   0.030   2.273  1.8079  0.4040  1.0440
 3130SOL     OW21022   4.105   0.202   7.680 -0.7721  0.0565 -0.4890
 3130SOL    HW121023   4.049   0.242   7.746  3.3876  1.7976  2.0332
 3130SOL    HW221024   4.156   0.276   7.647 -1.4257  0.6713 -0.1105
 3131SOL     OW21025   3.679   2.633   8.634 -0.4188 -0.0244 -0.3091
 3131SOL    HW121026   3.595   2.625   8.589 -2.3978 -2.4818  3.7992
 3131SOL    HW221027   3.640   2.645   8.720  2.8947  1.1960  1.0213
 3132SOL     OW21028   4.725   1.920   7.476 -0.0598 -0.4796 -0.0820
 3132SOL    HW121029   0.070   1.943   7.526 -0.5186  1.2237 -0.1247
 3132SOL    HW221030   0.013   1.965   7.394  0.5546 -0.5123  0.0670
 3133SOL     OW21031   4.151   3.300   2.595 -0.5310  0.7528 -0.7552
 3133SOL    HW121032   4.071   3.265   2.636 -1.5419  1.7104 -1.9101
 3133SOL    HW221033   4.209   3.311   2.671 -1.1642 -0.6105 -0.0670
 3134SOL     OW21034   1.145   3.198   1.655 -0.6157  0.0200 -0.0228
 3134SOL    HW121035   1.120   3.269   1.595 -0.1041  0.4674  0.2864
 3134SOL    HW221036   1.231   3.234   1.678 -0.3467  0.0649 -1.1047
 3135SOL     OW21037   3.522   2.810   3.069  0.1794  0.2684  0.8282
 3135SOL    HW121038   3.495   2.802   2.978  0.3137 -4.4720  1.2179
 3135SOL    HW221039   3.446   2.786   3.123 -2.1156  3.3293 -1.0062
 3136SOL     OW21040   2.314   0.746   0.359  0.0494  0.1911 -0.1802
 3136SOL    HW121041   2.301   0.771   0.267  0.9621 -0.5393 -0.5026
 3136SOL    HW221042   2.348   0.833   0.379 -0.1770  0.6504 -1.7542
 3137SOL     OW21043   4.479   0.487   2.976  0.4243 -0.0554  0.2748
 3137SOL    HW121044   4.535   0.446   3.042  0.1864 -0.3010  0.3263
 3137SOL    HW221045   4.415   0.417   2.962 -0.6464  1.0877 -0.5886
 3138SOL     OW21046   3.875   1.969   5.538 -0.0460  0.2053 -0.4988
 3138SOL    HW121047   3.894   2.019   5.458  0.2674  0.2366 -0.4068
 3138SOL    HW221048   3.884   2.042   5.599 -2.6293  2.2048 -2.5092
 3139SOL     OW21049   1.727   3.454  15.018  0.0337 -0.2285  0.6035
 3139SOL    HW121050   1.673   3.532  15.007 -0.6373 -0.6764  0.7483
 3139SOL    HW221051   1.811   3.499  15.033  0.2290 -1.1521  2.2331
 3140SOL     OW21052   0.266   1.269   6.444 -0.2873  0.0172 -0.4070
 3140SOL    HW121053   0.284   1.177   6.426 -1.6769 -0.0371 -1.4913
 3140SOL    HW221054   0.206   1.257   6.518 -0.8214  3.1271 -0.3545
 3141SOL     OW21055   0.513   3.619   8.061  0.1331  0.1433 -0.1881
 3141SOL    HW121056   0.508   3.694   8.002  0.4603 -0.3239 -0.8062
 3141SOL    HW221057   0.420   3.597   8.056  0.2245  0.1007 -1.5953
 3142SOL     OW21058   3.941   2.133   5.341  0.4815  0.5166 -0.2416
 3142SOL    HW121059   4.011   2.187   5.377 -1.2113  1.1389  2.1951
 3142SOL    HW221060   3.979   2.094   5.262 -0.5703 -0.4304 -0.2812
 3143SOL     OW21061   0.519   3.670  10.862 -0.2068 -0.0275 -0.1272
 3143SOL    HW121062   0.613   3.668  10.879  0.0860  2.9702 -1.3228
 3143SOL    HW221063   0.505   3.576  10.876 -1.7542 -0.1786 -2.7857
 3144SOL     OW21064   3.368   3.386   8.691  0.0024 -0.0353 -0.3587
 3144SOL    HW121065   3.411   3.470   8.705 -2.3274  0.6007  2.8059
 3144SOL    HW221066   3.295   3.418   8.639  1.5279  1.4322 -1.6003
 3145SOL     OW21067   2.799   4.354   6.773  0.5351  0.2042 -0.0748
 3145SOL    HW121068   2.853   4.432   6.789  1.9777 -0.7693 -0.2342
 3145SOL    HW221069   2.715   4.384   6.807  0.1289  0.2568 -1.1207
 3146SOL     OW21070   4.305   4.237   9.526 -0.1838 -0.1842  0.2473
 3146SOL    HW121071   4.340   4.265   9.610  0.0819  0.1154  0.0403
 3146SOL    HW221072   4.266   4.319   9.497 -1.2636  0.3361  3.2231
 3147SOL     OW21073   0.628   2.982  10.618 -0.2815  0.3386 -0.4148
 3147SOL    HW121074   0.571   3.049  10.580  0.4881  1.6381  0.7303
 3147SOL    HW221075   0.609   3.000  10.710  2.3761 -0.4063  0.3035
 3148SOL     OW21076   2.502   3.386   2.454  0.2570  0.9949 -0.2030
 3148SOL    HW121077   2.521   3.454   2.388  2.2179 -1.0742 -1.7688
 3148SOL    HW221078   2.459   3.437   2.523  0.6848  0.2125  0.6344
 3149SOL     OW21079   1.051   4.344   1.040  0.8493 -0.0303 -0.5428
 3149SOL    HW121080   1.112   4.395   1.094  1.4823 -0.9278 -0.4108
 3149SOL    HW221081   0.980   4.330   1.103 -0.0713 -0.3939 -1.6535
 3150SOL     OW21082   3.144   4.078   1.693  0.0447  0.4244 -0.5692
 3150SOL    HW121083   3.175   3.990   1.715  0.1324  0.6800  0.3193
 3150SOL    HW221084   3.049   4.066   1.696  0.0174  0.6758 -0.4566
 3151SOL     OW21085   4.130   1.493   6.406  0.1827 -0.1460  0.3065
 3151SOL    HW121086   4.158   1.459   6.322  1.0701  0.4321  0.3579
 3151SOL    HW221087   4.039   1.505   6.380  0.2256 -0.4846 -0.0007
 3152SOL     OW21088   1.316   1.255   3.741 -0.3781 -0.2045  0.0704
 3152SOL    HW121089   1.335   1.162   3.757  0.3167  0.1218  1.1237
 3152SOL    HW221090   1.388   1.297   3.788 -0.8268 -0.9406  1.4261
 3153SOL     OW21091   1.024   4.656   3.061 -0.1771  1.0497 -0.5601
 3153SOL    HW121092   0.971   4.594   3.010 -2.7890  3.5026 -0.8044
 3153SOL    HW221093   1.087   4.597   3.103 -0.7578  1.6746  1.2090
 3154SOL     OW21094   1.230   3.929   5.920  0.2567  0.0198  0.2371
 3154SOL    HW121095   1.238   3.842   5.879  0.9955  0.3518 -0.3146
 3154SOL    HW221096   1.252   3.906   6.010  0.7750 -4.0890 -0.9137
 3155SOL     OW21097   3.690   0.453   2.939 -0.2748 -0.2037  0.3884
 3155SOL    HW121098   3.629   0.477   3.009 -2.0230  1.8473 -1.8271
 3155SOL    HW221099   3.766   0.496   2.979  0.1962  0.0498 -0.7859
 3156SOL     OW21100   3.254   2.267   9.506 -0.1467  0.1950 -0.0099
 3156SOL    HW121101   3.230   2.274   9.414  0.1691  0.4036 -0.0756
 3156SOL    HW221102   3.197   2.202   9.546 -0.8129  0.0091 -1.2700
 3157SOL     OW21103   0.753   4.497   9.429  0.0023 -0.2429  0.4543
 3157SOL    HW121104   0.664   4.502   9.393 -0.8697  0.0671  2.6979
 3157SOL    HW221105   0.794   4.537   9.352 -0.9301  0.3058  0.2442
 3158SOL     OW21106   2.863   3.006  14.326 -0.0931 -0.2630 -0.1821
 3158SOL    HW121107   2.772   3.006  14.356  0.5196  0.0881  1.6815
 3158SOL    HW221108   2.857   3.039  14.236  0.0350  1.8357  0.5900
 3159SOL     OW21109   3.884   0.027   3.679 -0.6584 -0.0780 -0.1539
 3159SOL    HW121110   3.945   0.100   3.693 -0.4767 -0.2605  0.0017
 3159SOL    HW221111   3.805   0.041   3.732  0.1638 -3.2891  1.9110
 3160SOL     OW21112   3.335   4.221   6.225 -0.1467  0.2242 -0.3851
 3160SOL    HW121113   3.248   4.201   6.190 -0.7872  0.7470  0.9185
 3160SOL    HW221114   3.325   4.193   6.316 -0.7236 -3.8068 -1.6652
 3161SOL     OW21115   0.144   1.390  10.304 -0.3200 -0.3080 -0.1402
 3161SOL    HW121116   0.231   1.369  10.270  0.0071 -0.2078  0.6555
 3161SOL    HW221117   0.116   1.461  10.246  1.8707  0.0561 -0.7320
 3162SOL     OW21118   3.599   3.273   5.847  0.4265 -0.0693 -0.0116
 3162SOL    HW121119   3.576   3.308   5.761  0.3000 -0.5970 -0.1935
 3162SOL    HW221120   3.598   3.178   5.836  2.0967 -0.1856  0.7899
 3163SOL     OW21121   2.714   3.702   8.844  0.2437 -0.0270  0.0115
 3163SOL    HW121122   2.658   3.629   8.818  1.3696 -1.2616  1.0826
 3163SOL    HW221123   2.682   3.764   8.778  0.6261 -0.4117 -0.5399
 3164SOL     OW21124   2.866   2.747   4.219  0.1150  0.0858  0.8943
 3164SOL    HW121125   2.847   2.658   4.187  0.5895  0.4113 -0.2909
 3164SOL    HW221126   2.809   2.790   4.156  1.6020 -1.2206 -1.3561
 3165SOL     OW21127   1.423   3.605   4.119 -0.4112 -0.7983  0.8597
 3165SOL    HW121128   1.359   3.540   4.151 -0.8773 -0.4206  0.6924
 3165SOL    HW221129   1.392   3.634   4.033  0.7178  2.8403  1.7094
 3166SOL     OW21130   0.969   1.659   3.032 -0.2123 -0.1019  0.7684
 3166SOL    HW121131   0.906   1.711   3.083 -1.1569 -0.8662  0.4005
 3166SOL    HW221132   1.001   1.719   2.965 -2.8507  0.2991 -0.1569
 3167SOL     OW21133   3.723   3.309   1.156  0.0858  0.1350 -0.2917
 3167SOL    HW121134   3.712   3.336   1.065 -2.3902 -0.5751 -0.2221
 3167SOL    HW221135   3.673   3.377   1.201 -0.7455 -1.2663  0.9010
 3168SOL     OW21136   1.597   0.889   1.427 -0.1844  0.0889 -0.7471
 3168SOL    HW121137   1.520   0.870   1.480 -2.3119  3.6203 -2.5304
 3168SOL    HW221138   1.595   0.984   1.422  1.9476  0.0391 -2.5837
 3169SOL     OW21139   0.556   1.186   5.059  0.1130  0.1304  0.1460
 3169SOL    HW121140   0.533   1.273   5.093  1.5710  0.6579 -0.2332
 3169SOL    HW221141   0.470   1.146   5.045  0.2321 -0.6367  1.6049
 3170SOL     OW21142   0.199   2.386   7.124 -0.5500 -0.3912 -0.0589
 3170SOL    HW121143   0.193   2.455   7.058 -0.2970 -0.8896 -0.5969
 3170SOL    HW221144   0.220   2.307   7.074 -1.6431  0.4342 -1.8416
 3171SOL     OW21145   4.084   2.317   3.440 -0.0358 -0.0360  0.0513
 3171SOL    HW121146   4.053   2.404   3.416 -1.0110  0.1412  1.9327
 3171SOL    HW221147   4.002   2.268   3.445  0.2116 -0.2167  2.4942
 3172SOL     OW21148   0.455   0.849   5.564 -0.4422 -0.1529 -0.4572
 3172SOL    HW121149   0.524   0.910   5.538  0.4076 -1.7713 -2.0315
 3172SOL    HW221150   0.380   0.908   5.575 -0.0856  0.0371  0.8691
 3173SOL     OW21151   1.980   4.200   2.676 -0.3558  0.0260  0.0658
 3173SOL    HW121152   1.910   4.259   2.651  0.6992  1.7311  1.1544
 3173SOL    HW221153   2.003   4.230   2.764  2.2591  0.2947 -0.6949
 3174SOL     OW21154   1.462   1.389   7.635  0.2935 -0.2661  0.6178
 3174SOL    HW121155   1.517   1.461   7.668  2.1740 -1.4369  0.0540
 3174SOL    HW221156   1.382   1.403   7.684  0.3000  0.0723  0.5340
 3175SOL     OW21157   0.726   4.697  15.686 -0.0697 -0.1983 -0.1183
 3175SOL    HW121158   0.714   0.015  15.765 -1.2926 -0.0933 -0.3799
 3175SOL    HW221159   0.725   4.609  15.725 -2.7659  0.0539  0.3466
 3176SOL     OW21160   1.069   1.734   8.473 -0.0506 -0.1477 -0.0208
 3176SOL    HW121161   1.033   1.676   8.541  1.1390 -2.7129 -1.6032
 3176SOL    HW221162   0.996   1.793   8.454  1.4606  0.9249 -2.4095
 3177SOL     OW21163   2.319   0.589   4.783  0.7355 -0.3456 -0.0863
 3177SOL    HW121164   2.354   0.534   4.712  0.7985 -1.3066  0.6875
 3177SOL    HW221165   2.225   0.589   4.765  0.6174 -0.3857  0.5529
 3178SOL     OW21166   0.697   2.792   2.856  0.1958 -0.1464 -0.4789
 3178SOL    HW121167   0.652   2.722   2.902 -0.4143  0.4522 -0.1631
 3178SOL    HW221168   0.682   2.758   2.768 -1.5153  1.5867 -0.8509
 3179SOL     OW21169   2.482   3.634  17.036  0.0409  0.2972  0.0878
 3179SOL    HW121170   2.483   3.687  16.956  0.7924 -2.4133 -1.6903
 3179SOL    HW221171   2.571   3.601  17.019 -0.1273  0.7892 -1.7162
 3180SOL     OW21172   3.075   3.619   0.607  0.0667 -0.4125 -0.0383
 3180SOL    HW121173   3.018   3.695   0.590  1.6252  0.5869 -0.7942
 3180SOL    HW221174   3.079   3.585   0.518 -1.8237 -3.2778  0.9762
 3181SOL     OW21175   1.227   2.176  14.969 -0.2620  0.3711  0.3763
 3181SOL    HW121176   1.226   2.194  14.875 -1.2938 -0.0816  0.2970
 3181SOL    HW221177   1.320   2.191  14.983 -0.1510  0.2326 -0.2012
 3182SOL     OW21178   0.901   0.880   5.384  0.0301 -0.0616  0.2746
 3182SOL    HW121179   0.926   0.848   5.297 -3.0535  1.0799 -1.0056
 3182SOL    HW221180   0.960   0.825   5.436 -2.9574 -1.3657  2.2948
 3183SOL     OW21181   2.636   0.572   9.414 -0.0978 -0.2140  0.1968
 3183SOL    HW121182   2.694   0.497   9.399  2.0103  1.4333  0.2079
 3183SOL    HW221183   2.703   0.636   9.435 -0.6058  0.7111 -1.0238
 3184SOL     OW21184   3.084   1.215  12.750  0.0580 -0.1386  0.1109
 3184SOL    HW121185   3.152   1.151  12.768  0.4504  0.1516 -0.3503
 3184SOL    HW221186   3.104   1.291  12.805  1.8799  0.1312 -0.9415
 3185SOL     OW21187   0.794   3.080   4.021  0.4671  0.0361  0.7420
 3185SOL    HW121188   0.795   3.168   3.984  3.1592 -1.0098 -1.6528
 3185SOL    HW221189   0.745   3.112   4.096 -1.8019  2.6431 -1.8607
 3186SOL     OW21190   0.179   2.003   1.860 -0.1772 -0.0479 -0.0262
 3186SOL    HW121191   0.209   2.017   1.771  0.5558 -0.2996  0.1815
 3186SOL    HW221192   0.189   2.093   1.892  0.6482 -0.5163  1.0480
 3187SOL     OW21193   1.549   1.254   1.151  0.4280  0.1690 -0.5778
 3187SOL    HW121194   1.607   1.236   1.225  2.2132  1.9246 -1.5861
 3187SOL    HW221195   1.572   1.187   1.087  0.8319 -1.1374  0.9265
 3188SOL     OW21196   4.641   2.388   3.579 -0.7701 -0.6132 -0.0813
 3188SOL    HW121197   4.554   2.426   3.574 -0.5276 -0.1034 -0.3961
 3188SOL    HW221198   4.628   2.297   3.607 -1.0035  0.0697  2.0627
 3189SOL     OW21199   0.991   1.024   3.495  0.0832  0.1447  0.4991
 3189SOL    HW121200   0.939   1.095   3.533 -0.4960  0.2993 -0.5742
 3189SOL    HW221201   1.019   1.065   3.414 -0.5147  0.1449  0.2910
 3190SOL     OW21202   0.108   0.780   6.990  0.2046  0.5771 -0.5808
 3190SOL    HW121203   0.074   0.729   6.916 -0.9655 -0.0845  0.4175
 3190SOL    HW221204   0.159   0.849   6.948  2.6121 -0.7688  0.1318
 3191SOL     OW21205   0.096   3.955   6.389  0.5518  0.1412  1.0240
 3191SOL    HW121206   0.148   3.895   6.335  0.6376  1.6232 -0.5455
 3191SOL    HW221207   0.124   4.033   6.341 -0.5103 -0.9366 -1.3668
 3192SOL     OW21208   0.973   3.400   2.791 -0.1167  0.0139  0.2340
 3192SOL    HW121209   0.932   3.445   2.717  0.5896  1.3160  0.6529
 3192SOL    HW221210   1.038   3.348   2.743 -1.6619 -1.0198 -0.7328
 3193SOL     OW21211   4.623   4.594  15.175  0.1431  0.7578 -0.2069
 3193SOL    HW121212   4.591   4.663  15.116 -0.3587 -1.2185 -2.2195
 3193SOL    HW221213   4.718   4.601  15.163  0.2750 -0.7569 -0.0084
 3194SOL     OW21214   3.364   2.490   6.299  0.1736 -0.1633  0.1600
 3194SOL    HW121215   3.430   2.439   6.346 -0.6284 -0.2534  1.1995
 3194SOL    HW221216   3.405   2.521   6.219  0.6696 -0.5306  0.2714
 3195SOL     OW21217   3.446   1.142   7.090  0.0429 -0.0530  0.7810
 3195SOL    HW121218   3.460   1.054   7.124 -3.5702 -0.0163  2.3399
 3195SOL    HW221219   3.519   1.189   7.132  0.0655  0.6948 -0.0830
 3196SOL     OW21220   2.960   3.708   3.220 -0.3971  0.1210 -0.5496
 3196SOL    HW121221   2.875   3.682   3.186 -0.7486  1.3570 -0.6302
 3196SOL    HW221222   3.021   3.644   3.184  0.1045  1.1233 -1.5139
 3197SOL     OW21223   1.045   0.303   2.334  0.1479 -0.3010 -0.0227
 3197SOL    HW121224   0.979   0.234   2.323 -0.1169  0.4028 -2.8847
 3197SOL    HW221225   1.045   0.326   2.427 -0.0706  1.5066 -0.4689
 3198SOL     OW21226   4.185   4.091  16.366  0.4493 -0.2132  0.2572
 3198SOL    HW121227   4.203   4.151  16.438  0.5985  0.0787 -0.0221
 3198SOL    HW221228   4.239   4.022  16.403  1.1680  0.8653  1.1859
 3199SOL     OW21229   1.123   2.876  10.971 -0.5612  0.2183  0.0745
 3199SOL    HW121230   1.186   2.829  10.917 -0.4892  0.2582  0.1232
 3199SOL    HW221231   1.049   2.879  10.910 -1.4528 -2.1934  1.0311
 3200SOL     OW21232   0.903   0.636   6.978 -0.2079 -0.5801 -0.3986
 3200SOL    HW121233   0.883   0.728   6.959 -1.1402 -0.9147 -1.0491
 3200SOL    HW221234   0.998   0.640   6.983 -0.0438 -2.6861 -1.7640
 3201SOL     OW21235   0.495   0.094   3.991  0.0313 -0.6933  0.3751
 3201SOL    HW121236   0.500   0.075   3.898  2.0116 -1.4594  0.6264
 3201SOL    HW221237   0.405   0.125   4.002 -0.3867 -2.5150  2.0187
 3202SOL     OW21238   2.795   0.853   9.477 -0.1562 -0.2467  0.6818
 3202SOL    HW121239   2.873   0.854   9.532 -0.9824  1.2213  1.8316
 3202SOL    HW221240   2.836   0.856   9.390 -1.8561 -0.0967 -0.1194
 3203SOL     OW21241   2.818   2.802   3.351  0.0709  0.6906 -0.0726
 3203SOL    HW121242   2.765   2.875   3.382  0.8134  1.0913  0.2422
 3203SOL    HW221243   2.877   2.774   3.421  0.8723 -0.2423 -1.1244
 3204SOL     OW21244   3.565   1.586  14.972  0.8545 -0.6105  0.0050
 3204SOL    HW121245   3.478   1.622  14.991  0.6983 -1.6189  1.2044
 3204SOL    HW221246   3.571   1.504  15.022 -1.2979 -0.7864 -0.0205
 3205SOL     OW21247   2.388   1.208   8.998 -0.2170  0.4306 -0.3804
 3205SOL    HW121248   2.350   1.229   8.912  0.9056  0.3424 -0.8877
 3205SOL    HW221249   2.474   1.185   8.965 -0.1203  1.3755 -0.7828
 3206SOL     OW21250   3.502   3.350   9.355  0.4154  0.1338  0.3613
 3206SOL    HW121251   3.521   3.327   9.265  0.0350 -2.3365  0.9101
 3206SOL    HW221252   3.406   3.356   9.354  0.3438 -1.0537  0.1349
 3207SOL     OW21253   0.195   1.828   6.891 -0.0835  0.4117  0.0682
 3207SOL    HW121254   0.173   1.773   6.815  1.4092 -1.3825  0.9413
 3207SOL    HW221255   0.273   1.786   6.926  0.5504  1.8684  0.3906
 3208SOL     OW21256   2.339   3.546  14.352 -0.0946  0.0337  0.0179
 3208SOL    HW121257   2.334   3.509  14.440  0.7468  0.1576  0.1181
 3208SOL    HW221258   2.254   3.588  14.342  0.1638  0.4389 -0.5181
 3209SOL     OW21259   2.892   0.254   6.749  0.1279 -0.7263 -0.2684
 3209SOL    HW121260   2.977   0.220   6.722  0.0236 -1.0286 -0.2096
 3209SOL    HW221261   2.833   0.179   6.745 -1.2244  0.2840  0.4075
 3210SOL     OW21262   3.880   2.760   8.932 -0.0560 -0.0698 -0.1758
 3210SOL    HW121263   3.825   2.686   8.907 -1.0421  0.4991  0.3151
 3210SOL    HW221264   3.836   2.839   8.899 -1.6285 -0.7189  0.3585
 3211SOL     OW21265   0.411   1.120  11.047 -0.2152  0.6815  0.8242
 3211SOL    HW121266   0.369   1.092  10.965  0.4921 -1.6369  1.2749
 3211SOL    HW221267   0.418   1.215  11.036 -0.9597  0.4638 -1.5867
 3212SOL     OW21268   1.842   1.912   4.521 -0.2591  0.0917 -0.7591
 3212SOL    HW121269   1.831   1.937   4.612  1.1200 -0.4272 -0.4469
 3212SOL    HW221270   1.751   1.897   4.493 -0.3459  0.4790 -0.6788
 3213SOL     OW21271   4.354   2.529   5.455 -0.8804 -0.2587 -0.9059
 3213SOL    HW121272   4.390   2.583   5.386 -0.9818  2.4645  1.1602
 3213SOL    HW221273   4.303   2.593   5.505  2.3352  1.0900  0.6375
 3214SOL     OW21274   4.358   0.325   9.256  0.0945 -0.0581 -0.2136
 3214SOL    HW121275   4.308   0.252   9.292 -1.7282  0.6121 -1.3771
 3214SOL    HW221276   4.388   0.285   9.174 -2.0349 -0.7529 -0.6614
 3215SOL     OW21277   4.464   1.700  15.049 -0.7326 -0.1780  0.0144
 3215SOL    HW121278   4.527   1.646  15.098  0.5454  1.7013  0.4405
 3215SOL    HW221279   4.436   1.767  15.112 -0.0157  0.1059  0.0289
 3216SOL     OW21280   3.141   2.787   7.740  0.4812  0.5207 -0.1919
 3216SOL    HW121281   3.095   2.854   7.790  1.7841  1.2251  0.0806
 3216SOL    HW221282   3.065   2.741   7.706 -0.3694  0.4067  1.8333
 3217SOL     OW21283   3.882   3.515  12.859 -0.4527  0.6775  0.4641
 3217SOL    HW121284   3.877   3.424  12.832  0.1097  0.5838  0.6824
 3217SOL    HW221285   3.978   3.519  12.855 -0.5477  1.6383 -0.8236
 3218SOL     OW21286   1.393   0.570  13.472  0.4751  0.0160  0.0969
 3218SOL    HW121287   1.311   0.612  13.447 -1.2685 -2.8133  1.0660
 3218SOL    HW221288   1.460   0.634  13.446  1.2097 -1.1753 -0.9812
 3219SOL     OW21289   3.532   3.697   2.758 -0.4359  0.2909 -0.0782
 3219SOL    HW121290   3.580   3.768   2.715 -2.8082  1.5404 -0.6417
 3219SOL    HW221291   3.591   3.629   2.725 -0.4456 -1.3121  3.2615
 3220SOL     OW21292   3.869   2.984  14.477  0.0875 -0.3538  0.7368
 3220SOL    HW121293   3.823   3.027  14.549 -0.7289  1.6988 -0.9996
 3220SOL    HW221294   3.801   2.934  14.431  1.8184 -0.5703 -1.6203
 3221SOL     OW21295   0.023   4.173   0.976 -0.0935  0.1012  0.5713
 3221SOL    HW121296   0.002   4.227   1.053 -0.9854  2.0483 -1.0449
 3221SOL    HW221297   0.077   4.227   0.918  0.7920 -0.8067  0.5547
 3222SOL     OW21298   0.642   0.013   3.460 -0.0201  0.2401 -0.2873
 3222SOL    HW121299   0.649   4.652   3.463  0.0654  0.2450 -0.3230
 3222SOL    HW221300   0.731   0.038   3.487  0.2932 -1.8213  0.5764
 3223SOL     OW21301   2.294   0.056  16.152 -0.1465 -0.6962  0.3640
 3223SOL    HW121302   2.389   0.044  16.152 -0.1585 -0.7985  0.1121
 3223SOL    HW221303   2.299   0.148  16.127  2.1618 -0.8800  0.1077
 3224SOL     OW21304   4.082   1.001   5.524 -0.1562  0.2798 -0.8702
 3224SOL    HW121305   4.100   1.039   5.610  2.1999 -0.1206 -1.2024
 3224SOL    HW221306   4.157   0.944   5.507 -0.5863 -0.9839  1.4103
 3225SOL     OW21307   2.797   1.850   2.230 -0.3894 -0.2378 -0.3821
 3225SOL    HW121308   2.732   1.920   2.233  1.2913  1.2904  1.0085
 3225SOL    HW221309   2.868   1.894   2.278  0.3489 -2.1934  0.3215
 3226SOL     OW21310   1.191   0.221   5.486  0.2516  0.4902 -0.0674
 3226SOL    HW121311   1.140   0.291   5.526  0.8307 -0.1655  1.8242
 3226SOL    HW221312   1.261   0.204   5.549  0.3644  0.9331 -0.0755
 3227SOL     OW21313   0.192   4.216   7.558 -0.0343  0.0126 -0.2995
 3227SOL    HW121314   0.193   4.262   7.473  2.8694 -0.0377 -0.2729
 3227SOL    HW221315   0.183   4.290   7.618  0.3411 -0.5498  0.4490
 3228SOL     OW21316   4.249   1.985  10.768  0.0986  0.6999 -0.0324
 3228SOL    HW121317   4.157   1.959  10.772  0.2281 -0.2648 -3.3448
 3228SOL    HW221318   4.242   2.072  10.809 -0.1301 -0.3021  2.0495
 3229SOL     OW21319   0.232   4.153   6.919 -0.3795 -0.3884 -0.0064
 3229SOL    HW121320   0.149   4.140   6.873 -0.4593  2.5869 -0.6804
 3229SOL    HW221321   0.302   4.111   6.868 -0.5476  1.6155 -1.8891
 3230SOL     OW21322   2.429   1.781  12.942  0.2387 -0.0699  0.1004
 3230SOL    HW121323   2.336   1.764  12.955  0.4871 -0.7766  0.9705
 3230SOL    HW221324   2.428   1.842  12.869 -3.4558 -0.4879 -0.2037
 3231SOL     OW21325   0.461   4.602   4.181 -0.2051  0.4912  0.7982
 3231SOL    HW121326   0.478   4.676   4.123 -1.0791  1.7877  2.2128
 3231SOL    HW221327   0.541   4.587   4.232 -0.3863 -0.7619  0.7086
 3232SOL     OW21328   4.529   4.002   0.476  0.1193  1.0851  0.3767
 3232SOL    HW121329   4.578   3.930   0.514  0.1016  1.1811  0.5835
 3232SOL    HW221330   4.476   4.023   0.553 -1.1422  2.6125 -0.8871
 3233SOL     OW21331   1.828   3.843   9.988 -0.3004 -0.2441 -0.1606
 3233SOL    HW121332   1.753   3.784   9.978 -0.8881  0.4349  0.2342
 3233SOL    HW221333   1.841   3.850  10.082  0.8287  1.0846 -0.4348
 3234SOL     OW21334   2.622   4.117   7.206  0.1225 -0.0404 -0.5630
 3234SOL    HW121335   2.696   4.165   7.168  1.0902 -0.7161  0.4598
 3234SOL    HW221336   2.669   4.055   7.262  1.7185  1.5505 -0.1391
 3235SOL     OW21337   4.197   4.489   0.197  0.0885 -0.4544 -0.2218
 3235SOL    HW121338   4.180   4.428   0.125  0.1558 -1.0799  0.2920
 3235SOL    HW221339   4.291   4.505   0.188 -0.0621  0.9830  0.6237
 3236SOL     OW21340   4.099   0.371   4.072 -0.4361 -0.3124  0.1188
 3236SOL    HW121341   4.105   0.278   4.054 -1.5077 -0.7646  2.0559
 3236SOL    HW221342   4.058   0.362   4.158  2.3236 -0.9418  1.3555
 3237SOL     OW21343   2.066   3.919   3.426 -0.6098 -0.4404  0.2366
 3237SOL    HW121344   2.017   3.907   3.507 -1.1162 -0.6243 -0.0978
 3237SOL    HW221345   2.131   3.849   3.435  1.0475  0.9694 -0.8945
 3238SOL     OW21346   2.234   1.287   1.785 -0.0107  0.2650 -0.0509
 3238SOL    HW121347   2.223   1.311   1.693 -0.6903  0.2642  0.0309
 3238SOL    HW221348   2.229   1.192   1.779  0.7945  0.3028 -1.3674
 3239SOL     OW21349   4.716   0.440   4.090 -0.0509  0.1369  0.7692
 3239SOL    HW121350   4.685   0.351   4.106 -1.4606  0.8902  2.2058
 3239SOL    HW221351   0.073   0.431   4.117  0.1419 -1.1640 -0.3080
 3240SOL     OW21352   1.702   2.185   4.242  0.1082  0.2466  0.6682
 3240SOL    HW121353   1.660   2.185   4.328  0.5098 -0.3886  0.8596
 3240SOL    HW221354   1.730   2.276   4.228  0.9990  0.1324  1.7193
 3241SOL     OW21355   4.175   0.370   8.947  0.3328  0.2646  0.1837
 3241SOL    HW121356   4.116   0.311   8.994  0.7555 -0.1456  0.1981
 3241SOL    HW221357   4.162   0.450   8.999  0.3780  0.1872  0.3139
 3242SOL     OW21358   1.828   3.132  17.290  0.0535 -0.0580  0.9766
 3242SOL    HW121359   1.796   3.215  17.254 -0.0917 -0.2811  0.5912
 3242SOL    HW221360   1.780   3.117  17.371 -1.5302  1.7806  0.3946
 3243SOL     OW21361   3.917   4.645  14.003 -0.9873  0.0270 -0.0217
 3243SOL    HW121362   3.903   4.578  14.070  0.4284 -0.1359  0.1084
 3243SOL    HW221363   3.889   4.723  14.051  0.2244 -1.5210  3.2034
 3244SOL     OW21364   0.049   1.057   5.338 -0.1377  0.5290 -0.1066
 3244SOL    HW121365   4.733   1.135   5.314  0.2268 -0.0386 -2.7885
 3244SOL    HW221366   0.126   1.098   5.378  0.0456 -0.1035  0.1860
 3245SOL     OW21367   0.721   0.322   4.693  0.5863 -0.0654  0.5741
 3245SOL    HW121368   0.745   0.236   4.658 -1.8007 -0.5943  0.2406
 3245SOL    HW221369   0.749   0.383   4.626  0.9959 -0.4368  0.4115
 3246SOL     OW21370   4.078   0.361   9.475  0.1367 -1.0658  0.1221
 3246SOL    HW121371   4.096   0.381   9.567 -1.4124  0.0125  0.1867
 3246SOL    HW221372   4.133   0.286   9.453  1.8397  0.8758 -2.2236
 3247SOL     OW21373   0.049   3.680   7.793  0.1692  0.1841  0.1426
 3247SOL    HW121374   0.093   3.731   7.861  0.7188 -0.5171  0.3070
 3247SOL    HW221375   0.020   3.758   7.745 -2.3159 -0.9464 -0.2032
 3248SOL     OW21376   1.814   3.552   3.754  0.0745 -0.2446 -0.1863
 3248SOL    HW121377   1.750   3.524   3.820 -0.5639 -0.2254 -0.8039
 3248SOL    HW221378   1.757   3.602   3.696 -0.0562 -0.9223 -0.6471
 3249SOL     OW21379   3.345   3.410  15.817  0.1220 -0.3507  0.4425
 3249SOL    HW121380   3.252   3.408  15.837  0.0897  3.4469  0.8430
 3249SOL    HW221381   3.382   3.440  15.900  0.0818 -1.7449  0.9515
 3250SOL     OW21382   1.311   0.844   5.857 -0.6549  0.0986 -0.8580
 3250SOL    HW121383   1.390   0.884   5.822 -0.5262  1.5546  1.0969
 3250SOL    HW221384   1.318   0.845   5.953  0.6365 -2.6323 -0.9423
 3251SOL     OW21385   3.930   0.596   3.336 -0.2568 -0.2497 -0.2673
 3251SOL    HW121386   4.024   0.613   3.337 -0.2833 -0.1073 -0.2740
 3251SOL    HW221387   3.919   0.541   3.413 -0.4597 -1.0090 -0.8327
 3252SOL     OW21388   2.469   1.368   0.947  0.7883  0.0645  0.6000
 3252SOL    HW121389   2.460   1.319   0.865 -0.7899  1.0336  0.1803
 3252SOL    HW221390   2.478   1.299   1.012 -2.7234  0.5111  1.5627
 3253SOL     OW21391   0.526   1.591   7.797  0.3613 -0.0375  0.2508
 3253SOL    HW121392   0.524   1.675   7.842  0.4825 -0.8163  1.7092
 3253SOL    HW221393   0.592   1.558   7.858  0.2820  2.2463  1.5670
 3254SOL     OW21394   4.025   2.563   3.360  0.2908 -0.3265  0.1977
 3254SOL    HW121395   3.986   2.538   3.277  0.5597  1.3221 -0.4392
 3254SOL    HW221396   4.117   2.589   3.349 -0.0503  1.5055  1.4704
 3255SOL     OW21397   4.229   2.279   6.310 -0.0845 -0.1254  0.2215
 3255SOL    HW121398   4.287   2.252   6.381  0.4300  1.0146  0.2197
 3255SOL    HW221399   4.150   2.227   6.325  0.6891 -1.7321 -1.2423
 3256SOL     OW21400   1.046   1.283   8.920 -0.0891 -0.2445 -0.6510
 3256SOL    HW121401   1.082   1.355   8.970 -0.8384 -1.0582  1.0386
 3256SOL    HW221402   1.104   1.289   8.844 -0.9497 -1.3148 -1.4053
 3257SOL     OW21403   4.362   1.978   6.140 -0.8055 -0.3699 -0.4231
 3257SOL    HW121404   4.284   2.026   6.110 -0.7467  1.7016  2.7524
 3257SOL    HW221405   4.383   1.929   6.060  1.5932  1.1358 -0.7027
 3258SOL     OW21406   2.035   1.462   7.798  0.3149 -0.2017  0.2453
 3258SOL    HW121407   2.002   1.533   7.852 -2.0875 -2.6061  1.9590
 3258SOL    HW221408   1.969   1.448   7.730 -0.7658  1.6488  0.9139
 3259SOL     OW21409   2.363   2.757   6.627 -0.9479  0.4544  0.0852
 3259SOL    HW121410   2.452   2.788   6.611 -0.6150 -0.5657 -0.0359
 3259SOL    HW221411   2.314   2.785   6.549 -0.7608  1.0035  0.1665
 3260SOL     OW21412   3.114   0.552   6.420  0.3217 -0.1254  0.1980
 3260SOL    HW121413   3.202   0.550   6.457  0.0627 -1.6311  0.7493
 3260SOL    HW221414   3.105   0.466   6.380 -4.9685  0.6618 -0.2977
 3261SOL     OW21415   3.976   0.352  10.205 -0.1326  0.0789  0.2013
 3261SOL    HW121416   3.961   0.440  10.170  0.7248  0.6482  1.2654
 3261SOL    HW221417   3.989   0.306  10.122 -1.4116  1.9301 -1.0395
 3262SOL     OW21418   4.191   1.458   7.502  0.1008 -0.4648  0.3395
 3262SOL    HW121419   4.258   1.510   7.460 -0.3270 -0.3580 -0.2071
 3262SOL    HW221420   4.234   1.394   7.559 -0.1839  0.4380  1.5741
 3263SOL     OW21421   2.439   0.929  11.526 -0.6087 -0.1069 -0.1448
 3263SOL    HW121422   2.368   0.864  11.525 -2.3958  1.8127  0.2727
 3263SOL    HW221423   2.432   0.962  11.616  1.0647  0.1750 -0.1173
 3264SOL     OW21424   4.619   2.782   2.552 -0.0636 -0.0331  0.1106
 3264SOL    HW121425   4.661   2.800   2.467 -2.0957 -2.7232 -1.4727
 3264SOL    HW221426   4.590   2.869   2.577  0.2765  0.4321 -1.0903
 3265SOL     OW21427   0.725   4.191   7.226  0.2278 -0.1912  0.2537
 3265SOL    HW121428   0.637   4.170   7.194  0.9091  1.1572 -2.5374
 3265SOL    HW221429   0.731   4.280   7.191  0.0236 -0.2620  0.0332
 3266SOL     OW21430   0.174   4.458   7.710 -0.3614  0.3527 -0.3515
 3266SOL    HW121431   0.235   4.532   7.703  0.0887 -0.1193 -1.3462
 3266SOL    HW221432   0.134   4.479   7.795 -0.3259 -0.8404 -0.0436
 3267SOL     OW21433   4.365   1.723  13.517 -0.1778  0.3699  0.7597
 3267SOL    HW121434   4.391   1.711  13.426 -0.4734 -2.2672  1.0251
 3267SOL    HW221435   4.365   1.819  13.522  1.3809  0.3308  1.4391
 3268SOL     OW21436   1.903   0.694  13.306 -0.3253  1.0993 -0.1308
 3268SOL    HW121437   1.808   0.703  13.303 -0.4804 -1.0616 -1.8493
 3268SOL    HW221438   1.929   0.755  13.375  0.2610 -1.4933  1.9334
 3269SOL     OW21439   2.022   0.552   7.325 -0.5105 -0.2699  0.2754
 3269SOL    HW121440   2.072   0.506   7.393  0.7930 -0.5166 -0.8394
 3269SOL    HW221441   1.936   0.553   7.367  0.0275 -1.9484  1.4075
 3270SOL     OW21442   0.202   4.375   8.672  0.2908 -0.1224  0.1510
 3270SOL    HW121443   0.203   4.280   8.678 -1.9978 -0.0388  2.1823
 3270SOL    HW221444   0.295   4.395   8.669  0.5491 -0.9626  2.4677
 3271SOL     OW21445   3.378   0.883   4.178 -0.2392  0.1141  0.0626
 3271SOL    HW121446   3.323   0.830   4.120 -2.1321  1.7537  0.3556
 3271SOL    HW221447   3.466   0.848   4.164 -1.1013 -3.0052  2.5647
 3272SOL     OW21448   2.290   3.488   4.301  0.1749 -0.1155 -0.0241
 3272SOL    HW121449   2.312   3.395   4.298  1.9147  0.3755 -2.2053
 3272SOL    HW221450   2.261   3.506   4.211 -0.0527  0.4267  0.1584
 3273SOL     OW21451   1.356   1.348   5.651  0.4211  0.4230 -0.1122
 3273SOL    HW121452   1.413   1.323   5.579 -4.5189 -1.8760 -3.2362
 3273SOL    HW221453   1.379   1.284   5.719  0.8763  2.5126  1.6822
 3274SOL     OW21454   3.917   2.695   4.806 -0.0871  0.1431  0.2510
 3274SOL    HW121455   3.903   2.692   4.711  2.7640  0.5569 -0.1818
 3274SOL    HW221456   3.999   2.646   4.806  1.1303  2.1790  0.3447
 3275SOL     OW21457   0.072   3.811  12.225  0.0217 -0.3761 -0.3686
 3275SOL    HW121458   0.143   3.857  12.269 -0.6466 -0.1131  0.4395
 3275SOL    HW221459   0.097   3.823  12.133  0.2332  0.8702 -0.1478
 3276SOL     OW21460   2.710   0.128  12.753  0.5400  0.1365 -0.1282
 3276SOL    HW121461   2.755   0.166  12.828 -0.8561 -0.3468  0.9461
 3276SOL    HW221462   2.664   0.204  12.716  1.1514  0.0711 -1.0117
 3277SOL     OW21463   3.655   2.840   7.353 -0.4262 -0.2081 -0.2672
 3277SOL    HW121464   3.640   2.916   7.410 -0.6888  1.1407 -2.1139
 3277SOL    HW221465   3.719   2.876   7.291 -0.2331  0.2607  0.2106
 3278SOL     OW21466   4.592   4.192   1.964 -0.0241 -0.2209 -0.2506
 3278SOL    HW121467   4.636   4.255   2.021 -2.2470  0.2402  0.9466
 3278SOL    HW221468   4.505   4.196   2.004  0.9742 -2.8064  2.1195
 3279SOL     OW21469   2.976   3.671  12.487 -0.7865 -0.0056 -0.4325
 3279SOL    HW121470   2.926   3.676  12.569 -0.1136  0.9612 -0.0855
 3279SOL    HW221471   3.059   3.695  12.528 -1.5322 -1.3276  1.8924
 3280SOL     OW21472   0.404   2.701   3.965  0.5848 -0.2344  0.0526
 3280SOL    HW121473   0.483   2.729   4.011 -0.5481  1.0601  1.2330
 3280SOL    HW221474   0.411   2.748   3.882  0.5978 -0.0005  0.1862
 3281SOL     OW21475   2.332   2.250   8.028 -0.2835  0.2322 -0.7254
 3281SOL    HW121476   2.375   2.297   7.956  0.8795 -1.7106 -1.2901
 3281SOL    HW221477   2.401   2.245   8.094  0.3062 -4.2776 -1.7312
 3282SOL     OW21478   3.859   4.445  10.027 -0.0857 -0.8181  0.0954
 3282SOL    HW121479   3.787   4.498  10.059  0.7009  1.3381 -1.6550
 3282SOL    HW221480   3.880   4.387  10.100  1.7203 -0.8941 -0.4623
 3283SOL     OW21481   2.559   2.936   9.076 -0.7309 -0.1204  0.3592
 3283SOL    HW121482   2.513   2.916   9.158 -2.6450 -0.8264 -0.8992
 3283SOL    HW221483   2.486   2.952   9.017  0.1794  0.6969 -0.5425
 3284SOL     OW21484   0.830   3.037  13.673 -0.1208 -0.8177 -0.1041
 3284SOL    HW121485   0.819   3.038  13.768 -2.3552  4.0686 -0.4022
 3284SOL    HW221486   0.869   3.123  13.658 -4.4795  0.7081 -2.6967
 3285SOL     OW21487   4.151   2.036   0.970  0.3200  0.3665 -0.0379
 3285SOL    HW121488   4.229   1.985   0.993 -0.2162 -1.1673 -1.6484
 3285SOL    HW221489   4.180   2.089   0.895  0.8751  1.9371  1.2719
 3286SOL     OW21490   3.700   0.414  10.518 -0.2667  0.8582  0.3085
 3286SOL    HW121491   3.733   0.360  10.446 -0.8758 -1.2094  1.5917
 3286SOL    HW221492   3.730   0.371  10.598 -2.0653 -0.3903  0.3042
 3287SOL     OW21493   3.868   4.338   4.166 -0.1328 -0.6817 -0.0441
 3287SOL    HW121494   3.859   4.289   4.248  2.3039  1.0707  1.2918
 3287SOL    HW221495   3.959   4.368   4.165  0.5519 -2.5571  3.2795
 3288SOL     OW21496   2.829   0.999   8.128 -0.1428  0.3935 -0.2976
 3288SOL    HW121497   2.736   0.996   8.150 -0.2301 -1.2320 -0.9097
 3288SOL    HW221498   2.838   1.095   8.126  1.4859  0.2855  1.5201
 3289SOL     OW21499   4.018   1.287   1.784 -0.0557  0.3795  0.1589
 3289SOL    HW121500   3.925   1.295   1.808  0.4597 -2.0258  2.9000
 3289SOL    HW221501   4.005   1.215   1.723  0.1462 -0.9704  1.7028
 3290SOL     OW21502   1.280   1.214   6.399 -0.0067  0.2428  0.4416
 3290SOL    HW121503   1.376   1.219   6.392 -0.0232 -0.1198 -0.0156
 3290SOL    HW221504   1.250   1.268   6.326 -1.0110  0.9690  1.3913
 3291SOL     OW21505   2.122   2.241   8.915  0.0818  0.0379 -0.2144
 3291SOL    HW121506   2.132   2.210   9.005  1.8946  0.9682 -0.0921
 3291SOL    HW221507   2.049   2.300   8.932  0.3788  0.2518  0.3152
 3292SOL     OW21508   2.221   0.489   6.578  0.2202 -0.0757  0.0572
 3292SOL    HW121509   2.134   0.476   6.542 -0.1669 -4.0148  2.4332
 3292SOL    HW221510   2.255   0.529   6.498 -2.5774 -0.3121 -1.2220
 3293SOL     OW21511   2.959   1.417   7.284  0.2689  0.0668  0.7666
 3293SOL    HW121512   2.870   1.405   7.319  0.1983  0.0279  0.5689
 3293SOL    HW221513   2.972   1.346   7.222 -1.1594  0.1309  0.3929
 3294SOL     OW21514   1.680   3.185  14.973  0.1132 -0.0758 -0.9640
 3294SOL    HW121515   1.714   3.273  14.991  3.7204 -1.0815 -2.9443
 3294SOL    HW221516   1.643   3.207  14.888 -0.4102 -2.1272 -1.2575
 3295SOL     OW21517   1.290   2.226   5.965  0.3307 -0.0935  0.2938
 3295SOL    HW121518   1.265   2.299   6.023 -0.0289  0.0162 -0.0008
 3295SOL    HW221519   1.368   2.201   6.015  1.0851  2.2473  0.3219
 3296SOL     OW21520   2.021   3.004   2.910 -0.0274  0.6144 -0.4200
 3296SOL    HW121521   2.001   2.962   2.993  2.1747  0.7884  0.1942
 3296SOL    HW221522   1.937   3.048   2.897 -0.4352  1.5005  5.1189
 3297SOL     OW21523   1.785   4.542   1.789 -0.0252 -0.2750  0.0243
 3297SOL    HW121524   1.740   4.460   1.765 -1.9147  0.3610  1.4469
 3297SOL    HW221525   1.709   4.597   1.803 -1.2714 -0.8700 -4.3856
 3298SOL     OW21526   1.597   1.773  10.663 -0.3537  0.6639  0.1755
 3298SOL    HW121527   1.545   1.738  10.735 -0.6336 -1.5656 -1.1323
 3298SOL    HW221528   1.616   1.865  10.685 -0.9304  0.4892  1.3649
 3299SOL     OW21529   0.877   2.280   7.726 -0.6510 -0.2852  0.7622
 3299SOL    HW121530   0.907   2.342   7.792  1.8706 -0.4977 -0.1585
 3299SOL    HW221531   0.940   2.311   7.661 -2.5751 -0.4617 -1.1777
 3300SOL     OW21532   3.220   1.875  14.796  0.1366  0.5914  0.1380
 3300SOL    HW121533   3.266   1.958  14.785  1.0530  0.2741  1.6479
 3300SOL    HW221534   3.147   1.901  14.740  0.3773  2.0041  0.4894
 3301SOL     OW21535   0.888   1.444  11.033  0.0525  0.4438  0.2048
 3301SOL    HW121536   0.948   1.388  11.083 -0.7711 -0.6961 -0.0655
 3301SOL    HW221537   0.842   1.372  10.989 -1.3509  0.8825  0.9845
 3302SOL     OW21538   2.060   4.151   7.310 -0.4024  0.0063  0.3729
 3302SOL    HW121539   2.009   4.228   7.335  0.4096  1.4075 -2.2726
 3302SOL    HW221540   2.128   4.180   7.249  1.4961 -3.5730  0.7935
 3303SOL     OW21541   2.192   1.757  13.445 -0.1231  0.1088  0.2789
 3303SOL    HW121542   2.122   1.742  13.509 -0.6255 -1.7370 -0.7000
 3303SOL    HW221543   2.168   1.844  13.414 -2.8606 -0.4854  0.7045
 3304SOL     OW21544   2.271   2.532  11.780  0.2495 -0.3825 -0.3332
 3304SOL    HW121545   2.295   2.596  11.846  0.5687 -0.8347 -0.0091
 3304SOL    HW221546   2.353   2.515  11.734  0.8281  1.2245  0.1297
 3305SOL     OW21547   1.867   1.925   2.627 -0.1039  0.1438 -0.3792
 3305SOL    HW121548   1.794   1.988   2.626  1.5060  1.9729 -1.8740
 3305SOL    HW221549   1.819   1.855   2.672 -2.4731  1.8410 -0.2233
 3306SOL     OW21550   0.008   0.254   2.737 -0.6439 -0.1071 -0.5744
 3306SOL    HW121551   0.038   0.285   2.823 -0.6434  0.3659 -0.7469
 3306SOL    HW221552   4.667   0.313   2.739 -0.9379 -0.4710 -0.8654
 3307SOL     OW21553   1.831   3.153   2.612 -0.6061 -0.0717 -0.1859
 3307SOL    HW121554   1.829   3.194   2.699  1.7526  2.6067 -1.4198
 3307SOL    HW221555   1.773   3.213   2.566  2.4055  1.9008 -1.4416
 3308SOL     OW21556   2.996   4.497   1.474 -0.3242 -0.2059 -0.6269
 3308SOL    HW121557   2.925   4.467   1.531 -0.0933  0.4065 -0.0185
 3308SOL    HW221558   3.059   4.426   1.484  0.7739  0.7453 -0.8318
 3309SOL     OW21559   3.155   4.132   9.673 -0.3627 -0.0076 -0.2367
 3309SOL    HW121560   3.064   4.154   9.655  0.7785  4.1744 -0.9283
 3309SOL    HW221561   3.185   4.117   9.583 -0.4128  0.7966 -0.3840
 3310SOL     OW21562   1.111   0.742   8.231  0.0698 -0.1317 -0.4591
 3310SOL    HW121563   1.173   0.811   8.206  0.3147 -0.6038 -1.1522
 3310SOL    HW221564   1.116   0.760   8.325  0.9680 -0.1879 -0.5024
 3311SOL     OW21565   4.502   3.059   6.777 -0.0546  0.5246  0.3508
 3311SOL    HW121566   4.439   2.988   6.774  0.0414  0.5089 -1.3873
 3311SOL    HW221567   4.446   3.133   6.801 -1.7457 -0.8155  0.5470
 3312SOL     OW21568   2.332   2.297   2.934 -0.4256 -0.3300  0.8070
 3312SOL    HW121569   2.345   2.330   2.845 -1.5153 -0.4581  0.6049
 3312SOL    HW221570   2.346   2.384   2.972  0.5482  0.7737 -2.0542
 3313SOL     OW21571   1.990   2.416   1.449  0.4128  0.7536  0.0384
 3313SOL    HW121572   1.953   2.443   1.533  2.0315  2.6365  0.1435
 3313SOL    HW221573   2.064   2.476   1.438 -0.7434  1.9822 -0.9641
 3314SOL     OW21574   1.430   0.315  16.359  0.1721 -0.1815 -0.1657
 3314SOL    HW121575   1.486   0.367  16.301  2.2562 -0.1843  1.8593
 3314SOL    HW221576   1.371   0.387  16.381  0.3323  0.1415 -0.7738
 3315SOL     OW21577   0.511   2.130   5.401  0.1522 -0.3768  0.0246
 3315SOL    HW121578   0.593   2.159   5.441 -0.7098  1.0561  0.7763
 3315SOL    HW221579   0.494   2.046   5.444 -0.8654 -0.4566 -0.5419
 3316SOL     OW21580   1.603   3.119   1.270 -0.0439  0.0526  0.4550
 3316SOL    HW121581   1.681   3.143   1.221 -1.4711  2.4407 -0.6264
 3316SOL    HW221582   1.548   3.092   1.196  0.3283  0.0484  0.1813
 3317SOL     OW21583   2.946   0.546   8.760  0.6573 -0.4686 -0.9912
 3317SOL    HW121584   2.912   0.483   8.823  0.9094 -0.8109 -1.1976
 3317SOL    HW221585   2.917   0.629   8.799 -1.5675 -1.0039 -1.5467
 3318SOL     OW21586   0.186   3.424   3.610 -0.0368 -0.6191 -0.0926
 3318SOL    HW121587   0.117   3.488   3.592  0.7641  0.3123  0.0910
 3318SOL    HW221588   0.173   3.401   3.702  1.2288  0.1245  0.2796
 3319SOL     OW21589   4.589   2.684   1.505 -0.2121 -0.3833 -0.0390
 3319SOL    HW121590   4.597   2.590   1.521 -0.3395 -0.1801  1.1830
 3319SOL    HW221591   4.592   2.725   1.591  1.2499 -0.8390  0.1307
 3320SOL     OW21592   3.226   2.260  16.775 -0.1806  0.2213 -0.4006
 3320SOL    HW121593   3.241   2.176  16.733  0.7228 -0.6430  1.6487
 3320SOL    HW221594   3.143   2.288  16.737 -0.6240  0.6569  0.8669
 3321SOL     OW21595   1.092   2.157  13.137 -0.5945  0.3016 -0.0921
 3321SOL    HW121596   1.102   2.252  13.133  1.1514  0.2038  1.9243
 3321SOL    HW221597   1.180   2.136  13.106  0.3720  0.5837  2.4223
 3322SOL     OW21598   1.252   3.062   2.187  0.0861 -0.5046 -0.0339
 3322SOL    HW121599   1.335   3.096   2.152 -0.4021 -0.4426 -1.1318
 3322SOL    HW221600   1.178   3.093   2.136  1.2596  1.0096 -0.8253
 3323SOL     OW21601   1.751   1.112  13.381 -0.6772 -0.0921  0.2898
 3323SOL    HW121602   1.812   1.146  13.316 -1.3034  2.5832  1.0846
 3323SOL    HW221603   1.672   1.153  13.345 -0.3436 -2.6837 -3.3460
 3324SOL     OW21604   3.690   4.652   8.599  0.1207  0.1397  0.3305
 3324SOL    HW121605   3.693   4.603   8.681 -0.1254 -1.5572 -0.6743
 3324SOL    HW221606   3.778   4.688   8.607  0.9432 -1.5106 -1.4448
 3325SOL     OW21607   2.920   0.782  16.463  0.2194  0.4942 -0.5625
 3325SOL    HW121608   2.862   0.709  16.488 -0.4409  1.8127  1.7965
 3325SOL    HW221609   2.990   0.784  16.528  0.3093 -1.0549 -0.5979
 3326SOL     OW21610   0.372   3.379   4.837  0.4218 -0.0949 -0.3271
 3326SOL    HW121611   0.293   3.433   4.846  0.5918  0.2437 -0.8509
 3326SOL    HW221612   0.331   3.295   4.858  0.0369  0.8010  2.5108
 3327SOL     OW21613   3.446   4.092   2.606  0.0373 -0.0816  0.0090
 3327SOL    HW121614   3.370   4.052   2.564  0.6836  0.9500 -2.1117
 3327SOL    HW221615   3.470   4.017   2.660  2.0674  0.8866  0.4446
 3328SOL     OW21616   2.975   1.420   5.842 -0.2700  0.2878 -0.3757
 3328SOL    HW121617   2.952   1.328   5.830  0.8778 -0.1550  0.7364
 3328SOL    HW221618   2.925   1.453   5.768  0.1193 -0.6456 -1.0580
 3329SOL     OW21619   2.862   1.128  16.949  0.4787 -0.4686 -0.5170
 3329SOL    HW121620   2.824   1.145  16.863 -0.2172 -1.3341 -0.3801
 3329SOL    HW221621   2.888   1.038  16.928 -1.6842 -1.3024  0.3215
 3330SOL     OW21622   0.016   0.134  12.431 -0.3362  0.0127 -0.3246
 3330SOL    HW121623   4.661   0.153  12.404  0.1100 -0.5152 -2.1263
 3330SOL    HW221624   0.067   0.211  12.404  1.2305 -0.4202  1.4160
 3331SOL     OW21625   3.986   0.680  14.931 -0.1731  0.3500 -0.2120
 3331SOL    HW121626   4.055   0.747  14.934 -0.7085  0.8024  1.6812
 3331SOL    HW221627   3.915   0.729  14.972 -0.0158  0.7679 -0.4266
 3332SOL     OW21628   1.469   3.069  14.028 -0.0506  0.3312 -0.1614
 3332SOL    HW121629   1.472   3.071  13.932 -0.5070 -2.6609 -0.2548
 3332SOL    HW221630   1.406   3.137  14.052  0.4574  1.0234 -0.8149
 3333SOL     OW21631   1.362   1.543  10.135  0.3928 -0.4529  0.5566
 3333SOL    HW121632   1.358   1.471  10.073 -2.5333  1.0347 -0.9761
 3333SOL    HW221633   1.313   1.501  10.206 -3.0122 -0.2985 -1.7084
 3334SOL     OW21634   1.447   1.989   2.771  0.1552  0.1534  0.4317
 3334SOL    HW121635   1.493   2.036   2.701  0.5748  1.6066  1.6901
 3334SOL    HW221636   1.356   2.007   2.746 -0.8077 -0.7614  3.3762
 3335SOL     OW21637   4.302   4.514   8.712  0.0442  0.1677  0.6702
 3335SOL    HW121638   4.315   4.459   8.789  1.5484 -0.4863 -0.0446
 3335SOL    HW221639   4.222   4.477   8.675  0.2677 -0.7830  1.1496
 3336SOL     OW21640   1.684   4.108   7.384 -0.1013 -0.4328  0.2598
 3336SOL    HW121641   1.728   4.023   7.379  0.5915 -0.0511 -0.1394
 3336SOL    HW221642   1.590   4.098   7.371 -0.1054  1.0107 -0.7814
 3337SOL     OW21643   2.004   1.214  12.132 -0.1395  0.1027 -0.7809
 3337SOL    HW121644   2.071   1.170  12.079 -0.7378  1.0332 -2.3330
 3337SOL    HW221645   1.935   1.155  12.103  0.0371 -0.4105 -0.1479
 3338SOL     OW21646   0.208   0.619   5.870 -0.2876 -0.0531  0.1293
 3338SOL    HW121647   0.172   0.561   5.937  0.1797 -0.6708 -0.1545
 3338SOL    HW221648   0.137   0.624   5.807 -1.7795  0.4690  1.8608
 3339SOL     OW21649   4.018   2.485  16.704  0.2523  0.0119 -0.0820
 3339SOL    HW121650   3.928   2.513  16.720  0.6787  1.8866 -0.8508
 3339SOL    HW221651   4.009   2.406  16.757 -2.8233  0.9896  0.8671
 3340SOL     OW21652   1.310   1.241   7.121  0.3082  0.5297  0.7092
 3340SOL    HW121653   1.361   1.262   7.199  1.5702 -0.9752  0.2852
 3340SOL    HW221654   1.230   1.293   7.130  0.6086  1.1908 -0.3397
 3341SOL     OW21655   4.703   2.429  12.921 -0.4801  0.1669 -0.1071
 3341SOL    HW121656   4.632   2.379  12.963 -0.0854  2.3911  3.2639
 3341SOL    HW221657   4.700   2.380  12.839  1.4828 -1.0247  0.5309
 3342SOL     OW21658   1.980   2.978   7.231  0.4915 -0.0885 -0.1168
 3342SOL    HW121659   2.046   2.947   7.169  0.3568 -4.1027  1.8207
 3342SOL    HW221660   1.975   3.071   7.209  0.4257 -0.2507 -0.7955
 3343SOL     OW21661   3.428   2.114   8.966  0.0568 -0.3607  0.3416
 3343SOL    HW121662   3.468   2.030   8.943  1.1041  0.1888  0.1815
 3343SOL    HW221663   3.360   2.123   8.899  0.4818  0.7560  0.0549
 3344SOL     OW21664   3.519   1.512   3.865 -0.1781  0.1767  0.1442
 3344SOL    HW121665   3.467   1.433   3.874  0.8376 -0.2988  1.8069
 3344SOL    HW221666   3.537   1.488   3.774  1.3624  0.7732  0.2725
 3345SOL     OW21667   0.326   3.053   8.634 -0.1455  0.3811  0.1395
 3345SOL    HW121668   0.263   3.113   8.592  0.0914  1.5727  1.4858
 3345SOL    HW221669   0.411   3.097   8.626 -0.2270  0.2048 -1.7924
 3346SOL     OW21670   1.552   1.642   5.861  0.0836  0.6411  0.3252
 3346SOL    HW121671   1.622   1.708   5.863  1.7135 -1.2020  3.2822
 3346SOL    HW221672   1.515   1.652   5.948 -1.1430  0.4006 -0.1706
 3347SOL     OW21673   0.899   2.988  16.456  0.4410 -0.1651  0.5753
 3347SOL    HW121674   0.817   2.941  16.440  0.6490 -0.3832  0.1842
 3347SOL    HW221675   0.863   3.072  16.426 -1.1875 -0.6093  1.2601
 3348SOL     OW21676   4.395   2.698   5.227 -0.1541  0.1276 -0.3787
 3348SOL    HW121677   4.323   2.670   5.170 -1.8757  4.0852 -0.1424
 3348SOL    HW221678   4.387   2.794   5.228 -2.4207 -0.0774  0.8276
 3349SOL     OW21679   2.318   4.110  13.602 -0.3390 -0.0849  0.4825
 3349SOL    HW121680   2.379   4.149  13.539  1.6890 -0.9162  1.9550
 3349SOL    HW221681   2.250   4.177  13.599 -0.0561  0.2845  2.3897
 3350SOL     OW21682   1.989   1.663  12.772  0.0407 -0.2720 -0.1750
 3350SOL    HW121683   1.940   1.599  12.720  0.9044  1.2387 -2.8176
 3350SOL    HW221684   2.050   1.709  12.714 -0.7273  0.2999 -0.5336
 3351SOL     OW21685   2.944   4.377  10.550 -0.0652 -0.5115 -0.0244
 3351SOL    HW121686   2.981   4.289  10.545  1.8302  0.3473 -0.9268
 3351SOL    HW221687   2.918   4.391  10.641  1.3777  1.0938  0.1277
 3352SOL     OW21688   1.313   0.143   1.811 -0.3212 -0.0395 -0.0380
 3352SOL    HW121689   1.228   0.179   1.785  0.2610  1.3878  0.0194
 3352SOL    HW221690   1.369   0.173   1.739  0.1311  2.9244  1.5558
 3353SOL     OW21691   4.055   3.286   6.663 -0.1456 -0.0710  0.3414
 3353SOL    HW121692   4.052   3.355   6.597  1.5106 -1.2782 -0.9692
 3353SOL    HW221693   4.092   3.336   6.736 -1.1729 -0.2727  1.0073
 3354SOL     OW21694   2.688   1.204   4.900  0.0564  0.3263 -0.0142
 3354SOL    HW121695   2.650   1.169   4.820 -0.3926  0.4820  0.1296
 3354SOL    HW221696   2.751   1.139   4.933  2.2719  2.6169  0.2697
 3355SOL     OW21697   2.997   1.246   5.457 -0.7065 -0.1725 -0.2625
 3355SOL    HW121698   3.066   1.311   5.472 -1.3655  0.1059  1.4659
 3355SOL    HW221699   2.917   1.296   5.472 -1.7053 -1.3349 -1.7138
 3356SOL     OW21700   0.601   1.924   6.969 -0.8267 -0.9265  0.3825
 3356SOL    HW121701   0.587   1.881   6.884  1.9198  2.1125 -1.6061
 3356SOL    HW221702   0.695   1.937   6.981 -0.4972 -1.3188 -1.7638
 3357SOL     OW21703   3.408   2.890   3.476 -0.3261  0.7737  0.5523
 3357SOL    HW121704   3.497   2.920   3.495  0.7666 -1.2602 -1.2662
 3357SOL    HW221705   3.405   2.806   3.522 -0.7921 -0.1265 -1.1162
 3358SOL     OW21706   0.118   0.393  16.912 -0.2395 -0.3055  0.0911
 3358SOL    HW121707   0.172   0.315  16.926  1.4976  1.2154  1.9145
 3358SOL    HW221708   0.176   0.461  16.946  1.6190 -1.6084 -0.3881
 3359SOL     OW21709   1.342   4.557   5.233 -0.1405  0.3578 -0.2624
 3359SOL    HW121710   1.368   4.489   5.296 -1.6028 -0.3993 -0.4893
 3359SOL    HW221711   1.257   4.576   5.273 -0.5465  0.9831 -1.4554
 3360SOL     OW21712   4.469   1.463   4.491 -0.9784  0.0679 -0.0683
 3360SOL    HW121713   4.508   1.491   4.574  2.1031 -1.9095 -0.8307
 3360SOL    HW221714   4.511   1.529   4.436  0.0592 -0.6904 -0.2020
 3361SOL     OW21715   2.301   4.022   2.821  0.4236  0.0234  0.1893
 3361SOL    HW121716   2.340   3.986   2.741  0.5548  1.1028 -0.2310
 3361SOL    HW221717   2.236   3.954   2.835 -1.4171  1.7374 -0.1042
 3362SOL     OW21718   0.298   1.092   5.525  0.0006 -0.1156  0.4824
 3362SOL    HW121719   0.229   1.087   5.591  1.2263 -0.0068  1.7621
 3362SOL    HW221720   0.339   1.173   5.555 -0.0187  0.3330 -0.6873
 3363SOL     OW21721   3.581   0.197  12.413  0.2895  0.1012  0.4065
 3363SOL    HW121722   3.625   0.126  12.460  1.1883 -1.8523 -3.3815
 3363SOL    HW221723   3.652   0.262  12.415 -0.4140  0.9022 -0.8913
 3364SOL     OW21724   2.805   2.344   4.276 -0.0975 -0.2171 -0.0067
 3364SOL    HW121725   2.757   2.373   4.353  1.2902  0.8029  0.4687
 3364SOL    HW221726   2.832   2.258   4.307  0.4445  0.4472  1.3282
 3365SOL     OW21727   3.366   1.391   6.590  0.2146  0.2351 -0.5193
 3365SOL    HW121728   3.390   1.360   6.677  0.7428  0.9282 -0.4117
 3365SOL    HW221729   3.417   1.473   6.590  2.4901 -1.1945 -0.4126
 3366SOL     OW21730   0.037   1.790  12.674 -0.0788  0.4279 -0.4143
 3366SOL    HW121731   4.688   1.754  12.703  1.3033 -1.8193  0.7334
 3366SOL    HW221732   0.088   1.785  12.754 -0.1221 -2.3253 -0.5459
 3367SOL     OW21733   2.660   2.168  16.699  0.0333 -0.1025 -0.0848
 3367SOL    HW121734   2.584   2.124  16.739  1.5282 -1.5209  1.2130
 3367SOL    HW221735   2.664   2.129  16.612  0.1389 -3.1438  1.2622
 3368SOL     OW21736   2.861   1.854  16.550  0.6947 -0.4025  0.9278
 3368SOL    HW121737   2.821   1.809  16.476  1.3905  2.0194 -0.9198
 3368SOL    HW221738   2.954   1.849  16.528  0.7222 -0.2557  1.0156
 3369SOL     OW21739   0.613   2.288   8.090 -0.7998  0.6515  0.0159
 3369SOL    HW121740   0.609   2.264   7.997 -2.7075 -1.5048  0.6754
 3369SOL    HW221741   0.523   2.316   8.105 -0.7583  1.2799 -0.8589
 3370SOL     OW21742   3.059   3.797   7.335  0.1918 -0.1669 -0.2051
 3370SOL    HW121743   3.143   3.823   7.297  1.4786 -2.5080  1.0292
 3370SOL    HW221744   3.074   3.851   7.412 -0.0297  0.6745 -0.7564
 3371SOL     OW21745   3.338   1.105   4.725 -0.3820 -0.3833  0.3154
 3371SOL    HW121746   3.288   1.085   4.646  0.1010  2.2397 -0.6573
 3371SOL    HW221747   3.317   1.198   4.738 -1.7481 -0.9020  1.8636
 3372SOL     OW21748   4.236   1.910   8.238  0.1494  0.3199 -0.0630
 3372SOL    HW121749   4.256   1.968   8.165  2.2786 -1.7152 -1.0971
 3372SOL    HW221750   4.168   1.858   8.194  0.7268 -1.3221  0.9548
 3373SOL     OW21751   1.063   3.912   6.825 -0.9358 -0.0678 -0.1643
 3373SOL    HW121752   1.143   3.859   6.832 -2.1037 -1.6312  1.3638
 3373SOL    HW221753   1.000   3.841   6.835 -0.8186 -0.4431 -2.2146
 3374SOL     OW21754   1.440   0.656   3.977 -0.3454  0.1415  0.2164
 3374SOL    HW121755   1.505   0.606   3.927  0.1168 -0.1320  1.0965
 3374SOL    HW221756   1.414   0.728   3.919  3.6892  1.1114 -0.4044
 3375SOL     OW21757   3.088   3.817  15.572  0.3572  0.7139  0.3842
 3375SOL    HW121758   3.179   3.841  15.554  0.5940 -0.7214 -0.3484
 3375SOL    HW221759   3.051   3.856  15.493  1.9538  3.0758  0.7863
 3376SOL     OW21760   2.230   1.776   0.966  0.2059  0.1940  0.7142
 3376SOL    HW121761   2.220   1.683   0.944  0.3789  0.1149  0.9708
 3376SOL    HW221762   2.317   1.780   1.004  0.2994 -0.1587  0.5379
 3377SOL     OW21763   4.133   2.974   5.913 -0.3455  0.1394  0.0357
 3377SOL    HW121764   4.072   2.979   5.840 -2.3191 -0.0598  1.6872
 3377SOL    HW221765   4.082   3.001   5.989 -1.0295  1.8419 -1.0286
 3378SOL     OW21766   1.814   4.702   4.231  0.0346 -0.4415  0.3029
 3378SOL    HW121767   1.745   4.637   4.247 -0.7233 -0.0588 -1.4304
 3378SOL    HW221768   1.868   4.653   4.170 -1.0530  0.4449 -1.3958
 3379SOL     OW21769   2.724   0.147  17.249 -0.4797  0.0583  0.1282
 3379SOL    HW121770   2.781   0.071  17.236 -0.0501  0.1993  1.2057
 3379SOL    HW221771   2.783   0.218  17.225 -0.1773 -0.4058 -0.5006
 3380SOL     OW21772   1.317   3.109   8.396  0.1466 -0.1322  0.4523
 3380SOL    HW121773   1.310   3.026   8.350  0.5931 -1.2226  2.3313
 3380SOL    HW221774   1.303   3.088   8.489  0.5109 -2.7641 -0.0932
 3381SOL     OW21775   3.246   1.675   4.792 -0.4865 -0.1962  0.2087
 3381SOL    HW121776   3.237   1.608   4.860 -1.1117  0.7758  1.0738
 3381SOL    HW221777   3.340   1.665   4.783 -0.3418  1.2666  0.0776
 3382SOL     OW21778   0.883   3.736   1.362  0.3028 -0.2134  0.2311
 3382SOL    HW121779   0.796   3.733   1.402  0.4407  0.9639  0.6092
 3382SOL    HW221780   0.945   3.683   1.413  1.4535  2.0232  1.1371
 3383SOL     OW21781   3.637   0.608   8.782 -0.0588 -0.3597 -0.0060
 3383SOL    HW121782   3.560   0.557   8.755  1.0310 -2.5821  1.0817
 3383SOL    HW221783   3.704   0.575   8.722  0.5545 -0.1185  0.5478
 3384SOL     OW21784   0.112   2.895  10.511 -0.1797 -0.5888 -0.4796
 3384SOL    HW121785   0.069   2.932  10.588  2.1988  0.9779  0.1001
 3384SOL    HW221786   0.097   2.802  10.527 -2.4138 -0.2211 -0.4430
 3385SOL     OW21787   2.772   2.806   6.340  0.0590  0.3053 -0.0952
 3385SOL    HW121788   2.680   2.834   6.346 -1.6570 -4.9483 -2.1695
 3385SOL    HW221789   2.762   2.767   6.253 -2.8493  2.5619 -0.7825
 3386SOL     OW21790   3.919   1.487  13.002 -0.2296  0.0868  0.4761
 3386SOL    HW121791   3.938   1.580  12.989 -1.6696  0.4263  0.7260
 3386SOL    HW221792   3.993   1.461  13.056  0.0729 -0.4242 -0.1841
 3387SOL     OW21793   3.113   2.742  13.644 -0.1171  0.2287 -0.0436
 3387SOL    HW121794   3.027   2.708  13.621  0.2789 -0.0443 -1.0988
 3387SOL    HW221795   3.098   2.836  13.660  1.5071  0.4163  0.3554
 3388SOL     OW21796   1.232   4.654   2.382 -0.2339 -0.0694 -0.0692
 3388SOL    HW121797   1.269   4.710   2.450 -4.0003  2.3194 -0.0267
 3388SOL    HW221798   1.141   4.637   2.404 -0.5297 -0.2215 -1.3960
 3389SOL     OW21799   0.731   2.132  14.504 -0.2318 -0.1113 -0.2356
 3389SOL    HW121800   0.701   2.212  14.461  3.8080 -0.4954 -3.7159
 3389SOL    HW221801   0.650   2.100  14.545  1.3095 -1.6508  1.5986
 3390SOL     OW21802   0.574   2.613  16.269  0.4542 -0.9472 -0.1134
 3390SOL    HW121803   0.570   2.529  16.315 -0.3708 -0.0413  1.4878
 3390SOL    HW221804   0.511   2.603  16.197 -1.2561  1.6274  1.0378
 3391SOL     OW21805   1.212   3.412   7.811  1.2749 -0.1278 -0.2234
 3391SOL    HW121806   1.224   3.422   7.906  0.4161 -0.6575 -0.0597
 3391SOL    HW221807   1.261   3.487   7.778  1.8043 -0.2437  0.3002
 3392SOL     OW21808   4.676   1.798   1.501 -0.1384 -0.1503 -0.4957
 3392SOL    HW121809   4.688   1.883   1.458 -2.8626  0.7083  0.4244
 3392SOL    HW221810   4.614   1.757   1.440  0.6525 -0.6380 -0.9584
 3393SOL     OW21811   2.134   3.178   4.672 -0.2101 -0.4732  0.2890
 3393SOL    HW121812   2.054   3.215   4.708  0.9139  2.1960  0.0963
 3393SOL    HW221813   2.147   3.106   4.733  0.6350 -1.0676 -0.5978
 3394SOL     OW21814   2.146   1.382   6.637 -0.1383  0.4154  0.0113
 3394SOL    HW121815   2.131   1.298   6.594  0.8227 -0.3288  1.1038
 3394SOL    HW221816   2.124   1.446   6.570 -1.3067 -1.3982 -1.3025
 3395SOL     OW21817   4.045   1.255   1.393  0.3094  0.3480 -1.0116
 3395SOL    HW121818   4.080   1.177   1.350  2.9888 -0.0685  1.9301
 3395SOL    HW221819   3.963   1.217   1.425  1.3973 -0.4543  0.8321
 3396SOL     OW21820   1.964   1.050   3.472  0.5481  0.2521  0.5498
 3396SOL    HW121821   2.033   0.993   3.507 -0.3515 -0.4212  1.2119
 3396SOL    HW221822   2.014   1.094   3.403 -1.0173 -1.1604 -1.4532
 3397SOL     OW21823   2.448   2.935  14.588  0.6539 -0.1296  0.3376
 3397SOL    HW121824   2.426   2.881  14.512 -1.2836  0.0989  0.7461
 3397SOL    HW221825   2.544   2.938  14.579  0.7075 -1.4192  0.5291
 3398SOL     OW21826   0.809   3.967   1.960  0.0860  0.2209 -0.1140
 3398SOL    HW121827   0.895   3.994   1.990  0.5110  1.6411 -2.5951
 3398SOL    HW221828   0.806   4.028   1.886  0.1149 -2.1878 -2.1160
 3399SOL     OW21829   0.077   0.456  11.086  0.2614 -0.0139 -0.8136
 3399SOL    HW121830   0.056   0.457  10.993 -1.7659 -0.2565 -0.3652
 3399SOL    HW221831   0.126   0.374  11.091  0.5086  0.1733 -0.1098
 3400SOL     OW21832   3.274   1.354  10.852 -0.7581 -0.3946  0.0351
 3400SOL    HW121833   3.191   1.349  10.898 -1.3779 -1.2279 -1.1908
 3400SOL    HW221834   3.254   1.297  10.778  3.8170 -0.8704 -0.8169
 3401SOL     OW21835   1.003   4.465  16.021 -0.1740 -0.1238 -0.0998
 3401SOL    HW121836   1.079   4.494  15.971 -3.1179  1.7367 -3.5212
 3401SOL    HW221837   1.007   4.536  16.085 -2.6419  0.8167 -1.0010
 3402SOL     OW21838   4.474   2.729   4.513  0.4025  0.0140  0.2685
 3402SOL    HW121839   4.405   2.789   4.541  0.3051  1.5242 -3.1691
 3402SOL    HW221840   4.505   2.716   4.602  2.1371  0.4028 -0.2561
 3403SOL     OW21841   3.753   2.551   7.824  0.0699 -0.2102  0.4724
 3403SOL    HW121842   3.688   2.487   7.854 -0.2394 -0.6389 -1.0983
 3403SOL    HW221843   3.763   2.516   7.735  1.2557 -0.2316  0.6217
 3404SOL     OW21844   2.575   0.595   2.975 -0.3786 -0.0472 -0.0776
 3404SOL    HW121845   2.512   0.647   2.924  0.3531  0.9570  0.0386
 3404SOL    HW221846   2.563   0.644   3.056  0.1134 -0.2737  0.1320
 3405SOL     OW21847   1.522   2.299   7.202  0.8542 -0.1237  0.0924
 3405SOL    HW121848   1.470   2.369   7.241 -0.2949 -0.2719 -1.2006
 3405SOL    HW221849   1.612   2.305   7.237  0.7869 -2.9131  0.7310
 3406SOL     OW21850   0.315   1.606   6.226  0.4000  0.4643 -0.3844
 3406SOL    HW121851   0.366   1.687   6.222 -1.4380  1.5680 -1.2508
 3406SOL    HW221852   0.297   1.607   6.320  1.4966 -1.0805 -0.1610
 3407SOL     OW21853   3.154   4.025   9.135  0.0865 -0.3405 -0.1874
 3407SOL    HW121854   3.190   4.016   9.223  0.8628  0.5105 -0.4127
 3407SOL    HW221855   3.105   4.103   9.158 -1.1588 -0.9604 -0.7535
 3408SOL     OW21856   4.214   3.614   7.239  0.1113 -0.2002 -0.0969
 3408SOL    HW121857   4.265   3.647   7.313 -0.8771 -0.4636  0.7056
 3408SOL    HW221858   4.235   3.666   7.161  3.4544 -4.1472 -1.8255
 3409SOL     OW21859   3.053   2.918   4.903  0.2881 -0.2366  0.1613
 3409SOL    HW121860   2.982   2.979   4.881 -0.2774 -1.5652 -1.6945
 3409SOL    HW221861   3.067   2.879   4.817 -0.5895  0.1827 -0.1745
 3410SOL     OW21862   3.912   1.978  13.105  0.2849  0.6475  0.7090
 3410SOL    HW121863   3.825   2.016  13.090  1.1501  1.5328 -2.0751
 3410SOL    HW221864   3.952   2.041  13.165 -0.5451  1.5794  0.2841
 3411SOL     OW21865   2.172   1.129   5.955  0.0671  0.2633  0.2924
 3411SOL    HW121866   2.099   1.068   5.945 -0.2502  0.4817  1.2817
 3411SOL    HW221867   2.220   1.069   6.013 -1.3595 -2.1984 -1.0673
 3412SOL     OW21868   2.713   3.440  11.622  0.7926  0.3005  0.1769
 3412SOL    HW121869   2.709   3.527  11.661  1.0658  0.2069  0.4124
 3412SOL    HW221870   2.662   3.393  11.688  2.4426 -1.5838  0.1106
 3413SOL     OW21871   1.221   0.505  16.350  0.4706  0.2015 -0.2855
 3413SOL    HW121872   1.153   0.545  16.296 -0.8928 -0.8694  0.6212
 3413SOL    HW221873   1.225   0.573  16.417  0.3679 -0.1360  0.0625
 3414SOL     OW21874   2.359   0.044   9.598 -0.3031  0.4081  0.2341
 3414SOL    HW121875   2.355   0.117   9.660  0.6192  0.5022  0.1839
 3414SOL    HW221876   2.454   0.046   9.585 -0.5655  0.4143 -1.6218
 3415SOL     OW21877   1.114   2.708   5.691 -0.6151  0.1078  0.1474
 3415SOL    HW121878   1.179   2.705   5.761  1.2290  2.8617 -1.4761
 3415SOL    HW221879   1.172   2.660   5.631 -0.1762  1.4750 -0.5215
 3416SOL     OW21880   1.580   0.132   3.047  0.3381  0.7013  0.1875
 3416SOL    HW121881   1.638   0.193   3.003 -0.3364  0.9074 -0.4043
 3416SOL    HW221882   1.529   0.197   3.096  0.9038 -1.5883  3.8464
 3417SOL     OW21883   3.520   3.616   7.538  0.3008  0.3795 -0.5804
 3417SOL    HW121884   3.500   3.562   7.615 -3.1282 -0.0135 -1.7259
 3417SOL    HW221885   3.511   3.701   7.580  1.3262  0.6712 -0.9463
 3418SOL     OW21886   3.752   4.636   7.991  0.3916 -0.3820  0.1019
 3418SOL    HW121887   3.711   4.671   8.070 -0.4258 -0.6324 -0.2148
 3418SOL    HW221888   3.770   4.715   7.940  1.3330 -0.2639  0.6205
 3419SOL     OW21889   2.440   4.226   2.260  0.3926  0.6762  0.5534
 3419SOL    HW121890   2.349   4.239   2.288  0.0852 -0.7023  0.1929
 3419SOL    HW221891   2.440   4.131   2.256 -2.5119  0.7189 -0.7614
 3420SOL     OW21892   4.242   1.705   4.557  0.6824  0.7693  0.1075
 3420SOL    HW121893   4.195   1.622   4.561 -0.4322  1.3466 -0.9381
 3420SOL    HW221894   4.306   1.696   4.628  0.2800 -1.9124  0.1370
 3421SOL     OW21895   3.845   1.377   6.394 -0.3922  0.0929 -0.2051
 3421SOL    HW121896   3.788   1.430   6.338 -0.6022 -1.6071 -1.6037
 3421SOL    HW221897   3.793   1.375   6.474  1.2954  0.9278  0.9105
 3422SOL     OW21898   4.654   3.793   2.667  0.1771  0.6149  0.5678
 3422SOL    HW121899   4.594   3.753   2.605  0.5041 -1.2049  1.4145
 3422SOL    HW221900   4.605   3.857   2.719 -0.4161  0.9176 -0.3729
 3423SOL     OW21901   3.116   2.967   5.181 -0.2190 -0.4309  0.1482
 3423SOL    HW121902   3.202   3.002   5.160 -1.0284  0.7850 -1.1812
 3423SOL    HW221903   3.065   2.953   5.101 -1.1292  0.5042  0.5594
 3424SOL     OW21904   2.198   3.274   7.392 -0.0147  0.3315  0.3591
 3424SOL    HW121905   2.210   3.183   7.422  1.6581  0.8327  1.2374
 3424SOL    HW221906   2.272   3.299   7.337 -0.8900  1.4571 -0.2990
 3425SOL     OW21907   4.415   3.477   9.053  0.7516 -0.2034 -0.0524
 3425SOL    HW121908   4.420   3.419   9.129 -0.7949 -1.3253 -0.8033
 3425SOL    HW221909   4.367   3.549   9.093  1.0940 -1.2575  2.2251
 3426SOL     OW21910   3.834   3.717  10.086 -0.2367 -0.8399 -0.0164
 3426SOL    HW121911   3.739   3.732  10.093  0.1488  1.5317  0.2230
 3426SOL    HW221912   3.846   3.656  10.159 -0.5621 -2.4852 -1.3501
 3427SOL     OW21913   3.494   3.816   5.541  0.1896  0.1283 -0.7585
 3427SOL    HW121914   3.524   3.787   5.627 -2.1719  0.8586  0.2948
 3427SOL    HW221915   3.410   3.771   5.551 -1.0839  2.6788 -0.0376
 3428SOL     OW21916   3.933   3.432   4.193 -0.4540  0.1475  0.0581
 3428SOL    HW121917   3.868   3.472   4.250 -0.1472  0.9134 -0.1405
 3428SOL    HW221918   4.013   3.458   4.238 -1.2747 -0.1468  1.7011
 3429SOL     OW21919   0.447   3.636   7.311  0.2501 -0.4121  0.5910
 3429SOL    HW121920   0.505   3.607   7.241  1.7427 -1.7362  2.3498
 3429SOL    HW221921   0.363   3.632   7.266  0.1218 -2.8048  1.0571
 3430SOL     OW21922   0.512   3.332   2.110 -0.2914 -0.4416  0.4734
 3430SOL    HW121923   0.509   3.427   2.114 -1.1099 -0.4827  0.8040
 3430SOL    HW221924   0.420   3.319   2.085 -0.6984 -0.2300  1.8969
 3431SOL     OW21925   1.556   2.667   2.868  0.0504  0.2045 -0.0044
 3431SOL    HW121926   1.607   2.709   2.799  0.7790  2.4597  1.9212
 3431SOL    HW221927   1.627   2.638   2.924 -0.5736 -0.4721  0.4371
 3432SOL     OW21928   1.204   4.467   3.127 -0.2246 -0.2093 -0.0039
 3432SOL    HW121929   1.278   4.519   3.098  1.6515 -0.0838  5.0267
 3432SOL    HW221930   1.199   4.411   3.049 -1.3460  0.9174 -0.7369
 3433SOL     OW21931   0.931   1.685   4.398 -0.2544 -0.0662 -0.2084
 3433SOL    HW121932   0.984   1.735   4.336 -0.6569 -2.1253 -2.2094
 3433SOL    HW221933   0.899   1.613   4.343 -1.9487 -1.3147  2.4026
 3434SOL     OW21934   1.639   3.031  12.822  0.6636 -0.0806  0.2812
 3434SOL    HW121935   1.631   3.051  12.915 -1.0781 -1.1508  0.3571
 3434SOL    HW221936   1.730   3.058  12.806  1.2216  0.0248  3.6961
 3435SOL     OW21937   3.283   4.718   1.845 -0.5424  0.4840 -0.2999
 3435SOL    HW121938   3.195   4.678   1.844 -1.2892  2.1523 -1.4808
 3435SOL    HW221939   3.335   4.651   1.890  1.5376  1.1349 -1.7378
 3436SOL     OW21940   2.179   4.329   6.524  0.6796  0.2405  0.4520
 3436SOL    HW121941   2.141   4.416   6.539  1.9757  1.2331 -1.8630
 3436SOL    HW221942   2.114   4.274   6.567 -0.0935  2.2001  1.7778
 3437SOL     OW21943   4.335   1.794   7.617 -0.0341  0.0008  0.3340
 3437SOL    HW121944   4.357   1.736   7.544  3.0264  1.8751 -0.2248
 3437SOL    HW221945   4.366   1.880   7.589  0.2182 -0.5086 -0.9848
 3438SOL     OW21946   1.038   2.433   7.903 -0.1925  0.1848  0.1740
 3438SOL    HW121947   0.992   2.511   7.933 -0.8306  0.1907 -0.8231
 3438SOL    HW221948   1.072   2.401   7.986 -0.8639 -0.0117  0.3786
 3439SOL     OW21949   0.539   2.925   6.807 -0.2022  0.1405  0.0292
 3439SOL    HW121950   0.614   2.981   6.828 -0.2063 -0.5033  1.7654
 3439SOL    HW221951   0.467   2.956   6.862  1.4834  3.3948  0.3882
 3440SOL     OW21952   4.536   4.627   8.899 -0.2573  0.5328 -0.1151
 3440SOL    HW121953   4.461   4.682   8.881  0.4791  1.1305 -1.3074
 3440SOL    HW221954   4.602   4.694   8.883 -0.7571  0.7132 -1.3659
 3441SOL     OW21955   3.115   0.361  15.686  0.0245  0.0792 -0.9221
 3441SOL    HW121956   3.034   0.406  15.660  0.0312  1.5480  1.7131
 3441SOL    HW221957   3.154   0.429  15.740  1.8096 -0.1043 -1.9898
 3442SOL     OW21958   3.484   1.116   9.375  0.0476 -0.9380 -0.2609
 3442SOL    HW121959   3.408   1.161   9.339 -1.3549 -2.2442  1.0914
 3442SOL    HW221960   3.542   1.129   9.300 -1.3228  0.4389 -1.0950
 3443SOL     OW21961   1.401   0.577   6.941  0.0862  0.1056  0.7759
 3443SOL    HW121962   1.377   0.517   6.870  1.7613  0.7021 -0.3151
 3443SOL    HW221963   1.496   0.579   6.933  0.1198  1.5350  1.5588
 3444SOL     OW21964   0.258   0.803   1.149 -0.2001 -0.7352  0.3300
 3444SOL    HW121965   0.346   0.821   1.183 -1.0628  2.5478  0.8723
 3444SOL    HW221966   0.227   0.754   1.225  0.7061 -0.1126  1.0874
 3445SOL     OW21967   4.317   4.306   6.756  0.5740 -0.4818 -0.0442
 3445SOL    HW121968   4.229   4.299   6.719  0.2869  0.3152  0.4818
 3445SOL    HW221969   4.326   4.400   6.739 -0.9423  0.0892  2.2808
 3446SOL     OW21970   0.434   2.186   3.107 -0.2561 -0.2054  0.0907
 3446SOL    HW121971   0.379   2.199   3.030 -1.5748  1.0302  1.2434
 3446SOL    HW221972   0.378   2.124   3.155  1.2041 -0.4629  1.4517
 3447SOL     OW21973   4.140   2.219  12.258 -0.2360 -0.5907  0.3349
 3447SOL    HW121974   4.132   2.283  12.329  1.4425 -0.0013 -0.0153
 3447SOL    HW221975   4.168   2.284  12.194 -1.2416 -1.1723 -0.7084
 3448SOL     OW21976   0.399   1.999   6.475  0.1361 -0.3908 -0.2093
 3448SOL    HW121977   0.477   1.971   6.428  0.1154  0.8470 -0.9757
 3448SOL    HW221978   0.413   2.094   6.473 -0.3859 -0.3791 -3.0065
 3449SOL     OW21979   0.079   0.897  15.797 -0.1062 -0.3030 -0.2497
 3449SOL    HW121980   0.098   0.865  15.709  1.1966  2.0392 -0.8177
 3449SOL    HW221981   0.170   0.902  15.827 -0.1020 -0.6722 -0.2037
 3450SOL     OW21982   2.171   3.523   2.504 -0.5053 -0.4651  0.1315
 3450SOL    HW121983   2.080   3.514   2.474 -0.3376  2.7245 -1.3523
 3450SOL    HW221984   2.203   3.578   2.433  0.9690 -1.5565 -0.0356
 3451SOL     OW21985   4.233   0.468   7.828 -0.0954 -0.2507  0.1704
 3451SOL    HW121986   4.138   0.455   7.833 -0.0313 -0.4195  0.8849
 3451SOL    HW221987   4.237   0.546   7.773  0.6612 -0.5201 -0.1588
 3452SOL     OW21988   3.901   4.224   7.416  0.2287 -0.0019 -0.0935
 3452SOL    HW121989   3.844   4.147   7.409 -0.4314  0.3030  1.9641
 3452SOL    HW221990   3.834   4.290   7.396  0.1471  0.4893  1.7789
 3453SOL     OW21991   0.066   2.406   7.692 -0.2127 -0.7864 -0.4207
 3453SOL    HW121992   0.015   2.469   7.643 -0.5118 -0.2240  0.6080
 3453SOL    HW221993   0.036   2.419   7.782 -0.5236  1.5456 -0.8807
 3454SOL     OW21994   4.371   0.631   1.563 -0.0012 -0.6543  0.1408
 3454SOL    HW121995   4.390   0.678   1.482 -2.1094 -0.1830 -0.1016
 3454SOL    HW221996   4.326   0.697   1.616 -1.2182 -0.8200 -0.6644
 3455SOL     OW21997   0.454   1.937   8.913 -0.7871  0.0022  0.3809
 3455SOL    HW121998   0.446   1.970   8.824  0.5286 -1.5138 -0.2920
 3455SOL    HW221999   0.377   1.985   8.946 -1.8768 -1.3827 -0.1721
 3456SOL     OW22000   1.343   2.933  13.464  0.8743  0.1066 -0.1521
 3456SOL    HW122001   1.248   2.926  13.464  0.7363  2.0464 -1.0926
 3456SOL    HW222002   1.370   2.908  13.375 -1.3621  0.0036 -0.7918
 3457SOL     OW22003   3.771   2.902   6.428 -0.2919 -0.1714  0.0592
 3457SOL    HW122004   3.864   2.883   6.415 -0.1397  0.7064 -0.1378
 3457SOL    HW222005   3.769   2.975   6.366  2.7310  0.5150  0.8036
 3458SOL     OW22006   0.331   4.358   4.810 -0.0927  0.2868  0.0888
 3458SOL    HW122007   0.391   4.346   4.884  0.0284  1.3851  0.1718
 3458SOL    HW222008   0.267   4.422   4.841 -0.2166 -1.3391  3.2692
 3459SOL     OW22009   0.595   3.609  16.962 -0.0081 -0.0208  0.0222
 3459SOL    HW122010   0.561   3.520  16.958  1.4793 -0.5185 -1.8718
 3459SOL    HW222011   0.686   3.594  16.938 -0.2733  0.9841 -1.6675
 3460SOL     OW22012   4.672   4.042   3.795 -0.2748 -0.1820 -0.0939
 3460SOL    HW122013   4.588   4.037   3.840  0.5788  0.1068  1.5401
 3460SOL    HW222014   4.721   4.099   3.854 -2.0637 -0.1138  1.3353
 3461SOL     OW22015   0.545   0.906   7.556 -0.6475 -0.2175 -0.0721
 3461SOL    HW122016   0.479   0.893   7.488  0.1609 -1.0301 -0.7228
 3461SOL    HW222017   0.491   0.946   7.624 -1.7062 -1.9279  0.0873
 3462SOL     OW22018   1.812   1.651   1.976 -0.0112 -0.1937 -0.1347
 3462SOL    HW122019   1.888   1.707   1.960  0.5259 -0.7471  0.4903
 3462SOL    HW222020   1.855   1.567   1.961  0.2882  0.0873 -0.8338
 3463SOL     OW22021   2.197   1.978   0.451  0.1619  0.6810  0.3587
 3463SOL    HW122022   2.124   1.999   0.394  2.4476 -2.1358 -3.6158
 3463SOL    HW222023   2.154   1.957   0.534  1.7684 -0.0504  1.0016
 3464SOL     OW22024   2.595   0.501  11.180 -0.3164 -0.4186 -0.2031
 3464SOL    HW122025   2.574   0.539  11.095  0.7662  0.1929 -0.2031
 3464SOL    HW222026   2.690   0.506  11.174 -0.3563  0.1621 -0.3676
 3465SOL     OW22027   1.219   0.679  15.779  0.2613 -0.1847  0.3152
 3465SOL    HW122028   1.272   0.649  15.706 -1.1835 -0.7052 -0.5166
 3465SOL    HW222029   1.287   0.710  15.839 -0.6212  0.4051  1.0277
 3466SOL     OW22030   0.399   1.684   5.260  0.3220  0.0089  0.2633
 3466SOL    HW122031   0.424   1.769   5.296  0.5452  0.0791 -0.0546
 3466SOL    HW222032   0.308   1.665   5.285  0.7599 -3.0049 -0.4058
 3467SOL     OW22033   4.508   4.158   4.996 -0.0710 -0.2233  0.0278
 3467SOL    HW122034   4.520   4.134   5.088 -0.5089  0.2662  0.2148
 3467SOL    HW222035   4.529   4.074   4.955 -0.4059 -0.0038 -0.5990
 3468SOL     OW22036   3.509   0.253   5.959 -0.0851  0.0516  0.1535
 3468SOL    HW122037   3.420   0.219   5.956 -0.0155 -0.2772  2.1252
 3468SOL    HW222038   3.566   0.176   5.959  0.3146  0.3465  0.7406
 3469SOL     OW22039   3.346   4.363   6.610  0.4332 -0.4133 -0.2915
 3469SOL    HW122040   3.422   4.328   6.563  0.5801 -0.7497  0.1875
 3469SOL    HW222041   3.274   4.323   6.561 -1.3432  2.1144  0.2734
 3470SOL     OW22042   1.644   3.676  16.546  0.0133  0.0857 -0.3413
 3470SOL    HW122043   1.699   3.755  16.538 -1.1298  0.9805  0.6753
 3470SOL    HW222044   1.710   3.618  16.584 -0.5811  0.0427  0.5976
 3471SOL     OW22045   0.057   3.171   0.659 -0.7313  0.0863  0.1465
 3471SOL    HW122046   0.011   3.254   0.652  0.1496  0.5194 -0.5149
 3471SOL    HW222047   0.059   3.174   0.755 -2.1004 -1.4364  0.2231
 3472SOL     OW22048   2.212   4.706   5.938 -0.1862 -0.6569 -0.0885
 3472SOL    HW122049   2.233   0.050   5.988  2.4036 -0.6355 -1.1464
 3472SOL    HW222050   2.267   4.715   5.859  1.6236 -2.0989  0.9839
 3473SOL     OW22051   4.517   3.085   2.300 -0.3553 -0.2760 -0.5196
 3473SOL    HW122052   4.425   3.110   2.310 -0.4387 -0.4362 -0.9011
 3473SOL    HW222053   4.557   3.167   2.326  0.3191 -0.5596 -0.6766
 3474SOL     OW22054   4.105   3.560   8.832  0.5476  0.0528  0.4222
 3474SOL    HW122055   4.105   3.635   8.773 -1.2942  0.6955  1.2516
 3474SOL    HW222056   4.182   3.595   8.876  0.5204  0.0837  0.4445
 3475SOL     OW22057   0.480   2.040   2.647 -0.4605  0.4564  0.3787
 3475SOL    HW122058   0.561   2.063   2.601 -0.5018 -0.4144 -0.1160
 3475SOL    HW222059   0.501   2.001   2.732  1.5902 -1.4254 -0.9931
 3476SOL     OW22060   4.682   3.434   6.727 -0.2861  0.1141 -0.4601
 3476SOL    HW122061   4.656   3.437   6.819 -0.4858  1.9959 -0.5695
 3476SOL    HW222062   4.635   3.515   6.709  0.3526  0.7191  0.5913
 3477SOL     OW22063   4.692   1.082  17.036  0.7026  0.2937  0.2564
 3477SOL    HW122064   4.682   0.988  17.049 -3.2194  0.8880  1.4024
 3477SOL    HW222065   0.018   1.090  16.962  1.0754  0.9454  0.6402
 3478SOL     OW22066   1.443   0.615  17.499  0.0893 -0.3222  0.3056
 3478SOL    HW122067   1.415   0.638  17.411 -0.4691 -0.2823  0.4901
 3478SOL    HW222068   1.426   0.695  17.547  0.4034  0.3140 -0.6488
 3479SOL     OW22069   4.600   1.855   2.355 -0.2556  0.0943 -0.9148
 3479SOL    HW122070   4.680   1.836   2.406 -0.2810  1.3414 -0.4038
 3479SOL    HW222071   4.646   1.896   2.282 -0.9579  1.7515 -0.4325
 3480SOL     OW22072   0.073   1.689   2.824  0.0007  0.1272 -0.0912
 3480SOL    HW122073   0.097   1.774   2.862 -2.0042  0.2977  0.8455
 3480SOL    HW222074   0.113   1.683   2.738 -0.5634  0.3896 -0.3679
 3481SOL     OW22075   2.656   0.538   8.969  0.2831 -0.0095 -0.1561
 3481SOL    HW122076   2.599   0.493   9.031  0.9574  0.4652  0.8014
 3481SOL    HW222077   2.727   0.474   8.966 -0.2764 -0.5072 -3.1924
 3482SOL     OW22078   1.517   0.176   7.719  0.2955 -0.0586  0.1724
 3482SOL    HW122079   1.549   0.185   7.808  0.5831 -0.0105  0.0660
 3482SOL    HW222080   1.456   0.250   7.718  0.8854  0.4373  0.6731
 3483SOL     OW22081   2.619   0.329  13.630 -0.0234  0.1290 -0.4674
 3483SOL    HW122082   2.532   0.293  13.648 -0.1009  0.4648 -0.1618
 3483SOL    HW222083   2.620   0.379  13.712 -1.4641 -0.4515 -0.0890
 3484SOL     OW22084   1.456   3.280   9.277 -0.6109  0.5359 -0.2478
 3484SOL    HW122085   1.512   3.283   9.200  0.5977 -0.8690  0.5655
 3484SOL    HW222086   1.391   3.349   9.264 -0.9915  0.4505  1.1669
 3485SOL     OW22087   4.148   4.192   1.814 -0.4918  0.1669  0.5573
 3485SOL    HW122088   4.060   4.190   1.776 -0.6163  0.2297  0.8431
 3485SOL    HW222089   4.141   4.120   1.876 -2.2894  0.9172  1.2149
 3486SOL     OW22090   2.370   3.133   3.482 -0.3194  0.0399 -0.4289
 3486SOL    HW122091   2.321   3.057   3.514  2.3858 -0.9907  1.2173
 3486SOL    HW222092   2.347   3.195   3.551  0.7403 -1.3438  1.1583
 3487SOL     OW22093   3.911   2.718   5.949 -0.1220  0.2559  0.3547
 3487SOL    HW122094   3.868   2.800   5.971 -1.0833  0.2098 -1.3198
 3487SOL    HW222095   3.841   2.655   5.966  1.9106 -1.6454  1.5813
 3488SOL     OW22096   2.540   3.430  11.397  0.0867 -0.2559  0.1147
 3488SOL    HW122097   2.598   3.445  11.472 -0.5427  0.7090  0.4042
 3488SOL    HW222098   2.523   3.336  11.402  1.0536 -0.4534 -0.2259
 3489SOL     OW22099   0.277   3.619   4.529  0.4406 -0.4882 -0.0179
 3489SOL    HW122100   0.332   3.662   4.463 -1.0208  0.9633 -0.2778
 3489SOL    HW222101   0.251   3.692   4.584  2.7107  0.8168 -0.6854
 3490SOL     OW22102   1.037   3.376   9.367  0.0333 -0.1835  0.1476
 3490SOL    HW122103   1.056   3.440   9.435  2.2946 -1.2123  0.4959
 3490SOL    HW222104   0.960   3.420   9.331 -0.3833 -0.7431  0.3607
 3491SOL     OW22105   2.614   1.798  16.901  0.6225  0.4178 -0.6514
 3491SOL    HW122106   2.690   1.782  16.955  0.6094  0.5389 -0.5973
 3491SOL    HW222107   2.581   1.709  16.886  1.0363 -0.0312  1.1855
 3492SOL     OW22108   3.965   1.518   9.995  0.1073 -0.2606  0.6315
 3492SOL    HW122109   3.946   1.597   9.945 -0.1793 -1.0350 -0.5106
 3492SOL    HW222110   3.894   1.466   9.957 -1.1877  2.1555 -0.2172
 3493SOL     OW22111   2.058   3.482   2.963  0.3957  0.6334 -0.5455
 3493SOL    HW122112   2.136   3.468   2.908 -0.0523 -3.1200 -0.1539
 3493SOL    HW222113   2.092   3.541   3.030  0.6049  0.2400 -0.3084
 3494SOL     OW22114   0.869   0.556   3.866 -0.1932 -0.4770 -0.6933
 3494SOL    HW122115   0.816   0.635   3.868  0.7170  0.1824 -2.6992
 3494SOL    HW222116   0.957   0.593   3.858 -0.7120  0.6566 -1.1363
 3495SOL     OW22117   3.113   3.145  17.489 -0.1173  0.4083 -0.0169
 3495SOL    HW122118   3.150   3.178  17.408  1.5845 -2.2918 -0.3172
 3495SOL    HW222119   3.080   3.227  17.527 -0.1338 -0.3159  1.5483
 3496SOL     OW22120   2.418   2.419   1.549  0.0738  0.1249  0.4362
 3496SOL    HW122121   2.372   2.500   1.572 -2.0877 -1.0297  0.1666
 3496SOL    HW222122   2.428   2.381   1.636 -1.2532 -1.2791 -0.0302
 3497SOL     OW22123   3.069   4.285   3.645 -0.4194  0.1655  0.0317
 3497SOL    HW122124   3.073   4.363   3.589  0.5469  0.6085  0.7295
 3497SOL    HW222125   3.049   4.213   3.585  1.2158 -1.3930  1.3382
 3498SOL     OW22126   4.634   1.068   9.137  0.9378 -0.3702  0.4753
 3498SOL    HW122127   4.566   1.016   9.093 -1.1399  2.2036  0.6184
 3498SOL    HW222128   4.614   1.041   9.226  0.3866  0.3597  0.5677
 3499SOL     OW22129   3.879   2.688  13.138  0.6654 -0.2655 -0.3790
 3499SOL    HW122130   3.924   2.712  13.057  1.1661 -1.7526 -0.5467
 3499SOL    HW222131   3.797   2.734  13.121  0.2596 -0.3533  1.3000
 3500SOL     OW22132   1.400   3.083  13.685 -0.3955  0.1028  0.0969
 3500SOL    HW122133   1.437   3.164  13.651 -0.7098  0.0366 -0.4157
 3500SOL    HW222134   1.393   3.031  13.604 -1.5690  1.9576 -0.9990
 3501SOL     OW22135   1.578   2.111   0.402  0.4419  0.5451  0.3116
 3501SOL    HW122136   1.560   2.196   0.361 -0.0975 -0.3701 -1.3749
 3501SOL    HW222137   1.504   2.056   0.376  1.1084  0.0830 -0.6086
 3502SOL     OW22138   3.497   3.789   3.926 -0.8284  0.2877 -0.2926
 3502SOL    HW122139   3.417   3.799   3.874 -1.2799 -1.2669  0.1058
 3502SOL    HW222140   3.537   3.870   3.896  0.6007 -0.8991 -1.5629
 3503SOL     OW22141   3.693   4.139  15.702 -0.1863 -0.3682 -0.2634
 3503SOL    HW122142   3.723   4.206  15.763 -0.0611  0.6110 -1.4104
 3503SOL    HW222143   3.762   4.073  15.709 -0.7508 -0.7263  2.1162
 3504SOL     OW22144   0.947   1.239   8.544  0.4060 -0.4045  0.2694
 3504SOL    HW122145   1.018   1.256   8.605  1.9495  0.1624 -1.6701
 3504SOL    HW222146   0.968   1.302   8.475 -2.9811 -1.6763 -1.9463
 3505SOL     OW22147   1.898   1.091  16.890  0.0592 -0.0881 -0.7388
 3505SOL    HW122148   1.923   1.005  16.922 -0.5095  0.1586  0.3545
 3505SOL    HW222149   1.819   1.079  16.837 -0.0351 -0.8032 -0.4348
 3506SOL     OW22150   0.291   3.138  14.993 -0.3262  0.5429 -0.4848
 3506SOL    HW122151   0.196   3.128  14.982 -0.3409  1.2717 -1.0632
 3506SOL    HW222152   0.290   3.231  15.014 -0.2749 -0.2997  3.2855
 3507SOL     OW22153   1.886   4.125   1.362  0.1270  0.3721  0.2766
 3507SOL    HW122154   1.882   4.142   1.267 -0.4271  2.5073  0.6747
 3507SOL    HW222155   1.897   4.031   1.354 -0.3291  0.1593  2.1796
 3508SOL     OW22156   3.320   4.691   2.671  0.2928  0.2198 -0.1725
 3508SOL    HW122157   3.236   4.646   2.663  0.9115 -1.4659  3.0001
 3508SOL    HW222158   3.384   4.633   2.631  1.9275  0.7736  1.6404
 3509SOL     OW22159   4.344   3.244  12.588 -0.2886 -0.2033  0.0266
 3509SOL    HW122160   4.260   3.280  12.616  0.8213  1.6151  0.9768
 3509SOL    HW222161   4.341   3.151  12.612  3.0687 -0.2340  0.3389
 3510SOL     OW22162   1.333   2.975   3.859  0.0813 -0.3028  0.0340
 3510SOL    HW122163   1.352   2.888   3.825 -0.1021 -0.2826 -0.1170
 3510SOL    HW222164   1.242   2.960   3.885  0.0574  0.9005  0.6380
 3511SOL     OW22165   4.434   0.686  12.179 -0.0949 -0.4022  0.0537
 3511SOL    HW122166   4.495   0.756  12.159 -0.6768  0.5620  1.6798
 3511SOL    HW222167   4.481   0.608  12.149 -0.3508 -1.0811  1.3871
 3512SOL     OW22168   0.887   1.746   4.863  0.2610  0.2420 -0.2348
 3512SOL    HW122169   0.853   1.773   4.777 -1.5878 -0.6239  0.2250
 3512SOL    HW222170   0.930   1.824   4.898 -1.9168  1.0546  0.6344
 3513SOL     OW22171   1.191   1.569  17.555  0.0511  0.6248 -0.5272
 3513SOL    HW122172   1.190   1.559  17.650  0.9083  1.6957 -0.4021
 3513SOL    HW222173   1.103   1.537  17.535 -0.6145  2.1020  0.0266
 3514SOL     OW22174   0.623   0.030  15.170  0.2109 -0.0395 -0.0118
 3514SOL    HW122175   0.683   0.052  15.241  0.3412  1.9903 -0.7709
 3514SOL    HW222176   0.680   0.059  15.100 -1.0914  0.9281 -0.6780
 3515SOL     OW22177   1.290   0.921  11.942  0.2327 -0.4960 -0.5796
 3515SOL    HW122178   1.234   0.910  11.866  1.0229  3.3215 -1.7213
 3515SOL    HW222179   1.298   0.830  11.971  0.0411  0.2045  1.7269
 3516SOL     OW22180   4.213   4.679   5.464  0.0436  0.1451 -0.0098
 3516SOL    HW122181   4.193   0.029   5.505 -2.2535 -0.1742 -0.4845
 3516SOL    HW222182   4.308   4.683   5.449 -0.2541  3.4849 -0.8695
 3517SOL     OW22183   4.455   1.076   6.915  0.5208  0.4744  0.1889
 3517SOL    HW122184   4.515   1.112   6.981 -0.6151  2.7034  0.0054
 3517SOL    HW222185   4.390   1.146   6.917  0.4985  0.5314 -2.5246
 3518SOL     OW22186   2.307   1.362   1.199 -0.7964  0.0199  0.4568
 3518SOL    HW122187   2.336   1.441   1.245 -1.9289  0.6258  0.1492
 3518SOL    HW222188   2.303   1.387   1.107  0.9922 -0.5821  0.2216
 3519SOL     OW22189   1.908   3.632  16.068  0.6386  0.7663 -0.2872
 3519SOL    HW122190   1.818   3.610  16.044  1.2552 -3.5421  1.4549
 3519SOL    HW222191   1.937   3.653  15.979  0.7386  1.1173 -0.1714
 3520SOL     OW22192   3.767   0.624   3.667  0.7376 -0.0477 -0.8544
 3520SOL    HW122193   3.765   0.674   3.586 -2.8076  0.9493 -0.1300
 3520SOL    HW222194   3.676   0.631   3.695  1.2837  0.1422  0.9056
 3521SOL     OW22195   4.089   4.327  13.953 -0.0893  0.4296  0.1958
 3521SOL    HW122196   4.165   4.332  14.012  0.5639  0.5904 -0.6582
 3521SOL    HW222197   4.089   4.411  13.908  1.5622 -1.4705 -3.2784
 3522SOL     OW22198   3.977   4.067   8.569 -0.1211  0.0418 -0.0218
 3522SOL    HW122199   3.920   4.143   8.567 -1.4350 -0.9659 -1.0732
 3522SOL    HW222200   4.019   4.074   8.483  0.2536 -1.0642  0.0642
 3523SOL     OW22201   0.230   2.639  11.070  0.6347  0.3645 -0.2926
 3523SOL    HW122202   0.237   2.640  10.975  1.1374  1.6299 -0.2452
 3523SOL    HW222203   0.277   2.557  11.085 -1.1361 -0.4071  1.0551
 3524SOL     OW22204   4.573   3.395  13.570 -0.2568  0.4343  0.5640
 3524SOL    HW122205   4.487   3.424  13.600 -0.2413  2.6428 -1.5803
 3524SOL    HW222206   4.584   3.454  13.495 -0.3203 -0.0968  0.1360
 3525SOL     OW22207   1.686   4.358   5.894  0.1199 -0.0824 -0.3128
 3525SOL    HW122208   1.712   4.440   5.852  2.1469 -0.9488 -0.7710
 3525SOL    HW222209   1.591   4.365   5.894  0.0480 -1.1409 -2.3277
 3526SOL     OW22210   0.121   1.338   8.871  0.4781 -0.3353 -0.0555
 3526SOL    HW122211   0.167   1.415   8.904 -1.6345  1.8915 -2.3344
 3526SOL    HW222212   0.124   1.355   8.777 -1.6564 -2.0407 -0.4376
 3527SOL     OW22213   3.046   0.208   3.252  0.1152 -0.2462  0.4037
 3527SOL    HW122214   3.095   0.174   3.327  1.5617 -0.2719 -0.5407
 3527SOL    HW222215   2.966   0.156   3.253 -0.0442  0.0062  0.5562
 3528SOL     OW22216   1.435   3.045   1.086  0.2031  0.1579 -0.2949
 3528SOL    HW122217   1.381   3.118   1.118  0.7853 -0.1180  1.3151
 3528SOL    HW222218   1.395   2.970   1.131 -2.3551  0.2110 -2.5190
 3529SOL     OW22219   3.784   0.705   2.679 -0.6337 -0.5212  0.1103
 3529SOL    HW122220   3.693   0.700   2.708  0.0254 -0.9799  2.1029
 3529SOL    HW222221   3.824   0.731   2.762 -1.5397  1.6564 -0.1350
 3530SOL     OW22222   3.017   2.692   9.745 -0.1725  0.2563 -0.4020
 3530SOL    HW122223   3.103   2.715   9.710  0.5269 -1.4673  0.1650
 3530SOL    HW222224   2.968   2.675   9.665  0.3728 -1.0902 -0.4518
 3531SOL     OW22225   2.993   1.573  16.917 -0.3145 -0.2315  0.9059
 3531SOL    HW122226   2.971   1.531  17.000  0.0559 -1.0754  0.5767
 3531SOL    HW222227   2.980   1.502  16.853 -2.7313  1.2253 -0.2043
 3532SOL     OW22228   3.546   2.270   2.556  0.3264  0.2509 -0.3085
 3532SOL    HW122229   3.626   2.231   2.520 -0.3217 -1.3400 -0.0606
 3532SOL    HW222230   3.540   2.227   2.641 -1.1210 -0.2852 -0.6731
 3533SOL     OW22231   4.401   0.933   9.232  0.1353  0.3027 -0.0442
 3533SOL    HW122232   4.382   0.946   9.325 -0.8571  0.6392 -0.2915
 3533SOL    HW222233   4.334   0.986   9.189  0.0974 -0.2390 -0.6481
 3534SOL     OW22234   0.632   2.900   8.616  0.1435  0.0667  0.0740
 3534SOL    HW122235   0.602   2.986   8.585 -0.6642 -1.0901 -2.3222
 3534SOL    HW222236   0.558   2.868   8.667 -0.2569  1.1151  0.1622
 3535SOL     OW22237   2.004   3.594  17.155 -0.3056 -0.2999  0.5832
 3535SOL    HW122238   1.960   3.597  17.070  0.3012 -1.9712  0.2078
 3535SOL    HW222239   1.937   3.628  17.214 -0.0099  0.5558  0.4349
 3536SOL     OW22240   1.925   1.969   8.302 -0.5028 -0.2310 -1.1837
 3536SOL    HW122241   1.986   1.899   8.325  0.6349  0.8967 -0.7785
 3536SOL    HW222242   1.936   2.020   8.382  0.9914 -2.4284  0.0251
 3537SOL     OW22243   0.990   2.422  16.602 -0.7593 -0.9076 -0.4285
 3537SOL    HW122244   1.075   2.408  16.645  0.6390 -0.5286 -3.0849
 3537SOL    HW222245   0.933   2.361  16.648 -0.4094 -0.6844  0.3072
 3538SOL     OW22246   3.691   3.459  15.470 -0.1209 -0.2320 -0.1435
 3538SOL    HW122247   3.721   3.381  15.516 -0.1883  0.4414  1.0649
 3538SOL    HW222248   3.612   3.487  15.518  1.3493  2.0885  0.9346
 3539SOL     OW22249   3.993   0.658   3.796  0.6127  0.4423  0.2264
 3539SOL    HW122250   3.916   0.623   3.751  2.6429 -1.9260 -1.4147
 3539SOL    HW222251   4.013   0.724   3.730  0.3135  0.3356  0.0316
 3540SOL     OW22252   0.568   3.533   1.830 -0.2831  0.1514  0.0585
 3540SOL    HW122253   0.477   3.508   1.817 -0.0919  0.1841 -1.3538
 3540SOL    HW222254   0.570   3.584   1.910 -0.3067  2.2508 -1.2825
 3541SOL     OW22255   0.537   4.322   3.380  0.5966 -0.2502 -0.2153
 3541SOL    HW122256   0.558   4.231   3.402 -1.7700 -1.1481 -1.6690
 3541SOL    HW222257   0.615   4.349   3.332  0.7259  0.2989  0.3075
 3542SOL     OW22258   2.913   0.417  14.661  0.3152 -0.0492  0.3717
 3542SOL    HW122259   2.981   0.484  14.671  1.3276 -0.8701 -1.0859
 3542SOL    HW222260   2.964   0.336  14.656  1.7927  0.9473 -0.6333
 3543SOL     OW22261   4.414   1.383   2.650  0.2401  0.5669  0.5459
 3543SOL    HW122262   4.420   1.381   2.746  1.5720  1.5681  0.4767
 3543SOL    HW222263   4.501   1.419   2.635  0.3835 -1.6151 -3.5703
 3544SOL     OW22264   2.642   1.993  13.836  0.0013 -0.6468 -0.4004
 3544SOL    HW122265   2.701   2.054  13.880 -2.6392  0.7556  1.1958
 3544SOL    HW222266   2.682   1.910  13.862  1.9613 -0.0110 -1.3808
 3545SOL     OW22267   3.805   4.342   2.691 -0.4526  0.4241 -0.1614
 3545SOL    HW122268   3.800   4.389   2.774 -2.0382 -1.3516  0.7351
 3545SOL    HW222269   3.897   4.325   2.669 -0.4884  0.6541 -0.4965
 3546SOL     OW22270   3.855   0.470   6.384 -0.4497 -0.4674 -0.1157
 3546SOL    HW122271   3.857   0.556   6.342  0.3762 -0.5652 -0.2789
 3546SOL    HW222272   3.792   0.482   6.455 -0.5623 -0.8467 -0.1516
 3547SOL     OW22273   2.537   2.852   2.789 -0.0442  0.0740  0.1185
 3547SOL    HW122274   2.563   2.788   2.855  0.3502  1.2113  1.0713
 3547SOL    HW222275   2.450   2.814   2.778  0.4496 -1.2669  0.7445
 3548SOL     OW22276   2.028   1.282   5.582 -0.2239  0.0506 -0.2744
 3548SOL    HW122277   1.932   1.288   5.584 -0.0709  0.7262  4.1003
 3548SOL    HW222278   2.044   1.306   5.490 -0.0074  0.7542 -0.0514
 3549SOL     OW22279   1.031   2.975  17.162 -0.1247 -0.1877  0.7475
 3549SOL    HW122280   1.019   2.981  17.067 -0.0441  1.6765  0.8536
 3549SOL    HW222281   1.099   2.908  17.157  0.8385  0.8835 -0.2705
 3550SOL     OW22282   3.946   2.206   4.170  0.1130 -0.3261 -0.5601
 3550SOL    HW122283   3.871   2.163   4.128  2.1572 -2.5788 -1.9047
 3550SOL    HW222284   3.931   2.189   4.263 -2.3604 -3.0064 -1.4484
 3551SOL     OW22285   1.910   0.454   9.395  1.0854  0.0141  0.5641
 3551SOL    HW122286   1.941   0.528   9.448  0.3578 -1.5825  3.2179
 3551SOL    HW222287   1.886   0.395   9.466 -0.7112 -3.3356 -2.8362
 3552SOL     OW22288   1.642   2.497   5.007 -0.7834  0.1247  0.4212
 3552SOL    HW122289   1.568   2.552   5.033 -1.0450 -1.1415  2.3712
 3552SOL    HW222290   1.701   2.566   4.979  0.2397 -0.0266  2.1889
 3553SOL     OW22291   1.550   1.466   6.217 -0.4822 -0.5196  0.0742
 3553SOL    HW122292   1.501   1.486   6.296  1.7254  0.1741  1.2722
 3553SOL    HW222293   1.535   1.551   6.177  1.0960 -0.1140  0.3564
 3554SOL     OW22294   1.887   3.287   7.623 -0.6101 -0.0388 -0.7331
 3554SOL    HW122295   1.822   3.357   7.630 -3.5589 -2.9491  1.2304
 3554SOL    HW222296   1.886   3.262   7.530  1.5559 -0.2627 -0.6857
 3555SOL     OW22297   4.066   0.027   7.476 -0.4044  0.0254  0.1120
 3555SOL    HW122298   4.058   0.088   7.549  3.3650  0.5724  0.0863
 3555SOL    HW222299   4.160   0.008   7.478 -0.3997 -0.0867 -0.8895
 3556SOL     OW22300   3.598   0.559   3.411 -0.1698 -0.1883 -0.1287
 3556SOL    HW122301   3.680   0.509   3.411  0.5374  0.9574  1.1483
 3556SOL    HW222302   3.572   0.560   3.319 -0.3799  1.6097 -0.0442
 3557SOL     OW22303   3.959   3.753  17.029  1.0137  0.1153 -0.2736
 3557SOL    HW122304   3.902   3.685  16.994  0.9346 -0.0999  0.2679
 3557SOL    HW222305   3.933   3.827  16.974  0.4185 -0.1151 -0.3031
 3558SOL     OW22306   1.354   0.936   3.918  0.1442  0.2534 -0.3918
 3558SOL    HW122307   1.320   0.975   3.838 -1.2892 -1.3615 -0.5495
 3558SOL    HW222308   1.274   0.921   3.969 -0.6647 -0.8614 -2.0251
 3559SOL     OW22309   2.258   3.755   0.050  0.0473 -0.5898  0.6365
 3559SOL    HW122310   2.267   3.661   0.063  1.0029 -0.4121  1.2402
 3559SOL    HW222311   2.295   3.765  17.700  1.2435  0.0537  1.2229
 3560SOL     OW22312   4.080   1.690   1.091 -0.1750 -0.2594  0.3086
 3560SOL    HW122313   4.049   1.607   1.055  1.3242 -1.9905  2.9910
 3560SOL    HW222314   4.149   1.706   1.026 -1.4151  1.6754 -0.5260
 3561SOL     OW22315   4.114   0.812   6.302 -0.1937  0.7306 -0.4491
 3561SOL    HW122316   4.088   0.816   6.210 -0.3020  1.3159 -0.3928
 3561SOL    HW222317   4.190   0.754   6.297  0.8949  1.8519  2.9386
 3562SOL     OW22318   3.613   2.526   2.660  0.4398  0.3160 -0.1830
 3562SOL    HW122319   3.594   2.446   2.611 -0.5489 -0.7505  1.9119
 3562SOL    HW222320   3.558   2.587   2.613 -0.6142  0.2048  0.9084
 3563SOL     OW22321   3.698   0.230  14.723 -0.4274  0.1084 -0.2473
 3563SOL    HW122322   3.777   0.180  14.701 -0.9961 -0.7834 -0.2840
 3563SOL    HW222323   3.738   0.306  14.765  0.4551  0.1142 -1.0931
 3564SOL     OW22324   3.042   4.668   2.158 -0.1112 -0.0650  0.1795
 3564SOL    HW122325   3.093   4.597   2.198 -0.8505  0.0567  1.3396
 3564SOL    HW222326   2.957   4.646   2.197  0.1454 -1.0208  0.1900
 3565SOL     OW22327   2.274   0.557  14.183 -0.2461  0.5821  0.2212
 3565SOL    HW122328   2.273   0.649  14.155 -0.6952  0.3278 -0.5880
 3565SOL    HW222329   2.351   0.513  14.147 -0.6477  1.6314 -1.9375
 3566SOL     OW22330   1.244   1.974   3.103 -0.3949 -0.4717 -0.0180
 3566SOL    HW122331   1.201   1.950   3.185 -0.8094  1.4141  0.3084
 3566SOL    HW222332   1.179   2.027   3.057 -1.0600  0.3868  1.9151
 3567SOL     OW22333   0.809   3.069  10.851  0.0206  0.5859  0.6408
 3567SOL    HW122334   0.830   3.089  10.760  3.3111  1.0653  1.5349
 3567SOL    HW222335   0.714   3.062  10.840  0.2406 -0.0171 -0.9032
 3568SOL     OW22336   1.217   0.639   2.850  0.4527  0.1068 -0.2295
 3568SOL    HW122337   1.132   0.671   2.820  0.1543  0.5068  1.0390
 3568SOL    HW222338   1.271   0.717   2.840 -1.0915  1.2195  0.1060
 3569SOL     OW22339   4.470   1.090   0.062  0.0647 -0.4446  0.1403
 3569SOL    HW122340   4.493   1.016   0.119 -0.1150 -2.1068 -1.9140
 3569SOL    HW222341   4.449   1.051  17.714  2.2514 -0.0059 -0.5997
 3570SOL     OW22342   0.400   0.450   5.742 -0.3795  0.1779  0.2576
 3570SOL    HW122343   0.443   0.531   5.770  0.8096 -0.8233  1.3501
 3570SOL    HW222344   0.308   0.476   5.738 -0.5897 -0.4522  1.0216
 3571SOL     OW22345   3.659   3.564  11.846  0.1121 -0.5324  0.0446
 3571SOL    HW122346   3.628   3.511  11.772  1.0518 -0.8823 -0.0906
 3571SOL    HW222347   3.582   3.611  11.879  1.3829  0.4036  1.6381
 3572SOL     OW22348   1.954   3.939   4.701 -0.1240  0.4616  0.2443
 3572SOL    HW122349   1.885   3.964   4.763 -0.8890 -0.6179 -0.1734
 3572SOL    HW222350   1.985   3.853   4.729 -0.9899 -0.1790 -0.7452
 3573SOL     OW22351   4.582   1.711  16.504  0.0376  0.4841 -0.4012
 3573SOL    HW122352   4.538   1.633  16.469  0.8997 -0.3226  0.3544
 3573SOL    HW222353   4.657   1.722  16.446  1.0798 -2.1485  0.4477
 3574SOL     OW22354   1.268   1.804   3.516 -0.2215 -0.5974 -0.3896
 3574SOL    HW122355   1.356   1.830   3.541 -0.6940  1.3316 -0.7275
 3574SOL    HW222356   1.254   1.728   3.572  0.0540 -1.0010 -0.8699
 3575SOL     OW22357   0.720   1.919   7.525  0.0861  0.0879 -0.1007
 3575SOL    HW122358   0.811   1.946   7.515 -0.0400 -0.1948 -2.1202
 3575SOL    HW222359   0.723   1.825   7.504 -1.5048 -0.0881  0.4267
 3576SOL     OW22360   1.095   1.526   9.049 -0.0166  0.0184  0.3018
 3576SOL    HW122361   1.094   1.563   9.137 -0.5935  1.2088 -0.2125
 3576SOL    HW222362   1.058   1.600   9.001 -0.6983 -0.0793  0.6796
 3577SOL     OW22363   1.877   4.087  13.245 -0.3503  0.1910  0.4699
 3577SOL    HW122364   1.833   4.068  13.163 -1.5957 -1.2595  1.4598
 3577SOL    HW222365   1.930   4.008  13.253  0.6964  0.8620  0.0735
 3578SOL     OW22366   3.322   3.248   9.876 -0.3200 -0.2252 -0.2139
 3578SOL    HW122367   3.262   3.319   9.897  0.1435 -0.0465  0.4974
 3578SOL    HW222368   3.313   3.198   9.956  1.5061  1.3279  0.9728
 3579SOL     OW22369   2.441   0.258  12.375 -0.5703 -0.1369  0.2327
 3579SOL    HW122370   2.534   0.256  12.395 -0.8981  1.1259  1.9094
 3579SOL    HW222371   2.413   0.168  12.391  2.5087 -1.3552 -1.2910
 3580SOL     OW22372   1.507   0.023  16.383 -0.0371  0.0207  0.2488
 3580SOL    HW122373   1.525   0.012  16.476  0.2738 -0.8345  0.0901
 3580SOL    HW222374   1.489   0.117  16.381  2.1908  0.4386  0.8336
 3581SOL     OW22375   2.232   0.655   8.874 -0.5203  0.0149 -0.0335
 3581SOL    HW122376   2.263   0.744   8.890  0.1625  0.3112 -3.0693
 3581SOL    HW222377   2.224   0.627   8.965 -0.9271  1.4659  0.3865
 3582SOL     OW22378   3.959   3.647   2.714  0.4119  0.0517 -0.8869
 3582SOL    HW122379   3.915   3.565   2.689  0.9827 -0.3067 -0.7245
 3582SOL    HW222380   4.048   3.614   2.727 -0.1598 -0.4543  1.7445
 3583SOL     OW22381   2.337   0.920   7.553  0.4595 -0.4565 -0.2560
 3583SOL    HW122382   2.383   0.893   7.473  0.5178  1.4857 -0.8912
 3583SOL    HW222383   2.260   0.953   7.507  1.0554  1.6277  0.2383
 3584SOL     OW22384   2.818   2.178   4.759  0.0687 -0.4842 -0.1186
 3584SOL    HW122385   2.828   2.274   4.759 -0.5358 -0.4232  1.6404
 3584SOL    HW222386   2.900   2.156   4.715  1.3372  1.6320  1.1737
 3585SOL     OW22387   2.193   2.035   7.921 -0.9886  0.8025 -0.0245
 3585SOL    HW122388   2.224   2.008   7.835 -3.6997  0.4796 -0.8663
 3585SOL    HW222389   2.259   2.101   7.945  0.3901 -0.7850  0.5653
 3586SOL     OW22390   0.503   3.215   1.766  0.3885  0.3423 -0.2056
 3586SOL    HW122391   0.551   3.252   1.840  0.5004 -0.2722  0.0248
 3586SOL    HW222392   0.507   3.290   1.706 -2.0369 -0.8229 -1.8206
 3587SOL     OW22393   0.746   0.109   0.860  0.6264 -0.1775 -0.5230
 3587SOL    HW122394   0.730   0.049   0.933  2.4863  1.1567  0.9765
 3587SOL    HW222395   0.817   0.058   0.822 -0.1027  0.2335 -2.4482
 3588SOL     OW22396   0.819   1.005   8.856  0.5325 -0.0786  0.1852
 3588SOL    HW122397   0.782   1.024   8.769  0.9402  0.5119  0.1410
 3588SOL    HW222398   0.799   1.084   8.906  0.3726  1.0833 -1.6819
 3589SOL     OW22399   4.651   2.688  16.696 -0.6479  0.4247 -0.0069
 3589SOL    HW122400   4.667   2.709  16.604  0.3799 -0.8866 -0.1224
 3589SOL    HW222401   4.670   2.776  16.729 -2.4862  0.9401 -0.2720
 3590SOL     OW22402   2.468   3.784   0.230 -0.1803 -0.4127  0.5901
 3590SOL    HW122403   2.397   3.780   0.166  0.9759  1.6794 -0.8214
 3590SOL    HW222404   2.409   3.762   0.302 -1.4167 -1.2586 -0.6754
 3591SOL     OW22405   1.208   3.891   9.151 -0.7451  0.2696  0.3336
 3591SOL    HW122406   1.300   3.918   9.149 -0.6246 -0.1017  0.8040
 3591SOL    HW222407   1.210   3.831   9.076 -1.9756  0.8053 -0.1103
 3592SOL     OW22408   0.997   1.188   7.969 -0.6051 -0.7227 -0.0438
 3592SOL    HW122409   0.985   1.132   8.046  0.0205 -0.4629  0.2515
 3592SOL    HW222410   0.969   1.271   8.006  0.7001  0.1753 -1.0445
 3593SOL     OW22411   4.540   1.116   6.447 -0.2029  0.1487 -0.7692
 3593SOL    HW122412   4.524   1.163   6.365 -0.1925  2.7069  0.6830
 3593SOL    HW222413   4.449   1.098   6.471 -0.4125  0.2898 -1.4489
 3594SOL     OW22414   2.123   3.074   9.535  0.2801  0.2811  0.3363
 3594SOL    HW122415   2.100   3.046   9.623 -0.0794  6.6013  2.2462
 3594SOL    HW222416   2.101   3.167   9.534 -0.4338  0.0925 -2.3111
 3595SOL     OW22417   1.152   0.290  10.907  0.1365  0.2480 -0.2391
 3595SOL    HW122418   1.134   0.343  10.985 -1.6564 -2.3195  1.1062
 3595SOL    HW222419   1.068   0.244  10.908 -0.1249  0.6711 -1.8006
 3596SOL     OW22420   0.130   1.983   5.751 -0.4732  0.0024 -0.2736
 3596SOL    HW122421   0.150   2.058   5.807  1.6786 -0.7888  0.0210
 3596SOL    HW222422   0.049   2.013   5.710 -1.0288 -1.1775 -0.0199
 3597SOL     OW22423   2.663   3.935  12.167  0.7246 -0.0809  0.1264
 3597SOL    HW122424   2.736   3.881  12.197 -0.2159 -0.8087  1.0881
 3597SOL    HW222425   2.642   3.889  12.086 -1.1795  2.2593 -0.6878
 3598SOL     OW22426   1.819   2.869   1.840  0.5393 -0.0196  0.1690
 3598SOL    HW122427   1.880   2.942   1.830 -0.0710  0.7033  1.8416
 3598SOL    HW222428   1.768   2.878   1.759  0.1405 -1.6696  0.2397
 3599SOL     OW22429   0.008   0.717  10.928 -0.2770  0.2546  0.2264
 3599SOL    HW122430   4.662   0.766  10.909 -0.3021  0.4795  0.9505
 3599SOL    HW222431   4.719   0.625  10.910  0.7453 -0.2501  1.5419
 3600SOL     OW22432   1.338   1.171  10.343 -0.4373  0.4095  0.1151
 3600SOL    HW122433   1.350   1.261  10.312  2.4259 -0.0738 -0.1895
 3600SOL    HW222434   1.392   1.175  10.422 -0.4659  0.0502  0.1530
 3601SOL     OW22435   0.081   0.255   5.726  0.3318  0.3508 -0.0643
 3601SOL    HW122436   0.142   0.294   5.663 -0.1706  2.0946  0.5191
 3601SOL    HW222437   0.080   0.329   5.787  0.7398  1.3116 -1.2185
 3602SOL     OW22438   1.249   4.155   8.155  0.8132  0.5206  0.4025
 3602SOL    HW122439   1.246   4.142   8.060  0.3757  1.7643  0.2509
 3602SOL    HW222440   1.216   4.244   8.162  0.2839 -0.0277  4.8447
 3603SOL     OW22441   1.430   2.513  11.476  0.1197  0.3194  0.4006
 3603SOL    HW122442   1.343   2.496  11.512 -0.9002  0.4636 -1.9888
 3603SOL    HW222443   1.453   2.595  11.520  0.5768  0.0731  0.6235
 3604SOL     OW22444   4.607   4.293   4.215 -0.6807  0.0741 -0.8908
 3604SOL    HW122445   4.637   4.341   4.138  1.6682 -0.9263 -0.5815
 3604SOL    HW222446   4.581   4.370   4.267 -1.0969 -1.1748  0.7476
 3605SOL     OW22447   3.395   1.682   8.221  0.7998 -0.6222 -0.3094
 3605SOL    HW122448   3.484   1.676   8.185  0.2646  0.9000 -1.9062
 3605SOL    HW222449   3.382   1.773   8.248  1.9971 -0.7663  0.7361
 3606SOL     OW22450   0.931   0.906  11.181 -0.5480 -0.3128 -0.7417
 3606SOL    HW122451   0.861   0.970  11.199 -0.2305 -0.2004  0.0677
 3606SOL    HW222452   0.960   0.950  11.100 -0.6899 -1.1828 -1.2633
 3607SOL     OW22453   3.899   4.215   3.920 -0.2244  0.4538 -0.4709
 3607SOL    HW122454   3.899   4.252   4.009 -1.8312  0.0128 -0.2851
 3607SOL    HW222455   3.804   4.210   3.915 -0.1725  0.2239 -1.2244
 3608SOL     OW22456   0.113   1.609   5.334 -0.6626 -0.5711 -0.3297
 3608SOL    HW122457   0.070   1.555   5.268 -2.0574  2.2099 -1.7067
 3608SOL    HW222458   0.113   1.542   5.402 -0.1435 -0.7044 -0.4604
 3609SOL     OW22459   1.091   1.226  16.801 -0.4820 -0.0914 -0.2767
 3609SOL    HW122460   1.069   1.299  16.743  2.4900 -0.9439 -2.4919
 3609SOL    HW222461   1.186   1.228  16.788 -0.3898  1.0168  0.5912
 3610SOL     OW22462   4.715   0.511   3.752  0.1603 -0.3655  0.4049
 3610SOL    HW122463   0.034   0.539   3.677 -0.2974 -0.6397 -0.0236
 3610SOL    HW222464   4.727   0.576   3.821 -1.2014  0.5058 -0.1815
 3611SOL     OW22465   1.325   2.014  13.233  0.2326  0.0787 -0.4906
 3611SOL    HW122466   1.342   2.087  13.174  0.0963 -0.3570 -1.0655
 3611SOL    HW222467   1.397   1.957  13.205  0.4711 -0.9248  2.1956
 3612SOL     OW22468   3.166   1.082   9.689 -0.2416 -0.0615  0.5125
 3612SOL    HW122469   3.128   1.145   9.629 -0.9700  0.2238  1.2704
 3612SOL    HW222470   3.107   1.087   9.765 -0.3363  0.3448  0.4138
 3613SOL     OW22471   0.976   4.094   3.382  0.8749 -1.1705 -0.4902
 3613SOL    HW122472   0.908   4.052   3.434 -0.4506  1.2113 -0.2941
 3613SOL    HW222473   1.041   4.024   3.377  1.2813 -0.7268 -1.5362
 3614SOL     OW22474   3.367   1.430   2.063 -0.1676  0.0176 -0.0242
 3614SOL    HW122475   3.307   1.435   2.138  0.0926 -1.0902  0.2618
 3614SOL    HW222476   3.312   1.428   1.985 -0.8639  3.5814  0.3918
 3615SOL     OW22477   2.069   2.065   5.409  0.2682 -0.3719  0.0710
 3615SOL    HW122478   2.060   2.000   5.478 -0.6513  0.0455  0.3600
 3615SOL    HW222479   2.013   2.135   5.444  2.4431  1.3862  0.0405
 3616SOL     OW22480   4.151   0.069   8.416  0.5486 -0.5847  0.5506
 3616SOL    HW122481   4.224   0.021   8.376 -1.4510 -2.0662 -1.3506
 3616SOL    HW222482   4.146   0.146   8.359  0.9373 -0.2369  0.9851
 3617SOL     OW22483   0.618   2.272   8.497  0.5029  0.1110  0.1132
 3617SOL    HW122484   0.541   2.215   8.495  0.0321  0.7410  0.1252
 3617SOL    HW222485   0.683   2.216   8.457 -0.5955  0.3079 -1.9356
 3618SOL     OW22486   1.056   3.387   1.083  0.2227 -0.0072  0.3890
 3618SOL    HW122487   0.967   3.413   1.060  0.5932  1.1382  0.2527
 3618SOL    HW222488   1.105   3.441   1.021  0.0986  2.0106  2.0288
 3619SOL     OW22489   3.617   0.722  13.732 -0.1954  1.0477 -0.8725
 3619SOL    HW122490   3.549   0.686  13.790  1.0184 -1.0639 -0.7567
 3619SOL    HW222491   3.597   0.815  13.734  1.4839  1.4234 -1.4148
 3620SOL     OW22492   0.674   0.342   8.903  0.0203  0.1153 -0.0129
 3620SOL    HW122493   0.604   0.313   8.961 -0.4331  0.2829 -0.4741
 3620SOL    HW222494   0.629   0.365   8.822  0.2928 -0.8357 -0.4360
 3621SOL     OW22495   4.685   1.111  10.465 -0.2206 -0.1233 -0.2660
 3621SOL    HW122496   4.692   1.192  10.516  1.4724  0.2936 -1.1724
 3621SOL    HW222497   0.040   1.111  10.430 -1.4948  1.7678 -3.5398
 3622SOL     OW22498   4.430   3.763   2.503 -0.3059 -0.4900  0.3614
 3622SOL    HW122499   4.454   3.825   2.434  0.3533  1.0180  1.9649
 3622SOL    HW222500   4.397   3.686   2.456  0.9966 -0.8650  0.0503
 3623SOL     OW22501   1.845   0.842  12.676 -0.0758 -0.6125 -0.7015
 3623SOL    HW122502   1.909   0.870  12.741  0.4668 -1.4771 -0.8622
 3623SOL    HW222503   1.896   0.814  12.600 -0.0706  0.0238 -0.9332
 3624SOL     OW22504   3.677   2.026  10.729 -0.6577 -0.7867 -0.1162
 3624SOL    HW122505   3.702   1.977  10.651  1.6899 -0.5706  0.4836
 3624SOL    HW222506   3.653   1.953  10.785 -1.4411  0.9726  1.8609
 3625SOL     OW22507   2.896   2.384   8.213  0.1161  0.0242  0.4409
 3625SOL    HW122508   2.992   2.388   8.217  0.1746  0.7831 -1.5927
 3625SOL    HW222509   2.865   2.294   8.220  0.8348 -0.4274 -1.8553
 3626SOL     OW22510   3.631   0.065   7.622  0.2943 -0.1845 -0.0425
 3626SOL    HW122511   3.659   0.134   7.683 -0.7621 -0.3303  0.6152
 3626SOL    HW222512   3.605   0.120   7.549 -0.6924 -1.8566 -0.9419
 3627SOL     OW22513   2.798   0.715   4.551 -0.2043 -0.7569  0.0652
 3627SOL    HW122514   2.834   0.799   4.579 -0.5053 -0.1845 -1.2419
 3627SOL    HW222515   2.779   0.665   4.630  0.2268 -0.2801  0.4699
 3628SOL     OW22516   1.073   1.349  12.210  0.0277  0.0189 -0.2787
 3628SOL    HW122517   1.011   1.387  12.273 -0.5103  1.2867 -1.5731
 3628SOL    HW222518   1.022   1.272  12.184 -2.1272  1.4083 -0.1751
 3629SOL     OW22519   0.931   2.019   7.817 -0.2174 -0.1056  0.1328
 3629SOL    HW122520   1.018   2.025   7.778 -0.3464 -1.2658 -0.3476
 3629SOL    HW222521   0.891   2.097   7.778  0.1949  0.2643  0.4561
 3630SOL     OW22522   1.813   1.999   6.163 -0.4689 -0.0472 -0.2394
 3630SOL    HW122523   1.871   1.933   6.125  1.1605  1.6806 -0.7243
 3630SOL    HW222524   1.869   2.076   6.171  1.0358 -1.2504  0.7163
 3631SOL     OW22525   4.471   3.201   5.453  0.4178 -0.1620  0.4754
 3631SOL    HW122526   4.441   3.181   5.541 -1.0672 -1.9691 -0.4417
 3631SOL    HW222527   4.544   3.140   5.460  0.1978 -0.1452  2.8183
 3632SOL     OW22528   2.608   0.154   7.697  0.1178 -0.9777  0.0454
 3632SOL    HW122529   2.659   0.179   7.775 -0.0084  0.0756 -0.2158
 3632SOL    HW222530   2.520   0.186   7.715 -0.1582 -2.5810  1.5588
 3633SOL     OW22531   4.371   2.124  17.117  0.3365 -0.1314 -1.0342
 3633SOL    HW122532   4.398   2.210  17.086 -0.4869  0.3264 -0.4881
 3633SOL    HW222533   4.446   2.064  17.115  2.9913  3.2437 -1.8965
 3634SOL     OW22534   1.993   2.903   6.295 -0.4254  0.1386 -0.1081
 3634SOL    HW122535   1.994   2.997   6.276 -0.3662  0.5500  1.9403
 3634SOL    HW222536   1.928   2.898   6.365  2.0492  0.4686  2.1810
 3635SOL     OW22537   0.350   4.653  10.304 -0.2888  0.1112 -0.0185
 3635SOL    HW122538   0.289   4.615  10.367  0.8621  0.4833  1.3165
 3635SOL    HW222539   0.342   4.585  10.237 -0.0565  2.2867 -2.2210
 3636SOL     OW22540   3.758   3.243   4.660  0.2047  0.1202  0.1884
 3636SOL    HW122541   3.753   3.332   4.625 -1.9069  0.0750  0.3962
 3636SOL    HW222542   3.749   3.272   4.751  0.7573  0.5790  0.0992
 3637SOL     OW22543   0.437   3.337   5.953  0.0511  0.2834  0.0816
 3637SOL    HW122544   0.371   3.342   6.022  0.5529  0.4569  0.5456
 3637SOL    HW222545   0.506   3.309   6.012 -0.6596 -1.9662 -0.1696
 3638SOL     OW22546   3.596   1.900   4.376  0.0992  0.3397 -0.2610
 3638SOL    HW122547   3.528   1.895   4.309  1.2933 -2.5092 -1.2601
 3638SOL    HW222548   3.576   1.825   4.431  1.3319 -0.2564 -0.6228
 3639SOL     OW22549   3.698   3.934  10.368  0.8257 -0.0959  0.4851
 3639SOL    HW122550   3.732   3.859  10.417  3.1515  1.9446  1.9947
 3639SOL    HW222551   3.674   3.896  10.283 -1.3331 -1.3412  1.6416
 3640SOL     OW22552   0.942   1.442  16.625  0.0684  0.0994  0.1147
 3640SOL    HW122553   0.908   1.529  16.645  0.9348  0.0278  1.9040
 3640SOL    HW222554   0.863   1.388  16.633  0.2256 -0.2043 -0.3630
 3641SOL     OW22555   3.758   3.755   0.819  0.0457  0.1556 -0.5377
 3641SOL    HW122556   3.776   3.718   0.733 -0.5939 -0.3206 -0.4689
 3641SOL    HW222557   3.846   3.786   0.842  1.3295 -1.6634 -3.0693
 3642SOL     OW22558   1.204   2.238  14.406  0.1244  0.2490 -0.1659
 3642SOL    HW122559   1.119   2.245  14.364 -0.7349 -0.0713  1.5326
 3642SOL    HW222560   1.187   2.171  14.473 -1.2643  1.2778  0.4997
 3643SOL     OW22561   2.596   0.739   3.813 -0.2010  0.4004 -0.0940
 3643SOL    HW122562   2.502   0.743   3.833  0.3510  1.5763  2.3076
 3643SOL    HW222563   2.599   0.743   3.718  0.2232 -1.3092 -0.1389
 3644SOL     OW22564   2.104   0.258  12.192 -0.6340 -0.4764 -0.2022
 3644SOL    HW122565   2.188   0.230  12.230 -0.2602  0.6954 -0.1615
 3644SOL    HW222566   2.118   0.342  12.234  0.1302 -0.2045 -0.9884
 3645SOL     OW22567   1.863   3.292  10.387 -0.3579  0.4695  0.3963
 3645SOL    HW122568   1.843   3.310  10.479  2.4285  2.6598  0.5690
 3645SOL    HW222569   1.776   3.300  10.348 -0.6984  1.2304  1.2938
 3646SOL     OW22570   2.799   4.057   3.678  0.0593  0.0173  0.5348
 3646SOL    HW122571   2.762   4.131   3.725  0.4185  0.2763  0.4080
 3646SOL    HW222572   2.754   4.056   3.594  1.5613  2.2070 -0.2839
 3647SOL     OW22573   2.533   3.219   9.258 -0.2266 -0.5942  0.0936
 3647SOL    HW122574   2.589   3.159   9.308 -1.7791  0.4734  3.0819
 3647SOL    HW222575   2.453   3.167   9.250 -0.5336  0.0639 -1.0913
 3648SOL     OW22576   3.917   2.179  13.272 -0.0149 -0.0043  0.5246
 3648SOL    HW122577   4.000   2.225  13.286  0.4425 -0.7623  0.3338
 3648SOL    HW222578   3.878   2.200  13.357 -0.5190 -0.1887  0.3391
 3649SOL     OW22579   1.680   3.808   7.302 -0.2838  0.4610  0.2511
 3649SOL    HW122580   1.613   3.749   7.337  0.4010  0.1748  1.0900
 3649SOL    HW222581   1.763   3.771   7.334 -0.4929  0.5439  0.8929
 3650SOL     OW22582   1.241   3.745   0.856 -0.5295 -0.1835  0.2571
 3650SOL    HW122583   1.241   3.687   0.932  1.1108  0.1606  0.5010
 3650SOL    HW222584   1.214   3.827   0.897 -3.5363 -0.2843 -1.4547
 3651SOL     OW22585   3.798   3.669   0.515 -0.3752 -0.2924  0.0058
 3651SOL    HW122586   3.854   3.591   0.513  2.2473  1.5768  1.2570
 3651SOL    HW222587   3.863   3.739   0.519  0.5598 -1.2401  1.8087
 3652SOL     OW22588   2.509   1.257   5.714 -0.0989  0.2448 -0.0555
 3652SOL    HW122589   2.555   1.185   5.758  0.9173  0.2380 -1.1448
 3652SOL    HW222590   2.430   1.208   5.690 -0.1776  0.5482 -0.4089
 3653SOL     OW22591   1.008   2.439   6.880  0.0127 -0.3927 -0.0938
 3653SOL    HW122592   0.931   2.415   6.827  0.1961 -1.1769 -0.0150
 3653SOL    HW222593   0.962   2.478   6.954 -1.3847  0.2578 -1.2786
 3654SOL     OW22594   1.505   0.199   3.951 -0.0824 -0.1789  0.0111
 3654SOL    HW122595   1.418   0.223   3.919 -0.0780  0.4840  0.4794
 3654SOL    HW222596   1.492   0.122   4.006  1.7107 -0.3999  0.1452
 3655SOL     OW22597   1.210   1.332  10.655 -0.2121  0.5939 -0.1888
 3655SOL    HW122598   1.305   1.328  10.646 -0.2941 -0.4596 -0.6180
 3655SOL    HW222599   1.193   1.265  10.721 -0.3323  1.6347  0.8424
 3656SOL     OW22600   1.403   4.335   5.890  0.2629  0.4160  0.3195
 3656SOL    HW122601   1.331   4.314   5.950 -0.8145 -0.7286 -1.3930
 3656SOL    HW222602   1.445   4.251   5.907  1.4760  0.9302 -0.1208
 3657SOL     OW22603   1.092   2.302   5.334 -0.2009 -0.8627  0.6660
 3657SOL    HW122604   1.001   2.273   5.340 -0.5653  0.6543  2.3148
 3657SOL    HW222605   1.108   2.269   5.245 -0.5725 -1.3040  0.7600
 3658SOL     OW22606   1.409   2.232   6.882  0.5902  0.5854 -0.0307
 3658SOL    HW122607   1.441   2.213   6.793  1.1610 -1.6153  0.6352
 3658SOL    HW222608   1.480   2.289   6.909  1.5970 -0.7094  0.0422
 3659SOL     OW22609   1.814   0.648  16.690 -0.4369  0.1784 -0.4114
 3659SOL    HW122610   1.743   0.711  16.704 -1.4177 -0.7267 -1.2919
 3659SOL    HW222611   1.800   0.585  16.760  1.8867 -1.1278 -1.1178
 3660SOL     OW22612   3.517   4.091  14.998 -0.2037  0.0887 -0.0780
 3660SOL    HW122613   3.598   4.114  14.953 -0.2541  1.4219  0.4998
 3660SOL    HW222614   3.528   3.996  15.002  0.3102  0.1003 -1.3022
 3661SOL     OW22615   0.239   1.469  15.693  0.2911 -0.6984 -0.3287
 3661SOL    HW122616   0.163   1.524  15.712  0.3739 -1.2639  1.6722
 3661SOL    HW222617   0.226   1.459  15.599  0.5487 -0.0822 -0.4328
 3662SOL     OW22618   2.403   3.796   7.708  0.0568  0.0195  0.1622
 3662SOL    HW122619   2.395   3.782   7.614 -1.3607  0.5348  0.1972
 3662SOL    HW222620   2.475   3.736   7.726  1.1683  1.0869 -0.7425
 3663SOL     OW22621   1.705   2.217   6.891  0.0222  0.1497 -0.5630
 3663SOL    HW122622   1.711   2.291   6.951 -0.1166 -1.5159  1.4940
 3663SOL    HW222623   1.783   2.217   6.835 -0.3693 -0.5303 -1.1115
 3664SOL     OW22624   1.151   2.178   8.821 -0.6985 -0.0698 -0.5722
 3664SOL    HW122625   1.238   2.192   8.859 -0.0688  0.2131 -2.1219
 3664SOL    HW222626   1.165   2.123   8.743 -3.7470 -1.1743 -0.3397
 3665SOL     OW22627   3.196   0.801   6.700  0.3853  0.0222 -0.3790
 3665SOL    HW122628   3.247   0.729   6.738 -1.7368 -0.9547  0.6217
 3665SOL    HW222629   3.107   0.769   6.717  0.1170  0.7589 -0.4170
 3666SOL     OW22630   3.182   3.210   5.922 -0.3109 -0.0181  0.0857
 3666SOL    HW122631   3.190   3.240   5.831  0.0812  1.1213  0.4892
 3666SOL    HW222632   3.097   3.170   5.905  1.0348 -2.8598  0.0485
 3667SOL     OW22633   3.948   3.521   5.607  0.2381  0.1467 -0.3114
 3667SOL    HW122634   4.001   3.598   5.585 -1.4671  0.3185 -3.7235
 3667SOL    HW222635   4.007   3.467   5.661 -1.8690 -0.7705  1.0966
 3668SOL     OW22636   2.918   0.808  14.147  0.5225  0.3449 -0.5430
 3668SOL    HW122637   2.995   0.865  14.158 -0.4815  1.7945 -1.0322
 3668SOL    HW222638   2.937   0.786  14.056  2.2415 -0.4614  0.0057
 3669SOL     OW22639   4.246   3.635   4.649 -0.0290  0.3051  0.0767
 3669SOL    HW122640   4.151   3.634   4.648 -0.0555  4.0578 -1.6979
 3669SOL    HW222641   4.264   3.542   4.661 -2.7003 -0.1088  0.6531
 3670SOL     OW22642   1.858   3.647   7.444 -0.5446 -0.0849  0.2430
 3670SOL    HW122643   1.928   3.581   7.444  0.3132  0.8117 -1.2097
 3670SOL    HW222644   1.801   3.619   7.515 -0.6113  0.2329  0.3168
 3671SOL     OW22645   0.747   4.374   4.931  0.5215  0.0285 -0.4299
 3671SOL    HW122646   0.767   4.287   4.896  0.8811  0.1159 -0.4426
 3671SOL    HW222647   0.836   4.406   4.921  0.3142  0.3114 -1.3304
 3672SOL     OW22648   2.671   0.484  14.728 -0.4545  0.0816  0.3243
 3672SOL    HW122649   2.754   0.444  14.700 -0.2434 -0.2002  1.3677
 3672SOL    HW222650   2.647   0.550  14.662 -1.1168 -0.2984  0.1852
 3673SOL     OW22651   0.921   1.264   2.757 -0.1913  0.6457  0.6348
 3673SOL    HW122652   0.878   1.181   2.735 -1.1437  0.9250  1.4293
 3673SOL    HW222653   0.971   1.296   2.682  1.4112 -0.0155  1.4072
 3674SOL     OW22654   0.334   0.931  15.072  0.3504  0.4771  0.1114
 3674SOL    HW122655   0.375   0.954  14.989  3.9152 -0.1856  1.6830
 3674SOL    HW222656   0.313   0.840  15.053  0.8327  0.6561 -1.2556
 3675SOL     OW22657   3.404   3.319   0.082  0.0292  0.3560 -0.1499
 3675SOL    HW122658   3.363   3.323   0.168 -1.7980 -1.3468 -0.9352
 3675SOL    HW222659   3.335   3.362   0.031  0.9632  0.4167 -1.3708
 3676SOL     OW22660   2.474   2.011   5.987  0.2920  0.0109  0.3933
 3676SOL    HW122661   2.507   2.004   5.898 -0.6846 -0.2134  0.0538
 3676SOL    HW222662   2.416   1.936   5.988  1.0800 -0.5987  0.8315
 3677SOL     OW22663   3.374   2.331  17.119  0.2479  0.4248 -0.7141
 3677SOL    HW122664   3.418   2.412  17.094  0.0468  1.2565  1.5887
 3677SOL    HW222665   3.425   2.312  17.198 -0.5315  2.9187  0.3912
 3678SOL     OW22666   0.336   3.713   3.624 -0.0299  0.2822  0.2473
 3678SOL    HW122667   0.288   3.708   3.707 -1.5586  1.7458 -0.5622
 3678SOL    HW222668   0.266   3.710   3.559  1.1838 -1.3324 -0.9971
 3679SOL     OW22669   0.390   3.865   8.730 -0.2539  0.0796 -0.5745
 3679SOL    HW122670   0.392   3.776   8.765 -2.8627  1.0070  1.9040
 3679SOL    HW222671   0.396   3.908   8.815 -1.2215  1.0835 -1.0054
 3680SOL     OW22672   3.421   4.593   0.579  0.4941  0.6728  0.3479
 3680SOL    HW122673   3.461   4.595   0.492 -2.3509  0.9856 -0.9560
 3680SOL    HW222674   3.393   4.502   0.586 -2.4540  1.6436  1.1720
 3681SOL     OW22675   0.027   3.370   8.251  0.1285  0.1390  0.0386
 3681SOL    HW122676   4.667   3.383   8.243  0.0540 -0.5180 -0.0711
 3681SOL    HW222677   0.058   3.417   8.329 -0.3223 -1.5555  1.2291
 3682SOL     OW22678   1.047   3.661   4.111 -0.5576 -0.3085 -0.3768
 3682SOL    HW122679   0.954   3.638   4.108 -0.2650 -1.5119 -0.2147
 3682SOL    HW222680   1.090   3.585   4.149  1.2788  0.2145 -1.3877
 3683SOL     OW22681   1.290   1.790   2.892  0.2491 -0.0419  0.2714
 3683SOL    HW122682   1.279   1.831   2.978  0.3038 -0.9002  0.6924
 3683SOL    HW222683   1.356   1.840   2.845  2.1647  0.2304  3.2738
 3684SOL     OW22684   2.181   2.317   3.399  0.4423 -0.0080  0.4397
 3684SOL    HW122685   2.171   2.222   3.396 -2.3454  0.3036 -0.9704
 3684SOL    HW222686   2.099   2.340   3.354 -0.6893  0.9537  3.0293
 3685SOL     OW22687   1.708   0.599   8.375 -0.1882 -0.1041 -0.0691
 3685SOL    HW122688   1.772   0.596   8.445  0.7695 -0.6464 -0.9654
 3685SOL    HW222689   1.662   0.681   8.394  2.2478  0.7166  2.2328
 3686SOL     OW22690   0.743   3.679   7.142 -0.3246 -0.2875  0.1864
 3686SOL    HW122691   0.826   3.639   7.117  0.7748  2.3646 -0.4255
 3686SOL    HW222692   0.684   3.605   7.129  0.2342 -0.3986 -1.7452
 3687SOL     OW22693   1.982   1.087   7.625  0.6922  0.5244 -0.3786
 3687SOL    HW122694   1.926   1.010   7.615  1.0024  0.2456 -0.0085
 3687SOL    HW222695   1.981   1.103   7.720 -0.7926  1.1235 -0.4978
 3688SOL     OW22696   0.219   2.534   8.081  0.4944  0.2314  0.0838
 3688SOL    HW122697   0.184   2.619   8.054  0.8876  0.1924 -0.5450
 3688SOL    HW222698   0.161   2.471   8.038  1.5189  0.3665 -1.4831
 3689SOL     OW22699   0.784   3.524   4.396 -0.3099  0.4853  0.3556
 3689SOL    HW122700   0.708   3.466   4.388  1.1333 -1.1079 -1.9343
 3689SOL    HW222701   0.840   3.463   4.348 -1.2955  0.7423 -1.1172
 3690SOL     OW22702   0.221   3.428   8.909 -0.2121 -0.3368 -0.1484
 3690SOL    HW122703   0.279   3.387   8.973  1.4311  3.1259  0.5568
 3690SOL    HW222704   0.170   3.349   8.891 -1.8199  0.7702 -0.4217
 3691SOL     OW22705   1.385   1.927  14.537 -0.1457  0.2229 -0.0696
 3691SOL    HW122706   1.381   1.945  14.443  0.3171  0.6438 -0.0097
 3691SOL    HW222707   1.460   1.868  14.537 -0.9272 -0.7850  1.7058
 3692SOL     OW22708   1.778   0.182  16.933  0.8872 -0.3494 -0.0577
 3692SOL    HW122709   1.793   0.113  16.868 -0.6135 -1.0132  0.3071
 3692SOL    HW222710   1.787   0.123  17.008 -0.7675  0.1254  0.5024
 3693SOL     OW22711   2.166   1.262   0.775  0.4925 -0.5039  0.2000
 3693SOL    HW122712   2.248   1.212   0.778 -0.0233 -1.3082  1.2966
 3693SOL    HW222713   2.127   1.229   0.694  2.7164 -0.6906 -0.7751
 3694SOL     OW22714   2.539   0.291   0.758 -0.3861  0.5134  0.2342
 3694SOL    HW122715   2.476   0.254   0.696 -2.1981  0.7696  1.9338
 3694SOL    HW222716   2.602   0.339   0.703 -0.6875 -0.5086 -0.9920
 3695SOL     OW22717   4.201   0.389   6.846 -0.3752 -0.1583 -0.2285
 3695SOL    HW122718   4.110   0.361   6.834 -0.8857  0.8906  1.2829
 3695SOL    HW222719   4.243   0.346   6.771 -1.0769  1.5746 -1.6395
 3696SOL     OW22720   1.149   3.675  16.452 -0.2404 -0.1156  0.2188
 3696SOL    HW122721   1.201   3.646  16.377  0.5362  0.6480  0.4681
 3696SOL    HW222722   1.063   3.637  16.430 -1.3840  1.0839  2.6110
 3697SOL     OW22723   2.263   2.879   6.406  0.0284  0.6361  0.0552
 3697SOL    HW122724   2.320   2.916   6.339  0.4440 -0.0723  0.0145
 3697SOL    HW222725   2.180   2.878   6.357 -0.1168 -0.4997  0.3080
 3698SOL     OW22726   3.677   0.330   4.318 -0.4450 -0.5564 -0.3400
 3698SOL    HW122727   3.681   0.234   4.321  0.5588 -0.5093  0.0843
 3698SOL    HW222728   3.622   0.351   4.243  0.4380 -0.1209 -0.8601
 3699SOL     OW22729   4.419   2.625  14.933  0.1057 -0.4786  0.0056
 3699SOL    HW122730   4.377   2.637  15.018  1.3277  3.1098  0.1098
 3699SOL    HW222731   4.401   2.534  14.912  0.7393 -0.2291 -1.6485
 3700SOL     OW22732   3.580   2.302   0.247 -0.0963  0.3265 -0.2017
 3700SOL    HW122733   3.543   2.239   0.186  0.8275  0.9467 -1.3854
 3700SOL    HW222734   3.507   2.301   0.309  0.8273 -0.9818  0.8685
 3701SOL     OW22735   0.794   2.840   1.527 -0.2154  0.2443 -0.0009
 3701SOL    HW122736   0.875   2.842   1.477 -0.4293  1.3919 -0.3001
 3701SOL    HW222737   0.797   2.751   1.562  0.5276  0.6535  0.9699
 3702SOL     OW22738   0.487   0.668   5.145 -0.5662  0.6344  0.3275
 3702SOL    HW122739   0.468   0.620   5.226  0.2103 -2.9249 -1.6077
 3702SOL    HW222740   0.425   0.741   5.154  0.8455  1.6218  2.1400
 3703SOL     OW22741   4.642   4.632   9.457 -0.4834 -0.2597 -1.1139
 3703SOL    HW122742   4.692   4.714   9.451 -0.1596 -0.4163 -0.6034
 3703SOL    HW222743   4.585   4.639   9.381 -1.9897  0.6673  0.0899
 3704SOL     OW22744   0.869   3.753  11.525 -0.1374  0.6813  0.1560
 3704SOL    HW122745   0.786   3.714  11.498 -0.1826  0.6358  0.3652
 3704SOL    HW222746   0.845   3.787  11.611  2.2393 -2.5661  2.0717
 3705SOL     OW22747   2.094   2.553   7.869  0.3176 -0.1646 -0.1074
 3705SOL    HW122748   2.082   2.461   7.893  0.9303  0.4235  2.4401
 3705SOL    HW222749   2.008   2.587   7.847  0.2859  0.9924  1.8262
 3706SOL     OW22750   4.708   0.853   4.376 -0.5601 -0.0695  0.5271
 3706SOL    HW122751   4.655   0.834   4.299 -0.3307 -0.9584  0.5919
 3706SOL    HW222752   4.681   0.940   4.404 -0.9340  0.4655 -1.5324
 3707SOL     OW22753   4.555   1.792   8.073  0.1590 -0.1807 -0.2043
 3707SOL    HW122754   4.486   1.806   8.009  1.2041  3.2784 -0.5665
 3707SOL    HW222755   4.640   1.773   8.033  0.3859 -0.9840  0.6612
 3708SOL     OW22756   0.370   4.519   8.272  0.0710  0.0919  0.0253
 3708SOL    HW122757   0.385   4.606   8.310  1.2851 -0.0760 -0.0675
 3708SOL    HW222758   0.294   4.487   8.322  0.8380 -0.2998  0.9427
 3709SOL     OW22759   3.737   1.747   8.396  0.7580 -0.3277 -0.2296
 3709SOL    HW122760   3.807   1.682   8.390 -0.0519 -1.2958  0.8237
 3709SOL    HW222761   3.751   1.775   8.487 -0.4064 -0.0298 -0.1458
 3710SOL     OW22762   0.319   0.172  16.869  0.2963  0.1997  0.9535
 3710SOL    HW122763   0.296   0.114  16.797  0.8175  2.1469 -0.7702
 3710SOL    HW222764   0.409   0.188  16.843  0.5227 -1.0124  0.9609
 3711SOL     OW22765   0.280   2.350   1.292 -0.3542  0.3725 -0.1142
 3711SOL    HW122766   0.352   2.413   1.278 -0.6411  1.3431  2.8332
 3711SOL    HW222767   0.201   2.403   1.287 -1.1546 -0.8534 -0.2266
 3712SOL     OW22768   3.913   0.286   1.213 -0.1905 -0.4691 -0.5418
 3712SOL    HW122769   3.879   0.321   1.296  0.4022  1.5288 -1.1554
 3712SOL    HW222770   3.832   0.289   1.162 -1.0688  2.3415  1.0045
 3713SOL     OW22771   0.353   2.140   8.423 -0.3396 -0.1777  0.1688
 3713SOL    HW122772   0.286   2.098   8.370 -0.1788 -0.7468  0.4124
 3713SOL    HW222773   0.381   2.203   8.357  0.5041  1.7551  2.3737
 3714SOL     OW22774   3.064   3.691   3.827 -0.9915  0.5971 -0.4028
 3714SOL    HW122775   3.108   3.609   3.848 -1.5766  0.4299  0.1838
 3714SOL    HW222776   2.970   3.678   3.840 -0.6228 -1.1334  0.5932
 3715SOL     OW22777   3.848   3.083   0.836 -0.3523  0.1653  0.0087
 3715SOL    HW122778   3.761   3.098   0.872 -0.0647 -0.0486  0.7806
 3715SOL    HW222779   3.825   2.999   0.795 -2.5187  0.4597  0.6200
 3716SOL     OW22780   4.469   4.379   1.099  0.0273 -0.2235 -0.3160
 3716SOL    HW122781   4.377   4.369   1.075  0.0072 -0.6294 -0.0566
 3716SOL    HW222782   4.485   4.290   1.129  0.8449  0.2668  0.6767
 3717SOL     OW22783   0.479   4.582   6.038  0.4228 -0.1611 -0.1439
 3717SOL    HW122784   0.553   4.562   6.095  1.3388  2.3644 -0.4823
 3717SOL    HW222785   0.448   4.492   6.027  1.1052 -0.1359 -2.2783
 3718SOL     OW22786   2.634   4.366   3.281  0.0077 -0.0413  0.3065
 3718SOL    HW122787   2.543   4.376   3.308 -0.5871  2.4245 -2.5236
 3718SOL    HW222788   2.651   4.279   3.317  0.7503  0.3371  0.8823
 3719SOL     OW22789   2.451   0.781   4.495  0.4430 -0.4106  0.0621
 3719SOL    HW122790   2.453   0.695   4.453  0.0866 -1.4329  2.1118
 3719SOL    HW222791   2.518   0.766   4.562 -0.0814  0.9769  0.8965
 3720SOL     OW22792   3.792   1.951   9.474 -0.4088  0.1723  0.2229
 3720SOL    HW122793   3.706   1.994   9.470 -0.4323  0.0520 -0.4265
 3720SOL    HW222794   3.834   1.978   9.393 -0.7907  3.1013  0.9790
 3721SOL     OW22795   4.248   3.712   8.082 -0.4176  0.2262  0.2761
 3721SOL    HW122796   4.156   3.699   8.058  0.1599 -0.2681 -1.6992
 3721SOL    HW222797   4.283   3.677   7.999  0.0538 -1.0594  1.0151
 3722SOL     OW22798   1.293   0.428   4.028  0.1510 -0.0521  0.2637
 3722SOL    HW122799   1.349   0.504   4.011 -0.0594  0.1031  0.2540
 3722SOL    HW222800   1.212   0.468   3.996  0.2576 -0.0426  0.0056
 3723SOL     OW22801   2.801   2.531   9.228 -0.2718 -0.3044 -0.7113
 3723SOL    HW122802   2.830   2.621   9.243 -0.6831 -0.0388 -1.5689
 3723SOL    HW222803   2.707   2.547   9.221  0.1231  2.6793  0.6801
 3724SOL     OW22804   3.679   1.635   8.691 -0.1187  0.5498  0.1215
 3724SOL    HW122805   3.715   1.723   8.681  0.6335  0.1446 -0.6767
 3724SOL    HW222806   3.754   1.581   8.667 -0.2091 -0.0534  1.2056
 3725SOL     OW22807   3.489   1.627  12.174 -0.3740  0.3841  0.0448
 3725SOL    HW122808   3.562   1.672  12.216 -0.7334  1.1206 -0.1179
 3725SOL    HW222809   3.440   1.702  12.141  0.0153 -0.5767 -2.6584
 3726SOL     OW22810   2.420   3.402   9.732  0.0917  0.2547  0.4393
 3726SOL    HW122811   2.363   3.326   9.742 -1.1111  1.1590  0.3613
 3726SOL    HW222812   2.451   3.411   9.822  0.2751 -1.2952  0.5311
 3727SOL     OW22813   0.362   3.347   5.184  0.5325  0.6893  0.0673
 3727SOL    HW122814   0.434   3.286   5.172 -1.3436 -1.1585 -1.8076
 3727SOL    HW222815   0.282   3.297   5.168  0.6451  0.2094  1.0062
 3728SOL     OW22816   2.810   2.416  12.476  0.1380 -0.0112 -0.2061
 3728SOL    HW122817   2.780   2.506  12.492 -0.0792 -0.0343 -0.4880
 3728SOL    HW222818   2.731   2.363  12.492  0.0808  0.1676  0.1255
 3729SOL     OW22819   2.994   2.302   2.558  0.1205 -0.1387 -0.5403
 3729SOL    HW122820   2.899   2.309   2.551  0.3477  2.6542 -0.9755
 3729SOL    HW222821   3.020   2.289   2.467  0.0609 -2.7268 -0.1829
 3730SOL     OW22822   1.419   0.166   0.931  0.2530  0.0541 -0.1477
 3730SOL    HW122823   1.376   0.224   0.993 -1.2072  0.6019 -1.6565
 3730SOL    HW222824   1.357   0.157   0.858 -1.2631  1.0433  1.0191
 3731SOL     OW22825   4.610   1.689   3.299 -0.1511 -0.1281  0.1626
 3731SOL    HW122826   4.692   1.705   3.252 -0.5781  1.6730  0.0199
 3731SOL    HW222827   4.607   1.598   3.268 -1.1863 -0.0717  0.1142
 3732SOL     OW22828   1.245   2.718   3.584  0.0885 -0.2088 -0.3280
 3732SOL    HW122829   1.272   2.646   3.641  0.4523  1.1489  1.1739
 3732SOL    HW222830   1.169   2.747   3.634  0.5700  2.8709 -1.3830
 3733SOL     OW22831   4.481   1.118   3.487  0.1928 -0.4028 -0.4217
 3733SOL    HW122832   4.478   1.212   3.506 -2.4777 -0.6212  0.1825
 3733SOL    HW222833   4.500   1.126   3.393 -0.2353  5.7485  0.0415
 3734SOL     OW22834   4.211   0.121   9.373 -0.1288 -0.1676  0.2270
 3734SOL    HW122835   4.277   0.074   9.424 -0.2546 -2.3108 -1.5610
 3734SOL    HW222836   4.144   0.056   9.350  0.3591 -0.5126 -0.2051
 3735SOL     OW22837   2.992   0.316   4.885  0.3031 -0.5031  0.2243
 3735SOL    HW122838   3.000   0.287   4.794  0.6665 -1.1858  0.4732
 3735SOL    HW222839   3.004   0.410   4.868  0.8335 -0.7618 -0.8167
 3736SOL     OW22840   0.308   0.871   5.951  0.0247  0.2392 -0.0501
 3736SOL    HW122841   0.259   0.804   5.902 -1.5806  1.9880 -0.8507
 3736SOL    HW222842   0.237   0.935   5.961 -0.0508  0.0314  0.7300
 3737SOL     OW22843   3.191   0.262  13.215 -0.0274  0.6343  0.5561
 3737SOL    HW122844   3.112   0.281  13.266  1.6031 -1.2581  3.7943
 3737SOL    HW222845   3.174   0.185  13.161  0.8020  0.4740  0.5285
 3738SOL     OW22846   3.751   3.125   6.285 -0.0947 -0.2553  0.5718
 3738SOL    HW122847   3.677   3.138   6.345  0.0518 -1.0488  0.9353
 3738SOL    HW222848   3.737   3.206   6.237 -0.6501 -1.0592 -0.6312
 3739SOL     OW22849   4.243   3.776   3.544  0.2992 -0.0971 -0.2327
 3739SOL    HW122850   4.191   3.700   3.519 -0.8662  0.7535 -0.4281
 3739SOL    HW222851   4.317   3.775   3.483  1.0680  0.6928  0.6872
 3740SOL     OW22852   4.527   0.027   2.019 -0.4085 -0.3782  0.0779
 3740SOL    HW122853   4.593   0.028   1.950  1.1192 -1.0674  1.5311
 3740SOL    HW222854   4.576   0.035   2.101  0.7663  0.9105 -0.7364
 3741SOL     OW22855   1.391   1.703   8.152  0.1774 -0.0083  0.0314
 3741SOL    HW122856   1.440   1.769   8.200 -1.1950  1.3593 -0.4350
 3741SOL    HW222857   1.313   1.756   8.134 -0.7998 -1.6270 -0.4400
 3742SOL     OW22858   2.923   0.465   8.242  0.6322 -0.2433 -0.2081
 3742SOL    HW122859   2.902   0.547   8.197 -1.2079 -1.4748 -1.6044
 3742SOL    HW222860   3.015   0.450   8.218  1.5178 -0.9569  3.5977
 3743SOL     OW22861   2.965   2.002   8.481 -0.0585 -0.0947  0.0420
 3743SOL    HW122862   3.045   2.015   8.430 -0.4450  0.3792 -0.4500
 3743SOL    HW222863   2.980   1.984   8.574  0.3905  3.3939  0.6682
 3744SOL     OW22864   0.751   0.421   7.016 -0.0494  0.4176  0.1101
 3744SOL    HW122865   0.798   0.504   7.010 -1.5823  1.1399 -2.0906
 3744SOL    HW222866   0.753   0.408   7.111  3.7328  0.4528  0.0122
 3745SOL     OW22867   1.454   1.099   2.787 -0.0220  0.3333  0.1193
 3745SOL    HW122868   1.395   1.166   2.751 -0.1029  2.1087  3.4985
 3745SOL    HW222869   1.527   1.154   2.816 -2.2973  3.5131 -0.2357
 3746SOL     OW22870   1.170   4.672   0.501 -0.4883  0.0134  0.3609
 3746SOL    HW122871   1.089   4.626   0.522 -0.2220 -1.7065 -2.3887
 3746SOL    HW222872   1.173   4.659   0.406  0.2075  2.7358  0.0189
 3747SOL     OW22873   2.625   0.647   3.292 -0.1818  0.1775 -0.1937
 3747SOL    HW122874   2.714   0.664   3.263  0.2218 -0.4655  0.6947
 3747SOL    HW222875   2.565   0.683   3.226 -0.6696 -0.0561  0.1180
 3748SOL     OW22876   0.981   0.285   1.062  0.1283  0.0268 -0.1042
 3748SOL    HW122877   0.998   0.192   1.071 -1.3649  0.0247  2.4575
 3748SOL    HW222878   0.940   0.282   0.976  1.5150  2.0990 -0.8546
 3749SOL     OW22879   4.150   2.594   5.903 -0.2083 -0.5277 -0.2632
 3749SOL    HW122880   4.083   2.658   5.926  0.3660 -0.1886  0.4599
 3749SOL    HW222881   4.180   2.571   5.991  1.3204 -0.3438 -0.7459
 3750SOL     OW22882   3.360   0.514   1.643  0.1418 -0.1740  0.2421
 3750SOL    HW122883   3.347   0.589   1.700 -1.4401 -0.4662  0.2809
 3750SOL    HW222884   3.305   0.527   1.565  1.3553 -1.2165 -0.7885
 3751SOL     OW22885   1.439   2.858   5.554  0.0285  0.5273 -0.1187
 3751SOL    HW122886   1.395   2.937   5.521  0.7143  0.7550 -0.5155
 3751SOL    HW222887   1.439   2.866   5.649  0.7144  1.5732 -0.1907
 3752SOL     OW22888   0.015   2.463   9.549 -0.1525  0.2464 -0.0652
 3752SOL    HW122889   0.021   2.432   9.458 -0.2380 -1.2446  0.4326
 3752SOL    HW222890   0.110   2.458   9.557 -0.4592 -3.6539  1.0296
 3753SOL     OW22891   2.963   1.706   0.005  0.2327  0.2810  0.2475
 3753SOL    HW122892   3.017   1.645  17.690 -3.0305 -1.6734 -0.8477
 3753SOL    HW222893   2.938   1.768  17.674 -0.9963  0.0767  0.5163
 3754SOL     OW22894   3.936   3.167   2.715 -0.2521  0.1652  0.1708
 3754SOL    HW122895   3.899   3.107   2.780  1.4524 -1.5347 -0.4288
 3754SOL    HW222896   3.853   3.205   2.686  0.2646  0.8852 -0.3538
 3755SOL     OW22897   3.952   0.028   4.419  0.0225  0.0122  0.9646
 3755SOL    HW122898   3.890   0.097   4.443  1.6699  1.7804  0.1645
 3755SOL    HW222899   3.958   4.713   4.501  0.3401  0.6989  1.3618
 3756SOL     OW22900   4.657   3.048   3.584 -0.3758 -0.4301 -0.8880
 3756SOL    HW122901   0.013   3.015   3.584 -0.1615  0.1531  0.0838
 3756SOL    HW222902   4.629   3.054   3.493  0.3812  3.2961 -0.8871
 3757SOL     OW22903   1.216   3.959   4.796  0.2440 -0.1874  0.2013
 3757SOL    HW122904   1.126   3.956   4.762  0.2886  0.8746 -0.0177
 3757SOL    HW222905   1.268   3.919   4.726  0.6939  1.4201 -0.3869
 3758SOL     OW22906   2.963   1.870  14.954 -0.0810  0.0014 -0.3682
 3758SOL    HW122907   2.949   1.783  14.917  0.4246 -1.0601  1.8907
 3758SOL    HW222908   3.041   1.844  15.004 -0.8488  1.7080  1.7215
 3759SOL     OW22909   0.200   2.363  16.482 -0.1178  0.3384 -0.3774
 3759SOL    HW122910   0.151   2.282  16.488 -1.6122  1.2841  0.1161
 3759SOL    HW222911   0.145   2.417  16.426 -2.0389 -2.1127 -0.8476
 3760SOL     OW22912   3.236   1.160   0.848  0.1956  0.2336  0.2342
 3760SOL    HW122913   3.278   1.234   0.891  0.1295  0.7125 -0.5262
 3760SOL    HW222914   3.269   1.177   0.760  0.2564 -0.2202  0.1699
 3761SOL     OW22915   1.437   1.494   8.326 -0.3605 -0.1441 -0.4296
 3761SOL    HW122916   1.432   1.566   8.263  0.0595 -0.7970 -1.2167
 3761SOL    HW222917   1.476   1.424   8.274  1.0792  0.7572 -0.5608
 3762SOL     OW22918   2.462   2.652   5.131 -0.4357 -0.1144  0.3696
 3762SOL    HW122919   2.483   2.563   5.102  2.9029  0.2238  1.7194
 3762SOL    HW222920   2.416   2.688   5.055 -2.5515  0.0923  1.7540
 3763SOL     OW22921   1.899   0.996   9.001 -0.8359  0.1971 -0.4506
 3763SOL    HW122922   1.924   1.084   9.029  0.9990 -0.5408  0.2615
 3763SOL    HW222923   1.944   0.947   9.070 -0.6816 -0.7734 -1.2454
 3764SOL     OW22924   0.909   3.203  15.409 -0.8524  0.1472 -0.1823
 3764SOL    HW122925   0.945   3.149  15.338  1.5944  0.7305  0.6274
 3764SOL    HW222926   0.831   3.157  15.441  0.9118 -2.9712 -0.3332
 3765SOL     OW22927   1.173   1.323  16.548  0.8184  0.3521 -0.5060
 3765SOL    HW122928   1.111   1.389  16.578  0.9741  1.0007 -1.6177
 3765SOL    HW222929   1.120   1.270  16.488  1.6142  1.3175 -2.0570
 3766SOL     OW22930   2.736   0.864  13.141  0.2741  0.2497  0.4031
 3766SOL    HW122931   2.732   0.769  13.153 -0.0940  0.0694 -1.1993
 3766SOL    HW222932   2.771   0.865  13.052 -1.2568 -1.4249 -0.2263
 3767SOL     OW22933   1.030   2.434   8.214 -0.0356  0.5314 -0.0232
 3767SOL    HW122934   1.030   2.448   8.308 -1.5617 -1.5590  0.2888
 3767SOL    HW222935   0.952   2.488   8.195  1.4942  1.7305 -2.8913
 3768SOL     OW22936   4.152   2.289   5.472  0.3901 -0.0195 -0.0849
 3768SOL    HW122937   4.244   2.309   5.454  0.8911 -0.5186  1.8718
 3768SOL    HW222938   4.121   2.379   5.465  0.5418  0.0512  0.1610
 3769SOL     OW22939   4.732   1.609  15.720  0.1944 -0.0705 -0.0905
 3769SOL    HW122940   4.697   1.640  15.637  0.5478 -0.5839 -0.4259
 3769SOL    HW222941   4.661   1.640  15.777  0.0113 -0.1030 -0.3018
 3770SOL     OW22942   1.713   1.237   9.191 -0.0604  0.4417  0.7953
 3770SOL    HW122943   1.711   1.288   9.272  2.3827 -0.0243  1.1564
 3770SOL    HW222944   1.755   1.297   9.130 -1.1680 -1.9161 -2.2769
 3771SOL     OW22945   4.446   3.793   2.975  0.3733 -0.0958 -0.5250
 3771SOL    HW122946   4.426   3.752   2.891  1.6899 -1.0265 -0.3777
 3771SOL    HW222947   4.468   3.713   3.022  0.9032 -0.0287 -0.6525
 3772SOL     OW22948   4.147   4.560  14.892  0.4574 -0.8493  0.0488
 3772SOL    HW122949   4.119   4.645  14.859  0.4675 -0.9644 -0.2511
 3772SOL    HW222950   4.211   4.523  14.832  1.5332  0.9647  0.0764
 3773SOL     OW22951   3.052   2.429   3.390  0.4587 -0.0289 -0.0877
 3773SOL    HW122952   2.963   2.464   3.396  0.3328 -0.5405  0.9726
 3773SOL    HW222953   3.071   2.445   3.298 -0.7782  1.2008 -0.1302
 3774SOL     OW22954   0.864   2.081   4.615 -0.1999 -0.1522  0.0419
 3774SOL    HW122955   0.816   2.000   4.626  0.4568 -0.6447 -0.7525
 3774SOL    HW222956   0.796   2.134   4.575  0.4562  1.2146  0.7307
 3775SOL     OW22957   1.462   4.688   6.424  0.1559 -0.3817  0.1463
 3775SOL    HW122958   1.387   4.708   6.368  1.5299  0.5217 -1.3511
 3775SOL    HW222959   1.419   4.677   6.509 -0.9627 -0.0735 -0.3816
 3776SOL     OW22960   4.170   2.108  15.333  1.2974 -0.1985 -0.1247
 3776SOL    HW122961   4.108   2.168  15.374  0.7804 -0.1597 -0.9599
 3776SOL    HW222962   4.116   2.074  15.262  0.8419 -1.3715  0.7939
 3777SOL     OW22963   4.520   0.675   6.599 -0.3570 -0.4324  1.1887
 3777SOL    HW122964   4.453   0.611   6.575 -0.1185 -0.4176  0.4737
 3777SOL    HW222965   4.468   0.748   6.633 -2.2838  0.0503 -2.7715
 3778SOL     OW22966   3.430   3.334   0.993 -0.5332 -0.8173  0.2986
 3778SOL    HW122967   3.523   3.341   0.971 -0.4775  1.9038  1.3742
 3778SOL    HW222968   3.394   3.421   0.978 -0.0489 -0.7217 -0.3201
 3779SOL     OW22969   1.220   4.627  15.994 -0.1372  0.1093 -0.2827
 3779SOL    HW122970   1.276   4.669  16.059 -1.6303 -1.4016  1.9968
 3779SOL    HW222971   1.202   4.701  15.935 -0.8104 -2.2934 -3.1262
 3780SOL     OW22972   0.687   0.313   5.341  0.0660 -0.3339  0.3178
 3780SOL    HW122973   0.661   0.362   5.419  0.1007 -1.8991  1.3012
 3780SOL    HW222974   0.743   0.381   5.303 -1.5800  0.6020 -0.4116
 3781SOL     OW22975   0.870   2.404   0.434  0.3039  0.1028 -0.0195
 3781SOL    HW122976   0.804   2.378   0.499 -1.0796 -0.2666 -1.5655
 3781SOL    HW222977   0.947   2.415   0.489 -0.3307 -0.0664  0.8997
 3782SOL     OW22978   0.775   1.033   4.412 -0.2425 -0.4181  0.1702
 3782SOL    HW122979   0.700   1.024   4.472 -1.1542 -0.4966 -0.9742
 3782SOL    HW222980   0.809   0.944   4.402  0.1165 -0.3787  1.0165
 3783SOL     OW22981   4.332   4.706   5.963  0.1750 -0.4404  0.0220
 3783SOL    HW122982   4.273   0.008   5.898 -3.5971  3.0324  5.4278
 3783SOL    HW222983   4.400   0.039   5.962 -1.6454  1.4149  1.4036
 3784SOL     OW22984   2.194   1.468   8.093 -0.1505 -0.2248 -0.6469
 3784SOL    HW122985   2.252   1.493   8.021  1.6807 -1.3830  0.4217
 3784SOL    HW222986   2.107   1.482   8.057  0.5832  1.2985 -1.8040
 3785SOL     OW22987   0.154   4.397   5.295  0.0188  0.4162 -0.0657
 3785SOL    HW122988   0.182   4.306   5.294 -2.3304 -0.3358  2.0519
 3785SOL    HW222989   0.234   4.446   5.315  0.1348  0.3943 -0.4805
 3786SOL     OW22990   4.545   4.174   6.808  0.0998 -0.1333  0.0556
 3786SOL    HW122991   4.452   4.198   6.813  0.3357  0.6331  0.8110
 3786SOL    HW222992   4.561   4.193   6.716 -0.7934 -0.4707 -0.1745
 3787SOL     OW22993   3.701   0.032   2.637  0.2866  0.1838 -0.1245
 3787SOL    HW122994   3.795   0.022   2.645 -0.0053 -0.9373  1.9860
 3787SOL    HW222995   3.689   0.102   2.701  1.4856  0.1519  0.1173
 3788SOL     OW22996   2.987   2.040   9.081 -0.2110  0.2908 -0.4870
 3788SOL    HW122997   3.015   2.108   9.142 -0.9550  0.2749 -0.1292
 3788SOL    HW222998   2.955   1.974   9.142 -0.5428 -0.0992 -1.0869
 3789SOL     OW22999   3.438   3.972  10.412 -0.2860  0.3685 -0.1176
 3789SOL    HW123000   3.432   3.904  10.478  0.9437 -1.2987 -1.7311
 3789SOL    HW223001   3.530   3.971  10.388 -0.7944  0.0538 -2.1214
 3790SOL     OW23002   1.898   1.341  16.752  0.2726 -0.0197  0.0943
 3790SOL    HW123003   1.904   1.262  16.806  1.8785  1.0212  1.4355
 3790SOL    HW223004   1.805   1.357  16.741  0.5437 -0.5570 -2.8909
 3791SOL     OW23005   1.554   2.558  14.263  0.4784  0.2513  0.5160
 3791SOL    HW123006   1.515   2.472  14.249  0.8546  0.4786 -1.9675
 3791SOL    HW223007   1.478   2.610  14.290  0.4576  1.1601 -1.3167
 3792SOL     OW23008   1.102   0.357  15.187 -0.6193 -0.1557  0.6406
 3792SOL    HW123009   1.013   0.325  15.200  0.0827 -2.6416 -0.7481
 3792SOL    HW223010   1.147   0.274  15.203  0.5678  0.3860  0.1650
 3793SOL     OW23011   1.806   3.701   6.712  0.6045 -0.7483 -0.0322
 3793SOL    HW123012   1.787   3.630   6.774  0.1993 -0.9739 -0.4158
 3793SOL    HW223013   1.863   3.652   6.654  1.5074 -0.8127  0.9169
 3794SOL     OW23014   2.121   2.521  17.088 -0.2562 -0.0292 -0.1991
 3794SOL    HW123015   2.054   2.481  17.144 -0.1326 -0.4101 -0.3210
 3794SOL    HW223016   2.173   2.560  17.159 -0.4560  0.3087 -0.2420
 3795SOL     OW23017   2.718   1.020   7.377 -0.4982  0.0218  0.0261
 3795SOL    HW123018   2.649   1.045   7.317 -0.3673 -3.9156 -1.7852
 3795SOL    HW223019   2.680   0.941   7.416  0.2566  0.8069  2.3430
 3796SOL     OW23020   3.170   1.644   8.822  0.3035 -0.0214  0.1924
 3796SOL    HW123021   3.096   1.590   8.848  0.7633 -0.5719  0.3531
 3796SOL    HW223022   3.168   1.722   8.878  0.3012  0.9913 -1.2207
 3797SOL     OW23023   4.617   2.085   2.740  0.0077 -0.3743 -0.0536
 3797SOL    HW123024   4.528   2.075   2.773 -0.3164  0.9485 -0.5272
 3797SOL    HW223025   4.659   2.089   2.826 -1.7418 -2.6077  0.8901
 3798SOL     OW23026   4.272   1.306   0.471  0.2623 -0.7201 -0.4328
 3798SOL    HW123027   4.210   1.375   0.450 -0.0492 -0.7699  0.2985
 3798SOL    HW223028   4.351   1.359   0.474 -0.7623  0.7802 -0.1125
 3799SOL     OW23029   3.515   0.880  16.045 -0.3377 -0.4548  0.4272
 3799SOL    HW123030   3.607   0.889  16.021  0.1920 -1.2755  2.1203
 3799SOL    HW223031   3.517   0.941  16.119 -0.3996 -0.6198  0.5664
 3800SOL     OW23032   0.421   4.289   3.093  0.1363  0.2777 -0.0632
 3800SOL    HW123033   0.442   4.315   3.183 -2.7962 -3.2536  1.6324
 3800SOL    HW223034   0.384   4.203   3.114  2.1826 -1.0193 -1.7725
 3801SOL     OW23035   3.466   2.661   6.101 -0.3747 -0.3690 -0.4434
 3801SOL    HW123036   3.445   2.646   6.009 -1.4016 -0.2799 -0.2214
 3801SOL    HW223037   3.452   2.755   6.094  1.1529 -0.1107  0.0149
 3802SOL     OW23038   2.255   0.767   5.974  0.4451  0.3207 -0.0492
 3802SOL    HW123039   2.252   0.812   6.059  0.3831  2.9134 -1.4399
 3802SOL    HW223040   2.330   0.710   5.989 -0.9786 -1.8865 -1.3591
 3803SOL     OW23041   0.963   1.229   7.101  0.1374 -0.3969  0.3356
 3803SOL    HW123042   1.033   1.270   7.052  0.2995 -0.2204  0.7143
 3803SOL    HW223043   1.012   1.191   7.174 -1.6657  0.9824  2.2788
 3804SOL     OW23044   1.770   0.292   5.906 -0.2719 -0.4425  0.3034
 3804SOL    HW123045   1.854   0.280   5.949 -0.1535  1.2099  0.5232
 3804SOL    HW223046   1.719   0.317   5.983 -2.8103 -1.2586 -1.0994
 3805SOL     OW23047   0.515   2.027   6.106 -0.1836  0.2119 -0.2910
 3805SOL    HW123048   0.549   2.045   6.018  0.4653 -2.7201 -0.6385
 3805SOL    HW223049   0.537   2.117   6.130  0.2911 -0.3332  1.3002
 3806SOL     OW23050   2.604   2.982   5.764  0.5813  0.8705  0.7817
 3806SOL    HW123051   2.558   2.919   5.708  1.7841  1.7445 -1.2025
 3806SOL    HW223052   2.566   2.951   5.846 -0.8913  1.9615  0.5120
 3807SOL     OW23053   4.549   1.604   2.720 -0.3158  0.3192  0.0844
 3807SOL    HW123054   4.522   1.693   2.699 -2.6961 -0.4833 -0.3176
 3807SOL    HW223055   4.641   1.614   2.743 -0.7922 -0.1028  2.1534
 3808SOL     OW23056   3.886   1.078   7.446  0.2323  0.2503 -0.2419
 3808SOL    HW123057   3.949   1.088   7.517  1.2360 -0.3123 -1.0613
 3808SOL    HW223058   3.826   1.144   7.480  1.0362  1.3804 -1.0382
 3809SOL     OW23059   2.320   4.471   5.061 -0.2524 -0.1471 -0.3443
 3809SOL    HW123060   2.313   4.398   5.000 -0.8243  1.2546 -1.9823
 3809SOL    HW223061   2.264   4.532   5.012 -0.4334  0.8967  1.1504
 3810SOL     OW23062   1.027   3.667   1.652  0.0351  0.6055  0.5186
 3810SOL    HW123063   1.006   3.578   1.624  1.0303  0.9561 -1.3511
 3810SOL    HW223064   0.971   3.675   1.728 -0.5884  2.1062 -0.0985
 3811SOL     OW23065   3.388   1.322   9.893  0.7914 -0.3030  0.4979
 3811SOL    HW123066   3.420   1.412   9.899  1.3658 -0.5354  0.9460
 3811SOL    HW223067   3.447   1.304   9.819 -2.2360 -0.8100 -1.7865
 3812SOL     OW23068   0.622   0.421   8.092  0.1742 -0.4804 -0.0415
 3812SOL    HW123069   0.551   0.483   8.074 -2.3339 -2.5488  2.7081
 3812SOL    HW223070   0.572   0.339   8.093  1.0240 -0.9866  0.3972
 3813SOL     OW23071   3.486   1.253   9.644  0.2677  0.2411  0.1650
 3813SOL    HW123072   3.445   1.200   9.576 -2.1634  3.3851 -0.8105
 3813SOL    HW223073   3.517   1.327   9.593 -0.7014 -0.4979 -1.4769
 3814SOL     OW23074   0.493   2.861  11.697  0.0539 -0.1209  0.0537
 3814SOL    HW123075   0.476   2.784  11.642  1.0268  1.1762 -2.0559
 3814SOL    HW223076   0.405   2.898  11.704  0.3389  0.6824 -0.6301
 3815SOL     OW23077   0.862   1.876   3.860 -0.2147  0.4460 -0.4807
 3815SOL    HW123078   0.901   1.790   3.875 -1.6837 -0.1208  0.0200
 3815SOL    HW223079   0.851   1.868   3.765 -0.4604  1.5384 -0.5401
 3816SOL     OW23080   2.811   4.307   7.146  0.5383 -0.3057 -0.3403
 3816SOL    HW123081   2.858   4.375   7.194 -0.7139 -1.8455  3.1130
 3816SOL    HW223082   2.888   4.271   7.102  1.9810  1.2676  0.9076
 3817SOL     OW23083   0.935   1.994   8.109  0.1140 -0.1404  1.1233
 3817SOL    HW123084   0.938   2.012   8.015 -3.0404 -2.2212  0.6188
 3817SOL    HW223085   0.883   1.914   8.103  1.0755 -0.7772  1.4038
 3818SOL     OW23086   0.831   1.880   8.369 -0.2700 -0.1771  0.1223
 3818SOL    HW123087   0.782   1.955   8.336 -0.1479 -0.3667 -0.4899
 3818SOL    HW223088   0.769   1.809   8.351 -2.4888  1.8367 -0.1195
 3819SOL     OW23089   0.512   2.943   9.961 -0.5935 -0.0748 -0.1177
 3819SOL    HW123090   0.525   2.921  10.053  0.8794  0.8334 -0.1129
 3819SOL    HW223091   0.468   2.866   9.924  1.2668 -0.2800 -1.9314
 3820SOL     OW23092   2.267   2.404  10.608  0.0939 -0.2672  0.8790
 3820SOL    HW123093   2.302   2.315  10.612 -1.4359 -1.0406 -3.6358
 3820SOL    HW223094   2.177   2.387  10.636  0.1323 -0.4935  0.8687
 3821SOL     OW23095   0.630   3.572   9.924  0.3451 -0.0022 -0.3675
 3821SOL    HW123096   0.606   3.535  10.009 -0.2329 -0.9769 -0.9418
 3821SOL    HW223097   0.725   3.566   9.926  0.5432  3.6051  0.8931
 3822SOL     OW23098   2.030   0.733   5.149 -0.0669 -0.0623 -0.1972
 3822SOL    HW123099   2.072   0.704   5.230 -0.8364  1.9554  0.9025
 3822SOL    HW223100   2.113   0.736   5.101  0.4324 -0.0945  0.6656
 3823SOL     OW23101   3.232   0.999  10.917  0.8318 -0.0805 -0.4917
 3823SOL    HW123102   3.220   1.068  10.982  2.2777  0.0115 -0.3314
 3823SOL    HW223103   3.226   1.053  10.839 -1.5871 -0.8219 -0.8294
 3824SOL     OW23104   3.042   0.422   7.331 -0.1694  0.1717  0.0917
 3824SOL    HW123105   2.963   0.400   7.380 -0.3657 -0.2919 -0.4366
 3824SOL    HW223106   3.000   0.475   7.264 -0.0460  1.4901  1.0733
 3825SOL     OW23107   1.673   4.119  15.805  0.2354 -0.1243  0.6008
 3825SOL    HW123108   1.728   4.154  15.875 -0.5631  0.4643  0.9440
 3825SOL    HW223109   1.652   4.036  15.848  0.7290  0.5119  2.0527
 3826SOL     OW23110   4.378   2.654   4.220 -0.1812  0.1814 -0.1912
 3826SOL    HW123111   4.352   2.562   4.227  0.0464  0.3753  3.5018
 3826SOL    HW223112   4.377   2.679   4.312 -0.5526 -0.2160 -0.0850
 3827SOL     OW23113   0.882   2.820   5.109 -0.2479  0.2709 -0.1072
 3827SOL    HW123114   0.889   2.905   5.067 -0.0345  0.1506 -0.3091
 3827SOL    HW223115   0.975   2.805   5.124 -0.5879 -1.2216  0.5967
 3828SOL     OW23116   0.255   4.371   4.459  0.4567 -0.4771 -0.5524
 3828SOL    HW123117   0.291   4.444   4.410 -1.5994  0.6819 -0.3530
 3828SOL    HW223118   0.190   4.422   4.507  1.1237  0.8042 -1.0277
 3829SOL     OW23119   0.783   2.950   5.939 -0.3223 -0.0595 -0.4556
 3829SOL    HW123120   0.867   2.903   5.935 -0.0994  0.1870  1.1570
 3829SOL    HW223121   0.774   2.956   6.034 -0.7885  1.3992 -0.6029
 3830SOL     OW23122   0.117   0.850   3.415  0.0638 -0.3156  0.4116
 3830SOL    HW123123   0.130   0.943   3.398  0.0132  0.3888  4.3365
 3830SOL    HW223124   0.026   0.854   3.444 -0.4240  0.6569 -1.2718
 3831SOL     OW23125   2.255   2.879   7.268 -0.5518 -0.0972 -0.5490
 3831SOL    HW123126   2.286   2.941   7.202 -1.7693 -0.3537 -1.3541
 3831SOL    HW223127   2.230   2.933   7.343 -1.1470 -0.0541 -0.7828
 3832SOL     OW23128   1.704   0.949  14.728 -0.3051  0.1629 -0.4903
 3832SOL    HW123129   1.611   0.947  14.747  0.5211  0.2193  3.6053
 3832SOL    HW223130   1.739   0.930  14.816  0.8659  2.7035 -0.4282
 3833SOL     OW23131   2.063   3.522   4.485  0.7813  0.2969  0.2214
 3833SOL    HW123132   2.018   3.582   4.426  0.3376 -0.4629 -0.2098
 3833SOL    HW223133   2.150   3.510   4.448  1.6689 -0.1494  2.4533
 3834SOL     OW23134   2.899   4.468  14.223 -0.1672 -0.4280  0.3487
 3834SOL    HW123135   2.917   4.396  14.284  2.0415  0.1450  0.3852
 3834SOL    HW223136   2.808   4.447  14.204 -0.5564  1.7253 -0.0922
 3835SOL     OW23137   2.372   1.683   9.320 -0.3130 -0.0975 -0.2169
 3835SOL    HW123138   2.335   1.646   9.240  0.2888  0.2505 -0.6538
 3835SOL    HW223139   2.300   1.669   9.383 -1.6540  0.3215 -1.6516
 3836SOL     OW23140   1.453   4.198   5.123 -0.0160 -0.2752 -0.2411
 3836SOL    HW123141   1.482   4.276   5.077  1.3865 -0.9610 -0.5321
 3836SOL    HW223142   1.519   4.192   5.192 -3.9798 -0.4172  3.5115
 3837SOL     OW23143   0.379   1.024  14.517  0.0175 -0.0232 -0.3161
 3837SOL    HW123144   0.330   1.004  14.437 -1.4714 -2.4362  1.1860
 3837SOL    HW223145   0.442   1.090  14.490  0.6472 -0.1307  0.8930
 3838SOL     OW23146   2.806   3.934   7.618  0.4333  0.0645  0.1121
 3838SOL    HW123147   2.891   3.932   7.663  0.0261  2.8022  1.0163
 3838SOL    HW223148   2.759   3.874   7.676 -1.1001  0.5223 -0.6670
 3839SOL     OW23149   2.447   3.022   1.763 -0.3680 -0.2685  0.3643
 3839SOL    HW123150   2.506   3.023   1.688 -0.1023  0.1039  0.5830
 3839SOL    HW223151   2.429   2.929   1.776 -1.2723 -0.3909 -1.7807
 3840SOL     OW23152   4.658   0.684   2.118  0.4559  0.0727 -0.1066
 3840SOL    HW123153   4.614   0.670   2.034 -1.0647 -1.6909  1.0070
 3840SOL    HW223154   4.593   0.660   2.183  0.1158 -0.3073 -0.5943
 3841SOL     OW23155   4.238   3.422   8.316 -0.1650 -0.3401 -0.0405
 3841SOL    HW123156   4.228   3.493   8.253  1.6642 -0.0699 -0.0301
 3841SOL    HW223157   4.186   3.449   8.392 -0.6681 -1.9998  0.2179
 3842SOL     OW23158   4.579   1.620   5.635  0.0567  0.0571  0.2200
 3842SOL    HW123159   4.640   1.644   5.705 -0.8870 -1.1153  1.4371
 3842SOL    HW223160   4.601   1.674   5.558 -0.6838  0.6401  0.4210
 3843SOL     OW23161   2.735   0.340   3.138  1.0855  0.4305 -0.2633
 3843SOL    HW123162   2.678   0.345   3.061 -0.2381 -1.4159  0.5964
 3843SOL    HW223163   2.684   0.290   3.202  1.1823  0.3868 -0.2190
 3844SOL     OW23164   2.963   1.035   2.687 -0.0187  0.0672 -0.8375
 3844SOL    HW123165   3.020   1.014   2.761 -0.7272  0.0639 -0.2918
 3844SOL    HW223166   3.027   1.040   2.617  2.0877 -1.7427  0.9316
 3845SOL     OW23167   1.298   1.077   5.348 -0.0539 -0.3239  0.6228
 3845SOL    HW123168   1.330   0.987   5.337  2.5230  1.0654 -3.1784
 3845SOL    HW223169   1.221   1.071   5.404 -0.2995 -0.8415  0.2301
 3846SOL     OW23170   0.091   0.028  15.431 -0.2776  0.3733  0.1042
 3846SOL    HW123171   0.160   0.089  15.455  0.2016 -0.1742  0.1142
 3846SOL    HW223172   0.133   4.726  15.353 -1.0507 -2.0703  0.8266
 3847SOL     OW23173   1.205   1.676  13.457  0.0047 -0.5925  0.6578
 3847SOL    HW123174   1.128   1.621  13.442  0.0320 -0.6750  0.8176
 3847SOL    HW223175   1.272   1.623  13.501 -1.8340 -1.9486  1.8107
 3848SOL     OW23176   1.754   1.805   3.521 -0.0152  0.1639  0.3511
 3848SOL    HW123177   1.774   1.865   3.449  0.7362 -5.2006 -3.8763
 3848SOL    HW223178   1.838   1.812   3.567  0.1484  0.1855  0.0474
 3849SOL     OW23179   1.376   1.554  14.578 -0.0281  0.3054 -0.0305
 3849SOL    HW123180   1.458   1.599  14.558 -1.2569  1.6862 -1.9853
 3849SOL    HW223181   1.378   1.465  14.543 -0.8416 -0.0551  0.8240
 3850SOL     OW23182   1.790   1.652   5.186  0.4330 -0.2315 -0.5916
 3850SOL    HW123183   1.881   1.626   5.173 -0.1428 -1.4823 -2.1528
 3850SOL    HW223184   1.738   1.598   5.127  0.1613 -2.3507  1.6048
 3851SOL     OW23185   2.584   4.460  11.870 -0.1045 -0.2362 -0.1181
 3851SOL    HW123186   2.639   4.416  11.804 -2.9131 -1.8353 -1.3901
 3851SOL    HW223187   2.635   4.441  11.948  0.5022  1.5228 -0.0841
 3852SOL     OW23188   4.538   1.103   3.215  0.2802 -0.0955 -0.1323
 3852SOL    HW123189   4.485   1.090   3.137 -0.6511 -0.8931  0.6338
 3852SOL    HW223190   4.613   1.045   3.204 -0.6390 -1.2513 -0.3327
 3853SOL     OW23191   4.677   3.177   8.664  0.0455 -0.0455 -0.0225
 3853SOL    HW123192   4.690   3.207   8.754  0.6723  0.7937 -0.3946
 3853SOL    HW223193   4.596   3.219   8.635  0.8538  1.9988  0.6522
 3854SOL     OW23194   1.343   3.391   2.222 -0.4437 -0.0538 -0.1663
 3854SOL    HW123195   1.328   3.318   2.282  1.3981 -0.3536 -0.0653
 3854SOL    HW223196   1.375   3.341   2.147 -0.0317 -1.4428  0.9413
 3855SOL     OW23197   2.660   0.747   7.436 -0.2182  0.2690  0.4826
 3855SOL    HW123198   2.688   0.797   7.513  0.8570  0.4251 -0.0113
 3855SOL    HW223199   2.687   0.659   7.463  0.0356  0.3964  0.6474
 3856SOL     OW23200   2.352   3.989  14.148 -0.1105 -0.1152 -0.0712
 3856SOL    HW123201   2.442   4.024  14.143 -0.6430  1.0753 -1.4239
 3856SOL    HW223202   2.360   3.905  14.103 -0.4353 -0.6426  0.8739
 3857SOL     OW23203   1.092   4.226  11.598 -0.2963 -0.5276  0.1864
 3857SOL    HW123204   1.168   4.283  11.603 -1.1947  0.8532 -1.7017
 3857SOL    HW223205   1.120   4.153  11.652 -0.5427  0.8239  2.1313
 3858SOL     OW23206   4.044   0.296  11.858 -0.0215 -0.3134 -0.2622
 3858SOL    HW123207   4.042   0.368  11.794  0.3936  0.4486  0.5821
 3858SOL    HW223208   4.058   0.341  11.941 -2.8885  0.1455 -0.0381
 3859SOL     OW23209   3.495   4.051   6.083 -0.2005  0.5923 -0.8373
 3859SOL    HW123210   3.441   4.110   6.135  0.3255 -0.4543  0.8993
 3859SOL    HW223211   3.436   3.975   6.082  1.1592 -0.4813  0.4620
 3860SOL     OW23212   0.135   0.571   2.400  0.0210  0.3406  0.1662
 3860SOL    HW123213   0.051   0.531   2.424  0.6221 -1.4386 -0.6768
 3860SOL    HW223214   0.126   0.645   2.459 -1.3281  1.2366 -1.1639
 3861SOL     OW23215   4.005   1.109   8.180  0.5535 -0.3023  0.2454
 3861SOL    HW123216   3.982   1.190   8.134  0.3802 -1.0838 -1.0596
 3861SOL    HW223217   4.072   1.141   8.241 -0.5988 -0.7842  1.7457
 3862SOL     OW23218   2.849   0.264   5.117  0.4182 -0.4610  0.2912
 3862SOL    HW123219   2.773   0.236   5.065  1.3292 -1.3483 -0.5547
 3862SOL    HW223220   2.913   0.260   5.047 -1.2516  0.2457 -1.2730
 3863SOL     OW23221   1.332   3.655   5.836  0.0334 -0.3687  0.0413
 3863SOL    HW123222   1.424   3.655   5.808 -0.2900 -0.5718 -1.0013
 3863SOL    HW223223   1.296   3.579   5.791  0.6514  1.0226 -2.7808
 3864SOL     OW23224   3.394   1.725   9.191 -0.1564  0.5002 -0.3092
 3864SOL    HW123225   3.320   1.758   9.241  0.8131  1.2584  0.6351
 3864SOL    HW223226   3.360   1.643   9.154 -2.6178  0.5392  1.8524
 3865SOL     OW23227   0.447   3.592   4.031 -0.5291  0.0084  0.3396
 3865SOL    HW123228   0.391   3.667   4.012 -1.8454 -1.2775 -0.8229
 3865SOL    HW223229   0.389   3.540   4.086  0.8069 -1.3237  0.4907
 3866SOL     OW23230   1.374   4.233   1.348 -0.2016  0.3093 -0.3075
 3866SOL    HW123231   1.366   4.147   1.307  2.0600  0.3076 -0.7688
 3866SOL    HW223232   1.407   4.214   1.436 -0.7417  2.0361  0.2665
 3867SOL     OW23233   3.722   2.551  16.805 -0.0590  0.2348 -0.0389
 3867SOL    HW123234   3.692   2.519  16.720  0.1848  3.2496 -1.2477
 3867SOL    HW223235   3.750   2.640  16.785 -2.6852  1.0534  0.0397
 3868SOL     OW23236   1.634   1.004   1.042 -0.7687  0.0387  0.0878
 3868SOL    HW123237   1.710   0.948   1.062 -2.0172 -1.7994 -0.2563
 3868SOL    HW223238   1.564   0.938   1.044 -0.9484  0.2196 -0.1891
 3869SOL     OW23239   3.656   4.499   3.627  0.1772  0.0957  0.7570
 3869SOL    HW123240   3.646   4.510   3.721 -2.5830 -0.5098  0.5358
 3869SOL    HW223241   3.644   4.405   3.611  0.9703  0.0329  0.4920
 3870SOL     OW23242   1.472   0.383  14.063  0.2888  0.4167  0.0041
 3870SOL    HW123243   1.565   0.390  14.041  0.6223  0.8991  1.5713
 3870SOL    HW223244   1.447   0.383  13.970 -0.6630 -1.9172  0.2830
 3871SOL     OW23245   1.594   0.449   3.855  0.2045  0.0132  0.4861
 3871SOL    HW123246   1.566   0.359   3.873 -1.2465  0.7843  2.1592
 3871SOL    HW223247   1.639   0.436   3.771 -1.9258 -0.5614 -0.5574
 3872SOL     OW23248   1.684   3.501   0.147 -0.4305 -0.0810  0.2417
 3872SOL    HW123249   1.598   3.532   0.177 -0.5974  0.0440 -0.3629
 3872SOL    HW223250   1.660   3.413   0.116  1.1833 -0.1344 -0.8228
 3873SOL     OW23251   0.009   3.625  14.488  0.6000  0.2679  0.1639
 3873SOL    HW123252   0.059   3.643  14.408 -1.6662  0.2807 -1.2407
 3873SOL    HW223253   4.654   3.640  14.459  1.1073  0.9577 -1.0306
 3874SOL     OW23254   0.089   1.123   3.331 -0.4575 -0.0474 -0.2523
 3874SOL    HW123255   0.056   1.195   3.384 -0.3791  1.4826 -2.3066
 3874SOL    HW223256   0.095   1.170   3.249  0.4363  1.7004  0.8240
 3875SOL     OW23257   1.868   1.731  13.237 -0.1422  0.6521  0.6266
 3875SOL    HW123258   1.954   1.690  13.246  0.0502  1.2661  1.6509
 3875SOL    HW223259   1.811   1.656  13.254  2.7469 -1.0915  2.7213
 3876SOL     OW23260   0.529   0.286   3.354 -0.0765  0.4361  0.4577
 3876SOL    HW123261   0.482   0.216   3.309 -0.8529 -0.6091  2.9108
 3876SOL    HW223262   0.566   0.224   3.416 -1.1074 -1.5208 -0.8419
 3877SOL     OW23263   0.567   2.960   8.164 -0.5847 -0.4912  0.7740
 3877SOL    HW123264   0.525   2.914   8.091 -0.9703  0.7984  0.1990
 3877SOL    HW223265   0.493   2.984   8.219  0.6163 -0.8712  2.5788
 3878SOL     OW23266   4.308   3.637   6.906  0.5815 -0.1149 -0.2771
 3878SOL    HW123267   4.272   3.608   6.823 -0.3097  1.2666 -0.3694
 3878SOL    HW223268   4.243   3.705   6.924  1.1967  0.5504 -0.5392
 3879SOL     OW23269   2.965   2.361   6.374 -0.0347  0.1516  0.6075
 3879SOL    HW123270   2.985   2.294   6.309 -5.4474 -0.5480 -0.3681
 3879SOL    HW223271   2.994   2.437   6.324 -2.0240  1.3201  1.2130
 3880SOL     OW23272   4.095   4.699   8.852 -0.4451 -0.2526 -0.3940
 3880SOL    HW123273   4.060   4.613   8.873  1.3149 -0.2662  2.4122
 3880SOL    HW223274   4.169   4.672   8.799 -0.4628  2.5131 -1.8063
 3881SOL     OW23275   3.863   2.340   2.527 -0.4494 -0.5438  0.2314
 3881SOL    HW123276   3.894   2.368   2.613 -1.6154 -2.7774  1.3656
 3881SOL    HW223277   3.940   2.309   2.480 -0.6940  1.7400 -1.7092
 3882SOL     OW23278   1.579   1.760  14.475  0.2564  0.0720  0.3012
 3882SOL    HW123279   1.666   1.723  14.489  0.3313  0.2847  0.4051
 3882SOL    HW223280   1.592   1.799  14.389  0.9481 -0.8839 -0.0283
 3883SOL     OW23281   2.312   1.521   6.849  0.1024  0.3997 -0.1666
 3883SOL    HW123282   2.384   1.464   6.879  0.8335  1.0198 -0.7394
 3883SOL    HW223283   2.272   1.472   6.777  0.7366 -0.1202 -0.1717
 3884SOL     OW23284   1.210   1.157  10.873 -0.3361  0.2629  0.3831
 3884SOL    HW123285   1.184   1.162  10.965 -0.1067 -1.6494  0.5384
 3884SOL    HW223286   1.259   1.075  10.864  0.5269  0.7663  0.4905
 3885SOL     OW23287   2.098   1.644   3.983  0.0288  0.3422  0.0116
 3885SOL    HW123288   2.010   1.668   4.013  0.4184 -0.1937  1.5983
 3885SOL    HW223289   2.130   1.734   3.986  0.9105  0.0883 -2.2471
 3886SOL     OW23290   0.724   3.350   2.370  0.0791 -0.0666  0.6912
 3886SOL    HW123291   0.731   3.362   2.275  0.0675 -1.0198  0.5786
 3886SOL    HW223292   0.784   3.278   2.386  1.0535  0.9657  1.7531
 3887SOL     OW23293   1.617   0.333  15.965  0.1812 -0.4015  0.3817
 3887SOL    HW123294   1.695   0.306  16.013 -0.0020  0.5770  1.2344
 3887SOL    HW223295   1.589   0.391  16.036 -1.1334  0.3131 -0.7172
 3888SOL     OW23296   1.244   1.468  10.374  0.7103 -0.5030  0.5822
 3888SOL    HW123297   1.216   1.420  10.452 -1.3289 -0.4711 -0.1291
 3888SOL    HW223298   1.308   1.530  10.409 -1.9175  2.3350  0.2502
 3889SOL     OW23299   1.805   3.391   2.031 -0.0340  0.4608 -0.2662
 3889SOL    HW123300   1.746   3.435   2.092  1.0039  0.0490  1.0291
 3889SOL    HW223301   1.893   3.405   2.065  0.5170 -0.6325 -1.2247
 3890SOL     OW23302   1.676   1.671   0.696 -0.6204  1.0280 -0.1646
 3890SOL    HW123303   1.599   1.718   0.730 -1.7931 -0.3012 -0.9753
 3890SOL    HW223304   1.696   1.617   0.772  1.5565  0.9261 -0.8111
 3891SOL     OW23305   1.953   2.825  16.042 -0.0052 -0.0573  0.3949
 3891SOL    HW123306   2.034   2.856  16.002  1.4324 -0.5578  2.9490
 3891SOL    HW223307   1.887   2.889  16.014  0.2777  0.3361  0.6297
 3892SOL     OW23308   2.457   4.727   3.264  0.0643  0.7952 -0.1962
 3892SOL    HW123309   2.380   4.689   3.306 -0.3464 -0.3407 -1.9755
 3892SOL    HW223310   2.498   4.657   3.213  0.4688 -1.6230  3.3916
 3893SOL     OW23311   1.848   0.274  16.112 -0.4772  0.2575  0.1543
 3893SOL    HW123312   1.930   0.292  16.066 -0.2149 -0.3275  0.3903
 3893SOL    HW223313   1.863   0.302  16.202 -3.4535 -2.6452  1.5424
 3894SOL     OW23314   2.150   0.459  17.175  0.0438  0.2514  1.0347
 3894SOL    HW123315   2.229   0.440  17.225 -1.1548 -1.2742  2.3866
 3894SOL    HW223316   2.119   0.375  17.141  0.2755  0.6538 -0.1612
 3895SOL     OW23317   2.278   0.091   8.122 -0.4998 -0.0530 -0.7697
 3895SOL    HW123318   2.316   0.011   8.086 -0.9625  0.4447 -2.3653
 3895SOL    HW223319   2.344   0.106   8.189 -0.8509 -1.7997 -0.0384
 3896SOL     OW23320   1.405   2.438  14.926 -0.3001  0.5497 -0.0379
 3896SOL    HW123321   1.381   2.405  14.840  0.4854 -0.6191  0.1765
 3896SOL    HW223322   1.320   2.466  14.960  0.4079  0.8215  1.4957
 3897SOL     OW23323   3.284   1.822   2.061 -0.4255 -0.2990 -0.4552
 3897SOL    HW123324   3.319   1.766   1.992 -2.0676 -1.3452 -0.4583
 3897SOL    HW223325   3.190   1.822   2.043 -0.3089 -1.6680 -1.0612
 3898SOL     OW23326   2.590   3.622  14.131  0.0273 -0.1200  0.3890
 3898SOL    HW123327   2.523   3.668  14.081  0.7639 -0.8897 -1.2990
 3898SOL    HW223328   2.558   3.648  14.217 -1.6390  1.5599 -0.7547
 3899SOL     OW23329   3.103   2.382   1.315  0.0236  0.0811  0.0545
 3899SOL    HW123330   3.011   2.406   1.302 -0.5687 -0.8364  2.4579
 3899SOL    HW223331   3.122   2.417   1.403  0.7666  1.3819 -0.6208
 3900SOL     OW23332   0.116   4.086  11.657  0.0996  0.0606 -0.1472
 3900SOL    HW123333   0.190   4.038  11.694 -0.7056 -0.0662  1.3033
 3900SOL    HW223334   0.144   4.178  11.658 -0.8622  0.3548 -0.5911
 3901SOL     OW23335   1.249   3.328   3.250 -0.6253 -0.0069  0.2225
 3901SOL    HW123336   1.256   3.306   3.157  0.8563 -2.3510  0.8937
 3901SOL    HW223337   1.163   3.292   3.272  0.1536 -0.7627  2.0332
 3902SOL     OW23338   3.616   1.798   1.266 -0.2453 -0.1602 -0.3108
 3902SOL    HW123339   3.648   1.839   1.346  2.1201  0.4131 -1.5582
 3902SOL    HW223340   3.594   1.867   1.204  0.7556 -1.1256 -1.7475
 3903SOL     OW23341   3.673   0.735   9.599  0.3683  0.0177 -0.0489
 3903SOL    HW123342   3.664   0.829   9.614  2.7198  0.0234  1.3470
 3903SOL    HW223343   3.600   0.717   9.540 -0.5902  1.3171  0.7523
 3904SOL     OW23344   4.116   2.066  16.495 -0.4172  0.2550 -0.0357
 3904SOL    HW123345   4.038   2.111  16.527 -0.1710  1.3067 -0.8924
 3904SOL    HW223346   4.098   1.974  16.512 -2.5993  0.3233 -2.0648
 3905SOL     OW23347   2.015   3.686  15.800  0.4156  0.4793  0.3495
 3905SOL    HW123348   2.002   3.774  15.765  2.9310  1.2459  1.3490
 3905SOL    HW223349   2.099   3.657  15.763  0.7383  1.6249  0.2024
 3906SOL     OW23350   4.653   2.321   7.365 -0.1507  0.4532  0.0418
 3906SOL    HW123351   4.721   2.254   7.379  0.5981  1.1032 -0.5217
 3906SOL    HW223352   4.646   2.329   7.270  0.3326 -1.7582 -0.2019
 3907SOL     OW23353   1.812   4.524   3.835 -0.3611  0.3747  0.7778
 3907SOL    HW123354   1.810   4.436   3.798 -0.1251  0.8202 -0.2809
 3907SOL    HW223355   1.763   4.579   3.773 -0.9623  1.4251  2.1725
 3908SOL     OW23356   1.740   4.274   8.866 -0.3461  0.9625 -0.4715
 3908SOL    HW123357   1.827   4.243   8.893 -0.8452  0.5820  0.7156
 3908SOL    HW223358   1.706   4.328   8.937 -0.6259 -0.1945  0.2840
 3909SOL     OW23359   0.886   0.565   7.530  0.9878  0.1809 -0.3923
 3909SOL    HW123360   0.876   0.660   7.541 -0.1213  0.0515 -0.3113
 3909SOL    HW223361   0.879   0.563   7.434 -0.1076  0.4660 -0.3199
 3910SOL     OW23362   3.141   0.248   0.897  1.4094 -0.0593 -0.0055
 3910SOL    HW123363   3.118   0.329   0.851  1.1090 -1.7550 -2.8454
 3910SOL    HW223364   3.147   0.193   0.819 -3.6760  2.9947 -2.5607
 3911SOL     OW23365   2.790   0.193   5.384 -0.0068 -0.4376  0.1795
 3911SOL    HW123366   2.809   0.102   5.405 -0.4044 -0.4672  0.4138
 3911SOL    HW223367   2.819   0.198   5.293  0.4722 -0.0229  0.3578
 3912SOL     OW23368   0.445   4.657   4.501  0.3366  0.0143  0.1592
 3912SOL    HW123369   0.414   4.696   4.583 -0.7891 -0.0302 -0.2490
 3912SOL    HW223370   0.538   4.648   4.524  1.1520 -1.3464 -3.6930
 3913SOL     OW23371   4.682   0.489  17.105 -0.2284  0.7513 -0.0100
 3913SOL    HW123372   4.722   0.465  17.021 -0.4729 -0.3899  0.1996
 3913SOL    HW223373   4.700   0.412  17.158 -2.5473  0.5133  0.4434
 3914SOL     OW23374   2.737   2.610   3.533  0.4501 -0.3713  0.2668
 3914SOL    HW123375   2.698   2.625   3.447 -1.2397 -0.9635  0.9397
 3914SOL    HW223376   2.732   2.515   3.539  0.3986 -0.4341 -0.8509
 3915SOL     OW23377   2.997   1.622   6.035  0.0057 -0.0418 -0.2957
 3915SOL    HW123378   2.947   1.577   6.103 -0.7305  1.8749  0.4367
 3915SOL    HW223379   2.997   1.560   5.962 -0.4414  1.2584 -1.4162
 3916SOL     OW23380   2.425   3.119   7.214 -0.2853  0.1614  0.2787
 3916SOL    HW123381   2.460   3.199   7.173 -2.2677  0.7903 -0.1917
 3916SOL    HW223382   2.499   3.058   7.216  1.2302  1.9831  1.4678
 3917SOL     OW23383   3.710   0.542  15.887 -0.2041  0.5219  0.1446
 3917SOL    HW123384   3.795   0.532  15.929 -0.2337  1.2476  0.3901
 3917SOL    HW223385   3.698   0.459  15.842 -2.6306  0.8833  0.0860
 3918SOL     OW23386   2.719   2.438   7.070 -0.1292 -0.2026  0.0082
 3918SOL    HW123387   2.763   2.355   7.059 -0.8525 -0.5767 -0.0746
 3918SOL    HW223388   2.677   2.448   6.984  0.9392  0.0792 -0.4771
 3919SOL     OW23389   2.508   4.284   4.551  0.0523  0.0108  0.5527
 3919SOL    HW123390   2.484   4.376   4.563 -0.0028 -0.2274  2.2698
 3919SOL    HW223391   2.597   4.289   4.516 -0.4590 -1.0251 -0.8563
 3920SOL     OW23392   3.264   4.515   9.731  0.2819 -0.1166  0.2842
 3920SOL    HW123393   3.232   4.511   9.640  1.6475  1.6984 -0.2841
 3920SOL    HW223394   3.188   4.503   9.787  0.2041  1.9256  0.6039
 3921SOL     OW23395   2.783   3.794   9.083 -0.1184  0.0481 -0.0860
 3921SOL    HW123396   2.743   3.737   9.017 -2.5785 -0.6111  1.9879
 3921SOL    HW223397   2.731   3.762   9.157 -0.3855  3.2431  1.0743
 3922SOL     OW23398   2.291   1.543   3.488  0.9591 -0.0443  0.1249
 3922SOL    HW123399   2.200   1.572   3.495  1.8587  2.5200  1.4990
 3922SOL    HW223400   2.322   1.576   3.573 -1.1097  1.1685  0.4042
 3923SOL     OW23401   0.780   3.418  14.410  0.1110  0.2205 -0.0330
 3923SOL    HW123402   0.868   3.432  14.444  0.3263  1.1833 -0.9846
 3923SOL    HW223403   0.777   3.324  14.427  0.2905  0.2397  0.0944
 3924SOL     OW23404   0.992   1.967   7.496 -0.5011  0.2445 -0.0474
 3924SOL    HW123405   1.016   2.028   7.426  1.5643 -0.5218 -0.0094
 3924SOL    HW223406   1.068   1.986   7.552 -0.2630  0.0951 -0.3224
 3925SOL     OW23407   4.209   0.454   4.528 -0.3363 -0.0003 -0.1574
 3925SOL    HW123408   4.271   0.386   4.553 -1.3413 -0.1826  1.8921
 3925SOL    HW223409   4.190   0.430   4.438 -2.0919 -1.3978  0.5828
 3926SOL     OW23410   3.591   0.892   4.527 -0.3200  0.2322 -0.0271
 3926SOL    HW123411   3.637   0.847   4.456  0.5914 -1.5298  1.6938
 3926SOL    HW223412   3.559   0.973   4.486  1.8651  1.2391  0.2411
 3927SOL     OW23413   3.004   3.300  11.864 -0.4011 -0.1203  0.3204
 3927SOL    HW123414   3.090   3.334  11.890 -0.6594  0.5221  0.3303
 3927SOL    HW223415   3.024   3.210  11.890  0.8797  0.0705  0.0043
 3928SOL     OW23416   2.752   0.423   4.151 -0.2831 -0.8082 -0.3239
 3928SOL    HW123417   2.826   0.433   4.091  0.4503  0.1728  0.7551
 3928SOL    HW223418   2.680   0.480   4.125 -0.5060 -1.7177 -1.7170
 3929SOL     OW23419   0.922   3.326   5.640 -0.2222 -0.1917  0.0597
 3929SOL    HW123420   0.874   3.267   5.581 -0.5263 -0.5537  0.6761
 3929SOL    HW223421   0.892   3.413   5.614 -0.6215 -0.9098 -1.9430
 3930SOL     OW23422   1.831   2.227   6.468 -0.4297 -0.1136 -0.0279
 3930SOL    HW123423   1.895   2.180   6.521  0.7389  1.2197 -0.2461
 3930SOL    HW223424   1.769   2.157   6.451 -0.0731 -0.3820 -0.2043
 3931SOL     OW23425   4.042   3.777  17.526 -0.3834  0.0668  0.2106
 3931SOL    HW123426   3.978   3.809  17.590  1.8342  2.4114  1.2734
 3931SOL    HW223427   4.067   3.855  17.477 -0.1542 -0.2688 -0.2002
 3932SOL     OW23428   4.254   4.250  16.566  0.2339 -0.4723  0.1178
 3932SOL    HW123429   4.313   4.325  16.575  0.4061 -1.0905  4.3165
 3932SOL    HW223430   4.169   4.277  16.601  0.2620  0.0029 -0.1932
 3933SOL     OW23431   2.784   4.398  12.055 -0.3264  0.2046 -0.5207
 3933SOL    HW123432   2.852   4.436  12.111 -1.8674  1.6302  0.3829
 3933SOL    HW223433   2.836   4.392  11.975 -1.6003 -0.1694 -1.3331
 3934SOL     OW23434   4.051   1.517   4.696 -0.3511 -0.6312  0.2343
 3934SOL    HW123435   3.962   1.493   4.724 -0.1551 -0.1632  1.2886
 3934SOL    HW223436   4.078   1.442   4.644 -1.0774 -0.4251 -0.4413
 3935SOL     OW23437   4.141   2.004  17.110  0.2952 -0.3377 -0.1424
 3935SOL    HW123438   4.222   2.047  17.086 -0.6469  1.4900 -0.0881
 3935SOL    HW223439   4.126   2.062  17.185  2.7438 -0.2821  0.2992
 3936SOL     OW23440   0.918   4.686   6.136  0.6782 -0.1000 -0.5054
 3936SOL    HW123441   0.892   0.042   6.119 -1.5624 -0.7597 -0.7042
 3936SOL    HW223442   1.006   4.706   6.105  1.0386 -0.6017  0.1658
 3937SOL     OW23443   4.164   1.086   5.775 -0.6924  0.3402 -0.1106
 3937SOL    HW123444   4.233   1.024   5.800  0.3511  1.8516  0.7440
 3937SOL    HW223445   4.176   1.153   5.842 -1.0062  1.9445 -1.6611
 3938SOL     OW23446   3.376   2.120   5.838  0.3028 -0.1931 -0.1655
 3938SOL    HW123447   3.459   2.165   5.821  0.7104 -0.8404  0.1101
 3938SOL    HW223448   3.361   2.147   5.928 -1.3354  1.8189 -1.0443
 3939SOL     OW23449   2.428   3.331   4.684 -0.6366  0.0261 -0.4847
 3939SOL    HW123450   2.460   3.252   4.727 -0.7576 -0.8666 -2.0258
 3939SOL    HW223451   2.501   3.393   4.689 -1.4098  0.7793  1.2997
 3940SOL     OW23452   4.562   3.429   5.983  0.1068  0.5030  0.1190
 3940SOL    HW123453   4.624   3.467   5.921 -1.2630  1.1319 -0.8664
 3940SOL    HW223454   4.626   3.378   6.032 -0.1657  1.0549  1.0382
 3941SOL     OW23455   3.720   4.122  14.818 -0.4191  0.4430 -0.5340
 3941SOL    HW123456   3.807   4.140  14.853 -0.7882 -0.8324  1.0583
 3941SOL    HW223457   3.729   4.121  14.722  0.0809 -0.9820 -0.4796
 3942SOL     OW23458   0.998   3.708   0.652  0.0579  0.1533  0.2701
 3942SOL    HW123459   1.077   3.754   0.678  0.6009 -0.3478 -0.4939
 3942SOL    HW223460   1.014   3.624   0.695  2.6050  1.3488  1.6223
 3943SOL     OW23461   0.405   0.851   8.891 -0.2732 -0.6778  0.4313
 3943SOL    HW123462   0.396   0.943   8.915 -1.0354 -0.9766  1.2939
 3943SOL    HW223463   0.466   0.812   8.953 -1.4242 -0.2710  1.8176
 3944SOL     OW23464   2.180   2.310   3.968  0.1155  0.1074  0.1090
 3944SOL    HW123465   2.244   2.239   3.957  0.8649  1.1432 -2.2561
 3944SOL    HW223466   2.102   2.255   3.969 -0.5747  1.0817 -0.7572
 3945SOL     OW23467   1.939   3.338   7.980  1.0366 -0.2283 -0.1755
 3945SOL    HW123468   1.865   3.315   7.924  0.0262  1.0061  0.6543
 3945SOL    HW223469   1.997   3.391   7.926  4.0710 -2.6531  0.7179
 3946SOL     OW23470   2.479   0.896   6.436 -0.3906  0.1112  0.1987
 3946SOL    HW123471   2.563   0.850   6.438 -0.1412  0.4751 -2.0064
 3946SOL    HW223472   2.496   0.959   6.507  1.7309  0.0157 -0.2240
 3947SOL     OW23473   1.590   3.089   9.054  0.7684  0.8972  0.2367
 3947SOL    HW123474   1.534   3.128   8.986  1.0872  3.2734  1.3177
 3947SOL    HW223475   1.631   3.167   9.092  2.8919  0.4850 -1.1925
 3948SOL     OW23476   3.646   1.823   8.146  0.2067  0.0251 -0.2212
 3948SOL    HW123477   3.712   1.890   8.125  0.1548  0.2666  0.4024
 3948SOL    HW223478   3.669   1.797   8.235  1.9400  1.3407 -0.2699
 3949SOL     OW23479   2.328   2.845   4.076  0.1419 -0.0494 -0.3667
 3949SOL    HW123480   2.370   2.842   3.990  1.1270 -1.1178  0.1681
 3949SOL    HW223481   2.390   2.857   4.147 -0.2504  0.4673 -0.1070
 3950SOL     OW23482   3.172   1.588   9.859  0.1747 -0.0170 -0.2525
 3950SOL    HW123483   3.238   1.652   9.836  1.8600 -1.7127 -0.1563
 3950SOL    HW223484   3.149   1.610   9.949 -1.1355  3.2416 -1.4133
 3951SOL     OW23485   0.782   1.481  10.713 -0.0643 -0.6295 -0.1130
 3951SOL    HW123486   0.699   1.522  10.738  0.0628 -0.5725  0.2168
 3951SOL    HW223487   0.782   1.399  10.762  0.0726 -0.1025  0.7734
 3952SOL     OW23488   0.994   4.691   2.495 -0.0738  0.2777 -0.5024
 3952SOL    HW123489   0.940   4.618   2.527  0.2894  0.1025 -0.2842
 3952SOL    HW223490   0.922   0.016   2.474  1.4738  1.6976 -1.7444
 3953SOL     OW23491   3.884   0.879   0.700 -0.5028  0.5243 -0.1028
 3953SOL    HW123492   3.862   0.968   0.727 -0.3248  0.9718 -1.4680
 3953SOL    HW223493   3.969   0.898   0.660  0.3168 -0.2816  1.2277
 3954SOL     OW23494   4.347   3.306  12.250 -0.0182  0.0950  0.4024
 3954SOL    HW123495   4.331   3.378  12.188  1.1319  0.5584  0.6462
 3954SOL    HW223496   4.348   3.346  12.336  2.1112 -0.8607  0.8100
 3955SOL     OW23497   4.166   2.124   3.002 -0.1633 -0.2924 -0.3833
 3955SOL    HW123498   4.180   2.148   3.094 -2.7352  0.1181 -0.0930
 3955SOL    HW223499   4.103   2.193   2.981  0.7221  0.4165 -0.6962
 3956SOL     OW23500   1.397   1.709   2.029  0.2560  0.0521 -0.7148
 3956SOL    HW123501   1.363   1.717   1.940  0.7924  0.1823 -0.9094
 3956SOL    HW223502   1.329   1.747   2.084  1.8319  1.3898  0.3271
 3957SOL     OW23503   3.120   2.121   4.145 -0.3829  0.0199 -0.0375
 3957SOL    HW123504   3.167   2.099   4.225 -1.0943  1.5143  0.7770
 3957SOL    HW223505   3.191   2.145   4.085 -0.2778 -0.3340 -0.0557
 3958SOL     OW23506   3.146   3.184   8.027  0.0728  0.0491  0.2875
 3958SOL    HW123507   3.230   3.180   8.072 -0.3740  2.8579  1.3587
 3958SOL    HW223508   3.184   3.212   7.944  0.0869  1.3295  0.7212
 3959SOL     OW23509   0.353   4.555   5.351 -0.0002  0.1921 -0.0997
 3959SOL    HW123510   0.393   4.625   5.402  0.6507 -1.9796  2.3346
 3959SOL    HW223511   0.387   4.585   5.266  1.0156  1.2718  0.6883
 3960SOL     OW23512   1.916   2.280   6.167  0.5012  0.3362  0.4347
 3960SOL    HW123513   1.958   2.278   6.252  0.4961 -1.2754  0.3960
 3960SOL    HW223514   1.848   2.348   6.166 -1.5056 -1.6984 -1.1054
 3961SOL     OW23515   3.155   4.536   4.408 -0.8591  0.1217 -0.2152
 3961SOL    HW123516   3.137   4.443   4.390 -0.7420  0.1499 -0.4737
 3961SOL    HW223517   3.231   4.525   4.464 -1.3066 -2.3328 -0.0618
 3962SOL     OW23518   2.404   4.111   6.674  0.2915 -0.1193  0.2747
 3962SOL    HW123519   2.484   4.158   6.652  0.2965  1.4539  3.6569
 3962SOL    HW223520   2.408   4.039   6.612 -0.8269  0.0530  0.0068
 3963SOL     OW23521   0.840   1.695   7.216  0.1104 -0.0380  0.0839
 3963SOL    HW123522   0.757   1.739   7.237  1.2323  0.8776  2.6415
 3963SOL    HW223523   0.823   1.601   7.210 -0.5111  0.2289 -2.2008
 3964SOL     OW23524   3.523   4.039   4.862 -0.5852 -0.0890  0.0283
 3964SOL    HW123525   3.529   4.049   4.767  1.5415 -0.4610  0.1295
 3964SOL    HW223526   3.444   4.092   4.876 -0.3812  0.4534 -0.8624
 3965SOL     OW23527   4.622   2.056   7.064 -0.7206  0.0331 -0.2901
 3965SOL    HW123528   4.644   2.146   7.087 -1.4094 -0.1110  0.9170
 3965SOL    HW223529   4.527   2.062   7.070 -0.8793 -3.1175  0.5799
 3966SOL     OW23530   4.288   0.723   3.959 -0.9969  0.1142 -0.5355
 3966SOL    HW123531   4.205   0.697   3.999 -1.1148  1.3968  0.0741
 3966SOL    HW223532   4.351   0.653   3.976 -2.5579 -1.6391 -1.9735
 3967SOL     OW23533   1.572   0.929   5.779  0.7745 -0.0434  0.2096
 3967SOL    HW123534   1.650   0.930   5.723 -1.4061 -0.0179 -2.8554
 3967SOL    HW223535   1.552   1.023   5.785 -0.1994 -0.2995  1.0882
 3968SOL     OW23536   0.453   1.942   5.087  0.4614  0.2157  0.4911
 3968SOL    HW123537   0.511   1.866   5.091  0.5445  0.2274 -0.4129
 3968SOL    HW223538   0.401   1.912   5.013  0.8558  0.1471  0.2381
 3969SOL     OW23539   4.377   0.104   4.154 -0.3953 -0.3136  0.0418
 3969SOL    HW123540   4.341   0.054   4.081 -3.1647  0.7285  0.6875
 3969SOL    HW223541   4.323   0.067   4.224 -3.3274  2.7064 -0.6557
 3970SOL     OW23542   3.756   1.426   3.977  0.1208  0.2037 -0.8125
 3970SOL    HW123543   3.681   1.462   3.928  0.2024 -0.7269 -1.6223
 3970SOL    HW223544   3.751   1.471   4.061 -0.3552  0.8561 -1.1897
 3971SOL     OW23545   2.101   0.260  15.932  0.3502  0.1027 -0.0286
 3971SOL    HW123546   2.172   0.282  15.872 -0.5366 -0.7585 -1.4130
 3971SOL    HW223547   2.059   0.205  15.866  0.5708 -0.1956  0.0794
 3972SOL     OW23548   2.018   1.033  12.881 -0.2102  0.2527 -0.4291
 3972SOL    HW123549   2.059   0.993  12.958 -0.9700  0.2917 -0.0065
 3972SOL    HW223550   2.081   1.017  12.811  0.5589 -0.9177  0.5286
 3973SOL     OW23551   1.084   4.619  15.458  0.1775 -0.0448  0.8825
 3973SOL    HW123552   1.178   4.606  15.451 -0.0723 -1.1541 -0.3587
 3973SOL    HW223553   1.079   4.662  15.543  1.4493  1.6522  0.1150
 3974SOL     OW23554   3.207   3.568   7.434 -0.6540 -0.2943 -0.3112
 3974SOL    HW123555   3.230   3.574   7.341  2.5095 -0.7480  0.4411
 3974SOL    HW223556   3.291   3.559   7.479 -0.2621  1.8949 -0.6095
 3975SOL     OW23557   3.359   0.483  10.969 -0.1271 -0.2003 -0.3333
 3975SOL    HW123558   3.405   0.452  10.891  0.7573  2.7213 -0.9982
 3975SOL    HW223559   3.372   0.577  10.954  1.7317 -0.6605 -1.5868
 3976SOL     OW23560   0.989   2.597   2.159 -0.3902  0.4453  0.8494
 3976SOL    HW123561   0.998   2.539   2.235 -0.6122 -1.2759 -0.4419
 3976SOL    HW223562   1.051   2.664   2.189  1.5260 -0.1273 -1.9009
 3977SOL     OW23563   1.771   0.103   6.195  0.0860  0.7453  0.3812
 3977SOL    HW123564   1.835   0.143   6.136 -0.9451  1.1417 -0.4725
 3977SOL    HW223565   1.821   0.022   6.206  2.5033  2.0821 -0.6910
 3978SOL     OW23566   3.528   3.243   6.920  0.0896  0.5440  0.3776
 3978SOL    HW123567   3.527   3.148   6.915 -1.7996  0.5558  0.6679
 3978SOL    HW223568   3.609   3.240   6.970  1.2024 -1.1742 -1.5387
 3979SOL     OW23569   3.371   2.704  10.928 -0.2293  0.3516  0.7203
 3979SOL    HW123570   3.365   2.614  10.898  0.9413  1.0834 -1.6694
 3979SOL    HW223571   3.295   2.753  10.896 -1.1054 -0.2727  1.8278
 3980SOL     OW23572   4.217   0.212  13.731 -0.4210 -0.2876  1.3275
 3980SOL    HW123573   4.231   0.306  13.718 -0.1187 -0.7298 -1.7329
 3980SOL    HW223574   4.305   0.178  13.715 -0.6913 -1.6111  2.6598
 3981SOL     OW23575   4.226   1.026   3.223 -0.3507 -0.0084  0.1633
 3981SOL    HW123576   4.135   1.047   3.242  0.4193  2.4122  1.2319
 3981SOL    HW223577   4.246   0.968   3.296 -1.9536 -0.8007 -0.0405
 3982SOL     OW23578   2.097   2.656   7.264  0.5929 -0.1139  0.0090
 3982SOL    HW123579   2.165   2.590   7.274  0.0064 -0.4287  2.0582
 3982SOL    HW223580   2.157   2.727   7.287 -2.0541  1.8672  0.8579
 3983SOL     OW23581   2.076   0.942   4.063 -0.2326 -0.2635  0.2354
 3983SOL    HW123582   2.091   1.022   4.113  1.1800 -0.6816  0.4992
 3983SOL    HW223583   1.983   0.950   4.041 -0.1049 -1.7954 -0.8854
 3984SOL     OW23584   2.825   3.576   1.778  0.1841 -0.6616 -0.4290
 3984SOL    HW123585   2.831   3.588   1.873  0.4351  1.3846 -0.7235
 3984SOL    HW223586   2.832   3.480   1.777 -1.7796 -0.7906 -0.9835
 3985SOL     OW23587   2.102   1.130   0.550  1.2799  0.2836  0.3881
 3985SOL    HW123588   2.169   1.170   0.495  0.2950 -0.3102 -1.2376
 3985SOL    HW223589   2.067   1.065   0.490  1.5841 -0.7538  1.3315
 3986SOL     OW23590   3.778   2.988   8.466  0.1876 -0.0473 -0.2215
 3986SOL    HW123591   3.800   3.051   8.536 -0.8922 -0.2178  0.2634
 3986SOL    HW223592   3.839   3.025   8.402 -3.7667  2.0869 -2.7377
 3987SOL     OW23593   3.143   0.046   1.568  0.1904 -0.2523 -0.0692
 3987SOL    HW123594   3.139   4.687   1.546  1.2815 -0.2941 -0.1152
 3987SOL    HW223595   3.181   0.032   1.655  0.9056  0.1723 -0.3165
 3988SOL     OW23596   1.872   0.930   7.304  0.5273 -0.0131 -0.2824
 3988SOL    HW123597   1.797   0.988   7.316 -0.1270 -0.8027 -0.5495
 3988SOL    HW223598   1.874   0.890   7.391 -1.1244 -0.3726 -0.4116
 3989SOL     OW23599   4.121   0.510  17.184  0.2941 -0.1024 -0.4446
 3989SOL    HW123600   4.202   0.492  17.231  0.4114  0.1020 -0.5715
 3989SOL    HW223601   4.155   0.507  17.095  2.0978  0.6802  0.2342
 3990SOL     OW23602   1.932   0.893   0.054 -0.1991  0.3602  0.2874
 3990SOL    HW123603   1.887   0.810   0.066 -0.3805  0.1437 -1.9611
 3990SOL    HW223604   1.993   0.878  17.720  2.9110 -1.7147  3.3875
 3991SOL     OW23605   3.875   3.221   8.317 -0.2826 -0.5080 -0.1372
 3991SOL    HW123606   3.782   3.238   8.336  0.0086 -1.7429  2.4538
 3991SOL    HW223607   3.906   3.305   8.353  2.0213 -0.2848 -2.5994
 3992SOL     OW23608   4.137   3.154  12.173  0.5338 -0.3715 -0.2220
 3992SOL    HW123609   4.220   3.188  12.206 -0.4332  1.1412  0.6555
 3992SOL    HW223610   4.074   3.218  12.205 -0.9439 -0.9668 -1.9426
 3993SOL     OW23611   0.783   4.147  13.666  0.2146  0.4715 -0.0228
 3993SOL    HW123612   0.848   4.177  13.730  0.3095  1.1008 -0.4116
 3993SOL    HW223613   0.807   4.054  13.667 -0.7424  0.2084 -1.0150
 3994SOL     OW23614   3.487   0.223   3.520  0.6791  0.8345 -0.1474
 3994SOL    HW123615   3.549   0.244   3.589 -0.5979 -1.4700  1.7285
 3994SOL    HW223616   3.475   0.131   3.544 -2.2847  1.5619  1.1799
 3995SOL     OW23617   1.930   2.649  16.939  0.2334 -0.0634  0.2624
 3995SOL    HW123618   1.885   2.578  16.894 -0.3108  2.1020 -2.6609
 3995SOL    HW223619   2.007   2.612  16.981  0.7529 -0.1689 -0.7839
 3996SOL     OW23620   2.713   1.062   6.548 -0.3091 -0.6992  0.1012
 3996SOL    HW123621   2.757   1.142   6.522  0.7892 -0.7222  1.8877
 3996SOL    HW223622   2.750   1.040   6.634  1.2732  0.7827 -0.2005
 3997SOL     OW23623   0.595   3.303  11.637 -0.0852  0.2337 -0.4649
 3997SOL    HW123624   0.666   3.327  11.578  0.6974  1.5887  1.0253
 3997SOL    HW223625   0.524   3.275  11.578  0.1923 -1.5151  0.0256
 3998SOL     OW23626   3.989   2.341   8.670 -0.0283 -0.2670  0.5840
 3998SOL    HW123627   4.011   2.433   8.684 -0.2030 -0.0351 -0.6470
 3998SOL    HW223628   4.074   2.308   8.641  0.5042  1.1010  0.5730
 3999SOL     OW23629   1.487   1.495   8.729 -0.6977  0.2298  0.2922
 3999SOL    HW123630   1.519   1.410   8.700  1.2608  1.2622 -0.5380
 3999SOL    HW223631   1.417   1.512   8.666 -0.2470 -1.0862 -0.5483
 4000SOL     OW23632   4.530   4.482  15.415 -0.4214  0.4337  0.7913
 4000SOL    HW123633   4.578   4.524  15.343 -1.2169  2.0321  1.1823
 4000SOL    HW223634   4.439   4.488  15.387 -0.4465  0.1306  0.8172
 4001SOL     OW23635   3.961   1.415   1.054 -0.1311 -0.1893 -0.2102
 4001SOL    HW123636   3.910   1.420   0.973 -1.2823 -2.4450  0.3805
 4001SOL    HW223637   3.893   1.455   1.109  0.1731  3.0360 -2.1798
 4002SOL     OW23638   1.161   3.970   5.356 -0.5975  0.7754  0.4364
 4002SOL    HW123639   1.160   3.898   5.419 -0.7810  2.2524  2.1184
 4002SOL    HW223640   1.205   3.938   5.277  0.2645 -1.0358  1.6626
 4003SOL     OW23641   0.209   4.409   9.042  0.4237  0.1724  0.8300
 4003SOL    HW123642   0.227   4.498   9.073  0.3359  0.1931  0.8228
 4003SOL    HW223643   0.126   4.425   8.998  1.0756  0.3034 -0.3448
 4004SOL     OW23644   3.608   3.609  10.405  0.1176 -0.2999  0.3394
 4004SOL    HW123645   3.543   3.593  10.336 -1.2488  1.5204  1.2441
 4004SOL    HW223646   3.554   3.646  10.474  1.4579 -0.8168  1.6592
 4005SOL     OW23647   1.084   3.550   7.352 -0.0817 -0.0114 -0.9353
 4005SOL    HW123648   1.144   3.494   7.304  0.8561  0.5614 -0.4235
 4005SOL    HW223649   1.018   3.488   7.384  0.6394  0.4462  1.4358
 4006SOL     OW23650   3.344   2.667   7.088 -0.1896  0.2429 -0.1860
 4006SOL    HW123651   3.376   2.658   7.178 -1.3984  2.3795  0.4555
 4006SOL    HW223652   3.309   2.756   7.099  0.3786  0.4707 -0.2540
 4007SOL     OW23653   4.082   4.306   2.791 -0.2590  0.0784  0.0080
 4007SOL    HW123654   4.141   4.375   2.762  1.7473 -0.1954  3.4260
 4007SOL    HW223655   4.060   4.347   2.875 -0.0332  2.0504 -0.8999
 4008SOL     OW23656   4.466   4.199   8.795  0.1218 -0.2206  0.9982
 4008SOL    HW123657   4.371   4.191   8.809 -0.1170 -0.2461 -0.6673
 4008SOL    HW223658   4.481   4.107   8.818 -1.1495 -0.4863  0.7770
 4009SOL     OW23659   1.439   1.746   5.000  0.3756 -0.6692 -0.2378
 4009SOL    HW123660   1.427   1.746   4.905 -1.4043  0.1478 -0.0279
 4009SOL    HW223661   1.514   1.804   5.009 -0.7042  0.4391  1.6034
 4010SOL     OW23662   2.903   4.474   9.706 -0.3450  0.5713  0.0761
 4010SOL    HW123663   2.967   4.499   9.639  0.1397  0.8580  0.6443
 4010SOL    HW223664   2.956   4.466   9.785  1.2733  1.7234 -0.8878
 4011SOL     OW23665   3.138   3.418  16.109 -0.5446 -0.5921 -0.8145
 4011SOL    HW123666   3.099   3.503  16.129 -0.0002 -0.4624 -0.2971
 4011SOL    HW223667   3.123   3.401  16.016  1.8419  4.0019 -2.0703
 4012SOL     OW23668   2.912   2.470  16.961  0.6601 -0.5253  0.7570
 4012SOL    HW123669   2.920   2.387  16.914 -0.0181 -1.6051  2.4959
 4012SOL    HW223670   2.823   2.504  16.950  1.5239  1.0250 -1.1484
 4013SOL     OW23671   2.712   0.792   2.359  0.0041 -0.1676 -0.3338
 4013SOL    HW123672   2.757   0.766   2.439  0.0038  0.8000 -0.0198
 4013SOL    HW223673   2.783   0.809   2.298  0.1731  2.1943  0.5279
 4014SOL     OW23674   2.600   0.070  16.069  0.3826  0.1566  0.0664
 4014SOL    HW123675   2.612   0.015  15.992  0.5605  0.7719 -0.3445
 4014SOL    HW223676   2.675   0.060  16.128  0.7163  1.3785 -0.1479
 4015SOL     OW23677   1.465   3.662   0.225 -0.6116 -0.4373  0.9254
 4015SOL    HW123678   1.529   3.698   0.287 -1.1974  0.2726  1.1090
 4015SOL    HW223679   1.387   3.708   0.253 -0.0968  0.8796  0.1764
 4016SOL     OW23680   0.447   2.368  16.361 -0.0474 -0.1343  0.0656
 4016SOL    HW123681   0.488   2.320  16.433  0.3555 -0.0165 -0.0881
 4016SOL    HW223682   0.358   2.364  16.397 -0.0166  1.5387  0.3319
 4017SOL     OW23683   2.322   1.269   7.038  0.0815 -0.0209  0.4955
 4017SOL    HW123684   2.400   1.322   7.054  0.4992 -0.4790 -0.0412
 4017SOL    HW223685   2.287   1.265   7.127  0.0413 -2.8192  0.3309
 4018SOL     OW23686   4.721   2.181  16.461 -0.7661  1.5562  0.0526
 4018SOL    HW123687   4.671   2.100  16.468  1.0435  0.3993 -0.3991
 4018SOL    HW223688   4.678   2.236  16.526 -0.8690 -0.3449  1.6056
 4019SOL     OW23689   0.422   4.379  16.234  0.1930 -0.4480  0.3578
 4019SOL    HW123690   0.414   4.469  16.264  1.7361  0.1685 -1.0958
 4019SOL    HW223691   0.368   4.380  16.155  1.5486 -0.0030 -0.5687
 4020SOL     OW23692   2.862   2.495   0.268  0.3429 -0.2971  0.4688
 4020SOL    HW123693   2.822   2.571   0.309  1.1386  0.6488 -0.5133
 4020SOL    HW223694   2.795   2.481   0.201  2.0160 -1.6121 -0.9343
 4021SOL     OW23695   4.452   1.849   5.918  0.0315 -0.5551  0.0735
 4021SOL    HW123696   4.396   1.871   5.844  0.8464 -0.2082 -0.4371
 4021SOL    HW223697   4.514   1.922   5.914 -0.5546 -0.2123 -2.7341
 4022SOL     OW23698   2.086   4.500   4.877 -0.0151 -0.2683 -0.3639
 4022SOL    HW123699   2.102   4.472   4.786  0.9079 -0.4530 -0.1483
 4022SOL    HW223700   2.019   4.565   4.857  0.9503  1.2072  1.2271
 4023SOL     OW23701   4.572   2.468   1.702  0.6007 -0.4530 -0.2071
 4023SOL    HW123702   4.639   2.409   1.736  1.2214  0.7630  0.6626
 4023SOL    HW223703   4.498   2.408   1.697 -0.6145  1.0268 -0.0280
 4024SOL     OW23704   3.728   3.440   0.920 -0.3348 -0.1032 -0.2560
 4024SOL    HW123705   3.817   3.464   0.947 -0.0987 -1.2646  0.0017
 4024SOL    HW223706   3.754   3.397   0.839 -0.3536 -1.8698  0.6621
 4025SOL     OW23707   4.551   3.166  14.978  0.0793  0.3799 -0.3458
 4025SOL    HW123708   4.460   3.155  14.951 -0.0093  0.2456  0.0053
 4025SOL    HW223709   4.548   3.255  15.013  1.2603  0.0203  0.6757
 4026SOL     OW23710   1.095   3.836  12.027 -0.5638  0.5061  0.2594
 4026SOL    HW123711   1.088   3.932  12.035  0.1072  0.6896 -1.4204
 4026SOL    HW223712   1.189   3.822  12.037 -0.6836 -1.2320 -1.2618
 4027SOL     OW23713   3.022   3.022   0.914  0.1746  0.7549  0.2122
 4027SOL    HW123714   2.938   3.059   0.888 -0.1486 -0.4043 -0.3859
 4027SOL    HW223715   3.061   3.089   0.970  2.9655  0.0053 -0.8257
 4028SOL     OW23716   4.150   1.094   8.629  0.5417  0.0963 -0.1492
 4028SOL    HW123717   4.135   1.044   8.549  1.4623  0.7342 -0.7301
 4028SOL    HW223718   4.128   1.183   8.599  0.5530  0.9220  2.3337
 4029SOL     OW23719   1.084   4.166   6.955  0.6036 -0.4182  0.3322
 4029SOL    HW123720   1.094   4.092   6.895  2.0736 -0.5586  0.7390
 4029SOL    HW223721   1.174   4.159   6.988 -0.0826  0.8988  2.4849
 4030SOL     OW23722   3.597   4.046   3.765 -0.0354  0.2464 -0.0318
 4030SOL    HW123723   3.552   4.094   3.695 -0.5562 -0.7474 -0.3718
 4030SOL    HW223724   3.661   3.988   3.725  0.4900 -0.3249  1.6329
 4031SOL     OW23725   0.558   3.894  16.968  0.3485  0.0980  0.5830
 4031SOL    HW123726   0.540   3.859  16.880 -0.4968  0.2094  0.7059
 4031SOL    HW223727   0.594   3.817  17.013  0.1088 -0.6891 -0.5652
 4032SOL     OW23728   3.059   0.264   3.658 -0.5427  0.0406  0.3839
 4032SOL    HW123729   3.064   0.204   3.584 -0.7664  1.1491 -0.5381
 4032SOL    HW223730   3.072   0.202   3.729 -0.8289 -1.5711 -0.9639
 4033SOL     OW23731   3.883   1.855   7.813 -0.0946  0.1330  1.0522
 4033SOL    HW123732   3.797   1.886   7.841  0.0240  0.6178  0.8740
 4033SOL    HW223733   3.875   1.871   7.719  1.0607  0.0257  0.9336
 4034SOL     OW23734   1.166   1.268   6.910  0.0344 -0.1709  0.3971
 4034SOL    HW123735   1.166   1.211   6.833  0.2008  2.7653 -1.7682
 4034SOL    HW223736   1.260   1.270   6.927 -0.0947 -2.0221  1.2792
 4035SOL     OW23737   3.813   0.151  10.641 -0.0262  0.3077 -0.1130
 4035SOL    HW123738   3.774   0.069  10.673 -1.3277  1.3944  1.0667
 4035SOL    HW223739   3.776   0.156  10.553 -0.1033 -3.5648 -0.3009
 4036SOL     OW23740   0.202   4.012   7.181  0.5588 -0.3231  0.4893
 4036SOL    HW123741   0.214   4.058   7.098 -0.2974  0.9331  1.0654
 4036SOL    HW223742   0.157   4.071   7.242 -1.3931  0.1018 -1.4071
 4037SOL     OW23743   3.344   1.538  14.669  0.3905 -0.0041 -0.2465
 4037SOL    HW123744   3.424   1.584  14.641 -0.6176  1.3492 -0.9004
 4037SOL    HW223745   3.299   1.596  14.730 -0.1162  0.4231 -1.0235
 4038SOL     OW23746   0.125   2.226   3.015  0.1796 -0.2734  0.4429
 4038SOL    HW123747   0.119   2.268   2.929 -0.6588 -2.3033 -0.4858
 4038SOL    HW223748   0.061   2.157   2.998  0.1233 -0.4047  1.1924
 4039SOL     OW23749   1.085   2.572   4.469 -0.4647  0.0537  0.0541
 4039SOL    HW123750   1.162   2.566   4.412 -0.2946  0.9859  0.1773
 4039SOL    HW223751   1.122   2.568   4.557  0.0912 -0.4474 -0.2014
 4040SOL     OW23752   1.222   1.816   5.194  0.0076 -0.0433  0.1007
 4040SOL    HW123753   1.278   1.890   5.218 -1.4716  0.5392  1.6951
 4040SOL    HW223754   1.285   1.770   5.138 -1.2657 -0.9255 -0.6054
 4041SOL     OW23755   1.037   4.279  16.955 -0.0921  0.0881  0.6435
 4041SOL    HW123756   1.099   4.337  16.999  2.3046 -1.2303 -1.0216
 4041SOL    HW223757   0.956   4.330  16.962 -0.7104 -1.0893  2.0211
 4042SOL     OW23758   0.552   3.687   0.193  0.5870  0.0111  0.2380
 4042SOL    HW123759   0.595   3.619   0.141 -2.7285 -0.4089 -1.9154
 4042SOL    HW223760   0.596   3.764   0.157  0.1813  0.9459  1.7306
 4043SOL     OW23761   3.454   3.314   5.226  0.7254  0.1695  0.5476
 4043SOL    HW123762   3.527   3.269   5.183  0.4584 -0.2745  0.5606
 4043SOL    HW223763   3.383   3.252   5.207  2.5289 -2.0120  0.9180
 4044SOL     OW23764   3.774   4.476  12.990 -0.3996  0.0430 -0.2259
 4044SOL    HW123765   3.834   4.503  13.060 -0.1503  0.1386 -0.4755
 4044SOL    HW223766   3.828   4.410  12.946 -0.9296 -1.2831  1.1415
 4045SOL     OW23767   2.947   1.749  14.179  0.2600 -0.2177 -0.4343
 4045SOL    HW123768   2.897   1.801  14.116 -0.4243 -2.0029 -1.3603
 4045SOL    HW223769   2.899   1.671  14.208  2.4167 -1.0597  0.8723
 4046SOL     OW23770   3.989   2.328   7.813  0.0117  0.4402  0.0250
 4046SOL    HW123771   3.963   2.270   7.742  1.2665  0.1722 -0.2194
 4046SOL    HW223772   3.974   2.418   7.782 -0.7488 -0.0899 -1.1429
 4047SOL     OW23773   1.730   2.771   5.286 -0.2611 -0.2757 -0.1844
 4047SOL    HW123774   1.811   2.739   5.325 -1.5968 -2.2937  0.9545
 4047SOL    HW223775   1.672   2.769   5.362  1.5442 -1.6725  1.1600
 4048SOL     OW23776   2.082   3.027   5.065  0.1829 -0.2994 -0.1017
 4048SOL    HW123777   2.133   2.957   5.107 -0.6048 -0.8645 -0.0906
 4048SOL    HW223778   2.016   2.964   5.035  0.3625 -1.0357  1.0452
 4049SOL     OW23779   4.563   3.703   6.394 -0.0296 -0.1698 -0.5331
 4049SOL    HW123780   4.604   3.627   6.353 -1.2051 -1.0525 -0.0687
 4049SOL    HW223781   4.555   3.667   6.482  0.5928 -1.6844 -1.1000
 4050SOL     OW23782   3.659   1.765  17.453 -0.1662 -0.0379 -0.4445
 4050SOL    HW123783   3.753   1.781  17.446 -0.0294 -1.0160 -0.8515
 4050SOL    HW223784   3.634   1.856  17.469 -1.9348 -0.2422 -2.0529
 4051SOL     OW23785   4.205   2.329   6.655 -0.3577 -0.6509  0.6176
 4051SOL    HW123786   4.135   2.264   6.648 -1.1428  0.0851  1.7284
 4051SOL    HW223787   4.287   2.284   6.631  1.0198  1.6739  1.0057
 4052SOL     OW23788   2.735   2.870   5.139 -0.0732 -0.7495 -0.0659
 4052SOL    HW123789   2.673   2.936   5.108  0.6536  0.3267  0.7830
 4052SOL    HW223790   2.796   2.922   5.191  0.1926 -1.2085  0.0763
 4053SOL     OW23791   2.241   3.626   2.257  0.1587 -0.1337  0.4120
 4053SOL    HW123792   2.271   3.594   2.172 -1.9086  1.2703 -0.8476
 4053SOL    HW223793   2.184   3.695   2.225 -0.3002  0.0171  1.5647
 4054SOL     OW23794   2.264   0.063   3.653 -0.5322 -0.3659 -0.1219
 4054SOL    HW123795   2.188   0.105   3.694 -0.6196 -0.7581  0.1214
 4054SOL    HW223796   2.224   0.034   3.571  0.3548 -2.1575  0.0941
 4055SOL     OW23797   4.068   3.771  10.430 -0.4346 -0.3996 -0.5730
 4055SOL    HW123798   4.121   3.714  10.374  1.4524  1.4312 -0.6715
 4055SOL    HW223799   3.985   3.724  10.435  0.7025 -2.3087  0.6635
 4056SOL     OW23800   1.699   2.291   5.185  0.2260  0.2435  0.0170
 4056SOL    HW123801   1.610   2.293   5.221  0.0296  2.6188 -0.6150
 4056SOL    HW223802   1.688   2.343   5.105  2.2363 -2.0683 -1.7836
 4057SOL     OW23803   1.074   4.533   9.869 -0.0006  0.8330 -0.3962
 4057SOL    HW123804   1.051   4.557   9.958 -0.5030 -0.2903 -0.2237
 4057SOL    HW223805   1.143   4.596   9.850  1.3680 -0.4365  0.3196
 4058SOL     OW23806   3.240   3.991   9.380  0.0239  0.2310 -0.5681
 4058SOL    HW123807   3.273   3.936   9.451  1.0400  1.0579 -0.3983
 4058SOL    HW223808   3.296   4.068   9.389  0.8362 -0.4252 -0.0485
 4059SOL     OW23809   1.412   4.494   3.590 -0.0170  0.3190 -0.2293
 4059SOL    HW123810   1.362   4.546   3.654  0.6432  3.5500 -2.3699
 4059SOL    HW223811   1.502   4.518   3.610  0.2663 -0.6072 -0.4062
 4060SOL     OW23812   3.062   0.973   7.977 -0.1406 -0.0597 -0.2673
 4060SOL    HW123813   2.986   0.954   8.032  1.5097  0.2122  2.0679
 4060SOL    HW223814   3.122   0.915   8.024 -0.6079 -0.2756  0.0704
 4061SOL     OW23815   2.706   1.404   6.832  0.0945  0.2286  0.4306
 4061SOL    HW123816   2.684   1.457   6.756  1.8979 -2.3284 -1.8771
 4061SOL    HW223817   2.793   1.370   6.809 -0.1293 -1.0603  1.4619
 4062SOL     OW23818   3.321   3.715  14.518 -0.3258  0.0741  0.6483
 4062SOL    HW123819   3.256   3.654  14.551 -3.1809  3.8025  1.8883
 4062SOL    HW223820   3.290   3.798  14.555 -1.1835 -0.4642  1.1318
 4063SOL     OW23821   3.345   3.063   5.348 -0.0979 -0.5968  0.0072
 4063SOL    HW123822   3.349   3.094   5.438 -1.5361  0.3737 -0.2628
 4063SOL    HW223823   3.251   3.054   5.337 -0.0666  0.2021 -0.9552
 4064SOL     OW23824   4.629   0.887   5.824  0.5828  0.3493 -0.1979
 4064SOL    HW123825   4.653   0.816   5.765  0.6393  2.0904 -2.2349
 4064SOL    HW223826   4.565   0.840   5.878 -0.9592 -0.0857 -2.3871
 4065SOL     OW23827   1.631   0.047   5.090  0.5633  0.2563  0.8219
 4065SOL    HW123828   1.670   4.715   5.147  0.6778 -1.6524 -1.4945
 4065SOL    HW223829   1.569   0.002   5.032  0.9560  0.0590  0.5624
 4066SOL     OW23830   4.350   2.185   7.153 -0.1468  0.1645 -0.1753
 4066SOL    HW123831   4.338   2.144   7.239 -2.7966  0.5754 -0.3608
 4066SOL    HW223832   4.320   2.271   7.182  2.0797  1.2390 -1.0722
 4067SOL     OW23833   4.596   1.440   3.225  0.7710 -0.1069 -0.4623
 4067SOL    HW123834   4.506   1.423   3.198  0.2152  0.7684  0.8219
 4067SOL    HW223835   4.640   1.371   3.175  1.1229  0.3407 -0.7707
 4068SOL     OW23836   1.430   0.007   1.261  0.1307  0.0083  0.3016
 4068SOL    HW123837   1.450   4.648   1.261  2.3632  0.5007 -0.8737
 4068SOL    HW223838   1.432   0.032   1.169  0.1265  2.5235  0.9681
 4069SOL     OW23839   4.530   2.278   6.111  0.5065  0.6136  0.1835
 4069SOL    HW123840   4.444   2.309   6.139  0.7881  1.2863  0.2948
 4069SOL    HW223841   4.577   2.361   6.100  0.5380  0.3304 -1.7843
 4070SOL     OW23842   2.483   2.224   2.075 -0.1776  0.3564 -0.6346
 4070SOL    HW123843   2.544   2.294   2.053 -2.9876  2.3655 -2.0872
 4070SOL    HW223844   2.526   2.148   2.035  1.1291  1.1589 -0.7126
 4071SOL     OW23845   4.117   0.777  17.035  0.0825 -0.7154 -0.1677
 4071SOL    HW123846   4.051   0.708  17.037 -0.6898 -0.0097 -1.1345
 4071SOL    HW223847   4.066   0.857  17.021  1.4175  0.2316  0.3662
 4072SOL     OW23848   2.074   4.059   9.690 -0.5648 -0.6617  0.0533
 4072SOL    HW123849   2.124   4.122   9.742 -3.6480  1.8993  0.0015
 4072SOL    HW223850   2.074   3.985   9.749  4.1125 -0.3570  0.3920
 4073SOL     OW23851   0.960   3.336   7.453 -0.3291  0.6912 -0.0107
 4073SOL    HW123852   1.003   3.320   7.537 -1.4137  1.4333  0.6627
 4073SOL    HW223853   1.020   3.286   7.396  0.1916  0.3416  0.8359
 4074SOL     OW23854   2.443   2.757   3.840  0.3161  1.0437  0.3674
 4074SOL    HW123855   2.432   2.667   3.811 -0.4314  2.5734 -4.0743
 4074SOL    HW223856   2.456   2.814   3.764 -0.0471  1.0301  0.2963
 4075SOL     OW23857   2.298   0.231   8.952 -0.3835  0.1471 -0.0887
 4075SOL    HW123858   2.265   0.195   9.034 -3.3494 -0.9124 -1.7531
 4075SOL    HW223859   2.392   0.223   8.969 -0.4347  3.1289  1.6318
 4076SOL     OW23860   3.086   2.503  12.745 -0.1745  0.1548 -0.3014
 4076SOL    HW123861   3.149   2.492  12.817 -0.6295 -2.6661 -0.3199
 4076SOL    HW223862   3.125   2.559  12.678 -0.3615  0.1054 -0.4504
 4077SOL     OW23863   0.209   1.933  15.453 -0.2615  0.1054 -0.2220
 4077SOL    HW123864   0.160   1.915  15.373  1.0839 -1.3638 -0.7134
 4077SOL    HW223865   0.257   1.851  15.460 -0.1298  0.4049  2.1902
 4078SOL     OW23866   4.124   4.371  15.846  0.1947  0.1649 -0.4873
 4078SOL    HW123867   4.129   4.305  15.915 -2.8530  0.6770  0.2046
 4078SOL    HW223868   4.071   4.436  15.893  0.3904  1.3717 -1.9036
 4079SOL     OW23869   0.416   2.099   2.148  0.1018 -0.0984  0.3221
 4079SOL    HW123870   0.460   2.128   2.068  2.0921  0.1536  1.5027
 4079SOL    HW223871   0.341   2.159   2.145 -0.5381 -0.8542  1.0362
 4080SOL     OW23872   1.348   4.265   4.487 -0.0791  0.2839  0.0527
 4080SOL    HW123873   1.366   4.296   4.399 -3.8683  0.6793 -0.5860
 4080SOL    HW223874   1.435   4.235   4.516  0.6720 -1.1413 -3.6525
 4081SOL     OW23875   3.970   4.379   7.635 -0.0971 -0.9888  0.7802
 4081SOL    HW123876   3.953   4.321   7.561 -0.4626 -1.2900  1.1009
 4081SOL    HW223877   3.923   4.455   7.601 -0.4208 -1.8438 -0.6497
 4082SOL     OW23878   4.125   3.244   8.553 -0.4617  0.0618 -0.7410
 4082SOL    HW123879   4.114   3.228   8.647 -1.9678 -0.3262 -0.9728
 4082SOL    HW223880   4.070   3.322   8.539 -0.1833  0.3635 -0.1213
 4083SOL     OW23881   1.341   1.137  17.606 -0.3501  0.5596 -0.0751
 4083SOL    HW123882   1.267   1.188  17.640  0.0890  1.1525 -0.0233
 4083SOL    HW223883   1.373   1.197  17.538  2.3794  0.9238  1.5293
 4084SOL     OW23884   1.902   4.433   2.958  0.0406  0.2433 -0.0571
 4084SOL    HW123885   1.959   4.363   2.990  1.0896  1.4815  0.7766
 4084SOL    HW223886   1.959   4.505   2.986 -1.4499  2.3454 -2.4434
 4085SOL     OW23887   0.253   4.564   1.101 -0.6108 -0.2642 -0.5316
 4085SOL    HW123888   0.307   4.575   1.179 -0.7220  1.9637 -0.7605
 4085SOL    HW223889   0.313   4.569   1.027 -0.9254 -0.3068 -0.7894
 4086SOL     OW23890   2.373   4.002   5.684  0.4141  0.1616  0.0429
 4086SOL    HW123891   2.459   4.035   5.660  0.9503 -1.6295 -0.5051
 4086SOL    HW223892   2.322   4.078   5.657  2.0724  1.4455  0.5286
 4087SOL     OW23893   0.000   2.861   6.513  0.1832  0.3238 -0.2205
 4087SOL    HW123894   4.703   2.832   6.427  2.7744  0.5522 -1.2462
 4087SOL    HW223895   4.660   2.838   6.568  0.0410 -0.6725 -0.8160
 4088SOL     OW23896   3.916   3.804   5.541 -0.5195 -0.1263  0.1427
 4088SOL    HW123897   3.962   3.872   5.590  0.0384  1.8299 -3.0623
 4088SOL    HW223898   3.838   3.850   5.511 -0.1204  1.7458  2.0227
 4089SOL     OW23899   1.643   1.054   7.417 -0.2093  0.3814 -0.0086
 4089SOL    HW123900   1.651   1.146   7.392  1.6940 -0.0616 -1.0058
 4089SOL    HW223901   1.611   1.070   7.506  0.5630  0.2214  0.3002
 4090SOL     OW23902   1.102   2.523   5.009  0.1575 -0.1803  0.3464
 4090SOL    HW123903   1.110   2.610   5.049  1.1982  1.1759 -2.7845
 4090SOL    HW223904   1.013   2.533   4.974  0.0655  0.5563  0.7951
 4091SOL     OW23905   2.773   3.224   9.110  0.0852  0.7064  0.8799
 4091SOL    HW123906   2.690   3.233   9.157 -2.1941 -0.0228 -3.0210
 4091SOL    HW223907   2.752   3.236   9.017 -1.0026  1.7916  1.2590
 4092SOL     OW23908   0.154   1.237   6.709  0.0709  0.2433  0.4928
 4092SOL    HW123909   0.115   1.152   6.729 -3.5303  1.5513 -0.9286
 4092SOL    HW223910   0.225   1.250   6.771  0.5012 -3.2964  0.7518
 4093SOL     OW23911   4.131   2.879  16.468 -0.4227 -0.2251 -0.1571
 4093SOL    HW123912   4.211   2.871  16.417  1.3217  0.0251  2.5342
 4093SOL    HW223913   4.134   2.805  16.528 -0.3080  0.7749  1.0880
 4094SOL     OW23914   4.481   0.286   0.864 -0.7154 -0.6467 -0.4669
 4094SOL    HW123915   4.432   0.348   0.918  2.5473 -0.2654  2.0461
 4094SOL    HW223916   4.455   0.207   0.911  0.5144 -0.6813  0.1502
 4095SOL     OW23917   4.312   4.473   2.663  0.5212 -0.2269  0.1611
 4095SOL    HW123918   4.391   4.495   2.612  0.5145  1.7653  0.9901
 4095SOL    HW223919   4.360   4.445   2.741 -2.1777 -0.1435  1.8185
 4096SOL     OW23920   2.424   4.241  16.391  0.6013  0.2206 -0.3675
 4096SOL    HW123921   2.460   4.226  16.479  1.9467  1.4627 -0.7069
 4096SOL    HW223922   2.415   4.152  16.356 -0.5875 -0.0004  0.5040
 4097SOL     OW23923   4.228   1.172   0.883 -0.6512  0.0036 -0.0253
 4097SOL    HW123924   4.281   1.106   0.838 -0.1134 -1.3119  2.5065
 4097SOL    HW223925   4.142   1.160   0.842  0.4285  0.3578 -2.3630
 4098SOL     OW23926   2.914   0.571  12.574  0.4002  0.1412  0.1624
 4098SOL    HW123927   2.840   0.586  12.633  1.0295  0.1962  0.9364
 4098SOL    HW223928   2.942   0.486  12.609 -1.5636  0.1424  1.7758
 4099SOL     OW23929   3.279   3.556   8.380 -0.1532 -0.8695  0.0895
 4099SOL    HW123930   3.229   3.616   8.435 -0.5201 -1.5563  0.5010
 4099SOL    HW223931   3.369   3.566   8.413 -1.3907  2.1053  2.5956
 4100SOL     OW23932   4.355   3.057   4.755 -0.2839  0.2987  0.1018
 4100SOL    HW123933   4.300   2.996   4.706  0.4794 -0.3044 -0.0107
 4100SOL    HW223934   4.434   3.029   4.708 -0.4549  1.2787 -0.7867
 4101SOL     OW23935   3.477   3.167   4.081 -0.1535 -0.0522 -0.4689
 4101SOL    HW123936   3.455   3.255   4.048 -0.8711  0.1142  0.4386
 4101SOL    HW223937   3.553   3.134   4.034 -0.0688 -1.5409  0.7198
 4102SOL     OW23938   3.648   3.565  15.811 -0.7377  0.2313 -0.2755
 4102SOL    HW123939   3.556   3.574  15.785 -0.4409 -0.7719 -1.6378
 4102SOL    HW223940   3.639   3.492  15.871 -0.2668  0.0402 -0.4456
 4103SOL     OW23941   0.331   3.990   1.106 -0.3681 -0.5889 -0.2590
 4103SOL    HW123942   0.418   3.959   1.127  0.1898  0.9651 -0.2705
 4103SOL    HW223943   0.346   4.084   1.094  2.6202 -0.6524  2.9973
 4104SOL     OW23944   0.738   2.814  10.410 -0.1129 -0.4217 -0.1696
 4104SOL    HW123945   0.692   2.874  10.468  0.0093 -0.6759  0.1878
 4104SOL    HW223946   0.827   2.817  10.444 -0.5533 -1.4512  1.0400
 4105SOL     OW23947   3.525   2.418   8.325  0.1997  0.1237  0.2315
 4105SOL    HW123948   3.595   2.479   8.301 -2.2743  2.1820 -1.7005
 4105SOL    HW223949   3.580   2.345   8.354  0.8009  0.8192  0.8585
 4106SOL     OW23950   1.579   4.460   5.490  0.0602  0.4632  0.3699
 4106SOL    HW123951   1.522   4.389   5.519 -1.3843  2.3456  2.1369
 4106SOL    HW223952   1.530   4.543   5.492 -0.1749  0.2947  1.2883
 4107SOL     OW23953   0.402   0.556   8.974  0.4646  0.3871  0.1397
 4107SOL    HW123954   0.397   0.478   9.029  1.5922  0.7248  0.7082
 4107SOL    HW223955   0.472   0.605   9.017  0.5337 -0.5809  1.1349
 4108SOL     OW23956   0.694   2.924   1.271  0.8343  0.2264  0.5336
 4108SOL    HW123957   0.703   3.007   1.225 -0.7280  0.7686  1.2235
 4108SOL    HW223958   0.729   2.950   1.356 -1.3219  4.0029  0.2408
 4109SOL     OW23959   2.636   0.321   6.432 -0.2120 -0.2126 -0.0093
 4109SOL    HW123960   2.562   0.308   6.492 -2.3827  1.8015 -2.2461
 4109SOL    HW223961   2.695   0.377   6.484  0.1461 -0.8282  0.2426
 4110SOL     OW23962   2.042   4.683   3.036  0.2661 -0.1897 -0.4094
 4110SOL    HW123963   2.087   0.028   3.064  0.2196 -0.1411 -0.4738
 4110SOL    HW223964   1.960   4.718   3.000  1.0029 -0.0140 -1.9053
 4111SOL     OW23965   2.303   1.853   4.629  0.2810 -0.2951 -0.2201
 4111SOL    HW123966   2.378   1.858   4.570 -0.1800 -1.3991 -0.8942
 4111SOL    HW223967   2.243   1.920   4.595 -0.3412 -1.6571 -1.8294
 4112SOL     OW23968   4.404   0.256   4.607  0.1310  0.1168  0.0000
 4112SOL    HW123969   4.435   0.278   4.695  2.8221  0.5299 -1.0489
 4112SOL    HW223970   4.402   0.160   4.604  0.5044  0.1420 -0.9673
 4113SOL     OW23971   0.101   3.690   3.489 -0.5471  0.4336  0.5450
 4113SOL    HW123972   0.008   3.706   3.479 -0.0139  3.2429  0.1958
 4113SOL    HW223973   0.118   3.668   3.398 -0.7780  0.8772  0.3954
 4114SOL     OW23974   3.418   1.321  17.041  0.0988 -0.2075  0.2312
 4114SOL    HW123975   3.424   1.416  17.046 -2.9296 -0.0321  0.6810
 4114SOL    HW223976   3.355   1.306  17.111 -0.8023 -0.0046 -0.5330
 4115SOL     OW23977   2.036   2.223   2.667 -0.3360 -0.0560 -0.3238
 4115SOL    HW123978   2.017   2.215   2.574  0.5148 -0.7147 -0.4439
 4115SOL    HW223979   2.072   2.312   2.661  2.1663 -0.8717  2.2847
 4116SOL     OW23980   2.881   0.473  13.037  0.3336  0.0754 -0.2705
 4116SOL    HW123981   2.834   0.394  13.010  0.2355  0.1832 -0.4201
 4116SOL    HW223982   2.913   0.446  13.123  0.3587 -0.9049 -0.5820
 4117SOL     OW23983   4.314   0.800  17.437 -0.1102 -0.1684  0.4379
 4117SOL    HW123984   4.323   0.773  17.529 -1.0475  2.4365  1.2920
 4117SOL    HW223985   4.328   0.894  17.447  2.1179 -0.5107  0.5900
 4118SOL     OW23986   0.982   2.015   3.575 -0.1295  0.4709  0.0138
 4118SOL    HW123987   1.039   1.976   3.508 -0.0552 -1.8739  1.4548
 4118SOL    HW223988   1.042   2.084   3.604  2.1599 -1.3622 -0.3356
 4119SOL     OW23989   0.107   3.730   2.842  0.0760  0.0108  0.5536
 4119SOL    HW123990   0.031   3.751   2.787  0.6020  2.4662  0.7934
 4119SOL    HW223991   0.154   3.812   2.851 -2.4108  1.5495 -0.5115
 4120SOL     OW23992   3.832   1.671   9.437  0.3087 -0.2186  0.3429
 4120SOL    HW123993   3.799   1.760   9.451  1.9626  0.7530 -1.9036
 4120SOL    HW223994   3.778   1.650   9.361  0.0447 -1.8019  0.9796
 4121SOL     OW23995   4.487   3.994   9.681 -0.1840  0.5443  0.4506
 4121SOL    HW123996   4.513   4.006   9.590  1.0348 -0.8113  0.6245
 4121SOL    HW223997   4.537   4.054   9.737  0.5660  0.1416  0.2107
 4122SOL     OW23998   4.142   3.926   9.646  0.6026 -0.3012  0.0194
 4122SOL    HW123999   4.071   3.896   9.702 -0.4879 -0.0361 -1.2213
 4122SOL    HW224000   4.132   4.021   9.642  1.1948 -0.2827 -1.2490
 4123SOL     OW24001   1.624   4.656   3.666  0.1913 -0.3537 -0.0872
 4123SOL    HW124002   1.564   4.706   3.721 -1.4641 -0.9641 -1.3343
 4123SOL    HW224003   1.679   4.720   3.621  2.1030 -2.6539 -1.0618
 4124SOL     OW24004   3.367   2.274   3.088 -0.2013 -0.3688  0.2466
 4124SOL    HW124005   3.307   2.349   3.094  0.6815  0.3982 -0.6507
 4124SOL    HW224006   3.453   2.310   3.068 -0.1160  1.0378  3.0197
 4125SOL     OW24007   1.088   1.249   7.354  0.7488  0.0978  0.1160
 4125SOL    HW124008   1.023   1.243   7.425  1.3605 -0.3076  0.6455
 4125SOL    HW224009   1.172   1.239   7.398  0.8860 -0.6846 -0.3170
 4126SOL     OW24010   2.298   4.376   5.331  0.5371  0.0817 -0.0472
 4126SOL    HW124011   2.321   4.328   5.251  1.4314 -1.1517  0.9587
 4126SOL    HW224012   2.225   4.426   5.294  0.7392  1.9896  2.1134
 4127SOL     OW24013   0.169   2.571   3.920 -0.2022 -0.0223 -0.2336
 4127SOL    HW124014   0.103   2.637   3.899 -0.6381 -0.3992 -0.0517
 4127SOL    HW224015   0.234   2.631   3.955 -0.8925  1.1663 -1.0009
 4128SOL     OW24016   1.217   3.042   9.072 -0.3861  0.8214  0.3509
 4128SOL    HW124017   1.244   3.010   9.158 -1.3680  2.4945  1.2955
 4128SOL    HW224018   1.198   2.963   9.021  0.6275  0.6027  0.3152
 4129SOL     OW24019   1.352   0.052  16.161 -0.0287  0.9227  0.0070
 4129SOL    HW124020   1.371   0.036  16.253  1.6438  1.2470 -0.2713
 4129SOL    HW224021   1.438   0.082  16.131 -0.7594  0.7279 -2.3334
 4130SOL     OW24022   2.039   1.620   3.507  0.0241 -0.2733 -0.1261
 4130SOL    HW124023   2.001   1.533   3.517  1.5973 -1.1415 -1.7772
 4130SOL    HW224024   2.016   1.671   3.585  1.6645 -1.3070  1.0292
 4131SOL     OW24025   4.394   2.383  17.006 -1.0086 -0.7449 -0.3427
 4131SOL    HW124026   4.299   2.383  16.993 -0.7753  1.0073 -1.9450
 4131SOL    HW224027   4.428   2.457  16.956 -1.3794 -0.5810 -0.3524
 4132SOL     OW24028   1.740   0.580  16.395 -0.5436 -0.5312  0.1990
 4132SOL    HW124029   1.709   0.664  16.426 -2.0520 -1.0761  0.1437
 4132SOL    HW224030   1.824   0.575  16.440 -0.5046  0.3581  0.2300
 4133SOL     OW24031   2.057   1.247   5.046 -0.0665 -0.4649 -0.3635
 4133SOL    HW124032   2.072   1.205   4.961  1.4772  0.7503 -0.6912
 4133SOL    HW224033   1.970   1.285   5.038  0.5392  1.3245  1.5112
 4134SOL     OW24034   4.511   4.043   2.387  0.1895 -0.1792  0.2656
 4134SOL    HW124035   4.590   4.061   2.336 -0.9108  2.8297 -0.3624
 4134SOL    HW224036   4.544   4.071   2.472  1.9400 -0.6231 -0.2710
 4135SOL     OW24037   1.999   2.536   1.732  0.0028 -0.8456 -0.2640
 4135SOL    HW124038   1.948   2.594   1.790  2.6996  2.0619 -0.8241
 4135SOL    HW224039   1.953   2.455   1.757  0.5980 -1.0603  0.1347
 4136SOL     OW24040   4.619   3.678   7.111  0.0285  0.2522  0.2027
 4136SOL    HW124041   4.690   3.681   7.046  0.6022 -1.1982  0.7606
 4136SOL    HW224042   4.599   3.772   7.113  0.6475  0.3988 -0.3486
 4137SOL     OW24043   1.877   3.651  15.545  0.2016  0.3728  0.6643
 4137SOL    HW124044   1.919   3.593  15.608  2.5292  0.4556 -0.7953
 4137SOL    HW224045   1.793   3.667  15.587  0.5778  1.6612  0.9563
 4138SOL     OW24046   1.454   0.924  14.779  0.1587  0.0047 -0.3338
 4138SOL    HW124047   1.448   0.838  14.737 -1.3643 -1.0459  1.9780
 4138SOL    HW224048   1.447   0.900  14.871 -3.2090 -0.6468 -0.7397
 4139SOL     OW24049   3.230   3.493   3.881 -0.3621 -0.3100 -0.0238
 4139SOL    HW124050   3.235   3.407   3.840 -0.3654 -0.0109 -0.6549
 4139SOL    HW224051   3.313   3.489   3.927 -0.9966 -2.8406  0.9166
 4140SOL     OW24052   0.035   0.986   6.417 -0.2201 -0.3156  0.5516
 4140SOL    HW124053   0.011   0.918   6.355  0.2848  0.4809 -0.5177
 4140SOL    HW224054   4.684   1.025   6.436 -0.7636 -0.0644 -2.3529
 4141SOL     OW24055   0.010   2.649   3.586  0.3210  0.1471  0.1510
 4141SOL    HW124056   0.088   2.647   3.530  2.0138  0.9825  2.4942
 4141SOL    HW224057   4.717   2.558   3.584 -1.5243  0.7100 -1.1583
 4142SOL     OW24058   0.377   3.037   1.969 -0.4473 -0.2856  0.3636
 4142SOL    HW124059   0.470   3.057   1.975 -1.0746  2.7682  0.3214
 4142SOL    HW224060   0.339   3.122   1.946  0.8806  0.6041  1.4426
 4143SOL     OW24061   0.436   2.300  15.061  0.0574  0.2993 -0.1106
 4143SOL    HW124062   0.510   2.360  15.074  0.0021 -0.1078  2.0873
 4143SOL    HW224063   0.440   2.249  15.142 -2.7930  0.8832  0.3948
 4144SOL     OW24064   2.972   3.945   9.417 -0.1629 -0.1392  0.4104
 4144SOL    HW124065   3.057   3.972   9.382 -0.6589 -0.9742 -1.4274
 4144SOL    HW224066   2.988   3.871   9.476  1.2278 -1.1357 -1.2054
 4145SOL     OW24067   4.195   0.630   3.326 -0.1961 -0.2848 -0.3550
 4145SOL    HW124068   4.288   0.636   3.302  0.4578 -0.9218  2.0612
 4145SOL    HW224069   4.212   0.644   3.419  1.9604 -2.2067 -0.4520
 4146SOL     OW24070   1.034   0.030   1.704 -0.6704 -0.0900  0.1424
 4146SOL    HW124071   1.108   0.024   1.643  0.3256  3.4831  0.9931
 4146SOL    HW224072   0.967   4.728   1.646 -3.0327  0.9008  2.2174
 4147SOL     OW24073   4.041   2.982   3.011 -0.1368  0.4131  0.8198
 4147SOL    HW124074   4.063   2.927   2.935  1.0769 -0.5776  1.8970
 4147SOL    HW224075   3.952   2.993   2.976 -0.6320 -0.3655  1.8418
 4148SOL     OW24076   2.740   1.490  13.334 -0.9121  0.1897  0.2750
 4148SOL    HW124077   2.808   1.506  13.399 -1.3036  0.5521  0.5939
 4148SOL    HW224078   2.693   1.571  13.314 -0.3666  0.7586  1.3366
 4149SOL     OW24079   2.925   3.339   7.481 -0.3647  0.4442 -0.2141
 4149SOL    HW124080   2.951   3.266   7.538 -0.4336  0.6154  0.0385
 4149SOL    HW224081   2.918   3.294   7.398  1.4500 -0.1636 -0.0452
 4150SOL     OW24082   0.754   1.663   7.626 -0.3575 -0.0838  0.2102
 4150SOL    HW124083   0.831   1.606   7.617 -0.4708  0.6483 -5.2194
 4150SOL    HW224084   0.687   1.602   7.658 -1.7541  1.8775  1.0075
 4151SOL     OW24085   1.146   0.210  10.618 -0.3776 -0.1061 -0.8794
 4151SOL    HW124086   1.119   0.270  10.548  0.9353  0.6862 -0.6853
 4151SOL    HW224087   1.148   0.268  10.693  1.4469 -0.7703 -0.4320
 4152SOL     OW24088   3.601   0.800  17.578 -0.1570 -0.5249 -0.3401
 4152SOL    HW124089   3.620   0.786  17.485  0.2683  2.7845 -0.7669
 4152SOL    HW224090   3.562   0.715  17.594  0.0165 -0.4776  0.3159
 4153SOL     OW24091   2.394   1.608   8.243 -0.6837  0.3587  0.1144
 4153SOL    HW124092   2.401   1.681   8.182  1.8017 -1.5920 -1.9626
 4153SOL    HW224093   2.320   1.561   8.205  0.6348 -1.4212 -0.2788
 4154SOL     OW24094   0.675   3.428   7.942  0.2447 -0.6164 -0.0351
 4154SOL    HW124095   0.740   3.490   7.912  0.4091 -0.2774  1.0186
 4154SOL    HW224096   0.614   3.481   7.995 -0.0679 -0.0129 -1.0079
 4155SOL     OW24097   0.177   1.495   6.900 -0.1183  0.6265 -0.0856
 4155SOL    HW124098   0.187   1.509   6.806 -4.9575  0.1224 -0.6804
 4155SOL    HW224099   0.082   1.496   6.906  0.0402 -1.7826  2.9415
 4156SOL     OW24100   4.110   3.834   4.835  0.0445  0.1100 -0.3863
 4156SOL    HW124101   4.186   3.814   4.780  1.6389 -0.0766  1.9132
 4156SOL    HW224102   4.050   3.778   4.786 -0.7158 -0.5251  1.2683
 4157SOL     OW24103   2.786   1.624   8.139  0.3279  0.0081  0.4113
 4157SOL    HW124104   2.830   1.565   8.078 -2.0672  0.1201 -1.4581
 4157SOL    HW224105   2.860   1.679   8.163  0.4387 -0.8136  1.8946
 4158SOL     OW24106   0.256   1.773  12.948 -0.8062 -0.3319  0.6879
 4158SOL    HW124107   0.349   1.774  12.923 -0.8560  0.4226  0.5341
 4158SOL    HW224108   0.257   1.848  13.007  1.7781  1.2103 -1.2733
 4159SOL     OW24109   2.835   4.428   7.907 -0.0101 -0.1549 -0.2149
 4159SOL    HW124110   2.799   4.383   7.831 -1.7425  0.2016  0.3755
 4159SOL    HW224111   2.769   4.496   7.920  0.7545  0.6865 -0.7341
 4160SOL     OW24112   1.637   0.365   2.116 -0.0333  0.0125 -0.2329
 4160SOL    HW124113   1.616   0.272   2.105  0.2602 -0.0898  0.0670
 4160SOL    HW224114   1.565   0.390   2.057 -1.0198 -1.4812  0.3103
 4161SOL     OW24115   2.261   1.594  15.089 -0.3703 -0.4592 -0.1073
 4161SOL    HW124116   2.315   1.524  15.126 -0.3969 -1.4093 -1.8895
 4161SOL    HW224117   2.337   1.650  15.071  0.1650 -1.0022  0.4365
 4162SOL     OW24118   2.313   3.238  16.907 -0.0890  0.2016  0.5471
 4162SOL    HW124119   2.307   3.333  16.917 -1.8086  0.0486  0.9702
 4162SOL    HW224120   2.224   3.230  16.872 -0.2989 -1.1621  1.3772
 4163SOL     OW24121   3.765   1.980   3.046  0.5387 -0.1057  0.0019
 4163SOL    HW124122   3.810   2.017   3.121 -2.7795 -1.6638  2.7417
 4163SOL    HW224123   3.683   2.028   3.038  0.0004 -0.6587  2.2942
 4164SOL     OW24124   4.081   3.818  12.923 -0.3495  0.0771  0.0155
 4164SOL    HW124125   4.041   3.853  12.844  2.7765 -0.1660 -1.6588
 4164SOL    HW224126   4.109   3.898  12.968  1.0399  0.0521 -0.8038
 4165SOL     OW24127   0.956   2.329  10.779  0.4126 -0.6488  0.4581
 4165SOL    HW124128   1.001   2.248  10.752  1.6680  0.0832  0.3646
 4165SOL    HW224129   0.876   2.289  10.813  0.9479 -0.7363  1.5941
 4166SOL     OW24130   1.533   0.352   1.398  0.4175  0.0263  0.4146
 4166SOL    HW124131   1.604   0.410   1.423 -0.1508  1.1932 -0.6697
 4166SOL    HW224132   1.492   0.405   1.330 -2.5142 -1.6554  0.8646
 4167SOL     OW24133   2.490   2.949   3.166 -0.2719  0.5402  0.9889
 4167SOL    HW124134   2.453   2.909   3.246 -1.2118 -0.3878  0.0896
 4167SOL    HW224135   2.513   3.036   3.197  2.8686  0.4450 -1.1385
 4168SOL     OW24136   0.915   3.713   9.455 -0.0205  0.6687 -0.2854
 4168SOL    HW124137   0.831   3.709   9.502  0.1571 -0.4628 -0.0431
 4168SOL    HW224138   0.972   3.664   9.515  0.6622  1.6122 -0.1711
 4169SOL     OW24139   2.282   2.758   2.812  0.6007  0.1943  0.0111
 4169SOL    HW124140   2.232   2.741   2.733  0.3238  2.7454 -0.3575
 4169SOL    HW224141   2.243   2.839   2.846  3.2860  1.2643  0.5957
 4170SOL     OW24142   2.101   0.023  12.805 -0.0335 -0.3789 -0.0241
 4170SOL    HW124143   2.098   0.106  12.757  1.3009 -0.3555 -0.0692
 4170SOL    HW224144   2.007   0.018  12.821  0.3638 -0.3256  2.2488
 4171SOL     OW24145   4.035   2.570   7.665 -0.4164  0.1040 -0.1851
 4171SOL    HW124146   4.015   2.512   7.592  0.5816  2.3865 -2.2603
 4171SOL    HW224147   4.032   2.654   7.620  1.0488  0.1382 -0.2111
 4172SOL     OW24148   4.325   3.922   7.466 -0.2085 -0.0031  0.2524
 4172SOL    HW124149   4.269   3.999   7.480  2.0835  1.4466  1.5129
 4172SOL    HW224150   4.258   3.855   7.474 -1.0558  0.9072  0.8635
 4173SOL     OW24151   3.967   1.585   8.702 -0.4016 -0.6570  0.1284
 4173SOL    HW124152   3.971   1.675   8.732  2.0362 -0.6733 -0.1581
 4173SOL    HW224153   4.042   1.545   8.745  0.1925 -0.7927 -1.0266
 4174SOL     OW24154   1.917   2.150   0.276  0.1042 -0.1908 -0.0480
 4174SOL    HW124155   1.899   2.078   0.336 -1.9536  2.0064  1.9795
 4174SOL    HW224156   1.869   2.214   0.328 -0.0729  0.0869 -0.5497
 4175SOL     OW24157   0.607   3.096   7.885  0.3371 -0.4493  0.0506
 4175SOL    HW124158   0.678   3.110   7.948  0.3969  0.2446 -0.1701
 4175SOL    HW224159   0.634   3.008   7.858  0.4388 -0.7751  1.1850
 4176SOL     OW24160   1.066   4.082   8.789 -0.2264 -0.0874  0.0722
 4176SOL    HW124161   1.093   4.123   8.871 -0.6418  1.0142 -0.3492
 4176SOL    HW224162   1.004   4.016   8.819  0.5905 -0.8372  0.1064
 4177SOL     OW24163   2.774   1.191  15.909  0.1996  0.1252  0.1913
 4177SOL    HW124164   2.848   1.235  15.869  0.5143 -1.8248 -1.3594
 4177SOL    HW224165   2.714   1.178  15.835 -0.0108  2.1522  0.0079
 4178SOL     OW24166   2.400   3.553  10.381 -0.2406  0.0570  0.5813
 4178SOL    HW124167   2.350   3.634  10.369 -1.3715 -0.7666 -0.2378
 4178SOL    HW224168   2.352   3.522  10.458 -1.8905 -0.8780 -0.8066
 4179SOL     OW24169   0.543   4.613   4.833 -0.1667 -0.4189 -0.2243
 4179SOL    HW124170   0.505   4.686   4.784 -0.4156  0.1779  0.8431
 4179SOL    HW224171   0.554   4.548   4.764 -2.3046 -0.4459 -0.5313
 4180SOL     OW24172   0.828   4.441   3.036 -0.8430 -0.0130 -0.1726
 4180SOL    HW124173   0.857   4.422   2.946  1.0367 -0.9216  0.6260
 4180SOL    HW224174   0.739   4.465   3.009 -0.4343 -0.9234 -2.3844
 4181SOL     OW24175   0.903   4.275   4.103  0.3752 -0.1956 -0.1657
 4181SOL    HW124176   0.938   4.281   4.192 -0.9328  2.9142  0.1403
 4181SOL    HW224177   0.959   4.203   4.073 -1.2243 -0.5473 -2.3394
 4182SOL     OW24178   0.653   4.062   2.415 -0.3422 -0.0874  0.1066
 4182SOL    HW124179   0.667   4.097   2.503 -1.2680  1.4629 -0.3569
 4182SOL    HW224180   0.732   4.089   2.368 -2.1730  0.5688 -2.5706
 4183SOL     OW24181   1.261   0.692  16.564  0.6677 -0.4852 -0.1437
 4183SOL    HW124182   1.350   0.683  16.597  1.2226  0.4873 -1.3987
 4183SOL    HW224183   1.235   0.765  16.619  3.1820 -0.5555  1.1391
 4184SOL     OW24184   3.422   2.546   4.338 -0.0764 -0.7512  0.2563
 4184SOL    HW124185   3.514   2.522   4.340 -0.3337 -1.8371 -1.2262
 4184SOL    HW224186   3.403   2.533   4.245  1.4293 -3.3801  0.3304
 4185SOL     OW24187   1.877   2.558  15.007 -0.3318 -0.0460  0.0480
 4185SOL    HW124188   1.898   2.490  14.943  4.0949 -0.1149  1.5920
 4185SOL    HW224189   1.798   2.603  14.977  0.1235 -1.2880 -3.0176
 4186SOL     OW24190   2.254   0.730   2.233 -0.2085  0.2702 -0.0343
 4186SOL    HW124191   2.321   0.741   2.165 -0.2370 -0.2210 -0.1478
 4186SOL    HW224192   2.205   0.809   2.211 -1.7113 -0.8116 -0.5310
 4187SOL     OW24193   1.496   4.039   8.409  0.0526  0.0570  0.0346
 4187SOL    HW124194   1.566   4.089   8.452 -0.2518  1.1665 -0.7672
 4187SOL    HW224195   1.490   3.957   8.458 -0.5364 -0.0810 -0.2734
 4188SOL     OW24196   4.698   0.857   5.149  0.2230 -0.5418  0.3053
 4188SOL    HW124197   0.015   0.911   5.209  1.1517 -1.0834 -0.0094
 4188SOL    HW224198   4.731   0.878   5.061 -0.3410  0.0223  0.2255
 4189SOL     OW24199   3.774   0.986   3.659  0.4339 -0.4441 -0.2956
 4189SOL    HW124200   3.736   0.933   3.589  1.9848 -1.8422 -0.0841
 4189SOL    HW224201   3.716   0.989   3.734  2.7107 -1.5450  1.4979
 4190SOL     OW24202   0.788   0.385   0.831  0.4577  0.4078  0.3702
 4190SOL    HW124203   0.737   0.307   0.809  1.2157  0.0426 -0.0525
 4190SOL    HW224204   0.714   0.444   0.821  0.3545  0.2917  0.4428
 4191SOL     OW24205   1.300   3.455   1.349  0.3616  0.1761 -0.4121
 4191SOL    HW124206   1.257   3.539   1.365 -1.3671 -0.9549  0.8859
 4191SOL    HW224207   1.392   3.481   1.354  1.2039 -2.8804 -0.1872
 4192SOL     OW24208   3.705   2.730   1.327  0.2967  0.2620 -0.1706
 4192SOL    HW124209   3.784   2.679   1.346  0.1385  0.2025  0.3237
 4192SOL    HW224210   3.663   2.670   1.266 -0.3883 -0.8760  1.4256
 4193SOL     OW24211   1.746   1.832   8.127  0.1650  0.2270  0.5443
 4193SOL    HW124212   1.813   1.890   8.163  2.5293 -2.2192  0.0206
 4193SOL    HW224213   1.718   1.788   8.207 -1.8694  0.1683 -0.2045
 4194SOL     OW24214   0.701   3.588   8.247 -0.5002  0.5673  0.0217
 4194SOL    HW124215   0.670   3.530   8.316 -0.0886  1.3781  0.8913
 4194SOL    HW224216   0.624   3.597   8.189 -1.2255  1.3698  1.1073
 4195SOL     OW24217   2.152   0.284   6.329  0.2638 -0.1535  0.1953
 4195SOL    HW124218   2.162   0.190   6.312 -1.8374 -0.2822 -0.2816
 4195SOL    HW224219   2.232   0.321   6.291 -0.3459 -0.4337 -1.3361
 4196SOL     OW24220   0.865   2.395   4.638 -0.2485  0.6435  0.8467
 4196SOL    HW124221   0.947   2.346   4.637 -1.2751 -1.0950  0.1994
 4196SOL    HW224222   0.815   2.335   4.694 -2.1507  0.5335 -0.9443
 4197SOL     OW24223   3.673   2.709  14.848  0.6072  1.0871 -0.4213
 4197SOL    HW124224   3.648   2.669  14.765  1.0268  1.6786 -0.8334
 4197SOL    HW224225   3.602   2.772  14.860  1.4218  2.1827 -1.3633
 4198SOL     OW24226   2.889   3.703   6.209  0.3179 -0.4497 -0.6959
 4198SOL    HW124227   2.809   3.676   6.253 -0.2972  1.4397 -0.6664
 4198SOL    HW224228   2.945   3.632   6.240 -1.9470 -0.7099  2.7282
 4199SOL     OW24229   0.954   4.534  17.296 -0.3105 -0.1468 -0.2469
 4199SOL    HW124230   0.909   4.457  17.332 -0.5448  0.7793  1.4183
 4199SOL    HW224231   0.936   4.596  17.366 -2.5024 -2.2494  1.0546
 4200SOL     OW24232   0.018   4.626   1.291 -0.1100 -0.2757  0.0195
 4200SOL    HW124233   4.661   4.652   1.283  0.1631  0.9907  0.9900
 4200SOL    HW224234   0.058   4.712   1.279  1.2974 -0.8450  0.6761
 4201SOL     OW24235   2.385   4.333  15.903 -0.3098  0.4271  0.2496
 4201SOL    HW124236   2.319   4.295  15.961 -1.1553 -2.7694 -2.8054
 4201SOL    HW224237   2.354   4.298  15.820  0.5327  0.5911 -0.1399
 4202SOL     OW24238   4.028   4.518   3.665 -0.1279  0.2645 -0.0393
 4202SOL    HW124239   3.952   4.572   3.687  2.0168  2.0329  3.0090
 4202SOL    HW224240   4.093   4.560   3.721  1.8779 -0.3090 -1.9623
 4203SOL     OW24241   2.795   2.157   2.372  0.3404  0.6710  0.0420
 4203SOL    HW124242   2.765   2.112   2.451 -1.1136  1.7626  0.1138
 4203SOL    HW224243   2.740   2.235   2.365  0.5621  0.6323 -2.4051
 4204SOL     OW24244   2.868   3.917  14.932  0.1730  0.6069 -0.1047
 4204SOL    HW124245   2.777   3.946  14.925 -0.3557 -0.7088  1.4214
 4204SOL    HW224246   2.912   3.982  14.877  0.2564  1.6854  1.2511
 4205SOL     OW24247   3.778   4.602   1.192 -0.6632 -1.0328 -0.7700
 4205SOL    HW124248   3.748   4.607   1.101  1.5147 -1.4953 -1.4990
 4205SOL    HW224249   3.704   4.640   1.240  0.9791 -2.0336  2.5443
 4206SOL     OW24250   1.512   2.786   4.848 -1.1953  0.2640 -0.1410
 4206SOL    HW124251   1.564   2.849   4.898 -1.4798  1.2846 -1.1523
 4206SOL    HW224252   1.467   2.738   4.918  0.4512  0.9674  1.3917
 4207SOL     OW24253   2.472   0.130   8.329  0.7107 -0.1439  0.7458
 4207SOL    HW124254   2.463   0.122   8.424  0.4190 -0.2176  0.7111
 4207SOL    HW224255   2.562   0.164   8.333  0.4961  0.7495 -2.0745
 4208SOL     OW24256   2.311   4.505  12.528  0.3035 -0.4022 -0.6003
 4208SOL    HW124257   2.394   4.485  12.572  0.2806 -2.0465 -1.2832
 4208SOL    HW224258   2.297   4.427  12.474  1.4943 -0.7775 -0.3660
 4209SOL     OW24259   1.524   2.084  14.816  0.3365 -0.3236 -0.2270
 4209SOL    HW124260   1.498   1.992  14.812  1.1155 -0.5932  1.1071
 4209SOL    HW224261   1.556   2.113  14.730  3.3019 -0.5758  0.8088
 4210SOL     OW24262   4.509   2.326  13.067 -0.2282 -0.3714  0.2264
 4210SOL    HW124263   4.414   2.338  13.073 -0.2914 -1.7719  2.1305
 4210SOL    HW224264   4.526   2.336  13.161 -1.7441  0.2895  0.4269
 4211SOL     OW24265   3.849   1.671   3.647  0.0574  0.6759 -0.4492
 4211SOL    HW124266   3.839   1.612   3.721 -3.0568  0.4104 -1.0657
 4211SOL    HW224267   3.871   1.610   3.577  0.4910  0.2107  0.0998
 4212SOL     OW24268   2.567   0.714   5.339 -0.2978 -0.4986  0.2351
 4212SOL    HW124269   2.529   0.706   5.427  0.5342 -0.9990  0.5503
 4212SOL    HW224270   2.578   0.622   5.316  0.7070 -0.7522  1.7366
 4213SOL     OW24271   0.281   0.461   1.615  0.3263 -0.2706  0.1971
 4213SOL    HW124272   0.246   0.499   1.696 -1.6993  2.2324 -1.8387
 4213SOL    HW224273   0.342   0.529   1.586 -1.4282  0.8089 -0.9779
 4214SOL     OW24274   2.388   4.591  11.724 -0.3089  0.2047 -0.2707
 4214SOL    HW124275   2.460   4.561  11.779 -1.2540  1.3501  1.6022
 4214SOL    HW224276   2.429   4.571  11.640 -1.5049 -0.5609 -0.6613
 4215SOL     OW24277   1.895   4.203  17.200 -0.1767 -0.7729  0.0601
 4215SOL    HW124278   1.856   4.214  17.114 -1.7580  0.3705  0.9071
 4215SOL    HW224279   1.985   4.226  17.179 -0.2748 -0.7497 -0.3380
 4216SOL     OW24280   0.064   2.464   4.615 -0.2426  0.3581  0.1817
 4216SOL    HW124281   4.724   2.404   4.618 -0.0146 -0.0097 -1.2082
 4216SOL    HW224282   0.037   2.520   4.687  0.2017  2.7461 -1.5216
 4217SOL     OW24283   2.958   4.205   8.035 -0.4949 -0.5130 -0.1214
 4217SOL    HW124284   2.920   4.286   8.003  1.3066 -0.4706 -2.1358
 4217SOL    HW224285   3.045   4.218   7.997 -1.4399  2.1521 -1.3754
 4218SOL     OW24286   2.662   3.434   2.052 -0.3877 -0.4283  0.3400
 4218SOL    HW124287   2.752   3.403   2.063  0.6135  1.4011 -2.6785
 4218SOL    HW224288   2.613   3.359   2.086 -0.8337 -0.0672  0.4835
 4219SOL     OW24289   0.345   4.687   7.747 -0.3141 -0.4903  0.0039
 4219SOL    HW124290   0.355   4.633   7.826  0.2167 -0.6395 -0.1639
 4219SOL    HW224291   0.278   0.015   7.775  2.6503  2.5424  0.2919
 4220SOL     OW24292   1.703   1.286   7.281  0.0657  0.0715  0.6142
 4220SOL    HW124293   1.742   1.265   7.196  0.4104 -0.6000  0.9309
 4220SOL    HW224294   1.612   1.276   7.254  0.2414  0.1332 -0.0035
 4221SOL     OW24295   0.199   4.406   0.873 -0.2125  0.0947  0.0641
 4221SOL    HW124296   0.169   4.474   0.933 -2.4556 -1.9053  1.1944
 4221SOL    HW224297   0.149   4.426   0.794 -0.5147  0.2367  0.2934
 4222SOL     OW24298   4.381   2.863   3.802 -0.7551  0.2222  0.1762
 4222SOL    HW124299   4.442   2.790   3.813 -0.2266  0.3543 -1.8661
 4222SOL    HW224300   4.301   2.828   3.840  0.5798 -2.5480  0.4666
 4223SOL     OW24301   4.186   0.933   8.832 -0.5434  0.0384 -0.3138
 4223SOL    HW124302   4.192   0.992   8.906 -1.7377  0.9542 -0.9519
 4223SOL    HW224303   4.173   0.983   8.751 -0.6976  1.2226  0.4485
 4224SOL     OW24304   2.539   3.431   3.492  0.2081 -0.1423 -0.2084
 4224SOL    HW124305   2.570   3.521   3.493 -1.3310  0.3917 -0.5768
 4224SOL    HW224306   2.445   3.437   3.507  0.2981  2.3380 -0.7213
 4225SOL     OW24307   2.408   2.574   4.403  0.4883 -0.3052 -0.4672
 4225SOL    HW124308   2.389   2.563   4.310  1.9580 -1.0886 -0.6732
 4225SOL    HW224309   2.382   2.486   4.432  2.6043 -0.3385  1.3587
 4226SOL     OW24310   0.856   0.570   5.735 -0.1036  0.1195 -0.3553
 4226SOL    HW124311   0.935   0.602   5.780 -0.9030  0.1623  1.0150
 4226SOL    HW224312   0.815   0.654   5.719 -0.3298  0.0713 -0.0399
 4227SOL     OW24313   0.853   4.069   4.433  0.2667 -0.5657 -0.5361
 4227SOL    HW124314   0.863   3.976   4.455 -2.1052 -0.1566  2.1899
 4227SOL    HW224315   0.946   4.094   4.429  0.6627 -1.8094  0.7937
 4228SOL     OW24316   0.767   0.935   6.857  0.0140  0.5588  0.4266
 4228SOL    HW124317   0.771   1.021   6.816 -1.4289  0.6782  0.5173
 4228SOL    HW224318   0.711   0.954   6.933  1.2769 -0.9279  1.7200
 4229SOL     OW24319   3.193   2.501   7.417  0.4677 -0.0044 -0.1530
 4229SOL    HW124320   3.254   2.556   7.467 -0.0628  0.3625  0.0776
 4229SOL    HW224321   3.245   2.420   7.410  0.3413  0.0276 -1.3755
 4230SOL     OW24322   1.184   2.703   9.652 -0.1090 -0.4282 -0.4583
 4230SOL    HW124323   1.213   2.702   9.744  1.3872  2.4272 -0.8864
 4230SOL    HW224324   1.271   2.691   9.613 -0.6625  1.5565 -2.2679
 4231SOL     OW24325   1.100   3.229   9.599  0.3039  0.1922 -0.1427
 4231SOL    HW124326   1.155   3.301   9.630 -0.8121  1.5967 -1.3912
 4231SOL    HW224327   1.057   3.266   9.521  0.1192 -0.4050 -0.3207
 4232SOL     OW24328   1.750   2.375   7.613 -0.8451 -0.0424  0.4602
 4232SOL    HW124329   1.719   2.461   7.587  1.4573  0.6869  0.1147
 4232SOL    HW224330   1.704   2.319   7.551 -1.9914  1.2559  0.1432
 4233SOL     OW24331   1.666   3.582  16.280  0.1995  0.1425  0.2196
 4233SOL    HW124332   1.751   3.538  16.287  0.5006  0.6220 -0.5122
 4233SOL    HW224333   1.651   3.594  16.374 -0.6374 -0.6596  0.1956
 4234SOL     OW24334   2.060   1.409   6.891 -0.6397  0.7578  0.4233
 4234SOL    HW124335   2.077   1.379   6.802 -0.2853 -1.0421  1.1022
 4234SOL    HW224336   2.120   1.482   6.907 -0.8956  0.6895  1.6921
 4235SOL     OW24337   3.061   4.135   3.367 -0.5601 -0.2711  0.0865
 4235SOL    HW124338   3.060   4.084   3.286 -0.6214  1.2027 -0.8436
 4235SOL    HW224339   3.105   4.073   3.426 -0.5903  0.5037  0.9202
 4236SOL     OW24340   0.618   3.061   8.990  0.0334 -0.2062 -0.1504
 4236SOL    HW124341   0.656   3.120   9.055 -0.8564 -0.3188  0.4714
 4236SOL    HW224342   0.649   2.979   9.028  0.4084  0.4361  0.9146
 4237SOL     OW24343   3.344   4.412   0.023  0.1466  0.2091 -0.4961
 4237SOL    HW124344   3.321   4.343  17.697 -0.1731  2.1454 -2.4825
 4237SOL    HW224345   3.254   4.439   0.040 -0.3962  0.1518 -3.3952
 4238SOL     OW24346   4.186   1.148   4.030 -0.1879  0.4958  0.0611
 4238SOL    HW124347   4.115   1.084   4.026 -0.6711  1.0935 -0.8313
 4238SOL    HW224348   4.195   1.172   3.938  0.5933  0.5702  0.1562
 4239SOL     OW24349   4.247   1.638   5.967  0.4944 -0.1884  0.6936
 4239SOL    HW124350   4.303   1.576   5.921  2.1623 -0.6813  3.4216
 4239SOL    HW224351   4.272   1.724   5.933  3.7279 -1.1688  0.6500
 4240SOL     OW24352   3.873   3.690   8.371 -0.5916 -0.6057  0.4522
 4240SOL    HW124353   3.948   3.748   8.356 -0.1564 -1.1906  0.4064
 4240SOL    HW224354   3.828   3.701   8.287 -1.2589 -1.8527  0.6454
 4241SOL     OW24355   4.314   0.301  11.301  0.3010  0.1011 -0.2830
 4241SOL    HW124356   4.379   0.322  11.235  1.9141  2.2220  1.9680
 4241SOL    HW224357   4.273   0.231  11.250 -0.2322  0.8644 -0.8942
 4242SOL     OW24358   2.434   2.772   5.645 -0.6537 -0.3030 -0.0293
 4242SOL    HW124359   2.449   2.710   5.574 -1.4754 -0.0526 -0.4233
 4242SOL    HW224360   2.397   2.709   5.707 -0.6314 -0.0984  0.1900
 4243SOL     OW24361   4.593   4.703   2.589 -0.1135  0.1463  0.3978
 4243SOL    HW124362   4.554   4.683   2.503  1.3966  1.6101 -0.6202
 4243SOL    HW224363   4.615   4.616   2.621 -2.5091 -0.0528  1.5351
 4244SOL     OW24364   0.190   2.442  10.361 -0.1892 -0.5084  0.2112
 4244SOL    HW124365   0.223   2.477  10.444  0.5841 -1.2868  0.2218
 4244SOL    HW224366   0.101   2.416  10.387 -0.6299  2.0521  1.2719
 4245SOL     OW24367   0.799   4.448   6.541  0.0975  0.1679  0.1185
 4245SOL    HW124368   0.815   4.415   6.629  0.2837  1.1581  0.4571
 4245SOL    HW224369   0.865   4.404   6.486 -0.6435 -1.9384  0.9235
 4246SOL     OW24370   0.706   2.829  16.345 -0.6669  0.3276  0.4564
 4246SOL    HW124371   0.678   2.882  16.270  1.6579  0.8212 -0.0623
 4246SOL    HW224372   0.674   2.745  16.313  3.2727 -1.5233  1.3452
 4247SOL     OW24373   2.680   3.057   6.085  0.2941  0.0439  0.6608
 4247SOL    HW124374   2.743   3.096   6.146  2.2853  0.2364 -1.5097
 4247SOL    HW224375   2.723   2.974   6.065 -0.2256 -0.6225  2.3851
 4248SOL     OW24376   1.112   4.116   4.465  0.2412  0.3934 -0.2828
 4248SOL    HW124377   1.190   4.169   4.452  0.2274  0.2057 -1.1444
 4248SOL    HW224378   1.131   4.058   4.391 -1.2991  2.8731 -2.6282
 4249SOL     OW24379   0.972   3.163   2.374  0.4718 -0.4179 -0.0251
 4249SOL    HW124380   1.035   3.111   2.422 -0.5823 -0.8680  0.8784
 4249SOL    HW224381   0.974   3.120   2.288 -0.7483  1.6521 -1.1156
 4250SOL     OW24382   2.597   3.669   5.971  0.1909  0.5597 -0.9163
 4250SOL    HW124383   2.692   3.662   5.958  0.1144  1.3893 -1.9200
 4250SOL    HW224384   2.590   3.645   6.063  3.1787  0.9978 -0.5627
 4251SOL     OW24385   4.480   3.766   4.572 -0.1188  0.0684  1.1555
 4251SOL    HW124386   4.392   3.732   4.585  0.8127 -1.8510  2.3181
 4251SOL    HW224387   4.523   3.686   4.543  1.3787  2.0279 -2.0799
 4252SOL     OW24388   4.654   1.342   5.921  0.3710  0.0071  0.5058
 4252SOL    HW124389   4.725   1.319   5.982  1.0196 -0.1785 -0.3258
 4252SOL    HW224390   4.616   1.421   5.960  0.9451  0.0171  1.0518
 4253SOL     OW24391   3.327   4.428   5.241  0.5925 -0.0028  0.1896
 4253SOL    HW124392   3.394   4.402   5.179 -0.4257 -0.4704 -0.7186
 4253SOL    HW224393   3.285   4.494   5.186  0.7602  1.0570  1.3318
 4254SOL     OW24394   4.522   1.353   8.672 -0.4949 -0.2308  0.1787
 4254SOL    HW124395   4.495   1.412   8.742  0.5128  1.2025 -0.6309
 4254SOL    HW224396   4.618   1.348   8.668 -0.5810 -0.0577 -2.2306
 4255SOL     OW24397   1.836   0.212   8.142 -0.0896 -0.3999  0.0249
 4255SOL    HW124398   1.846   0.122   8.175  0.8099 -0.0640  0.6547
 4255SOL    HW224399   1.856   0.254   8.225  0.6906  0.9742 -0.8628
 4256SOL     OW24400   1.734   4.069   6.244 -0.2007  0.0715 -0.4161
 4256SOL    HW124401   1.747   3.978   6.215 -1.3365 -0.5588  1.0227
 4256SOL    HW224402   1.810   4.118   6.212  0.3127 -0.0844  0.5506
 4257SOL     OW24403   1.574   3.569   3.604  0.1512  0.2809  0.5773
 4257SOL    HW124404   1.496   3.559   3.549  0.6067  1.7379 -0.3495
 4257SOL    HW224405   1.635   3.524   3.544 -0.2772 -3.2861  2.8501
 4258SOL     OW24406   2.385   0.418   9.198  0.0615 -0.1732  0.1729
 4258SOL    HW124407   2.437   0.354   9.150  1.6731 -0.6052  2.4911
 4258SOL    HW224408   2.343   0.370   9.269  3.4297  0.3557  2.5473
 4259SOL     OW24409   1.089   3.627   6.220  0.0298 -0.1712 -0.8007
 4259SOL    HW124410   1.077   3.627   6.125 -2.0376  1.5313 -0.5320
 4259SOL    HW224411   1.133   3.710   6.234  2.0508 -0.6705 -4.0514
 4260SOL     OW24412   1.209   2.790   2.152 -0.6604 -0.2539 -0.1049
 4260SOL    HW124413   1.206   2.881   2.183 -0.4386 -0.9206  1.8584
 4260SOL    HW224414   1.199   2.800   2.057 -2.1292 -0.4853  0.0277
 4261SOL     OW24415   4.303   3.348   3.849  0.2748 -0.0547 -0.1263
 4261SOL    HW124416   4.275   3.282   3.786 -0.1693  0.5629 -0.5832
 4261SOL    HW224417   4.236   3.413   3.826  0.1496 -0.1971 -0.1646
 4262SOL     OW24418   3.196   3.943   2.564 -0.5351  0.1447  0.0444
 4262SOL    HW124419   3.142   4.007   2.519 -1.0053 -1.2425 -1.3541
 4262SOL    HW224420   3.131   3.906   2.623  1.9416 -0.8048  2.2055
 4263SOL     OW24421   2.605   3.975   6.506 -0.2696 -0.0799  0.4722
 4263SOL    HW124422   2.697   3.962   6.483 -0.4331 -1.1798  0.4511
 4263SOL    HW224423   2.569   3.997   6.420 -1.5031  0.2062  1.0641
 4264SOL     OW24424   1.338   0.886  12.254  0.3624 -0.8256  0.5545
 4264SOL    HW124425   1.357   0.826  12.326  0.1804 -1.7865 -0.1969
 4264SOL    HW224426   1.339   0.821  12.183  2.7065 -0.8615  0.6351
 4265SOL     OW24427   3.639   2.521   7.231 -0.7538  0.5343  0.1140
 4265SOL    HW124428   3.599   2.437   7.206 -2.0107  1.1696 -0.0058
 4265SOL    HW224429   3.690   2.555   7.157 -1.6859  1.8257  0.0613
 4266SOL     OW24430   4.377   2.881  16.757 -0.3129 -0.1474  0.0849
 4266SOL    HW124431   4.324   2.811  16.719  1.5457 -1.4282 -0.1700
 4266SOL    HW224432   4.407   2.929  16.680  1.4139 -0.8248  0.3160
 4267SOL     OW24433   1.826   4.334   6.535 -0.0764 -0.3003  0.1230
 4267SOL    HW124434   1.774   4.415   6.538  0.6576  0.1292  1.6817
 4267SOL    HW224435   1.781   4.285   6.467  0.2316  0.9546 -0.9914
 4268SOL     OW24436   3.166   4.355   8.908 -0.1011 -0.2229  0.2749
 4268SOL    HW124437   3.100   4.286   8.921 -0.1039 -0.9157 -3.3828
 4268SOL    HW224438   3.181   4.352   8.814 -1.1775 -2.6528  0.1742
 4269SOL     OW24439   2.243   0.156  10.652  0.6372  0.3165  0.5053
 4269SOL    HW124440   2.268   0.106  10.574  0.2462 -1.0853  1.2818
 4269SOL    HW224441   2.258   0.097  10.725 -0.3576 -0.9430 -0.3175
 4270SOL     OW24442   1.809   2.959  13.495  1.0174 -0.2817  0.1613
 4270SOL    HW124443   1.835   3.048  13.517  2.3064 -0.2508 -1.4649
 4270SOL    HW224444   1.830   2.911  13.575 -1.4883 -0.3117  0.8129
 4271SOL     OW24445   2.343   1.281   6.315  0.1463 -0.2234  0.0900
 4271SOL    HW124446   2.263   1.234   6.339 -0.2059 -0.9170 -2.4480
 4271SOL    HW224447   2.363   1.247   6.228  1.1666  1.1129 -0.2058
 4272SOL     OW24448   3.033   2.692  15.162  0.1999 -0.1508  0.0986
 4272SOL    HW124449   2.949   2.664  15.126 -0.2686  0.6859  0.5559
 4272SOL    HW224450   3.080   2.715  15.082  0.6928  0.4865  0.5715
 4273SOL     OW24451   0.780   1.144   4.155 -0.1092 -0.3040  0.0432
 4273SOL    HW124452   0.753   1.089   4.082 -1.2065 -0.1816  0.3588
 4273SOL    HW224453   0.780   1.091   4.235  1.2258 -0.7768 -0.2705
 4274SOL     OW24454   0.092   4.341   3.193 -0.1451 -0.6760 -0.2729
 4274SOL    HW124455   0.026   4.410   3.194 -0.8680 -1.3685 -1.8649
 4274SOL    HW224456   0.165   4.391   3.229 -1.7105  0.6893  0.9726
 4275SOL     OW24457   1.208   1.036   6.741 -0.2142 -0.1409 -0.0947
 4275SOL    HW124458   1.271   0.967   6.759  1.4234  0.9845 -1.4719
 4275SOL    HW224459   1.155   0.980   6.685  1.5799 -1.1861 -0.7237
 4276SOL     OW24460   1.640   2.055  12.928 -0.2496  0.1083  0.2911
 4276SOL    HW124461   1.710   2.011  12.879 -0.5500  0.5030 -0.4988
 4276SOL    HW224462   1.620   1.989  12.993 -0.1728 -0.6417 -0.4459
 4277SOL     OW24463   3.214   2.983   3.127 -0.2641 -0.0400  0.0216
 4277SOL    HW124464   3.137   3.014   3.080  0.5073  1.3241 -0.3336
 4277SOL    HW224465   3.273   3.057   3.142 -0.2586  0.0392 -0.4160
 4278SOL     OW24466   0.367   1.686  11.587 -0.1069  0.5600  0.1115
 4278SOL    HW124467   0.308   1.627  11.634  1.5616  1.1103  2.9235
 4278SOL    HW224468   0.437   1.623  11.570  0.2753  0.9131  0.3777
 4279SOL     OW24469   3.982   3.372   9.459 -0.2224 -0.0536 -0.0633
 4279SOL    HW124470   3.975   3.402   9.549 -0.7885  0.5318 -0.3002
 4279SOL    HW224471   3.918   3.301   9.461 -0.5610  0.2142 -1.2917
 4280SOL     OW24472   0.219   1.795  12.403  0.5436  0.7153 -0.2886
 4280SOL    HW124473   0.191   1.854  12.333 -0.4405 -1.4039 -1.6826
 4280SOL    HW224474   0.162   1.811  12.477 -0.6033 -2.1962 -0.5564
 4281SOL     OW24475   0.330   2.795   1.842 -0.0839 -0.0038 -0.0783
 4281SOL    HW124476   0.360   2.873   1.889  0.0263 -0.1074  0.0223
 4281SOL    HW224477   0.374   2.816   1.760 -3.3581 -0.3728 -1.9170
 4282SOL     OW24478   2.042   4.000   5.949  0.2361  0.3300  0.5044
 4282SOL    HW124479   1.962   4.049   5.967  0.5820 -0.2234  3.4816
 4282SOL    HW224480   2.115   4.062   5.946 -0.8999  1.6282 -0.3020
 4283SOL     OW24481   0.426   3.043   7.666  0.1924 -0.4840 -0.0949
 4283SOL    HW124482   0.489   3.114   7.665 -1.0501  0.6108 -0.8112
 4283SOL    HW224483   0.414   3.041   7.761  0.2961  2.1906 -0.0455
 4284SOL     OW24484   0.831   1.273   4.802  0.5378 -0.1087  0.4361
 4284SOL    HW124485   0.879   1.319   4.733  1.1056 -0.4564  0.5930
 4284SOL    HW224486   0.763   1.232   4.748 -1.0965  1.9865  0.9132
 4285SOL     OW24487   3.268   0.737  14.027 -0.4724 -0.1685 -0.0992
 4285SOL    HW124488   3.338   0.672  14.016 -1.1574 -1.2266  1.6959
 4285SOL    HW224489   3.213   0.694  14.092 -0.9288 -0.1649 -0.4900
 4286SOL     OW24490   0.583   3.195   5.113  0.0800 -0.6453 -0.4548
 4286SOL    HW124491   0.525   3.146   5.056 -0.3812 -2.4614  1.5686
 4286SOL    HW224492   0.663   3.145   5.101 -0.9609 -2.1072 -1.2520
 4287SOL     OW24493   1.588   1.977  10.328 -0.1573 -0.2288 -0.1758
 4287SOL    HW124494   1.510   2.031  10.340 -0.8376 -1.0500 -0.9355
 4287SOL    HW224495   1.553   1.912  10.268 -0.8007 -0.3260  0.3085
 4288SOL     OW24496   4.683   1.898  15.260 -0.0960  0.1224 -0.4082
 4288SOL    HW124497   4.590   1.919  15.253 -0.0993 -0.4278 -2.0618
 4288SOL    HW224498   4.713   1.938  15.178 -0.4419  0.8929 -0.1572
 4289SOL     OW24499   3.371   4.517   1.177  0.3918 -0.2719  0.1405
 4289SOL    HW124500   3.281   4.527   1.206  0.3095 -1.6380  0.3365
 4289SOL    HW224501   3.411   4.576   1.241 -0.9210  0.5010  0.2482
 4290SOL     OW24502   2.247   1.449   2.077 -0.1840 -0.3884 -0.1566
 4290SOL    HW124503   2.316   1.397   2.035 -0.0613  1.4662 -2.2731
 4290SOL    HW224504   2.223   1.385   2.144 -3.2208  0.0455 -0.8334
 4291SOL     OW24505   3.381   4.363   3.316 -0.1563 -0.2617  0.2877
 4291SOL    HW124506   3.442   4.422   3.272  3.1816 -3.0027  1.2805
 4291SOL    HW224507   3.361   4.304   3.243  0.0322  1.4375 -1.1451
 4292SOL     OW24508   0.670   0.916   6.217  0.4192  0.2028 -0.0873
 4292SOL    HW124509   0.709   1.002   6.231  1.6715 -0.3566 -0.1574
 4292SOL    HW224510   0.735   0.861   6.260  1.3091  0.0419 -1.6310
 4293SOL     OW24511   4.238   1.714   0.809  0.0153 -0.0651  0.0454
 4293SOL    HW124512   4.278   1.627   0.803 -2.5444 -1.1759 -0.9073
 4293SOL    HW224513   4.145   1.692   0.804  0.3966 -1.4506 -0.8840
 4294SOL     OW24514   1.538   2.543   7.978  0.6529  0.4551 -0.1332
 4294SOL    HW124515   1.503   2.598   8.048 -0.2092 -1.0094  0.5862
 4294SOL    HW224516   1.581   2.613   7.929  1.8226 -0.9011 -1.0753
 4295SOL     OW24517   2.080   0.036  16.772  0.0785  0.0556  0.2416
 4295SOL    HW124518   2.161   4.723  16.786  0.8431  0.4918 -2.6556
 4295SOL    HW224519   2.098   0.129  16.785  4.7889 -0.3784 -3.1100
 4296SOL     OW24520   0.435   4.729   8.863  0.1153 -0.1382 -0.3755
 4296SOL    HW124521   0.427   0.089   8.879  0.9846 -0.1751  0.2675
 4296SOL    HW224522   0.455   4.690   8.949  0.9980  2.0331  0.4107
 4297SOL     OW24523   1.705   1.595   1.362 -0.1621  0.9695  0.6145
 4297SOL    HW124524   1.777   1.552   1.315 -1.7677  0.6288 -1.5082
 4297SOL    HW224525   1.702   1.684   1.328  2.2390 -0.1932 -2.7037
 4298SOL     OW24526   2.130   2.753   6.019 -0.6943 -0.1041  0.7347
 4298SOL    HW124527   2.095   2.690   5.956  0.4055 -0.5414  0.5644
 4298SOL    HW224528   2.180   2.700   6.081  0.3111  0.3261  0.2867
 4299SOL     OW24529   0.799   1.812   7.918  0.6672 -0.4841 -0.0437
 4299SOL    HW124530   0.703   1.803   7.917  0.4708  1.6138 -1.7096
 4299SOL    HW224531   0.826   1.885   7.862 -0.9882  0.1712 -0.0186
 4300SOL     OW24532   0.999   3.677   3.216  0.6380 -0.2665 -0.3237
 4300SOL    HW124533   0.993   3.619   3.140 -2.3598 -0.0395 -0.2697
 4300SOL    HW224534   1.090   3.673   3.244  1.0521  0.1851 -1.6083
 4301SOL     OW24535   1.515   1.151  13.221 -0.2323  0.1335  0.0953
 4301SOL    HW124536   1.567   1.131  13.143  0.0112  0.7299  0.0988
 4301SOL    HW224537   1.439   1.094  13.212 -1.2226  1.3444  0.6789
 4302SOL     OW24538   0.224   2.101   6.991 -0.4750 -0.1046  0.0847
 4302SOL    HW124539   0.163   2.063   6.927 -0.2139  0.8515 -0.7270
 4302SOL    HW224540   0.281   2.025   7.008 -0.4775 -0.0968  0.1269
 4303SOL     OW24541   4.149   0.110  11.188  0.2131 -0.2131 -0.1623
 4303SOL    HW124542   4.101   0.110  11.105 -1.4064  2.9163  0.7470
 4303SOL    HW224543   4.075   0.101  11.248 -0.9773 -0.3786 -1.6355
 4304SOL     OW24544   2.222   4.451   8.195  0.2611 -0.0373  0.3953
 4304SOL    HW124545   2.285   4.379   8.197  1.2071  0.7774  0.2162
 4304SOL    HW224546   2.193   4.458   8.286 -0.3470  0.1688  0.1878
 4305SOL     OW24547   2.442   1.003   3.920  0.1695  0.1527  0.0662
 4305SOL    HW124548   2.370   1.059   3.949 -2.7428 -3.9853  0.8564
 4305SOL    HW224549   2.403   0.916   3.910  0.8090 -0.2570  1.1864
 4306SOL     OW24550   2.206   3.324  11.234 -0.2458  0.5450  0.6104
 4306SOL    HW124551   2.219   3.417  11.213 -1.0223  0.5143  0.0042
 4306SOL    HW224552   2.235   3.324  11.325  0.6424  0.6713  0.3307
 4307SOL     OW24553   0.782   4.350   3.276  0.7720  0.2636 -0.3756
 4307SOL    HW124554   0.781   4.255   3.263 -1.0195  0.5193 -2.1691
 4307SOL    HW224555   0.822   4.383   3.196 -1.7238  2.8887 -0.5364
 4308SOL     OW24556   4.498   0.508   8.523  0.0829 -0.6343 -0.3143
 4308SOL    HW124557   4.552   0.537   8.596 -0.9922  0.9167 -0.1356
 4308SOL    HW224558   4.472   0.591   8.483  0.4719  0.4106  1.6478
 4309SOL     OW24559   2.656   1.567   0.972  1.0822 -0.3266 -0.7379
 4309SOL    HW124560   2.599   1.498   0.940  0.0194  1.3895 -2.5845
 4309SOL    HW224561   2.596   1.629   1.014  0.6667 -0.8291 -0.5899
 4310SOL     OW24562   4.245   2.711   2.921 -0.0891  0.3132 -0.0138
 4310SOL    HW124563   4.183   2.721   2.849  1.0584 -0.5558 -1.1210
 4310SOL    HW224564   4.327   2.697   2.874  0.6239  1.0085  1.0493
 4311SOL     OW24565   4.372   4.704   4.594 -0.0343 -0.0657  0.8922
 4311SOL    HW124566   4.393   4.613   4.615  1.7763 -0.0120 -0.6675
 4311SOL    HW224567   4.319   4.725   4.671  2.0297  1.8345  1.7990
 4312SOL     OW24568   2.878   4.235   2.198  0.5053 -0.1498 -0.1731
 4312SOL    HW124569   2.916   4.280   2.123 -0.7317  1.8185  0.3871
 4312SOL    HW224570   2.801   4.191   2.162 -0.8211  0.1063  2.3220
 4313SOL     OW24571   4.666   3.551   0.510  0.0378  0.1678 -0.2762
 4313SOL    HW124572   4.708   3.501   0.581  0.7905  0.8572 -0.2338
 4313SOL    HW224573   4.625   3.624   0.555 -0.1310  1.4738 -2.5784
 4314SOL     OW24574   1.256   0.351   6.596  0.4059 -0.4068 -0.4791
 4314SOL    HW124575   1.278   0.259   6.612  2.0033 -0.3238 -2.2453
 4314SOL    HW224576   1.342   0.384   6.570  0.1115 -0.8692 -2.0548
 4315SOL     OW24577   4.131   1.860   2.340 -0.0275 -0.1030  0.2442
 4315SOL    HW124578   4.194   1.804   2.385  0.3893  0.5115  0.4218
 4315SOL    HW224579   4.100   1.810   2.264  0.0279  0.9656 -0.4870
 4316SOL     OW24580   0.013   2.246   1.531  0.1814 -0.8027 -0.1346
 4316SOL    HW124581   0.004   2.217   1.622 -1.3036 -0.2299 -0.0981
 4316SOL    HW224582   0.106   2.253   1.551  0.0371 -1.9912  0.9817
 4317SOL     OW24583   4.373   1.605   1.091  0.3003  0.2746  0.1348
 4317SOL    HW124584   4.417   1.597   1.007  0.7950  1.7230  0.2465
 4317SOL    HW224585   4.335   1.518   1.101  0.0918  0.3755  0.2238
 4318SOL     OW24586   3.376   0.714  14.808 -0.0662  0.6638  0.4393
 4318SOL    HW124587   3.406   0.645  14.749  0.6592  1.7762 -0.4966
 4318SOL    HW224588   3.299   0.673  14.849  0.9900 -0.3075  1.4300
 4319SOL     OW24589   0.752   2.050   5.908 -0.6912  0.8568  0.0936
 4319SOL    HW124590   0.833   1.998   5.916  0.1775  2.1189 -0.4400
 4319SOL    HW224591   0.749   2.079   5.817  0.6305 -1.3639 -0.6619
 4320SOL     OW24592   3.375   2.966   5.722 -0.2560 -0.3732 -0.5006
 4320SOL    HW124593   3.433   2.917   5.664 -1.4225 -0.1976 -1.8304
 4320SOL    HW224594   3.428   2.978   5.801  0.2741 -0.5741 -0.8343
 4321SOL     OW24595   0.233   1.109  10.346  0.6935  0.1704  0.0605
 4321SOL    HW124596   0.285   1.029  10.343  0.3866 -0.0258  0.0595
 4321SOL    HW224597   0.300   1.174  10.372  0.6329  0.3415 -0.2158
 4322SOL     OW24598   1.807   3.975  17.373  0.0213 -0.1892 -0.4361
 4322SOL    HW124599   1.842   4.036  17.308 -0.0945  1.0811  0.6976
 4322SOL    HW224600   1.716   3.975  17.344 -0.2505 -1.8364  0.4506
 4323SOL     OW24601   0.458   3.832   7.893 -0.0059 -0.4042 -0.8637
 4323SOL    HW124602   0.536   3.857   7.944 -0.2532 -1.8049  0.1880
 4323SOL    HW224603   0.464   3.877   7.808 -0.5679 -0.4642 -0.9292
 4324SOL     OW24604   0.683   2.545  10.240  0.0889 -0.2013 -0.1032
 4324SOL    HW124605   0.656   2.475  10.181  0.4409  0.2217 -0.7679
 4324SOL    HW224606   0.605   2.543  10.295 -0.2039  1.5149 -0.4453
 4325SOL     OW24607   3.614   4.673   8.239  0.3247 -0.0855  0.9207
 4325SOL    HW124608   3.535   4.701   8.193  0.8655 -0.8248 -0.4716
 4325SOL    HW224609   3.578   4.656   8.326  1.2335 -1.0663  1.1085
 4326SOL     OW24610   3.186   1.384   6.356 -0.3400 -0.2912  0.1485
 4326SOL    HW124611   3.217   1.351   6.440  1.6331  0.0082 -0.4635
 4326SOL    HW224612   3.143   1.303   6.327  0.4127 -0.4031 -0.6690
 4327SOL     OW24613   4.258   2.174   1.276  1.1325 -0.0390 -0.6238
 4327SOL    HW124614   4.233   2.098   1.329 -0.2708  0.2134 -0.9121
 4327SOL    HW224615   4.295   2.126   1.202 -0.9073  0.9110 -2.2422
 4328SOL     OW24616   2.717   1.470   9.224 -0.0091 -0.0894  0.1886
 4328SOL    HW124617   2.716   1.499   9.316 -0.0246  2.4749 -0.6288
 4328SOL    HW224618   2.640   1.413   9.222 -1.7511  2.1601  2.0412
 4329SOL     OW24619   1.451   1.499   1.242  0.2241 -0.0959  0.2250
 4329SOL    HW124620   1.497   1.417   1.226  2.3879  0.9481  1.1290
 4329SOL    HW224621   1.515   1.547   1.295  1.0889  0.5436 -1.3841
 4330SOL     OW24622   0.021   0.669   6.755  0.3549  0.3575  0.1527
 4330SOL    HW124623   4.676   0.682   6.704 -0.6165 -1.0781  1.2984
 4330SOL    HW224624   0.062   0.612   6.690  1.2848  0.5358  0.5821
 4331SOL     OW24625   2.504   2.621  10.958 -0.0815  0.1774  0.1590
 4331SOL    HW124626   2.416   2.598  10.989  0.0579 -0.3068  0.1860
 4331SOL    HW224627   2.508   2.589  10.868  0.5165  0.4545  0.0895
 4332SOL     OW24628   3.899   1.556   8.160  0.0294 -0.2908  0.6701
 4332SOL    HW124629   3.898   1.492   8.231  1.4348 -0.5613  0.4454
 4332SOL    HW224630   3.807   1.553   8.137 -0.3377  1.5311  1.8791
 4333SOL     OW24631   0.887   0.935   7.219 -0.0607 -0.1464 -0.1211
 4333SOL    HW124632   0.949   0.978   7.161  0.1353  1.3005  1.1570
 4333SOL    HW224633   0.940   0.923   7.298  0.8332  1.7363 -0.4443
 4334SOL     OW24634   0.013   0.155   4.667 -0.4821  0.2950 -0.1473
 4334SOL    HW124635   0.036   0.236   4.713 -2.4564 -0.2269  1.7383
 4334SOL    HW224636   4.732   0.100   4.743 -1.3636 -1.1686 -1.3837
 4335SOL     OW24637   1.790   1.620   7.574 -0.0741  0.3312  0.1741
 4335SOL    HW124638   1.801   1.525   7.581 -2.0835 -0.0866 -2.2256
 4335SOL    HW224639   1.716   1.635   7.515 -2.3011 -1.0242  2.6107
 4336SOL     OW24640   1.800   0.638   0.073 -0.4362 -0.2253 -0.0472
 4336SOL    HW124641   1.727   0.696   0.096 -0.6995  0.2451 -2.0318
 4336SOL    HW224642   1.755   0.578   0.013 -0.3611 -2.7518  2.4461
 4337SOL     OW24643   3.836   1.241   4.214 -0.2421 -0.2239  0.5171
 4337SOL    HW124644   3.790   1.205   4.138 -2.0810  0.5887  1.2458
 4337SOL    HW224645   3.765   1.282   4.263 -0.0568  0.2611  0.3760
 4338SOL     OW24646   4.603   0.209  15.402  0.7966  0.3205 -0.0789
 4338SOL    HW124647   4.581   0.200  15.495  1.2345  0.6602  0.0591
 4338SOL    HW224648   4.673   0.144  15.393  1.1939  0.8355 -0.7326
 4339SOL     OW24649   0.485   3.397   9.775  0.6961 -0.5593  0.0262
 4339SOL    HW124650   0.437   3.364   9.851  1.5672 -1.8242  0.0311
 4339SOL    HW224651   0.547   3.458   9.814 -0.6435  0.8786 -0.0923
 4340SOL     OW24652   1.303   2.661   8.664  0.1146 -0.0661 -0.1602
 4340SOL    HW124653   1.237   2.708   8.613 -1.0189 -0.0911  1.2720
 4340SOL    HW224654   1.238   2.603   8.703  2.5254  0.2051  4.2095
 4341SOL     OW24655   1.368   4.254   0.697 -0.1805 -0.1370  0.2787
 4341SOL    HW124656   1.294   4.303   0.734 -0.2613 -0.1957  0.1931
 4341SOL    HW224657   1.376   4.299   0.613 -0.0159 -0.8235 -0.0741
 4342SOL     OW24658   4.255   3.461   9.452  0.1464  0.1008 -0.0722
 4342SOL    HW124659   4.163   3.453   9.428  0.0118  1.4705 -0.0303
 4342SOL    HW224660   4.252   3.543   9.502  2.0070  0.5917 -0.7763
 4343SOL     OW24661   3.928   0.331  16.314  0.3790  0.2522  0.5696
 4343SOL    HW124662   3.873   0.313  16.237  1.8166  0.8227 -0.5889
 4343SOL    HW224663   4.008   0.368  16.278  0.6271 -0.0061  0.8543
 4344SOL     OW24664   3.395   0.836   1.499 -0.0452 -0.0510 -0.6042
 4344SOL    HW124665   3.373   0.812   1.409 -1.1851  0.3006 -0.4234
 4344SOL    HW224666   3.486   0.861   1.486  0.0428  1.1499  2.2825
 4345SOL     OW24667   4.675   4.155   6.018 -0.3098  0.1890  0.7811
 4345SOL    HW124668   4.707   4.186   6.103 -0.2826  1.0587  0.4531
 4345SOL    HW224669   4.609   4.222   6.000  1.8482  2.8537  2.6212
 4346SOL     OW24670   2.680   0.027   7.047 -0.1735 -0.2293  0.6846
 4346SOL    HW124671   2.677   0.004   7.140 -0.2304  0.2059  0.7929
 4346SOL    HW224672   2.774   0.043   7.036  0.3165 -2.4879  1.5383
 4347SOL     OW24673   4.068   1.560   4.250  0.0350 -0.1410 -0.3820
 4347SOL    HW124674   4.071   1.466   4.265 -2.1622 -0.0928  0.3589
 4347SOL    HW224675   3.977   1.582   4.270  0.4540  0.9507  0.3593
 4348SOL     OW24676   4.139   0.988   9.651 -0.4389 -0.6659 -0.2051
 4348SOL    HW124677   4.066   1.042   9.621  1.0528  1.9868  0.9639
 4348SOL    HW224678   4.108   0.962   9.737  1.7071 -1.6042  0.2747
 4349SOL     OW24679   0.526   0.876   2.411 -0.1012  0.2860  0.0935
 4349SOL    HW124680   0.449   0.865   2.355  0.6073 -0.2380 -0.7784
 4349SOL    HW224681   0.494   0.944   2.469  0.9424 -0.4841  1.5575
 4350SOL     OW24682   0.853   3.228   3.574 -0.1352 -0.0425 -0.0514
 4350SOL    HW124683   0.808   3.249   3.492 -0.5197  1.2735  0.5021
 4350SOL    HW224684   0.804   3.150   3.602 -3.0515  0.5446 -3.6064
 4351SOL     OW24685   0.739   0.968   3.935  0.0988  0.3767 -0.5072
 4351SOL    HW124686   0.718   0.893   3.990  1.2088  0.3680 -0.0975
 4351SOL    HW224687   0.772   0.919   3.860 -1.5687  0.2215 -1.1448
 4352SOL     OW24688   2.564   4.462   2.307 -0.1346 -0.5642  0.2482
 4352SOL    HW124689   2.555   4.469   2.211 -1.9402 -0.3660  0.4392
 4352SOL    HW224690   2.540   4.372   2.327  1.1575 -0.9762 -0.0024
 4353SOL     OW24691   2.346   2.583   5.867 -0.0224 -0.4502  0.2254
 4353SOL    HW124692   2.320   2.557   5.956  1.4543  0.8449  1.0149
 4353SOL    HW224693   2.441   2.589   5.876  0.0617  0.9227 -1.5951
 4354SOL     OW24694   3.088   2.562   3.929 -0.4147  0.2866 -0.2540
 4354SOL    HW124695   3.000   2.591   3.906 -0.8435  0.6695  1.8970
 4354SOL    HW224696   3.070   2.532   4.018 -0.8850  1.0787 -0.0784
 4355SOL     OW24697   2.621   2.588   5.876  0.6964 -0.0407 -0.3945
 4355SOL    HW124698   2.702   2.631   5.848  0.2180 -0.6288 -2.6938
 4355SOL    HW224699   2.628   2.494   5.862  1.2143 -0.3929  2.2813
 4356SOL     OW24700   1.499   2.820   2.405  0.7577  0.2185  0.2686
 4356SOL    HW124701   1.542   2.848   2.324  0.7106  0.7252  0.4144
 4356SOL    HW224702   1.462   2.738   2.372  0.4389 -0.1392  1.5001
 4357SOL     OW24703   1.417   0.476  16.816 -0.1646  0.1226 -0.8398
 4357SOL    HW124704   1.403   0.437  16.902  1.7840  2.9505  0.7748
 4357SOL    HW224705   1.433   0.406  16.753 -1.6668 -0.8811 -0.0784
 4358SOL     OW24706   3.261   3.993  15.028 -0.5540  0.3737  0.0028
 4358SOL    HW124707   3.253   3.932  14.955  0.9682  0.2666 -0.0845
 4358SOL    HW224708   3.351   4.025  15.020 -0.6422  0.6213 -0.0174
 4359SOL     OW24709   2.200   4.697   3.979  0.0599 -0.2264  0.1637
 4359SOL    HW124710   2.277   0.002   4.020 -0.7709 -0.2549  1.7488
 4359SOL    HW224711   2.237   4.610   3.963  1.4899  0.5374 -0.6527
 4360SOL     OW24712   4.303   0.314   8.515 -0.2841  0.1223  0.1957
 4360SOL    HW124713   4.320   0.243   8.454 -1.1792  1.5788 -1.7372
 4360SOL    HW224714   4.379   0.371   8.503  0.2270 -0.6131 -0.0559
 4361SOL     OW24715   4.054   4.050   1.405  0.3725  0.2048  0.4863
 4361SOL    HW124716   4.132   4.037   1.350 -1.4674 -0.8072 -1.8617
 4361SOL    HW224717   3.987   3.995   1.366  0.6443 -0.3917  0.8682
 4362SOL     OW24718   1.233   3.283   6.727  0.0666 -0.4928 -0.6486
 4362SOL    HW124719   1.239   3.348   6.797  0.4896 -0.4650 -0.7077
 4362SOL    HW224720   1.325   3.264   6.710  0.0478  0.4208 -1.7797
 4363SOL     OW24721   4.376   2.229   7.829  0.7244  0.8467 -1.0417
 4363SOL    HW124722   4.439   2.218   7.757 -0.0564  0.0538 -1.5927
 4363SOL    HW224723   4.348   2.318   7.806 -0.0086  0.9463  0.2717
 4364SOL     OW24724   2.213   0.967  14.910  0.1295 -0.0500  0.8363
 4364SOL    HW124725   2.170   0.957  14.825  2.0640 -0.6609 -0.0580
 4364SOL    HW224726   2.155   0.913  14.964 -0.3593  0.0015  0.3640
 4365SOL     OW24727   2.665   1.573   2.666  0.1266  0.4014  0.5062
 4365SOL    HW124728   2.642   1.661   2.637  2.1331 -0.4620 -3.7707
 4365SOL    HW224729   2.610   1.526   2.603  1.3543 -1.0822  0.5426
 4366SOL     OW24730   0.438   3.304   9.347 -0.2432 -0.3077  0.5394
 4366SOL    HW124731   0.388   3.250   9.408 -0.4579  0.5191  1.0894
 4366SOL    HW224732   0.487   3.360   9.407  1.0038  0.4379 -1.1562
 4367SOL     OW24733   3.137   0.964   2.497  0.3013 -0.0509 -0.5906
 4367SOL    HW124734   3.215   0.909   2.512  0.2448  0.0171 -0.0347
 4367SOL    HW224735   3.113   0.930   2.411 -3.2438  1.5636 -0.2167
 4368SOL     OW24736   3.862   3.684   7.421 -0.1261 -0.4757  0.2148
 4368SOL    HW124737   3.833   3.597   7.391 -1.0264 -0.0201 -0.2174
 4368SOL    HW224738   3.805   3.744   7.373  1.0398 -0.3007 -0.9588
 4369SOL     OW24739   3.894   1.463   9.615 -0.1536 -0.4764 -0.2885
 4369SOL    HW124740   3.874   1.511   9.535  1.4570 -1.1842 -1.1256
 4369SOL    HW224741   3.989   1.461   9.601 -0.5012  0.6335 -2.6222
 4370SOL     OW24742   1.861   1.468  12.620  0.7422 -0.6328  0.0412
 4370SOL    HW124743   1.864   1.430  12.533  0.3851 -0.3507 -0.0928
 4370SOL    HW224744   1.768   1.473  12.641  0.7713 -0.3106  0.0948
 4371SOL     OW24745   2.321   3.219   4.468  0.0332 -0.3949  0.4484
 4371SOL    HW124746   2.246   3.229   4.528  0.1454 -0.9970  0.6816
 4371SOL    HW224747   2.382   3.256   4.532 -0.7658 -1.1097  1.6256
 4372SOL     OW24748   2.355   3.514   1.589 -0.6765 -0.3910  0.1746
 4372SOL    HW124749   2.375   3.485   1.678  0.2213  2.5586  0.9648
 4372SOL    HW224750   2.414   3.590   1.586  1.3167 -1.9647 -0.4676
 4373SOL     OW24751   2.179   4.086  10.435  0.3781 -0.3963 -0.2839
 4373SOL    HW124752   2.248   4.021  10.425  1.0862  0.1429  1.1886
 4373SOL    HW224753   2.099   4.033  10.440  0.5713 -0.6754 -0.1652
 4374SOL     OW24754   3.949   1.326   7.244 -0.5471  0.3244  0.1892
 4374SOL    HW124755   3.993   1.337   7.328  0.3303 -0.0925 -0.2179
 4374SOL    HW224756   3.854   1.336   7.254 -0.7703  0.2580 -1.8542
 4375SOL     OW24757   1.001   0.177  15.499  0.0270  0.1799 -0.3219
 4375SOL    HW124758   0.948   0.255  15.515 -1.4670 -1.0707  0.8056
 4375SOL    HW224759   1.032   0.152  15.586  0.2067  0.7762 -0.2175
 4376SOL     OW24760   0.896   3.633  17.595 -0.2491  0.1317  0.6371
 4376SOL    HW124761   0.885   3.688  17.672  2.3408  0.6203  0.6619
 4376SOL    HW224762   0.809   3.631  17.555  0.0521 -0.4261  0.0160
 4377SOL     OW24763   2.838   2.671  10.565 -0.4808  0.1188  0.4275
 4377SOL    HW124764   2.763   2.626  10.525  0.1754 -0.1670 -0.4956
 4377SOL    HW224765   2.871   2.609  10.629 -2.8624  0.7460  2.2448
 4378SOL     OW24766   0.892   4.511  10.841 -0.5929 -0.3542  0.1674
 4378SOL    HW124767   0.842   4.562  10.778  0.1659  0.9459  0.5971
 4378SOL    HW224768   0.982   4.541  10.827 -0.5132 -0.2017  0.9977
 4379SOL     OW24769   2.372   0.224  12.725  0.2490 -0.0270 -0.2697
 4379SOL    HW124770   2.456   0.263  12.703  1.5377 -1.6281  1.8127
 4379SOL    HW224771   2.319   0.279  12.668 -0.2728  0.5154  0.7546
 4380SOL     OW24772   2.214   2.926   4.686 -0.0853  0.1495 -0.0589
 4380SOL    HW124773   2.217   2.843   4.638  0.7466  0.3639 -0.3793
 4380SOL    HW224774   2.233   2.987   4.615 -1.7671 -0.8253 -1.3662
 4381SOL     OW24775   2.561   2.190   9.455 -0.2778 -0.2956  0.0914
 4381SOL    HW124776   2.639   2.212   9.507  0.3402  0.7422 -1.2656
 4381SOL    HW224777   2.493   2.160   9.516 -1.6126  2.9607  0.1890
 4382SOL     OW24778   0.064   4.046   1.867  0.0802 -0.1702 -0.2314
 4382SOL    HW124779   4.727   4.110   1.875  0.9819  0.5187  2.2031
 4382SOL    HW224780   0.116   4.085   1.797 -0.7835 -2.9308 -2.3679
 4383SOL     OW24781   3.759   0.993   5.643 -0.6413 -0.1131 -0.5901
 4383SOL    HW124782   3.825   1.021   5.580  0.1561 -0.4171  0.1201
 4383SOL    HW224783   3.742   0.904   5.610  0.7999 -0.0138 -1.5761
 4384SOL     OW24784   4.474   2.617   9.358 -0.4909  0.4737 -0.1881
 4384SOL    HW124785   4.403   2.681   9.357 -0.9146  0.0145  0.8625
 4384SOL    HW224786   4.499   2.630   9.450 -1.7383 -0.6419  0.3042
 4385SOL     OW24787   3.179   2.640   5.988 -0.5399 -0.4328 -0.3966
 4385SOL    HW124788   3.144   2.685   5.911  1.4877 -0.8239 -1.5281
 4385SOL    HW224789   3.192   2.556   5.946  2.5569 -1.0056  1.6671
 4386SOL     OW24790   2.989   1.319   4.038  0.7610 -0.2034  0.7982
 4386SOL    HW124791   2.913   1.262   4.023  2.1695 -1.8948  0.1322
 4386SOL    HW224792   2.977   1.339   4.131 -0.9997 -0.9815  0.7392
 4387SOL     OW24793   2.905   2.563   2.890 -0.3801  0.0838 -0.3615
 4387SOL    HW124794   2.956   2.643   2.878  0.7576 -0.4605  0.7808
 4387SOL    HW224795   2.975   2.499   2.884  0.7904  1.2114  1.1336
 4388SOL     OW24796   1.268   2.496   9.074  0.4976  0.4125 -0.4087
 4388SOL    HW124797   1.211   2.549   9.129  0.5558 -0.8919  0.9124
 4388SOL    HW224798   1.348   2.547   9.058  1.2906 -0.8274 -0.4074
 4389SOL     OW24799   3.788   3.280   0.665  0.4270  0.1260 -0.1351
 4389SOL    HW124800   3.794   3.203   0.721 -1.4200 -1.0975 -1.5949
 4389SOL    HW224801   3.714   3.261   0.607  0.6801  1.2177 -0.8336
 4390SOL     OW24802   2.661   1.375   2.293 -0.1074 -0.2824  0.4014
 4390SOL    HW124803   2.722   1.308   2.260 -0.5843 -0.7729  0.5088
 4390SOL    HW224804   2.598   1.335   2.352  0.8006 -0.2857  1.3727
 4391SOL     OW24805   1.688   0.506   6.857  0.1243  0.4943  0.0824
 4391SOL    HW124806   1.752   0.533   6.923  0.8197  2.3189 -1.3460
 4391SOL    HW224807   1.739   0.438   6.813  0.7069  1.1185 -0.2093
 4392SOL     OW24808   4.426   2.094   5.303 -0.0949 -0.1642  0.2450
 4392SOL    HW124809   4.353   2.047   5.343 -0.8252  1.2093  0.5457
 4392SOL    HW224810   4.470   2.130   5.380  1.2968  0.8896 -1.0404
 4393SOL     OW24811   1.968   4.700   1.954 -0.1712  0.5193 -0.0044
 4393SOL    HW124812   1.932   4.622   1.911 -3.2367  0.7272  2.1388
 4393SOL    HW224813   1.890   4.723   2.005 -0.6096 -0.3828 -0.2708
 4394SOL     OW24814   1.408   0.663  13.838  0.3327 -0.1911  0.3068
 4394SOL    HW124815   1.378   0.573  13.830 -0.0372 -0.1914  1.6088
 4394SOL    HW224816   1.335   0.699  13.889 -0.0436 -0.2719 -0.1774
 4395SOL     OW24817   2.688   3.471   7.449 -0.0945  0.1004 -0.2985
 4395SOL    HW124818   2.775   3.431   7.457 -0.5838 -0.5725  1.7686
 4395SOL    HW224819   2.682   3.540   7.514 -3.7004  0.4711 -1.0303
 4396SOL     OW24820   3.861   0.999   8.522  0.8127  0.3414  0.3257
 4396SOL    HW124821   3.863   0.960   8.610 -2.7847  0.4344  0.4472
 4396SOL    HW224822   3.925   0.946   8.473 -0.5899  1.1165 -2.3332
 4397SOL     OW24823   0.756   3.411   9.359  0.7145 -0.5857 -0.5931
 4397SOL    HW124824   0.771   3.454   9.275 -1.9915  1.7651  0.1331
 4397SOL    HW224825   0.690   3.467   9.401  1.4634  0.8258 -1.2747
 4398SOL     OW24826   4.668   3.106   3.248  0.3044 -0.1446 -0.1993
 4398SOL    HW124827   4.586   3.065   3.272 -0.1448  1.9180  1.7740
 4398SOL    HW224828   4.647   3.110   3.154  0.0848  0.2691 -0.1315
 4399SOL     OW24829   1.195   4.268   4.836  0.1051  0.2845  0.2495
 4399SOL    HW124830   1.127   4.260   4.904 -0.5441 -0.0017 -0.4357
 4399SOL    HW224831   1.229   4.179   4.832 -0.8649 -0.1110  0.8203
 4400SOL     OW24832   0.655   3.650  14.692 -0.1364 -0.0596 -0.3235
 4400SOL    HW124833   0.617   3.624  14.608 -1.1697  0.0928  0.0971
 4400SOL    HW224834   0.583   3.638  14.754 -0.5683 -0.1284 -0.8435
 4401SOL     OW24835   1.761   2.312   7.331 -0.2611  0.2256  0.0726
 4401SOL    HW124836   1.797   2.228   7.356 -1.0786 -0.4580 -1.0314
 4401SOL    HW224837   1.833   2.340   7.275  0.0115  0.2594  0.4434
 4402SOL     OW24838   2.794   3.892  16.769  0.0457 -0.0344  0.0040
 4402SOL    HW124839   2.791   3.906  16.674 -0.9331  0.4979  0.1141
 4402SOL    HW224840   2.763   3.975  16.805 -2.4185 -0.6414 -0.6457
 4403SOL     OW24841   1.429   2.586   6.491 -0.7364 -0.3547 -0.2821
 4403SOL    HW124842   1.369   2.518   6.459 -1.6406 -0.1367  0.9622
 4403SOL    HW224843   1.381   2.648   6.436  1.5571  1.5200 -0.1893
 4404SOL     OW24844   1.821   1.584  14.522 -0.0294  0.0270  0.4181
 4404SOL    HW124845   1.877   1.555  14.594  2.0954  0.0568 -1.2270
 4404SOL    HW224846   1.881   1.644  14.478 -2.3583 -0.6238 -3.6228
 4405SOL     OW24847   0.670   0.976   2.189 -0.2489 -0.3794 -0.3923
 4405SOL    HW124848   0.739   1.039   2.212 -0.7290 -0.9368  2.5655
 4405SOL    HW224849   0.619   0.989   2.269  4.6471  1.4656  2.4868
 4406SOL     OW24850   2.616   1.155  13.854  0.0585 -0.0255 -0.7307
 4406SOL    HW124851   2.529   1.118  13.836  0.2596 -1.0329  0.4065
 4406SOL    HW224852   2.626   1.208  13.775  0.5552  0.5049 -0.3050
 4407SOL     OW24853   2.038   0.194   3.532 -0.0862 -0.2650 -0.0345
 4407SOL    HW124854   2.065   0.272   3.580  0.8445 -0.1893 -0.6855
 4407SOL    HW224855   2.074   0.213   3.445 -0.0282  0.1753  0.0857
 4408SOL     OW24856   4.193   1.070   9.103  0.5153  0.0882  0.2507
 4408SOL    HW124857   4.103   1.036   9.100 -0.2254  2.0920 -0.2629
 4408SOL    HW224858   4.181   1.143   9.164  1.4536 -0.4273  1.0494
 4409SOL     OW24859   1.418   3.251   3.958 -0.4586  0.2159  0.0407
 4409SOL    HW124860   1.375   3.165   3.953 -2.0494  1.1431 -2.2630
 4409SOL    HW224861   1.484   3.234   3.890 -0.4660 -0.9115  0.3158
 4410SOL     OW24862   1.865   3.998   5.425  0.1031 -0.4803 -0.4264
 4410SOL    HW124863   1.944   4.047   5.404  0.3453 -0.1126  1.3839
 4410SOL    HW224864   1.897   3.952   5.503  2.1857 -0.2846 -1.1705
 4411SOL     OW24865   2.278   0.053   0.285 -0.5520 -0.2988 -0.0839
 4411SOL    HW124866   2.362   0.097   0.277 -1.1358  0.8806  0.3246
 4411SOL    HW224867   2.222   0.124   0.317  1.5812  0.7060  1.4050
 4412SOL     OW24868   4.457   3.416  15.039 -0.6722 -0.2192 -0.1446
 4412SOL    HW124869   4.464   3.481  14.970  1.3531 -1.8056 -1.4404
 4412SOL    HW224870   4.379   3.453  15.079 -1.1142 -1.7807  0.4585
 4413SOL     OW24871   4.529   3.670   6.720 -0.9196  0.3466  0.4707
 4413SOL    HW124872   4.450   3.699   6.766 -0.4428 -0.4978  1.8255
 4413SOL    HW224873   4.589   3.744   6.725 -0.3617 -0.1068  0.5160
 4414SOL     OW24874   4.020   3.464   0.431  0.4937  0.2541 -0.0968
 4414SOL    HW124875   3.962   3.451   0.357 -2.0475 -1.3070  2.1917
 4414SOL    HW224876   4.104   3.465   0.385  1.0093  1.9790  0.8674
 4415SOL     OW24877   3.104   1.393   9.695 -0.4607 -0.2085  0.2578
 4415SOL    HW124878   3.144   1.453   9.758 -0.1358 -1.7030  1.4833
 4415SOL    HW224879   3.015   1.428   9.684 -0.3744 -0.2290 -0.4995
 4416SOL     OW24880   4.183   0.742   7.436 -0.1191 -0.4575 -0.2306
 4416SOL    HW124881   4.194   0.760   7.529  1.0987  0.3571 -0.5266
 4416SOL    HW224882   4.278   0.736   7.422  0.3420  2.4653  1.7627
 4417SOL     OW24883   2.840   2.863   6.884  0.2888 -0.1296 -0.9575
 4417SOL    HW124884   2.821   2.774   6.853  0.0810  0.1874 -1.7094
 4417SOL    HW224885   2.760   2.905   6.853  0.7780  1.4380 -0.1169
 4418SOL     OW24886   2.345   0.905   9.215 -0.5476  0.4846  0.5702
 4418SOL    HW124887   2.374   0.817   9.240  1.5566  0.4059 -2.1792
 4418SOL    HW224888   2.406   0.956   9.267 -0.9467 -0.7277  2.2369
 4419SOL     OW24889   2.165   1.859   2.981 -0.3806 -0.3574  0.7239
 4419SOL    HW124890   2.190   1.935   2.930 -0.6389 -2.1956 -2.1338
 4419SOL    HW224891   2.096   1.904   3.029 -0.8746 -1.3998  0.9866
 4420SOL     OW24892   3.245   0.310  12.945  0.2202  0.1578 -0.2086
 4420SOL    HW124893   3.277   0.352  13.025  1.1415 -0.9647  0.0146
 4420SOL    HW224894   3.192   0.384  12.916  0.0582 -0.4669 -1.5002
 4421SOL     OW24895   4.678   4.264   3.598 -0.8626 -0.1879  0.4200
 4421SOL    HW124896   4.671   4.195   3.664 -2.5639 -0.4708 -0.0741
 4421SOL    HW224897   4.727   4.333   3.644  0.3331 -0.4006 -0.5182
 4422SOL     OW24898   3.696   4.429   7.444  0.2352 -0.1188 -0.2046
 4422SOL    HW124899   3.692   4.472   7.358  1.0642  0.5289  0.0758
 4422SOL    HW224900   3.720   4.500   7.502  0.1810  0.3236 -0.7219
 4423SOL     OW24901   2.976   0.429   0.742 -0.0867 -0.1231 -0.1172
 4423SOL    HW124902   2.939   0.517   0.740  0.7472  0.2290  0.2085
 4423SOL    HW224903   2.926   0.387   0.811 -1.4393 -0.0317 -1.0458
 4424SOL     OW24904   0.098   0.234  10.872 -0.1181 -0.0552 -0.1291
 4424SOL    HW124905   0.159   0.297  10.832  0.5212  0.9556  2.4603
 4424SOL    HW224906   0.151   0.211  10.948  0.6931 -1.0441 -1.0020
 4425SOL     OW24907   4.195   0.202  17.421  0.3252 -0.4518  0.0171
 4425SOL    HW124908   4.242   0.171  17.499 -2.4397 -0.9547  1.4831
 4425SOL    HW224909   4.258   0.268  17.393 -0.1916  0.5918  1.3165
 4426SOL     OW24910   1.603   2.493  16.555  0.1157 -0.0697  0.6559
 4426SOL    HW124911   1.667   2.564  16.558 -0.6721  0.6340  0.8688
 4426SOL    HW224912   1.655   2.419  16.524 -0.0555  0.4303 -0.7827
 4427SOL     OW24913   3.790   2.191  12.840 -0.0106 -0.3867 -1.0514
 4427SOL    HW124914   3.879   2.190  12.875 -0.2300  0.9395 -0.4470
 4427SOL    HW224915   3.740   2.140  12.904  2.2791  0.9760  1.8291
 4428SOL     OW24916   4.514   3.539  16.225 -0.6769 -0.6579  0.3464
 4428SOL    HW124917   4.528   3.507  16.136  0.6913 -1.1340  0.7384
 4428SOL    HW224918   4.428   3.582  16.222  0.2128  1.1610  0.5351
 4429SOL     OW24919   3.489   1.967   2.366  0.4429 -1.0031 -0.1286
 4429SOL    HW124920   3.479   1.897   2.430 -0.3701  0.6685  1.5856
 4429SOL    HW224921   3.401   2.003   2.354  0.7915  0.3945  1.3332
 4430SOL     OW24922   0.432   0.586  11.897  0.0992  0.1920 -0.0226
 4430SOL    HW124923   0.522   0.601  11.924 -0.4302 -1.9203  2.9041
 4430SOL    HW224924   0.414   0.673  11.862  0.7311  0.6861  0.9084
 4431SOL     OW24925   2.313   1.092   1.094 -0.1939  0.7627  0.2993
 4431SOL    HW124926   2.409   1.096   1.101 -0.2172 -2.2482  2.3798
 4431SOL    HW224927   2.292   1.155   1.163  0.5781 -3.0267  4.0112
 4432SOL     OW24928   0.079   1.756   3.113 -0.1389 -0.3662 -0.6184
 4432SOL    HW124929   0.170   1.743   3.138 -0.4717 -2.7238 -0.6273
 4432SOL    HW224930   0.084   1.729   3.021  0.0137 -1.4017 -0.3089
 4433SOL     OW24931   0.904   0.253   6.057 -0.0413  0.3729  0.5884
 4433SOL    HW124932   0.965   0.300   6.000  0.6164 -0.5246  0.5450
 4433SOL    HW224933   0.959   0.251   6.135  2.5160  1.0149 -1.1956
 4434SOL     OW24934   0.649   4.349   6.831 -0.2359  0.6623  0.1964
 4434SOL    HW124935   0.737   4.360   6.795  0.2765 -1.7260  0.7346
 4434SOL    HW224936   0.656   4.334   6.925 -0.1944 -0.2249  0.0451
 4435SOL     OW24937   3.758   0.446   3.898  0.5104 -0.7539 -0.1350
 4435SOL    HW124938   3.818   0.482   3.964 -0.8467  1.0222  0.1288
 4435SOL    HW224939   3.672   0.462   3.937  0.0157 -1.0631 -1.1121
 4436SOL     OW24940   1.527   0.006   8.844  0.7280  0.4588  0.2640
 4436SOL    HW124941   1.436   0.034   8.854 -0.1767 -1.9693 -1.3477
 4436SOL    HW224942   1.537   4.710   8.754 -1.6185 -0.4340  0.3032
 4437SOL     OW24943   0.250   1.358  17.450 -0.1594  0.2275  0.9570
 4437SOL    HW124944   0.166   1.325  17.480 -0.0944  0.9223  1.9061
 4437SOL    HW224945   0.321   1.331  17.509  0.3014 -0.3703  0.1347
 4438SOL     OW24946   4.092   0.622  12.607 -0.1093  0.6161 -0.5640
 4438SOL    HW124947   4.130   0.543  12.646 -0.0253  1.3811  0.9082
 4438SOL    HW224948   4.155   0.642  12.538 -0.4163  1.7244 -0.5175
 4439SOL     OW24949   3.103   0.846  12.818 -0.0457 -0.4277  0.7938
 4439SOL    HW124950   3.145   0.871  12.900  0.5613  1.7624 -0.1813
 4439SOL    HW224951   3.155   0.901  12.759  1.6244 -3.6787 -0.7823
 4440SOL     OW24952   3.095   3.838   2.078 -0.6454  0.2889  0.3254
 4440SOL    HW124953   3.055   3.923   2.093 -0.5758  0.1349  1.3738
 4440SOL    HW224954   3.171   3.845   2.021  0.1798 -1.3944  1.2110
 4441SOL     OW24955   2.850   1.824   6.977 -0.0703  0.2475  0.4412
 4441SOL    HW124956   2.846   1.730   6.957 -2.1626  0.8972 -2.1985
 4441SOL    HW224957   2.758   1.838   6.999  0.4422  2.0261  1.4384
 4442SOL     OW24958   1.327   2.681   4.063  0.3915  0.3589  0.1187
 4442SOL    HW124959   1.239   2.696   4.029  0.3356 -0.2215 -0.0006
 4442SOL    HW224960   1.361   2.762   4.101 -2.6840  0.3723  2.8201
 4443SOL     OW24961   1.663   1.715   7.140 -0.0039  0.2614  0.5729
 4443SOL    HW124962   1.653   1.733   7.234 -0.8288  0.1593  0.5071
 4443SOL    HW224963   1.688   1.799   7.104 -0.6774  0.7739  1.2909
 4444SOL     OW24964   4.422   4.526   7.649 -0.1990  0.6705 -0.2646
 4444SOL    HW124965   4.487   4.468   7.608 -0.2987 -0.5367  1.2815
 4444SOL    HW224966   4.468   4.538   7.732  0.0019  1.0701 -0.4321
 4445SOL     OW24967   0.272   3.979   7.718  0.2696  0.4252 -0.0177
 4445SOL    HW124968   0.292   3.949   7.629  0.0801  0.0709  0.0619
 4445SOL    HW224969   0.243   4.068   7.695  1.0524  0.2440 -1.6876
 4446SOL     OW24970   3.964   1.017   3.951  0.1970 -0.2040  0.6161
 4446SOL    HW124971   3.879   1.060   3.957  0.5138 -0.1147  4.4929
 4446SOL    HW224972   3.941   0.929   3.983  1.0073 -0.0815  1.5225
 4447SOL     OW24973   2.000   4.152   6.658 -0.2212 -0.0161 -0.1372
 4447SOL    HW124974   1.995   4.061   6.630  1.7867  0.1502 -0.9956
 4447SOL    HW224975   1.916   4.185   6.626 -1.7032 -1.6959  1.9669
 4448SOL     OW24976   2.251   1.116   6.830  0.0768 -0.3558  0.1667
 4448SOL    HW124977   2.272   1.187   6.890 -1.3837 -0.1910  0.4739
 4448SOL    HW224978   2.325   1.110   6.769  0.8275  0.9362  0.9582
 4449SOL     OW24979   1.446   4.615   4.969 -0.1653  0.4071  0.1325
 4449SOL    HW124980   1.407   4.604   5.055 -3.2366  0.2565 -1.2834
 4449SOL    HW224981   1.492   4.531   4.970 -1.7237 -0.4105  2.9304
 4450SOL     OW24982   1.749   3.411   3.454  0.1403  0.4679  0.1117
 4450SOL    HW124983   1.686   3.342   3.434  0.0365  0.3176  0.9531
 4450SOL    HW224984   1.799   3.403   3.373  0.8368 -0.5475  0.6323
 4451SOL     OW24985   3.488   2.941  14.460 -0.3860 -0.3098 -0.0547
 4451SOL    HW124986   3.551   2.920  14.391  2.0057  2.9319  1.1218
 4451SOL    HW224987   3.470   3.033  14.441  0.8679 -0.7286 -3.2185
 4452SOL     OW24988   2.791   1.823   6.036  0.3333 -0.3513  0.3699
 4452SOL    HW124989   2.866   1.766   6.018 -1.4546 -3.3573  2.3365
 4452SOL    HW224990   2.732   1.774   5.978  0.9951 -0.5995 -0.1042
 4453SOL     OW24991   3.582   2.267   9.596 -0.2356  0.1857 -0.2255
 4453SOL    HW124992   3.527   2.195   9.565 -0.5993  0.0398  0.7647
 4453SOL    HW224993   3.642   2.279   9.522  0.5214 -0.8233  0.2290
 4454SOL     OW24994   2.214   0.386   7.114 -0.1004  0.3896 -0.0365
 4454SOL    HW124995   2.217   0.470   7.161  0.3827 -0.0876  0.7826
 4454SOL    HW224996   2.244   0.406   7.026  0.4891  3.6899  0.8864
 4455SOL     OW24997   4.677   1.518  17.724 -0.0686  0.6970 -0.5097
 4455SOL    HW124998   4.589   1.507  17.687  0.1518 -2.2469 -0.1628
 4455SOL    HW224999   4.669   1.613  17.736 -0.8821  0.8077 -1.8218
 4456SOL     OW25000   2.913   3.974   7.880 -0.5463 -0.4174  0.1430
 4456SOL    HW125001   2.823   3.949   7.902 -1.4487  0.7371 -2.1514
 4456SOL    HW225002   2.917   4.062   7.918  0.0717  0.5686 -2.1928
 4457SOL     OW25003   3.941   0.579   4.101  0.4629 -0.5226 -0.4632
 4457SOL    HW125004   4.003   0.509   4.081  0.6956 -0.3450 -0.3655
 4457SOL    HW225005   3.943   0.570   4.197 -0.2269 -1.4810 -0.5433
 4458SOL     OW25006   3.395   1.740   9.790  0.3619  0.0142 -0.5790
 4458SOL    HW125007   3.485   1.728   9.758  0.0903 -2.2406 -0.5253
 4458SOL    HW225008   3.351   1.784   9.718  0.1281  1.7822  0.6471
 4459SOL     OW25009   4.088   1.206   4.767 -0.1508 -0.2833 -0.4160
 4459SOL    HW125010   4.133   1.137   4.816 -1.2479 -0.0701  0.8974
 4459SOL    HW225011   4.024   1.228   4.834  0.0297  2.6442 -1.2244
 4460SOL     OW25012   3.650   1.756   0.960 -0.0780  0.1619  0.1119
 4460SOL    HW125013   3.705   1.793   1.028  0.5506 -3.1446  1.3736
 4460SOL    HW225014   3.629   1.825   0.897 -2.2093  0.0906  0.7291
 4461SOL     OW25015   1.504   3.336   6.288  0.1937 -0.3809 -0.6772
 4461SOL    HW125016   1.411   3.353   6.306  0.5188 -0.5968  1.2941
 4461SOL    HW225017   1.501   3.283   6.209  2.3568 -0.8933 -0.4169
 4462SOL     OW25018   1.344   0.720   7.599  0.6867 -0.0910  0.1693
 4462SOL    HW125019   1.269   0.704   7.656 -0.0556  1.7266 -0.3110
 4462SOL    HW225020   1.386   0.634   7.608  0.9004  0.2578  2.3962
 4463SOL     OW25021   2.337   0.295   7.746  0.0881  0.3530  0.2598
 4463SOL    HW125022   2.406   0.358   7.765  0.4444 -0.3963  1.4802
 4463SOL    HW225023   2.278   0.316   7.819  0.3591 -1.2248  0.9338
 4464SOL     OW25024   2.338   2.551   7.202  0.4746 -0.5745 -0.5082
 4464SOL    HW125025   2.348   2.486   7.132  3.6245  0.3289 -0.9034
 4464SOL    HW225026   2.372   2.628   7.157 -0.1673 -1.1867 -2.0816
 4465SOL     OW25027   3.208   0.895   7.288  0.0066 -0.1377 -0.1498
 4465SOL    HW125028   3.176   0.818   7.240  1.4661  0.5649 -2.2486
 4465SOL    HW225029   3.302   0.884   7.269  0.2533  1.3252  0.2733
 4466SOL     OW25030   4.602   1.789  14.825  0.4474  0.2782 -0.1319
 4466SOL    HW125031   4.549   1.754  14.897  0.7246  1.0908  0.4667
 4466SOL    HW225032   4.540   1.842  14.774 -0.1862  0.8440  1.2296
 4467SOL     OW25033   1.973   0.160   6.029  0.9086  0.0079 -0.0271
 4467SOL    HW125034   1.977   0.072   5.992  1.5356 -0.1797  0.5021
 4467SOL    HW225035   2.066   0.179   6.031  1.0236 -0.5039 -1.0460
 4468SOL     OW25036   1.987   3.542  15.337  0.0764  0.6034  0.5116
 4468SOL    HW125037   2.066   3.509  15.379 -1.5741 -1.6971  1.7871
 4468SOL    HW225038   1.944   3.572  15.417  1.6609 -0.4262  1.7471
 4469SOL     OW25039   3.294   0.111   1.294 -0.5733 -0.1680  0.5402
 4469SOL    HW125040   3.240   0.176   1.248 -0.8398  0.1964  1.3766
 4469SOL    HW225041   3.252   0.116   1.380 -0.7447 -0.5592  0.4762
 4470SOL     OW25042   3.372   4.630  12.897 -0.4209 -0.0626 -0.6870
 4470SOL    HW125043   3.392   4.709  12.846  1.7463 -0.7002 -0.8378
 4470SOL    HW225044   3.309   4.664  12.960 -0.0246  2.9497 -1.9194
 4471SOL     OW25045   4.181   2.644   5.017  0.2371 -0.4042  0.1420
 4471SOL    HW125046   4.126   2.601   5.081 -0.0557  1.6476  1.2808
 4471SOL    HW225047   4.160   2.737   5.023 -2.3886 -0.9693 -0.2846
 4472SOL     OW25048   3.374   2.002  13.614  0.0965  0.4306  0.0786
 4472SOL    HW125049   3.330   1.917  13.611 -0.5206  0.7504  0.0745
 4472SOL    HW225050   3.294   2.051  13.630  1.0847  2.0714  0.0363
 4473SOL     OW25051   0.359   0.643   2.696  0.4655 -0.2233  0.4642
 4473SOL    HW125052   0.287   0.626   2.757 -0.0525  2.6673  0.6391
 4473SOL    HW225053   0.338   0.728   2.657 -2.9428 -1.5509 -0.6089
 4474SOL     OW25054   0.315   1.993   3.244  0.0443 -0.0331  0.1707
 4474SOL    HW125055   0.305   1.954   3.331 -0.9874  0.0378  0.0737
 4474SOL    HW225056   0.223   2.000   3.218  0.7261  0.0985 -2.1966
 4475SOL     OW25057   3.221   1.089   4.231 -0.4282  0.0135  0.6041
 4475SOL    HW125058   3.208   1.094   4.136 -0.1878  3.0181  0.7291
 4475SOL    HW225059   3.275   1.011   4.220  0.9078  0.9780  0.2843
 4476SOL     OW25060   0.395   0.057   1.888  0.1107  0.0747  0.2501
 4476SOL    HW125061   0.485   0.063   1.856 -0.1295 -1.2058 -0.6831
 4476SOL    HW225062   0.379   4.704   1.852  1.5846  0.1486 -0.5924
 4477SOL     OW25063   1.415   2.092   1.587  0.3078 -0.5797  0.2654
 4477SOL    HW125064   1.377   2.048   1.511 -1.1414 -1.0121  1.2290
 4477SOL    HW225065   1.476   2.153   1.546 -1.2436 -0.9099 -2.5068
 4478SOL     OW25066   2.436   0.441   4.618 -0.6411  0.2593 -0.0776
 4478SOL    HW125067   2.520   0.398   4.602 -1.9053 -2.7572  1.2518
 4478SOL    HW225068   2.402   0.400   4.539 -0.8500 -0.8302  0.5735
 4479SOL     OW25069   1.634   1.146  17.058 -0.0792 -0.1472 -0.2502
 4479SOL    HW125070   1.706   1.118  17.114 -1.4683  2.4805  2.8835
 4479SOL    HW225071   1.602   1.215  17.117  0.2818 -1.1448  1.1109
 4480SOL     OW25072   2.234   3.673   0.859  0.5088 -0.2649 -0.1849
 4480SOL    HW125073   2.169   3.616   0.900 -0.2780  0.0832 -0.9537
 4480SOL    HW225074   2.283   3.678   0.941  1.1993 -1.0179 -0.5488
 4481SOL     OW25075   3.244   3.838   9.628 -0.3495  0.3295 -0.0187
 4481SOL    HW125076   3.160   3.791   9.625 -0.3299  0.2864  0.1014
 4481SOL    HW225077   3.305   3.765   9.626 -0.9943 -0.1929 -0.6148
 4482SOL     OW25078   0.657   1.974   9.867  0.5223 -0.0239 -0.3889
 4482SOL    HW125079   0.640   1.941   9.779 -1.9707  0.3760 -0.0615
 4482SOL    HW225080   0.745   1.942   9.888  1.7601  2.8664 -1.1099
 4483SOL     OW25081   1.775   4.431  15.512  0.0263  0.0220  0.9237
 4483SOL    HW125082   1.722   4.363  15.554  0.8967 -0.1083  1.8313
 4483SOL    HW225083   1.729   4.453  15.431 -0.3959 -1.1480  0.8476
 4484SOL     OW25084   2.736   0.369   3.670 -0.2577  0.3266  0.6490
 4484SOL    HW125085   2.737   0.276   3.647  0.7524  1.0386 -2.2913
 4484SOL    HW225086   2.661   0.374   3.729 -1.8169  1.0200 -1.3786
 4485SOL     OW25087   0.947   0.479   9.895  0.6751  0.2456 -0.2276
 4485SOL    HW125088   1.023   0.485   9.837 -1.6002 -0.2253 -3.1962
 4485SOL    HW225089   0.944   0.385   9.912  1.0080  0.2680 -0.0422
 4486SOL     OW25090   2.413   2.645  12.700  0.5821  0.1881  0.4177
 4486SOL    HW125091   2.416   2.677  12.609 -1.0097 -3.7004 -1.0066
 4486SOL    HW225092   2.507   2.651  12.717  0.2764  1.0774  1.7475
 4487SOL     OW25093   3.604   3.881   8.226  0.5764  0.3579 -0.3870
 4487SOL    HW125094   3.644   3.882   8.313 -0.8355  1.7200  0.2529
 4487SOL    HW225095   3.600   3.789   8.203  3.5690  0.0410  0.3609
 4488SOL     OW25096   0.126   2.961   7.284 -0.2024  0.8125  0.1605
 4488SOL    HW125097   0.191   2.940   7.218 -1.2733 -1.4731 -0.1581
 4488SOL    HW225098   0.178   2.948   7.364  2.1675  3.2975 -1.0114
 4489SOL     OW25099   1.765   4.189  14.285 -0.6685  0.2683 -0.3375
 4489SOL    HW125100   1.835   4.223  14.230 -0.9571  2.3228  0.5665
 4489SOL    HW225101   1.759   4.096  14.262 -0.7719  0.0764  0.4396
 4490SOL     OW25102   1.741   4.386  17.369  0.0382 -0.7417  0.1696
 4490SOL    HW125103   1.786   4.337  17.300 -0.5291 -0.3331 -0.4873
 4490SOL    HW225104   1.669   4.324  17.380 -1.3911  0.6921 -1.2133
 4491SOL     OW25105   2.939   3.859   8.156  0.1735 -0.1270 -0.1065
 4491SOL    HW125106   3.028   3.870   8.123  0.0589 -0.7459 -0.6043
 4491SOL    HW225107   2.907   3.949   8.165  0.3356 -0.0091 -0.7143
 4492SOL     OW25108   2.475   4.623   2.697  0.0171  0.4308 -0.1424
 4492SOL    HW125109   2.532   4.664   2.762 -1.6230 -0.8217  2.0865
 4492SOL    HW225110   2.407   4.588   2.754 -0.8368  2.5090  0.1027
 4493SOL     OW25111   1.965   1.383   7.388  0.0690  0.1886 -0.3402
 4493SOL    HW125112   1.983   1.343   7.473 -0.4703  2.9862  1.0903
 4493SOL    HW225113   1.884   1.342   7.357 -0.8713  1.9336 -0.1568
 4494SOL     OW25114   3.448   1.688   8.541 -0.5573  0.3042 -0.1472
 4494SOL    HW125115   3.484   1.641   8.615  0.1109  0.8016 -0.1568
 4494SOL    HW225116   3.498   1.658   8.465  0.4955  0.0905  0.6380
 4495SOL     OW25117   2.210   3.807  10.409 -0.5601  0.7193  0.5770
 4495SOL    HW125118   2.140   3.745  10.427  1.2171 -1.1786  0.9132
 4495SOL    HW225119   2.235   3.826  10.500  2.7693  1.3299 -0.4606
 4496SOL     OW25120   1.945   3.192  11.871 -0.0457 -0.0827 -0.3428
 4496SOL    HW125121   1.973   3.234  11.952  0.2673 -0.5221 -0.2263
 4496SOL    HW225122   1.850   3.182  11.876 -0.1585 -0.1239 -2.4789
 4497SOL     OW25123   2.749   4.337   3.017  0.1679 -0.4589 -0.3690
 4497SOL    HW125124   2.727   4.408   3.077 -0.2382 -1.6158  0.8460
 4497SOL    HW225125   2.677   4.277   3.038 -0.5906  0.1456 -1.2217
 4498SOL     OW25126   1.418   4.717  17.561 -0.1820 -0.3195  0.2779
 4498SOL    HW125127   1.401   4.627  17.531 -2.0520 -0.2463  1.1001
 4498SOL    HW225128   1.499   4.723  17.511  0.2613 -0.8501  0.9337
 4499SOL     OW25129   0.198   4.728  16.709  0.0140  0.5171  0.1527
 4499SOL    HW125130   0.183   4.669  16.783  0.8574  0.0299 -0.0547
 4499SOL    HW225131   0.166   4.665  16.643 -0.0680  1.2740 -0.5303
 4500SOL     OW25132   0.798   1.811   4.612 -0.3239 -0.0444  0.2042
 4500SOL    HW125133   0.864   1.757   4.567  0.0135 -0.7205  1.5066
 4500SOL    HW225134   0.718   1.781   4.568 -1.3728  3.0225  0.0526
 4501SOL     OW25135   2.986   4.451  12.221 -0.5483 -0.6257  0.3845
 4501SOL    HW125136   2.971   4.497  12.303  0.4161  0.8964 -0.2827
 4501SOL    HW225137   3.020   4.374  12.267 -0.2146 -0.8202 -0.1886
 4502SOL     OW25138   0.648   0.899   8.546  0.0845  0.3109  0.0300
 4502SOL    HW125139   0.649   0.859   8.459 -1.7518 -0.9097  0.5903
 4502SOL    HW225140   0.742   0.919   8.549 -0.5860  3.3315  0.9780
 4503SOL     OW25141   2.904   3.652  14.990 -0.6015  0.1140  0.0529
 4503SOL    HW125142   2.808   3.656  14.996 -0.6826 -0.8150 -0.6288
 4503SOL    HW225143   2.928   3.738  14.954  1.9185 -0.2874  0.8016
 4504SOL     OW25144   3.286   0.443   5.775  0.6059  0.8747  1.0274
 4504SOL    HW125145   3.320   0.532   5.776  1.9078  0.3964 -1.3278
 4504SOL    HW225146   3.205   0.449   5.826  0.1716 -1.2454  0.5880
 4505SOL     OW25147   1.886   3.413  16.329  0.3593 -0.5665 -0.5441
 4505SOL    HW125148   1.855   3.329  16.363 -0.4056  1.1778  3.0929
 4505SOL    HW225149   1.940   3.375  16.260  1.8252 -1.9233  1.3508
 4506SOL     OW25150   0.309   2.557   5.308  0.1124 -0.1642 -0.2716
 4506SOL    HW125151   0.240   2.577   5.372  0.1885 -0.6020 -0.0469
 4506SOL    HW225152   0.332   2.468   5.337 -0.4740 -0.3525 -0.3740
 4507SOL     OW25153   2.330   3.488   0.598  0.6044 -0.1994  0.0124
 4507SOL    HW125154   2.361   3.443   0.676 -2.1350 -2.5106 -0.2124
 4507SOL    HW225155   2.271   3.413   0.586  1.3643 -0.6165 -1.1609
 4508SOL     OW25156   3.171   0.644  16.486 -0.3653  0.1689 -0.1525
 4508SOL    HW125157   3.182   0.588  16.409  0.6592  1.4040 -0.9227
 4508SOL    HW225158   3.175   0.576  16.553  0.3501  0.1765 -0.1807
 4509SOL     OW25159   3.204   3.473  11.529 -0.1465 -0.1178 -0.0022
 4509SOL    HW125160   3.119   3.434  11.549  0.5078 -2.1814 -1.2491
 4509SOL    HW225161   3.191   3.564  11.556  1.5420 -1.2115  4.6065
 4510SOL     OW25162   0.493   2.668   8.910  0.5012 -0.1850  0.0151
 4510SOL    HW125163   0.484   2.763   8.912  0.3739 -0.1883 -0.3982
 4510SOL    HW225164   0.498   2.660   8.814 -0.7830 -1.7997  0.0793
 4511SOL     OW25165   3.688   4.184   9.520 -0.0571 -0.4143 -0.1132
 4511SOL    HW125166   3.733   4.211   9.600 -0.7573  2.1983 -0.5954
 4511SOL    HW225167   3.759   4.182   9.456  1.7698 -2.0929  1.9341
 4512SOL     OW25168   3.350   0.597  13.061 -0.7998  0.4322 -0.5745
 4512SOL    HW125169   3.421   0.638  13.012 -0.1981  0.6687  0.5013
 4512SOL    HW225170   3.296   0.676  13.067 -1.9932 -0.2066 -2.7408
 4513SOL     OW25171   0.087   4.458   4.879 -0.2839  0.0272 -0.5359
 4513SOL    HW125172   0.090   4.516   4.955 -0.5521  0.0938 -0.5746
 4513SOL    HW225173   0.022   4.403   4.923  0.7705 -1.2608 -0.5859
 4514SOL     OW25174   2.262   0.844   5.669  0.3238 -0.7238 -0.0568
 4514SOL    HW125175   2.253   0.842   5.764  0.1688  0.2442 -0.0487
 4514SOL    HW225176   2.182   0.810   5.629  1.7550 -2.7376 -1.2189
 4515SOL     OW25177   1.310   2.507   4.315  0.4663  0.5537  0.0198
 4515SOL    HW125178   1.293   2.562   4.239 -1.7859  1.0857  0.9109
 4515SOL    HW225179   1.406   2.502   4.324  0.3439 -0.9245  0.6239
 4516SOL     OW25180   2.075   1.447  16.576  0.0532 -0.0606  0.3953
 4516SOL    HW125181   2.013   1.410  16.639 -0.8231  1.3838  0.3903
 4516SOL    HW225182   2.048   1.538  16.590  1.7056  0.5933 -0.6706
 4517SOL     OW25183   2.947   0.715   0.444 -0.1490 -0.0133  1.0844
 4517SOL    HW125184   2.959   0.621   0.434  0.7827  0.3179 -0.8700
 4517SOL    HW225185   3.033   0.753   0.460  0.3680 -1.4717  1.7027
 4518SOL     OW25186   0.030   3.337   9.639  0.6487 -0.0647 -0.2158
 4518SOL    HW125187   0.020   3.374   9.727 -0.1518  0.5624 -0.5700
 4518SOL    HW225188   4.674   3.327   9.610  1.1438 -0.3134 -1.6956
 4519SOL     OW25189   4.627   3.102  12.498  0.1867 -0.5947 -0.3106
 4519SOL    HW125190   4.657   3.057  12.419 -1.4059 -0.5743 -0.9326
 4519SOL    HW225191   4.535   3.075  12.488 -0.1200  0.2657  0.1469
 4520SOL     OW25192   0.428   4.186   1.885  0.0796  0.0421  0.3174
 4520SOL    HW125193   0.393   4.149   1.804  0.2606  2.0824 -0.7027
 4520SOL    HW225194   0.360   4.249   1.908 -0.8996 -0.3947 -1.3592
 4521SOL     OW25195   4.597   4.325  11.540  0.2522  0.6153  0.7988
 4521SOL    HW125196   4.649   4.401  11.567  0.4343  0.6349  0.3928
 4521SOL    HW225197   4.660   4.275  11.487 -2.3314  0.6248 -2.3104
 4522SOL     OW25198   1.682   2.929  16.796  0.0672  0.2713  0.6914
 4522SOL    HW125199   1.596   2.972  16.794 -1.1282 -2.1474 -0.2269
 4522SOL    HW225200   1.734   3.003  16.825 -0.6205  0.0084  2.5917
 4523SOL     OW25201   4.202   1.290  14.018 -0.4336 -0.1373  0.1337
 4523SOL    HW125202   4.259   1.228  13.971 -0.2696 -1.0012  1.4640
 4523SOL    HW225203   4.128   1.236  14.048 -0.3985 -0.4961 -0.4225
 4524SOL     OW25204   2.245   2.194   1.785 -0.0214  0.7559  0.4834
 4524SOL    HW125205   2.200   2.178   1.702  0.6973  2.3724 -0.2212
 4524SOL    HW225206   2.198   2.132   1.841 -1.1764  0.9253 -0.2935
 4525SOL     OW25207   2.966   2.680  11.576  0.6699 -0.5394  0.1607
 4525SOL    HW125208   2.983   2.678  11.482 -0.4366  0.7400 -0.0667
 4525SOL    HW225209   3.039   2.739  11.596  3.0483 -2.6297 -2.2922
 4526SOL     OW25210   4.574   0.507   6.995 -0.3409 -0.6512  0.3481
 4526SOL    HW125211   4.629   0.569   7.042 -3.1006  0.7222  1.7690
 4526SOL    HW225212   4.487   0.546   6.995  0.3771  0.8993 -1.3476
 4527SOL     OW25213   1.402   3.937  16.444 -0.6194 -0.0976 -0.1427
 4527SOL    HW125214   1.347   3.944  16.523  0.6665 -0.2732  0.7702
 4527SOL    HW225215   1.330   3.957  16.384  0.7249 -0.0340 -1.7141
 4528SOL     OW25216   1.501   1.045   0.108 -0.0885 -0.2224  0.1004
 4528SOL    HW125217   1.420   1.034   0.158  0.1788 -0.3507  0.5129
 4528SOL    HW225218   1.477   1.106   0.039 -1.1300 -0.5991  0.1328
 4529SOL     OW25219   1.599   4.213   6.450  0.0764  0.7432 -0.0032
 4529SOL    HW125220   1.615   4.152   6.378 -1.5577  1.2693 -0.8293
 4529SOL    HW225221   1.534   4.274   6.414  0.4880  0.4089 -1.2885
 4530SOL     OW25222   4.358   1.391  16.701  0.0570 -0.4625 -0.3710
 4530SOL    HW125223   4.353   1.411  16.608  0.5269 -0.3513 -0.3712
 4530SOL    HW225224   4.328   1.472  16.743  2.3634  0.4323 -0.4541
 4531SOL     OW25225   2.566   3.465   8.816  0.4223 -0.3504  0.3529
 4531SOL    HW125226   2.612   3.383   8.835  2.6961  0.6733 -0.7831
 4531SOL    HW225227   2.577   3.468   8.721  1.9910 -3.0560  0.4358
 4532SOL     OW25228   1.160   4.725   5.336  0.0756  0.5860 -0.1173
 4532SOL    HW125229   1.090   4.730   5.270  0.5705  1.1390 -0.5980
 4532SOL    HW225230   1.136   0.066   5.390 -0.5125  0.1116  0.2886
 4533SOL     OW25231   1.427   0.935   6.129 -0.2877  0.0400 -0.1561
 4533SOL    HW125232   1.372   0.912   6.204 -1.6061 -0.6658 -1.3323
 4533SOL    HW225233   1.480   1.006   6.166 -2.4664  2.1087 -0.9934
 4534SOL     OW25234   4.147   3.063   2.014 -0.5340  0.0767  0.4875
 4534SOL    HW125235   4.229   3.020   2.041 -0.5222  0.5205  1.1606
 4534SOL    HW225236   4.085   2.997   2.046 -0.3767 -0.0709  0.4913
 4535SOL     OW25237   2.432   0.011  12.427 -0.3634  0.0382 -0.7949
 4535SOL    HW125238   2.463   4.680  12.365 -0.4359 -1.1747  0.4391
 4535SOL    HW225239   2.372   4.693  12.480  0.5637  0.6717  0.9089
 4536SOL     OW25240   0.339   2.328   5.439  0.7273  0.6207  0.1136
 4536SOL    HW125241   0.267   2.287   5.487  2.5841 -2.9366 -0.1367
 4536SOL    HW225242   0.392   2.249   5.425 -0.3155 -0.3781  1.8149
 4537SOL     OW25243   3.522   2.166   6.317  0.3134  0.0617  0.0082
 4537SOL    HW125244   3.608   2.137   6.345  0.9852 -0.4917 -2.6954
 4537SOL    HW225245   3.478   2.163   6.402  0.6094  2.1619  0.2311
 4538SOL     OW25246   0.050   4.262   3.911  0.1766 -0.1124 -0.5450
 4538SOL    HW125247   4.716   4.325   3.935  0.0754 -0.9022  1.2688
 4538SOL    HW225248   0.099   4.306   3.841 -0.3848 -1.6955 -1.9439
 4539SOL     OW25249   4.268   1.361   5.498 -0.1480  0.6832  0.1165
 4539SOL    HW125250   4.212   1.435   5.476 -0.2891  0.7914  0.8150
 4539SOL    HW225251   4.222   1.318   5.571 -1.3004 -0.2973 -1.1959
 4540SOL     OW25252   2.423   4.199   3.659 -0.2916  0.0427 -0.3056
 4540SOL    HW125253   2.373   4.174   3.737 -0.4335  2.7536  0.4582
 4540SOL    HW225254   2.501   4.227   3.706 -0.9823  0.1268  0.8121
 4541SOL     OW25255   1.783   3.457   6.984 -0.0421 -0.1879  0.0998
 4541SOL    HW125256   1.717   3.518   7.014 -0.3051 -0.5831  0.3192
 4541SOL    HW225257   1.855   3.474   7.045 -0.2840 -2.4844  1.0446
 4542SOL     OW25258   0.126   2.632   1.784 -0.2540 -0.1560  0.4727
 4542SOL    HW125259   0.126   2.662   1.693 -0.6111 -1.6232 -0.0055
 4542SOL    HW225260   0.204   2.680   1.813 -1.0330  2.7213 -2.2546
 4543SOL     OW25261   0.930   0.304   6.856 -0.0123  0.0726  0.1000
 4543SOL    HW125262   0.907   0.356   6.933 -0.4178 -2.2803  1.5687
 4543SOL    HW225263   0.937   0.213   6.884  2.6341 -0.3526 -1.9452
 4544SOL     OW25264   1.815   3.854  12.569 -0.0100  0.1508  0.1550
 4544SOL    HW125265   1.840   3.912  12.641  0.4321 -1.3066  1.1773
 4544SOL    HW225266   1.740   3.908  12.545 -0.1072  0.0746  0.2886
 4545SOL     OW25267   1.327   2.298   7.552  1.1404 -0.0901  0.6441
 4545SOL    HW125268   1.350   2.372   7.496  1.0331  0.6128  1.5100
 4545SOL    HW225269   1.391   2.295   7.623 -0.6752  1.2878  2.3621
 4546SOL     OW25270   3.250   2.393   0.619  0.1160  0.4221 -0.7263
 4546SOL    HW125271   3.184   2.462   0.619  0.7269  1.0084 -0.5953
 4546SOL    HW225272   3.326   2.439   0.656  0.6935 -2.4960  1.7408
 4547SOL     OW25273   1.591   1.165   6.304  0.3081 -0.1529  0.0748
 4547SOL    HW125274   1.632   1.182   6.219  0.8719  0.2840  0.4433
 4547SOL    HW225275   1.607   1.246   6.352  1.3319 -0.3410  0.0323
 4548SOL     OW25276   1.767   3.602   4.720  0.7877  0.7004 -0.0743
 4548SOL    HW125277   1.858   3.628   4.730  0.7815 -0.3514  2.5596
 4548SOL    HW225278   1.773   3.518   4.766 -0.2609  0.4954 -0.3141
 4549SOL     OW25279   1.798   0.847  13.090 -0.1217 -0.5563  0.8666
 4549SOL    HW125280   1.887   0.817  13.112  0.6822  1.6482  0.6398
 4549SOL    HW225281   1.813   0.884  13.003 -1.8343  0.1042  0.8570
 4550SOL     OW25282   0.135   2.861   9.428 -0.1495 -0.0421 -0.3982
 4550SOL    HW125283   0.050   2.900   9.406 -0.0657  0.1301 -0.4149
 4550SOL    HW225284   0.119   2.848   9.522  1.0131 -0.9431 -0.3269
 4551SOL     OW25285   3.261   4.141  16.922  0.8634  0.3053  0.0812
 4551SOL    HW125286   3.207   4.109  16.994 -2.8231  2.7648 -1.5660
 4551SOL    HW225287   3.345   4.099  16.941  2.0413  2.3451 -0.5213
 4552SOL     OW25288   4.383   3.297   8.847  0.3508  0.0245 -0.2607
 4552SOL    HW125289   4.290   3.311   8.862  0.5169  1.0707 -0.2265
 4552SOL    HW225290   4.423   3.348   8.918 -0.1143 -0.2816  0.2175
 4553SOL     OW25291   0.942   4.652   6.548 -0.1890  0.6099 -0.0186
 4553SOL    HW125292   0.886   4.707   6.602 -1.6975 -0.7538 -0.1953
 4553SOL    HW225293   0.878   4.581   6.545  0.7472 -0.3547  2.0625
 4554SOL     OW25294   1.688   2.096   2.178 -0.2881  0.3519  0.5205
 4554SOL    HW125295   1.697   2.122   2.086  0.0599  0.9276  0.7180
 4554SOL    HW225296   1.742   2.017   2.178 -0.9351 -0.0896 -1.1749
 4555SOL     OW25297   2.308   1.223  13.020  0.1332 -0.0716 -0.7511
 4555SOL    HW125298   2.364   1.296  13.046 -0.6021 -0.1345  0.9700
 4555SOL    HW225299   2.241   1.229  13.087 -0.1780  0.7974 -1.1462
 4556SOL     OW25300   4.508   4.152   4.527  0.4559 -0.2453  0.2207
 4556SOL    HW125301   4.556   4.140   4.445  1.5824  1.4035  0.6427
 4556SOL    HW225302   4.533   4.068   4.567 -2.8430 -0.4142  1.9720
 4557SOL     OW25303   1.540   2.847   9.194  0.4863  0.4036  0.0693
 4557SOL    HW125304   1.553   2.935   9.161 -1.1175  0.5509 -0.1673
 4557SOL    HW225305   1.457   2.857   9.241 -0.3182 -0.9732 -1.0464
 4558SOL     OW25306   3.791   0.743   6.270  0.6297  0.1071  0.5674
 4558SOL    HW125307   3.795   0.836   6.292  1.2131 -0.3087  2.1858
 4558SOL    HW225308   3.696   0.728   6.261  0.2923  2.3415  0.4770
 4559SOL     OW25309   2.572   1.976   5.385 -0.2390  0.0910  0.1547
 4559SOL    HW125310   2.633   1.975   5.312  0.4826 -2.9712  0.7872
 4559SOL    HW225311   2.620   1.927   5.452 -1.0866  0.3968  0.9839
 4560SOL     OW25312   2.087   1.602   7.276 -0.2224  0.6173 -0.3692
 4560SOL    HW125313   2.172   1.610   7.319  0.0641 -0.0713 -0.8168
 4560SOL    HW225314   2.041   1.535   7.327  2.6751 -0.7408  0.4362
 4561SOL     OW25315   3.999   0.835   3.583  0.4233  0.3167  0.1099
 4561SOL    HW125316   4.016   0.855   3.491  0.3555  0.2769  0.0887
 4561SOL    HW225317   3.969   0.920   3.616 -0.3171 -0.3059  1.0111
 4562SOL     OW25318   2.722   2.440  16.625  0.2923 -0.2009  0.1740
 4562SOL    HW125319   2.704   2.359  16.674 -1.5623 -1.1656 -2.1089
 4562SOL    HW225320   2.717   2.417  16.532  2.9971 -0.3750  0.0641
 4563SOL     OW25321   4.627   3.098   2.988 -0.1120  0.0639  0.1078
 4563SOL    HW125322   4.687   3.141   2.927 -1.0167  0.0478 -0.7917
 4563SOL    HW225323   4.553   3.095   2.927  0.5054 -2.2597 -0.5335
 4564SOL     OW25324   3.439   2.855   8.110  0.4251 -0.0732 -0.0753
 4564SOL    HW125325   3.497   2.853   8.186  1.9745 -0.5925 -1.2699
 4564SOL    HW225326   3.369   2.813   8.159 -0.7421 -0.4635 -2.0554
 4565SOL     OW25327   1.069   2.162  12.691 -0.0602 -0.0860 -0.0599
 4565SOL    HW125328   1.122   2.233  12.726  0.6912 -0.0559 -1.2175
 4565SOL    HW225329   1.125   2.084  12.696 -1.2598 -1.0920 -2.0229
 4566SOL     OW25330   4.663   1.580   3.769 -0.2745 -0.3080  0.4315
 4566SOL    HW125331   4.603   1.651   3.747  0.2025  0.3745  1.3381
 4566SOL    HW225332   4.599   1.517   3.801 -1.3539  0.9366  0.6912
 4567SOL     OW25333   2.577   0.735   4.812 -0.2449 -0.0155 -0.2603
 4567SOL    HW125334   2.496   0.684   4.801 -0.2776 -0.0483  0.1473
 4567SOL    HW225335   2.644   0.680   4.772 -1.3594 -0.2918 -1.7490
 4568SOL     OW25336   1.002   4.651   4.236 -0.0981  0.1358 -0.1721
 4568SOL    HW125337   1.043   4.591   4.298 -1.3263 -0.9359 -0.4078
 4568SOL    HW225338   1.007   0.001   4.280  0.7970  0.6774 -1.2980
 4569SOL     OW25339   1.367   0.284   8.665 -0.3275  0.8690 -0.3467
 4569SOL    HW125340   1.308   0.309   8.594  2.3713 -0.7859 -3.1702
 4569SOL    HW225341   1.451   0.311   8.627 -0.1604  4.2453  2.4378
 4570SOL     OW25342   1.583   2.580  11.243  0.0412 -0.0316 -0.1016
 4570SOL    HW125343   1.582   2.674  11.262  1.0158  0.8113 -4.1992
 4570SOL    HW225344   1.538   2.550  11.322 -2.3622  2.9890 -0.3243
 4571SOL     OW25345   3.202   1.171   7.215 -0.7164  0.5391  0.2743
 4571SOL    HW125346   3.207   1.081   7.247 -1.7649 -0.3688 -2.1100
 4571SOL    HW225347   3.280   1.171   7.160 -2.5370 -0.1810 -2.3032
 4572SOL     OW25348   3.415   0.185  11.740  0.2866 -0.5195 -0.0992
 4572SOL    HW125349   3.404   0.098  11.778  1.9339  0.2086  1.9859
 4572SOL    HW225350   3.426   0.234  11.821  0.4837 -0.5433 -0.1109
 4573SOL     OW25351   2.471   4.655   8.799  0.3969 -0.0017  0.3541
 4573SOL    HW125352   2.408   4.609   8.744  1.4313 -0.6070 -0.3058
 4573SOL    HW225353   2.441   4.629   8.886 -1.5247  2.3428  0.4055
 4574SOL     OW25354   4.518   0.758   7.828  0.1545  0.2290  0.2452
 4574SOL    HW125355   4.525   0.684   7.767 -1.0423  0.8762 -0.6854
 4574SOL    HW225356   4.518   0.833   7.769  1.9858  0.3957  0.4587
 4575SOL     OW25357   0.543   3.979   2.038  0.2645 -0.7165  0.2559
 4575SOL    HW125358   0.497   4.048   1.990  1.3686  0.3836  0.7699
 4575SOL    HW225359   0.638   3.995   2.030  0.4363 -0.9716  1.7992
 4576SOL     OW25360   4.351   2.165   0.758  0.4098 -0.0308 -0.3411
 4576SOL    HW125361   4.405   2.121   0.823 -0.9918 -2.7513 -1.0487
 4576SOL    HW225362   4.341   2.258   0.780  0.9282 -0.4836  1.7999
 4577SOL     OW25363   2.816   3.640   3.954 -0.0143 -0.1634 -0.6102
 4577SOL    HW125364   2.771   3.604   4.030  4.1038 -1.9230  0.9948
 4577SOL    HW225365   2.756   3.708   3.923 -0.8526 -0.8982 -0.5689
 4578SOL     OW25366   3.997   1.135   3.441 -0.2793  0.5352 -0.0475
 4578SOL    HW125367   4.069   1.097   3.492  0.6738 -0.1363 -1.8974
 4578SOL    HW225368   3.961   1.054   3.405 -2.2100  0.6767  1.5373
 4579SOL     OW25369   1.315   1.651   6.064  0.5829  0.1128  0.6632
 4579SOL    HW125370   1.291   1.584   6.000  1.0021  2.5476 -2.0414
 4579SOL    HW225371   1.295   1.730   6.013  0.3554  1.6915  3.1702
 4580SOL     OW25372   1.897   3.082  16.644  0.2294 -0.0708  0.0454
 4580SOL    HW125373   1.945   3.012  16.689  1.8405  0.2861 -1.1169
 4580SOL    HW225374   1.945   3.158  16.676 -0.2085  0.1646  0.1480
 4581SOL     OW25375   0.947   1.732   6.970  0.0987  0.6932  0.1544
 4581SOL    HW125376   0.937   1.716   7.064  1.8844  1.2613  0.4250
 4581SOL    HW225377   1.009   1.662   6.952  0.2469  0.9127 -0.1760
 4582SOL     OW25378   2.538   1.099   7.197 -0.2889  0.2462  0.4934
 4582SOL    HW125379   2.500   1.033   7.139  4.1310 -2.1104  0.3605
 4582SOL    HW225380   2.460   1.136   7.239 -0.3580  0.0524  0.5352
 4583SOL     OW25381   2.587   1.158   4.635 -0.2356 -0.3114 -1.0066
 4583SOL    HW125382   2.589   1.226   4.568 -0.2663  1.9104  1.2756
 4583SOL    HW225383   2.548   1.088   4.582 -0.9138 -0.2416 -0.5935
 4584SOL     OW25384   1.867   1.264   7.023 -0.3134 -0.2903 -0.5288
 4584SOL    HW125385   1.951   1.311   7.018  1.0455 -2.8098 -1.0250
 4584SOL    HW225386   1.850   1.255   6.929 -0.9252  1.3577 -0.5832
 4585SOL     OW25387   0.245   0.001   1.528 -0.1461  0.2777 -0.5211
 4585SOL    HW125388   0.303   0.065   1.569  1.6248 -2.1407  0.7599
 4585SOL    HW225389   0.208   0.045   1.452  2.8009  1.8206 -1.0665
 4586SOL     OW25390   2.965   0.421   5.829  0.0979  0.0328  0.4590
 4586SOL    HW125391   2.947   0.397   5.738  1.3852 -1.4799  0.6114
 4586SOL    HW225392   2.909   0.498   5.839  1.5448  1.3353 -1.2971
 4587SOL     OW25393   3.522   4.286   5.116  0.3919 -0.5788  0.4389
 4587SOL    HW125394   3.589   4.246   5.171 -1.4292 -1.8116  1.7357
 4587SOL    HW225395   3.465   4.214   5.090  0.1474  0.2948 -1.4742
 4588SOL     OW25396   1.248   3.993  13.693 -0.1108 -0.0649  0.0162
 4588SOL    HW125397   1.294   3.960  13.770  0.9929  1.1603 -0.1153
 4588SOL    HW225398   1.164   4.002  13.739  0.4119  0.2678  0.8962
 4589SOL     OW25399   0.082   0.335   2.241 -0.6353  0.0799  0.0638
 4589SOL    HW125400   0.114   0.378   2.320  0.2670  1.1475 -0.8917
 4589SOL    HW225401   0.146   0.269   2.212  0.4934  1.1415  0.1490
 4590SOL     OW25402   2.853   1.934  15.783  0.4458  0.1485 -0.3229
 4590SOL    HW125403   2.849   1.874  15.858  3.2081  2.9552  2.0838
 4590SOL    HW225404   2.852   2.013  15.836 -0.4515  0.1576 -0.3480
 4591SOL     OW25405   0.960   3.148   5.861 -0.3843  0.1808 -0.0262
 4591SOL    HW125406   0.881   3.096   5.854  0.3895 -1.1253  0.7997
 4591SOL    HW225407   0.946   3.214   5.794  0.1125 -0.3130 -0.6201
 4592SOL     OW25408   1.419   2.098   2.311  0.8040 -0.1666 -0.3620
 4592SOL    HW125409   1.367   2.097   2.231 -0.6638  2.0634  0.5559
 4592SOL    HW225410   1.503   2.113   2.268  0.3424  3.4443  0.0130
 4593SOL     OW25411   0.572   4.376   4.654 -0.0284  0.2652  0.6828
 4593SOL    HW125412   0.587   4.317   4.728  1.9358 -0.2950 -0.1643
 4593SOL    HW225413   0.477   4.380   4.658 -0.0651  1.0291 -1.3242
 4594SOL     OW25414   3.180   4.319  10.760  0.0464  0.1965 -1.1465
 4594SOL    HW125415   3.202   4.356  10.674  1.9330 -0.5881 -1.0136
 4594SOL    HW225416   3.113   4.258  10.732  0.7277 -1.4821  0.8728
 4595SOL     OW25417   0.264   0.535   8.724 -0.1728  0.3968 -0.2176
 4595SOL    HW125418   0.331   0.589   8.681  0.0356  1.0708  0.9554
 4595SOL    HW225419   0.295   0.551   8.813 -0.7075 -0.7160  0.1699
 4596SOL     OW25420   1.956   1.027   5.393  0.5563  0.5096  0.5905
 4596SOL    HW125421   2.048   1.037   5.370  0.6857 -2.0786 -0.0553
 4596SOL    HW225422   1.909   1.073   5.323 -1.1351 -0.6794  0.9417
 4597SOL     OW25423   0.272   0.336   8.501  0.4927 -0.5739  0.3470
 4597SOL    HW125424   0.233   0.264   8.550 -1.2496 -0.0414 -0.2613
 4597SOL    HW225425   0.255   0.405   8.564  1.4690  1.0345 -1.1460
 4598SOL     OW25426   1.038   3.939   2.939 -0.5772  0.1186  0.4644
 4598SOL    HW125427   1.024   3.975   2.852  1.5590 -0.0514  0.0600
 4598SOL    HW225428   1.029   4.016   2.995 -0.3609  0.3961  0.1167
 4599SOL     OW25429   4.610   4.549   3.155 -0.2566 -0.2593 -0.2203
 4599SOL    HW125430   4.676   4.619   3.156  0.2901 -0.8157  1.5440
 4599SOL    HW225431   4.584   4.551   3.247 -0.9946  0.0885 -0.4369
 4600SOL     OW25432   3.844   4.055  16.111 -0.1099  0.4591 -0.1870
 4600SOL    HW125433   3.849   3.963  16.141 -1.1142  0.7713  0.9453
 4600SOL    HW225434   3.864   4.101  16.192 -0.0117 -0.2288  0.1874
 4601SOL     OW25435   0.030   2.566   7.413  0.0076  0.4561  0.3677
 4601SOL    HW125436   0.004   2.475   7.398  1.1034  0.2061 -0.0290
 4601SOL    HW225437   0.119   2.570   7.380 -0.2185  1.9038 -0.0582
 4602SOL     OW25438   1.309   4.318   6.413  0.6009  0.0439 -0.1795
 4602SOL    HW125439   1.225   4.353   6.443  0.0232  0.2586 -2.0121
 4602SOL    HW225440   1.291   4.228   6.385  2.4616 -0.1731 -0.6853
 4603SOL     OW25441   4.488   1.993   6.359 -0.2278 -0.6771  0.0931
 4603SOL    HW125442   4.569   1.966   6.318 -0.1583  0.0033 -0.2102
 4603SOL    HW225443   4.436   1.999   6.279 -1.9471 -1.7333  1.1239
 4604SOL     OW25444   1.245   2.970   6.523 -0.3424 -0.0086 -0.3869
 4604SOL    HW125445   1.328   3.013   6.543 -1.3084  1.4812  0.4506
 4604SOL    HW225446   1.207   2.978   6.610  0.2864  0.3520 -0.1519
 4605SOL     OW25447   0.371   3.805   1.633  0.3552  0.3659 -0.2606
 4605SOL    HW125448   0.282   3.772   1.644  0.2583  0.6402 -0.2258
 4605SOL    HW225449   0.395   3.834   1.720  1.7955 -3.2294  0.5647
 4606SOL     OW25450   4.359   0.704   8.780  0.5119 -0.7985  0.6653
 4606SOL    HW125451   4.333   0.785   8.824 -1.5081 -0.1093 -1.7730
 4606SOL    HW225452   4.369   0.642   8.852  0.1666  0.0957  1.4841
 4607SOL     OW25453   4.655   1.526   1.605  0.3317  0.6572  0.8903
 4607SOL    HW125454   4.560   1.525   1.589  0.2413  0.4889  1.4231
 4607SOL    HW225455   4.650   1.621   1.591  2.8965  0.8525  1.3243
 4608SOL     OW25456   1.131   0.799   9.130  0.0857  0.4093 -0.0218
 4608SOL    HW125457   1.212   0.849   9.117  1.2832 -1.9091 -1.3759
 4608SOL    HW225458   1.072   0.855   9.079  0.5446  2.2919  1.5118
 4609SOL     OW25459   1.402   2.319   3.135  0.2395 -0.2558 -0.0611
 4609SOL    HW125460   1.462   2.256   3.096 -2.3004 -0.0175 -4.3566
 4609SOL    HW225461   1.374   2.363   3.055 -2.1659 -0.5888  0.5879
 4610SOL     OW25462   0.648   2.053   9.074  0.4179 -0.5941 -0.3976
 4610SOL    HW125463   0.593   2.110   9.129  0.5259  1.8259 -2.8082
 4610SOL    HW225464   0.585   2.001   9.024 -2.3141 -0.0137  2.4272
 4611SOL     OW25465   1.346   1.011   5.056  0.0102  0.3247  0.1273
 4611SOL    HW125466   1.311   1.049   5.137  0.0256 -0.2856  0.4235
 4611SOL    HW225467   1.278   1.022   4.990 -1.4937 -0.3786  1.5479
 4612SOL     OW25468   0.447   1.340   3.416  0.0209 -0.1739  0.1679
 4612SOL    HW125469   0.406   1.361   3.500 -1.3059  0.8783 -0.7312
 4612SOL    HW225470   0.372   1.351   3.357  0.2692  2.3719  0.3253
 4613SOL     OW25471   3.480   3.706  16.868 -1.1455 -0.8042 -0.0130
 4613SOL    HW125472   3.400   3.752  16.893 -1.0480 -1.3560  1.3405
 4613SOL    HW225473   3.541   3.778  16.850 -3.8380  0.9577 -1.9586
 4614SOL     OW25474   1.071   0.376   2.601  0.2679  0.2272 -0.3729
 4614SOL    HW125475   1.113   0.292   2.618  0.5210  0.5922  0.7793
 4614SOL    HW225476   1.134   0.439   2.637 -0.0022  0.3049 -0.0413
 4615SOL     OW25477   4.423   2.784   8.634  0.2678 -0.1117 -0.0054
 4615SOL    HW125478   4.445   2.820   8.548 -0.6141  1.3497  0.3771
 4615SOL    HW225479   4.382   2.858   8.677 -1.7888 -0.7241 -0.8888
 4616SOL     OW25480   1.085   1.925   4.773  0.3968 -0.8413 -0.0069
 4616SOL    HW125481   1.066   1.940   4.866 -1.0046  0.9106 -0.5675
 4616SOL    HW225482   1.010   1.967   4.731 -0.9093 -1.1993  1.9721
 4617SOL     OW25483   3.623   1.797  14.771  0.3432  0.0900 -0.1319
 4617SOL    HW125484   3.552   1.780  14.710 -0.1955 -0.0359  0.5218
 4617SOL    HW225485   3.608   1.728  14.836 -0.6538  1.6701  1.3254
 4618SOL     OW25486   2.048   1.345   6.150 -0.4149 -0.6075  0.5872
 4618SOL    HW125487   2.054   1.279   6.219 -1.6360 -0.3125  0.9668
 4618SOL    HW225488   2.072   1.284   6.080 -0.4434  0.2908 -0.2135
 4619SOL     OW25489   0.657   2.358   2.805  0.7118 -0.4337 -0.4369
 4619SOL    HW125490   0.741   2.314   2.791  2.8509  3.0738  1.2586
 4619SOL    HW225491   0.660   2.389   2.896  2.4107 -1.9587  0.0307
 4620SOL     OW25492   1.958   4.461   7.383  0.3956  0.5398  0.0756
 4620SOL    HW125493   1.953   4.556   7.399 -2.7646  0.2817  0.6601
 4620SOL    HW225494   1.954   4.464   7.287  0.6786 -0.9387  0.0278
 4621SOL     OW25495   1.673   0.230   7.090  0.0578 -0.3070  0.3587
 4621SOL    HW125496   1.740   0.238   7.022 -0.3768  0.3078 -0.0011
 4621SOL    HW225497   1.695   0.313   7.131 -3.8005  0.9373 -0.0903
 4622SOL     OW25498   2.424   0.694   8.572 -0.1638  0.1847 -0.1138
 4622SOL    HW125499   2.434   0.629   8.642 -1.8901  0.3669  0.3018
 4622SOL    HW225500   2.498   0.673   8.516  0.6241 -1.8320  1.6787
 4623SOL     OW25501   4.460   3.513   2.171 -0.0246  0.8348 -0.6497
 4623SOL    HW125502   4.480   3.428   2.131 -3.0998 -0.2728  0.1514
 4623SOL    HW225503   4.544   3.550   2.200 -0.9120 -0.1662  3.1894
 4624SOL     OW25504   2.283   4.703  14.624 -0.1252  0.0799  0.6256
 4624SOL    HW125505   2.291   4.731  14.533 -1.6308  0.0963  0.4908
 4624SOL    HW225506   2.281   0.042  14.684  0.4894  0.4846  0.1469
 4625SOL     OW25507   4.308   0.514   6.561  0.4485  0.3478  0.2797
 4625SOL    HW125508   4.274   0.480   6.478 -3.2414  1.0155  1.5090
 4625SOL    HW225509   4.335   0.427   6.591 -0.3640 -0.6578 -1.8935
 4626SOL     OW25510   2.362   0.322  11.985 -0.5745  0.2546  0.0636
 4626SOL    HW125511   2.453   0.342  12.005 -0.1559 -2.4682  0.7573
 4626SOL    HW225512   2.374   0.293  11.895  0.3581  0.3937  0.1494
 4627SOL     OW25513   2.571   3.856   2.505  0.0327  0.9136  0.4609
 4627SOL    HW125514   2.638   3.816   2.450 -0.7066  1.4131 -0.8137
 4627SOL    HW225515   2.629   3.877   2.579 -2.1478  0.6778  2.2487
 4628SOL     OW25516   3.278   2.996   2.739 -0.2370  0.2419 -0.1580
 4628SOL    HW125517   3.267   3.048   2.660 -1.6949  1.5619  0.9130
 4628SOL    HW225518   3.189   2.989   2.772  0.1511 -0.2307  0.7793
 4629SOL     OW25519   2.772   4.591  11.703 -0.0569 -0.8320  0.1658
 4629SOL    HW125520   2.716   4.623  11.774  0.0754 -0.2165 -0.0058
 4629SOL    HW225521   2.857   4.632  11.715  0.0970 -0.1595 -3.0807
 4630SOL     OW25522   3.407   3.325  11.417  0.0282  0.4909 -0.0585
 4630SOL    HW125523   3.322   3.367  11.423  0.8047  2.0456 -0.1293
 4630SOL    HW225524   3.469   3.392  11.444 -0.2390 -0.3630  2.5987
 4631SOL     OW25525   2.360   0.240   2.717 -0.1833  0.1048 -0.4858
 4631SOL    HW125526   2.289   0.301   2.734 -0.7901 -0.7837  0.2041
 4631SOL    HW225527   2.312   0.159   2.738 -1.3998  0.5221 -1.6645
 4632SOL     OW25528   3.630   0.366   6.766  0.1367  0.2210 -0.3402
 4632SOL    HW125529   3.589   0.355   6.680  1.4496  2.7065 -1.2975
 4632SOL    HW225530   3.682   0.445   6.748  0.7080  0.3099  1.7415
 4633SOL     OW25531   3.775   2.860   0.700  0.1035 -0.2226  0.1447
 4633SOL    HW125532   3.803   2.802   0.630 -1.2184  0.1761 -0.7279
 4633SOL    HW225533   3.682   2.867   0.677  0.6979  2.3140 -1.5476
 4634SOL     OW25534   2.338   1.714   5.280  0.3269  0.5231  0.1554
 4634SOL    HW125535   2.252   1.722   5.240 -0.3799  0.1197  1.5973
 4634SOL    HW225536   2.372   1.797   5.245  1.5584  0.5062  1.2943
 4635SOL     OW25537   1.774   0.275  13.257 -0.3248  0.1525 -0.3606
 4635SOL    HW125538   1.691   0.299  13.299 -0.5764 -1.2098 -0.0855
 4635SOL    HW225539   1.805   0.235  13.338 -1.1379  1.1327  0.4443
 4636SOL     OW25540   2.562   4.128   3.114  0.6853  0.1690  0.4637
 4636SOL    HW125541   2.481   4.166   3.147  1.7313  2.3407  0.5415
 4636SOL    HW225542   2.565   4.036   3.139  1.4878  0.4671  1.4483
 4637SOL     OW25543   2.217   0.291   0.044  0.0716  0.8178  0.4056
 4637SOL    HW125544   2.160   0.279   0.120 -1.0306  1.5524 -0.2920
 4637SOL    HW225545   2.241   0.382   0.057 -1.3564  1.4349 -1.1929
 4638SOL     OW25546   1.247   0.348   3.756  0.1487 -0.1457  0.4748
 4638SOL    HW125547   1.202   0.414   3.703  1.3753  0.2999 -0.0099
 4638SOL    HW225548   1.222   0.368   3.846 -1.6035  0.4627 -0.1540
 4639SOL     OW25549   4.610   3.626   1.943  0.0642  0.0875 -0.2380
 4639SOL    HW125550   4.589   3.716   1.967 -2.1755 -0.3775 -0.3891
 4639SOL    HW225551   4.530   3.614   1.890  1.3859  0.9980 -2.4515
 4640SOL     OW25552   3.369   1.613   7.850 -0.2495  0.4272 -0.2752
 4640SOL    HW125553   3.320   1.694   7.832  1.0596  1.2188 -0.2818
 4640SOL    HW225554   3.347   1.560   7.773 -0.7000 -0.7284  0.6587
 4641SOL     OW25555   1.290   2.615   8.350 -0.1603 -0.0613  0.3986
 4641SOL    HW125556   1.341   2.664   8.286 -0.2518 -0.5158 -0.0194
 4641SOL    HW225557   1.243   2.687   8.392  0.5577  0.4639  0.3032
 4642SOL     OW25558   1.028   2.450   5.897 -0.3102  0.1456 -0.6891
 4642SOL    HW125559   1.091   2.465   5.968  0.1186  0.3578 -1.1141
 4642SOL    HW225560   1.078   2.391   5.841 -0.6346  1.1059 -1.9692
 4643SOL     OW25561   4.108   3.294   6.247  0.1969  0.5843  0.2463
 4643SOL    HW125562   4.116   3.243   6.328 -1.5461  1.0414  0.7007
 4643SOL    HW225563   4.019   3.274   6.219  1.2580 -1.7580 -1.4435
 4644SOL     OW25564   4.517   2.393   3.952 -0.0648  0.2917  0.3953
 4644SOL    HW125565   4.535   2.471   3.899 -1.9013  1.1067  0.9687
 4644SOL    HW225566   4.603   2.367   3.986  0.0326 -0.5692 -0.5041
 4645SOL     OW25567   1.104   3.688   6.475 -0.2053 -0.1179 -0.6690
 4645SOL    HW125568   1.088   3.657   6.386  1.8767 -0.5315 -0.9086
 4645SOL    HW225569   1.030   3.651   6.524 -0.6247  2.0210  0.2792
 4646SOL     OW25570   3.455   0.620  16.001 -1.1922  0.0321  0.1035
 4646SOL    HW125571   3.444   0.713  16.022  0.1693  0.1433  0.3158
 4646SOL    HW225572   3.544   0.608  15.967 -1.3476  2.8154 -1.3172
 4647SOL     OW25573   3.257   0.556  15.840  0.0266  0.4482 -0.3182
 4647SOL    HW125574   3.202   0.619  15.887  0.4737  0.4942  0.1446
 4647SOL    HW225575   3.344   0.567  15.878 -1.1855  4.0797  1.4189
 4648SOL     OW25576   4.652   3.798   6.146  0.0076 -0.2644 -0.2117
 4648SOL    HW125577   4.704   3.722   6.119  3.8891  0.9411  3.7351
 4648SOL    HW225578   4.654   3.786   6.241 -1.6886  0.7404 -0.0560
 4649SOL     OW25579   1.502   1.111   7.633  0.0800  0.0545 -0.3354
 4649SOL    HW125580   1.411   1.107   7.606  0.1334 -0.8601 -0.3824
 4649SOL    HW225581   1.499   1.194   7.680  2.7316 -1.6353  2.8731
 4650SOL     OW25582   0.085   0.385   4.827 -0.1076 -0.1976 -0.1755
 4650SOL    HW125583   0.158   0.409   4.770 -0.4382 -0.6015 -0.7706
 4650SOL    HW225584   0.098   0.441   4.904 -1.4127 -0.9348  0.5843
 4651SOL     OW25585   0.151   0.560   7.706  0.4516  0.1773 -0.4272
 4651SOL    HW125586   0.185   0.631   7.652 -0.7325  0.8853 -0.2362
 4651SOL    HW225587   0.164   0.598   7.793  2.6392  0.3533 -0.8271
 4652SOL     OW25588   2.554   1.410   7.074  0.2768  0.3136  0.2231
 4652SOL    HW125589   2.605   1.420   6.993 -1.1867  3.6261 -0.2806
 4652SOL    HW225590   2.535   1.502   7.091 -1.6380 -0.3192  1.4542
 4653SOL     OW25591   1.228   0.826  10.516 -0.1255 -0.0866  0.8239
 4653SOL    HW125592   1.259   0.749  10.469  0.2234  1.4348 -1.4109
 4653SOL    HW225593   1.179   0.780  10.585  1.3858 -1.1804  1.1701
 4654SOL     OW25594   3.729   1.092   4.711  0.0541 -0.0163 -0.0833
 4654SOL    HW125595   3.668   1.056   4.775  1.3584 -0.4243  0.9332
 4654SOL    HW225596   3.703   1.052   4.628  0.4296 -0.1950 -0.1174
 4655SOL     OW25597   3.297   0.760   1.754 -0.0470 -0.2531 -0.2556
 4655SOL    HW125598   3.237   0.834   1.744  1.4157  0.9269 -0.3729
 4655SOL    HW225599   3.348   0.773   1.674  0.4124  1.6858  0.3613
 4656SOL     OW25600   2.072   0.849   4.646  0.1023 -0.2536  0.0518
 4656SOL    HW125601   2.064   0.755   4.631  0.4072 -0.3148  0.3011
 4656SOL    HW225602   2.045   0.848   4.738 -2.7217 -0.3760 -0.7609
 4657SOL     OW25603   3.725   3.156   1.704 -0.0896 -1.0560 -0.8457
 4657SOL    HW125604   3.819   3.156   1.723 -0.2911  0.6487  0.1953
 4657SOL    HW225605   3.728   3.074   1.655 -3.3035 -1.7716  0.1800
 4658SOL     OW25606   1.992   1.462   4.679  0.1527 -0.3506  0.3446
 4658SOL    HW125607   2.062   1.461   4.614 -0.7410  3.9536 -0.7231
 4658SOL    HW225608   1.988   1.374   4.715 -0.7110 -0.6742 -0.5306
 4659SOL     OW25609   0.103   4.686  17.121  0.9863 -0.2061 -0.2382
 4659SOL    HW125610   0.049   0.030  17.127  0.0210 -1.0297  1.8077
 4659SOL    HW225611   0.136   4.685  17.210  0.7944  3.9463 -0.1202
 4660SOL     OW25612   3.723   2.552   6.174 -0.0076 -0.7847  0.0404
 4660SOL    HW125613   3.644   2.600   6.149  0.8744  0.5991 -0.0828
 4660SOL    HW225614   3.717   2.560   6.270  0.8062 -0.4312  0.0633
 4661SOL     OW25615   2.339   3.984   5.313 -0.2267  0.1592  0.0511
 4661SOL    HW125616   2.402   3.932   5.362  1.4529  2.3098  0.1789
 4661SOL    HW225617   2.399   4.050   5.280 -0.7020 -0.2047 -1.5313
 4662SOL     OW25618   3.241   4.072  13.670 -0.0124 -0.5653 -0.0339
 4662SOL    HW125619   3.214   4.124  13.595  2.5426  2.0885  0.8926
 4662SOL    HW225620   3.164   4.024  13.701 -0.2902  1.2174  1.9836
 4663SOL     OW25621   1.530   0.763   8.509  0.0297 -0.2748  0.0429
 4663SOL    HW125622   1.483   0.833   8.463 -2.1090 -1.2058  0.8376
 4663SOL    HW225623   1.529   0.796   8.599  1.6254  0.9832 -0.3977
 4664SOL     OW25624   3.787   4.093   7.720 -0.1018  0.4950 -0.1183
 4664SOL    HW125625   3.756   4.046   7.643 -0.0760 -1.2191  0.9101
 4664SOL    HW225626   3.732   4.172   7.729  2.5018  2.1770  0.9144
 4665SOL     OW25627   2.302   0.916   6.226  0.3534  0.1759  0.3451
 4665SOL    HW125628   2.225   0.884   6.273  0.1495  1.6768  1.0477
 4665SOL    HW225629   2.368   0.933   6.293 -1.6878 -2.2318  2.9636
 4666SOL     OW25630   2.579   4.503  12.563  0.7969  0.4866  0.7356
 4666SOL    HW125631   2.599   4.590  12.529  0.1294 -0.2502 -1.5425
 4666SOL    HW225632   2.661   4.456  12.547  0.0675 -0.4765 -0.1861
 4667SOL     OW25633   3.725   2.974   3.622  0.0328 -0.4565  0.3408
 4667SOL    HW125634   3.784   2.924   3.565  1.1853  1.0264  0.1980
 4667SOL    HW225635   3.742   3.065   3.596  0.3965  0.0390  2.2977
 4668SOL     OW25636   3.707   0.102   3.990 -0.3067  0.3507 -0.0734
 4668SOL    HW125637   3.721   0.036   4.058  1.2399  1.9197  1.1174
 4668SOL    HW225638   3.663   0.171   4.039  0.8347  0.6288  0.5492
 4669SOL     OW25639   1.015   4.589   3.914 -0.8330 -0.0111 -0.0287
 4669SOL    HW125640   0.946   4.551   3.968 -0.9332 -1.2348 -0.9898
 4669SOL    HW225641   1.025   4.675   3.955  0.5478  0.0277 -0.4595
 4670SOL     OW25642   1.334   4.364  12.960 -0.3167 -0.6031  0.1573
 4670SOL    HW125643   1.257   4.381  13.015  0.1178  0.0189  0.5707
 4670SOL    HW225644   1.341   4.449  12.915 -1.4299 -1.6517 -1.9921
 4671SOL     OW25645   3.082   2.612  15.403 -0.3481 -0.1293 -0.2323
 4671SOL    HW125646   3.126   2.684  15.448  0.6502 -1.3921  0.8316
 4671SOL    HW225647   3.053   2.654  15.323 -2.3933  0.0014  0.5732
 4672SOL     OW25648   3.240   3.367   6.329  0.1555  0.1581  0.1760
 4672SOL    HW125649   3.203   3.410   6.252  1.2177 -0.3521 -0.6002
 4672SOL    HW225650   3.331   3.378   6.302  0.1146 -0.6407 -0.2624
 4673SOL     OW25651   0.661   2.553   8.569 -0.3282 -0.7213 -0.2055
 4673SOL    HW125652   0.575   2.595   8.572  0.2353  0.3777  0.7122
 4673SOL    HW225653   0.634   2.466   8.540 -0.6295 -0.4734 -0.6773
 4674SOL     OW25654   3.053   4.611   3.114 -0.1535 -0.1023  0.3363
 4674SOL    HW125655   3.099   4.582   3.036 -0.2396  0.7335 -0.0348
 4674SOL    HW225656   3.004   4.530   3.124  1.4593 -1.1863 -0.6490
 4675SOL     OW25657   3.993   1.620   7.881  0.2185 -0.2417 -0.0141
 4675SOL    HW125658   3.942   1.701   7.873  0.8362  0.1392 -0.0447
 4675SOL    HW225659   3.941   1.557   7.832  0.0607 -0.3631  0.3060
 4676SOL     OW25660   1.889   4.399   8.363  0.0608  0.2351 -0.5878
 4676SOL    HW125661   1.979   4.431   8.365 -0.5023  1.6959  1.9092
 4676SOL    HW225662   1.906   4.305   8.365 -0.5392  0.1647  1.0192
 4677SOL     OW25663   3.095   3.973   7.600  0.3760  0.5808 -0.3919
 4677SOL    HW125664   3.100   3.998   7.692  0.3701  0.1553 -0.2798
 4677SOL    HW225665   3.188   3.984   7.582  0.4817 -1.3520 -0.9788
 4678SOL     OW25666   2.115   1.952  16.493 -0.7222 -0.3678  0.1831
 4678SOL    HW125667   2.198   1.992  16.520 -0.2343 -1.3090  0.0912
 4678SOL    HW225668   2.108   1.982  16.403  0.0484 -2.8715 -0.7150
 4679SOL     OW25669   1.610   3.416   2.956  0.1951  0.5537  0.4671
 4679SOL    HW125670   1.536   3.368   2.917  0.2903 -0.1798  1.1699
 4679SOL    HW225671   1.566   3.483   3.008 -0.9650 -0.6222  0.9995
 4680SOL     OW25672   0.612   3.571  12.013  0.4299  0.0492 -0.0000
 4680SOL    HW125673   0.702   3.544  11.995  0.1881 -1.1346  0.5859
 4680SOL    HW225674   0.568   3.512  12.074  0.2799  0.0552 -0.1021
 4681SOL     OW25675   1.221   0.735   4.462  0.3634  0.0606 -0.3121
 4681SOL    HW125676   1.299   0.747   4.408 -0.0347 -1.6913 -1.2781
 4681SOL    HW225677   1.253   0.740   4.552 -1.0032  0.2394  0.1535
 4682SOL     OW25678   4.394   3.023   4.147 -0.1962  0.2310  0.2298
 4682SOL    HW125679   4.449   2.980   4.213  2.5352  2.5973 -0.5189
 4682SOL    HW225680   4.455   3.091   4.120 -0.3206  0.6647  1.0545
 4683SOL     OW25681   3.300   0.230  12.541 -0.1066  0.0993 -0.1556
 4683SOL    HW125682   3.319   0.166  12.472 -0.3596  0.5891 -0.6767
 4683SOL    HW225683   3.207   0.246  12.527 -0.5940 -1.6495  1.1659
 4684SOL     OW25684   2.453   3.794  11.091 -0.4342  0.1592 -0.0507
 4684SOL    HW125685   2.421   3.860  11.152  1.2005  0.2975  0.6630
 4684SOL    HW225686   2.406   3.715  11.119 -0.2647  0.6070  1.4884
 4685SOL     OW25687   3.742   4.321  16.895 -0.1959 -0.2088 -1.0963
 4685SOL    HW125688   3.741   4.403  16.844  2.3737  1.1712  1.0742
 4685SOL    HW225689   3.748   4.353  16.985 -2.8091 -0.0726 -0.9832
 4686SOL     OW25690   1.929   0.259   5.194 -0.1361 -0.2971  0.9611
 4686SOL    HW125691   1.912   0.165   5.199  0.2976 -0.4444 -0.2353
 4686SOL    HW225692   1.916   0.285   5.285 -2.9074  0.0151  0.4592
 4687SOL     OW25693   0.586   2.456   3.941  0.6392  0.2964 -0.7447
 4687SOL    HW125694   0.542   2.451   3.856  0.8477  1.7701 -0.9389
 4687SOL    HW225695   0.576   2.548   3.965  0.6040  0.3653 -1.0201
 4688SOL     OW25696   1.392   2.152   2.017 -0.2974  0.2253  0.5421
 4688SOL    HW125697   1.420   2.064   1.991 -1.0018  0.2563 -0.2881
 4688SOL    HW225698   1.304   2.145   2.052 -1.0751 -0.9749 -1.6470
 4689SOL     OW25699   0.669   4.203   1.084  0.3366  0.0716  0.2222
 4689SOL    HW125700   0.656   4.108   1.088 -2.1698  0.3502 -1.0680
 4689SOL    HW225701   0.706   4.221   0.998  1.3725 -0.6024  0.5256
 4690SOL     OW25702   0.250   4.694   2.117  0.0696  0.5785 -0.0195
 4690SOL    HW125703   0.295   0.004   2.188  2.9747 -1.1720 -0.7858
 4690SOL    HW225704   0.297   4.733   2.043 -0.1126  0.0617 -0.4097
 4691SOL     OW25705   1.122   3.345   8.588 -0.2391  0.0484  0.1198
 4691SOL    HW125706   1.116   3.252   8.564  1.5077 -0.4049  1.4011
 4691SOL    HW225707   1.047   3.361   8.646 -1.0152  2.0247 -1.4148
 4692SOL     OW25708   1.275   3.127   7.941 -0.4583 -0.4441  0.6386
 4692SOL    HW125709   1.220   3.188   7.988 -1.7554 -1.3151  0.2581
 4692SOL    HW225710   1.262   3.155   7.850  0.2206  1.9095  1.2839
 4693SOL     OW25711   0.198   3.690   3.837  0.0825 -0.3808 -0.0232
 4693SOL    HW125712   0.228   3.758   3.897 -0.5074 -0.8691  0.8191
 4693SOL    HW225713   0.127   3.658   3.892  0.7911  0.1050  1.1623
 4694SOL     OW25714   3.629   1.352   5.266  0.6211  0.5312 -0.6028
 4694SOL    HW125715   3.618   1.443   5.295  0.5724  0.4128 -0.2494
 4694SOL    HW225716   3.709   1.323   5.310  0.7049 -0.1695 -1.2135
 4695SOL     OW25717   4.293   2.802   3.181  0.3560 -0.3534  0.0650
 4695SOL    HW125718   4.285   2.769   3.091  0.0088 -0.8645  0.2833
 4695SOL    HW225719   4.345   2.731   3.218  1.2371  0.2763  0.0316
 4696SOL     OW25720   2.810   4.458   6.270 -0.1936 -0.0380 -0.0684
 4696SOL    HW125721   2.756   4.420   6.201  0.3702  0.9852 -1.0856
 4696SOL    HW225722   2.764   4.424   6.347  0.5443  0.5668  0.6418
 4697SOL     OW25723   0.393   3.245   7.089  0.5823 -0.4406  0.1421
 4697SOL    HW125724   0.345   3.321   7.056 -0.7659 -1.3930 -0.1157
 4697SOL    HW225725   0.406   3.203   7.004 -1.8211 -1.3625  0.2380
 4698SOL     OW25726   0.751   3.619   5.172  0.7734  0.1223 -0.2738
 4698SOL    HW125727   0.721   3.545   5.224 -0.8163  0.4831 -0.6850
 4698SOL    HW225728   0.729   3.597   5.081 -2.2685 -1.4197  0.8397
 4699SOL     OW25729   0.814   4.660   9.216 -0.3443 -0.3339  0.0830
 4699SOL    HW125730   0.744   4.699   9.164 -1.8989 -2.7064  0.3596
 4699SOL    HW225731   0.882   4.727   9.212 -1.2041  0.6914  2.5256
 4700SOL     OW25732   4.226   1.484   1.394  0.6603 -0.0224  0.3434
 4700SOL    HW125733   4.152   1.437   1.432  1.3524  0.1393  1.8659
 4700SOL    HW225734   4.254   1.417   1.331  1.8374 -0.9109  1.8180
 4701SOL     OW25735   2.484   3.832   2.954 -0.6169  0.4043 -0.2186
 4701SOL    HW125736   2.505   3.760   2.895 -0.1857  1.2695 -1.1143
 4701SOL    HW225737   2.390   3.847   2.943 -0.4233  1.1339 -0.8281
 4702SOL     OW25738   1.270   2.435   8.099 -0.5023  0.0030 -0.0979
 4702SOL    HW125739   1.289   2.519   8.058 -0.2563 -0.1209 -0.2383
 4702SOL    HW225740   1.200   2.449   8.163  0.9658  0.4078  1.4001
 4703SOL     OW25741   3.285   3.232   1.861 -0.1328 -0.2052  0.0086
 4703SOL    HW125742   3.266   3.227   1.768  2.8041  1.9242 -0.7123
 4703SOL    HW225743   3.380   3.235   1.855 -0.0310  0.4572  1.7907
 4704SOL     OW25744   4.030   1.776  14.020 -0.4399  0.2230  0.6292
 4704SOL    HW125745   4.104   1.719  14.000 -1.9699 -1.4817 -0.1506
 4704SOL    HW225746   4.059   1.816  14.102  0.2831  0.0312  0.4692
 4705SOL     OW25747   1.365   2.334  14.680 -0.0164  0.2348  0.2905
 4705SOL    HW125748   1.295   2.273  14.658  0.0072  0.8336 -1.3777
 4705SOL    HW225749   1.429   2.295  14.621  0.2345 -0.1228  0.7912
 4706SOL     OW25750   1.539   0.626  16.619  0.4660  0.3737  0.3987
 4706SOL    HW125751   1.495   0.576  16.688 -2.5273 -2.5444 -3.5977
 4706SOL    HW225752   1.545   0.558  16.552  0.0204  1.6529 -0.9432
 4707SOL     OW25753   2.436   3.232  13.024  0.6430  0.4618 -0.4836
 4707SOL    HW125754   2.531   3.239  13.035  0.8532 -1.4858 -1.0601
 4707SOL    HW225755   2.442   3.154  12.968 -1.3576  0.7756 -1.1402
 4708SOL     OW25756   3.551   3.286   1.881 -0.1929 -0.2977 -0.5461
 4708SOL    HW125757   3.594   3.371   1.876  1.1349 -0.9890 -1.1178
 4708SOL    HW225758   3.594   3.234   1.812  1.1723  0.3448 -0.1810
 4709SOL     OW25759   4.635   2.050   5.647 -0.6898 -0.1506 -0.1873
 4709SOL    HW125760   4.549   2.024   5.680  0.1693 -2.3853  0.2961
 4709SOL    HW225761   4.617   2.134   5.604  3.6206  0.9103  0.0270
 4710SOL     OW25762   0.269   3.527   1.840  0.1944 -0.0168  0.0491
 4710SOL    HW125763   0.275   3.618   1.869  0.7132 -0.0241 -0.0406
 4710SOL    HW225764   0.204   3.540   1.771 -0.9986  0.4223  1.2430
 4711SOL     OW25765   0.097   2.451  10.058 -0.3415 -0.7504  0.2297
 4711SOL    HW125766   0.033   2.392  10.019 -0.2167 -1.7041  1.4828
 4711SOL    HW225767   0.174   2.397  10.074  1.7912  1.8222 -1.2105
 4712SOL     OW25768   1.081   2.598   8.862  0.1497 -0.3369  0.0173
 4712SOL    HW125769   0.992   2.573   8.838 -0.2474  2.2395 -1.2054
 4712SOL    HW225770   1.113   2.531   8.922 -0.6549 -2.7874 -2.2890
 4713SOL     OW25771   2.920   1.836  10.753 -0.6020  0.0344  0.9376
 4713SOL    HW125772   2.838   1.789  10.739 -0.4157  0.7758 -2.6659
 4713SOL    HW225773   2.973   1.823  10.674 -1.7820  0.7095  0.0447
 4714SOL     OW25774   4.641   0.364   5.217  0.0653 -0.6786 -0.0172
 4714SOL    HW125775   4.688   0.423   5.158 -1.2718  1.1569  0.7406
 4714SOL    HW225776   4.710   0.298   5.222  1.9127  1.3241  1.0239
 4715SOL     OW25777   1.406   1.084   1.772  0.0640  0.2942  0.2248
 4715SOL    HW125778   1.486   1.134   1.759 -0.6851  1.7800  1.3979
 4715SOL    HW225779   1.391   1.106   1.864 -1.2498 -1.5977  0.4711
 4716SOL     OW25780   4.354   0.374   4.268 -0.2791  0.4424 -0.0768
 4716SOL    HW125781   4.363   0.279   4.268  1.4487  0.6126 -2.2441
 4716SOL    HW225782   4.438   0.399   4.306 -0.5336  0.4610  0.4766
 4717SOL     OW25783   1.698   1.733   0.423  0.3011 -0.5037 -0.0576
 4717SOL    HW125784   1.612   1.758   0.391  0.7008  1.6753  0.5442
 4717SOL    HW225785   1.669   1.714   0.512 -2.0379 -1.2769 -0.9812
 4718SOL     OW25786   0.586   3.247   4.704 -0.6123 -0.5408  0.0985
 4718SOL    HW125787   0.537   3.223   4.626 -0.6037  1.8607 -0.6508
 4718SOL    HW225788   0.523   3.302   4.751  0.2832  1.2334 -0.7880
 4719SOL     OW25789   0.192   2.011  12.206 -0.3738 -0.5598 -0.1053
 4719SOL    HW125790   0.163   2.093  12.246  0.4193  0.0032 -0.6720
 4719SOL    HW225791   0.196   2.049  12.118  0.8846  1.9711  1.0610
 4720SOL     OW25792   4.464   3.332   8.218 -0.1067  0.6156  0.1415
 4720SOL    HW125793   4.383   3.362   8.259 -1.5248 -2.6121 -0.2707
 4720SOL    HW225794   4.472   3.244   8.257 -0.0408 -0.3050 -1.9414
 4721SOL     OW25795   4.337   4.324   4.320  0.2665  0.4201  0.3718
 4721SOL    HW125796   4.370   4.255   4.377  1.5043  1.8612  1.3839
 4721SOL    HW225797   4.402   4.393   4.333  0.6406  0.0792  0.2805
 4722SOL     OW25798   0.235   2.042  11.736  0.2288  0.4259  0.7300
 4722SOL    HW125799   0.264   1.993  11.659 -0.0472 -0.3854  1.1435
 4722SOL    HW225800   0.232   1.965  11.793 -1.0449  0.3432  0.5645
 4723SOL     OW25801   0.785   3.253   8.765 -0.5051  0.3890 -0.2211
 4723SOL    HW125802   0.859   3.308   8.789  0.3337  0.3292 -2.6686
 4723SOL    HW225803   0.827   3.167   8.757 -0.8101  0.0196  2.1388
 4724SOL     OW25804   1.581   3.077  12.421  0.1170 -0.5686 -0.0114
 4724SOL    HW125805   1.587   3.107  12.330  0.1300  2.0275  0.8453
 4724SOL    HW225806   1.537   3.150  12.465  0.6142  0.5692 -1.3998
 4725SOL     OW25807   0.859   3.767   4.851 -0.2748 -0.3218  0.0570
 4725SOL    HW125808   0.840   3.702   4.783 -1.6570 -2.3285  2.3500
 4725SOL    HW225809   0.908   3.827   4.796 -1.1595 -0.0591 -0.4539
 4726SOL     OW25810   1.633   3.220   2.317 -0.0470 -0.1202 -0.6848
 4726SOL    HW125811   1.577   3.145   2.339 -1.8146  1.5798  0.5581
 4726SOL    HW225812   1.716   3.185   2.282  0.0324 -0.7435  0.1079
 4727SOL     OW25813   1.806   1.651   1.611 -0.5215 -0.1840  0.5490
 4727SOL    HW125814   1.778   1.650   1.520  1.5392 -0.3285 -0.0849
 4727SOL    HW225815   1.736   1.598   1.649 -2.1117  1.6691  0.1617
 4728SOL     OW25816   1.889   2.198   4.662 -0.3793 -0.3233  0.1442
 4728SOL    HW125817   1.950   2.172   4.731  0.6150  1.7978  0.0388
 4728SOL    HW225818   1.809   2.148   4.682 -0.5611 -0.1684 -0.2017
 4729SOL     OW25819   1.256   0.850  11.245  0.4384  0.1014 -0.3048
 4729SOL    HW125820   1.253   0.825  11.338 -0.5984 -0.4587 -0.4882
 4729SOL    HW225821   1.212   0.775  11.204 -1.0281  0.4010  0.6912
 4730SOL     OW25822   1.927   4.600   3.358  0.0357 -0.8930 -0.3881
 4730SOL    HW125823   1.900   4.633   3.444 -2.9378  0.0416 -1.6613
 4730SOL    HW225824   1.900   4.673   3.301  2.0367  1.3807  1.6257
 4731SOL     OW25825   3.722   4.191   5.249 -0.0197  0.0244 -0.1430
 4731SOL    HW125826   3.799   4.235   5.285 -0.0545  1.0789 -1.3605
 4731SOL    HW225827   3.772   4.137   5.188  2.3279  1.3362  0.5998
 4732SOL     OW25828   2.943   3.062   5.863  0.3484  0.1179  0.1034
 4732SOL    HW125829   2.869   3.124   5.871 -0.0446 -0.3894  0.3779
 4732SOL    HW225830   2.935   3.047   5.769  0.7149 -0.2349  0.1285
 4733SOL     OW25831   1.608   4.404   4.927 -0.2634 -0.4440 -0.2470
 4733SOL    HW125832   1.678   4.374   4.985  0.8809  0.4493 -1.1752
 4733SOL    HW225833   1.649   4.385   4.843 -0.3284 -1.0134 -0.1469
 4734SOL     OW25834   4.649   3.956  11.543  0.2535 -0.4106  0.4570
 4734SOL    HW125835   4.694   3.911  11.471 -0.9115  2.4247 -2.0597
 4734SOL    HW225836   4.728   3.985  11.589 -0.9628  0.1845  2.1676
 4735SOL     OW25837   0.788   2.384   6.719 -0.3490  0.4010 -0.4241
 4735SOL    HW125838   0.784   2.368   6.625  0.4725 -0.1228 -0.3672
 4735SOL    HW225839   0.694   2.385   6.737 -0.2241  2.0726  0.1767
 4736SOL     OW25840   4.701   1.924   4.598  0.4305 -0.2069 -0.3574
 4736SOL    HW125841   4.656   1.904   4.680 -0.8145  0.8787 -0.7711
 4736SOL    HW225842   0.046   1.961   4.635  1.5390 -0.8255 -2.1000
 4737SOL     OW25843   2.694   0.470   5.130 -0.3369 -0.2356 -0.3988
 4737SOL    HW125844   2.624   0.413   5.161 -1.3683  0.2683 -1.8137
 4737SOL    HW225845   2.762   0.403   5.133 -0.5845 -0.4534  0.3358
 4738SOL     OW25846   2.553   0.227   9.067  0.2287 -0.2272 -1.1339
 4738SOL    HW125847   2.626   0.184   9.022  3.2572  1.4646  2.1361
 4738SOL    HW225848   2.533   0.158   9.130 -0.8019 -1.4876 -2.8716
 4739SOL     OW25849   1.276   2.805  17.174  0.1547  0.0373 -0.0489
 4739SOL    HW125850   1.333   2.754  17.116  1.5818  0.3298  1.0972
 4739SOL    HW225851   1.197   2.751  17.174 -0.1414  0.4696 -0.6602
 4740SOL     OW25852   1.967   3.121  10.600 -0.5337  0.1631 -0.4628
 4740SOL    HW125853   1.901   3.055  10.578 -0.1193 -0.4242  0.0332
 4740SOL    HW225854   1.924   3.206  10.590  1.7395  1.3413 -0.1893
 4741SOL     OW25855   1.700   3.669   7.930  0.0025 -0.9243  0.3540
 4741SOL    HW125856   1.680   3.762   7.916  1.7215 -0.7299 -0.8532
 4741SOL    HW225857   1.794   3.659   7.943  0.5677  2.5848 -0.8197
 4742SOL     OW25858   1.854   0.118  13.471  0.5086  0.6773  0.3812
 4742SOL    HW125859   1.898   0.033  13.477  2.4029  1.6641  0.4083
 4742SOL    HW225860   1.918   0.167  13.524 -0.0729  2.4360 -0.5416
 4743SOL     OW25861   0.578   0.643   3.824  0.3942  0.5829  0.5232
 4743SOL    HW125862   0.499   0.694   3.804  0.0244 -0.1328  0.1781
 4743SOL    HW225863   0.561   0.564   3.773  0.0594  2.0268 -1.5787
 4744SOL     OW25864   1.331   0.728   5.374 -0.4284  0.1723 -0.2268
 4744SOL    HW125865   1.389   0.657   5.347 -0.1327  0.5138 -0.4855
 4744SOL    HW225866   1.342   0.725   5.469  0.0177 -1.1403 -0.3201
 4745SOL     OW25867   4.682   1.439   1.865 -0.3708  0.4570 -0.1982
 4745SOL    HW125868   4.693   1.530   1.894 -1.4042  0.3633  0.4830
 4745SOL    HW225869   4.693   1.453   1.771 -0.7230 -1.0989 -0.4668
 4746SOL     OW25870   4.079   3.924   1.050  0.2494  0.0481 -0.0489
 4746SOL    HW125871   4.042   3.873   0.978  0.4919 -0.8033  0.4343
 4746SOL    HW225872   4.111   3.857   1.111 -2.3359 -0.5318  0.6969
 4747SOL     OW25873   4.452   1.924   9.249 -0.5722 -0.0078  0.2458
 4747SOL    HW125874   4.396   1.974   9.190 -2.6139 -2.4665  0.1218
 4747SOL    HW225875   4.460   1.990   9.319  0.8950 -0.8161  0.8370
 4748SOL     OW25876   2.643   2.022  13.558 -0.0323  0.1900 -0.7089
 4748SOL    HW125877   2.621   2.024  13.651 -1.4258  2.0875 -1.0860
 4748SOL    HW225878   2.732   1.986  13.555 -0.7096 -1.4898 -0.4514
 4749SOL     OW25879   4.350   0.838   0.786  0.4043 -0.3064 -0.5524
 4749SOL    HW125880   4.421   0.828   0.849  1.0512 -0.2649 -1.2811
 4749SOL    HW225881   4.289   0.783   0.835  0.3432  0.1910 -0.0636
 4750SOL     OW25882   1.683   3.741  15.034 -0.3542  0.3900  0.0428
 4750SOL    HW125883   1.723   3.739  15.121 -1.6825  2.9981  0.6994
 4750SOL    HW225884   1.647   3.828  15.018  1.9726  1.6821  1.8154
 4751SOL     OW25885   1.654   1.674   8.823  0.6715  0.0465  0.2605
 4751SOL    HW125886   1.722   1.635   8.768  1.5474  0.8300  0.7967
 4751SOL    HW225887   1.583   1.618   8.790  1.5317 -1.4162  0.8795
 4752SOL     OW25888   3.294   3.176   5.023 -0.0099 -0.0457 -0.2261
 4752SOL    HW125889   3.361   3.134   4.969  1.0991 -0.9143  1.8088
 4752SOL    HW225890   3.253   3.228   4.955  2.5791  1.2306 -0.8122
 4753SOL     OW25891   2.310   2.877   9.500  0.2595 -0.0139 -0.6120
 4753SOL    HW125892   2.243   2.946   9.502  1.0913  0.7872 -0.0843
 4753SOL    HW225893   2.335   2.872   9.592 -0.0655 -1.8821 -0.6252
 4754SOL     OW25894   3.013   3.898   6.050  0.3128  0.3969  0.0207
 4754SOL    HW125895   3.089   3.850   6.082 -0.0547  0.8628  1.5997
 4754SOL    HW225896   2.942   3.845   6.088 -1.0507 -0.0451 -3.1072
 4755SOL     OW25897   0.279   4.097   3.902  0.4536 -0.2282 -0.4760
 4755SOL    HW125898   0.279   4.113   3.807 -2.4962 -0.6032 -0.5317
 4755SOL    HW225899   0.239   4.173   3.943 -1.2211 -0.5695 -1.4844
 4756SOL     OW25900   2.841   2.090   4.376  0.1915 -0.1903  0.0027
 4756SOL    HW125901   2.822   2.006   4.335 -1.7247 -0.3137  1.1364
 4756SOL    HW225902   2.921   2.066   4.423  0.5958  1.4462  0.1276
 4757SOL     OW25903   0.655   0.112   2.213 -0.3755  0.0872  0.4508
 4757SOL    HW125904   0.671   0.067   2.130 -2.3657 -0.1951  0.2304
 4757SOL    HW225905   0.693   0.198   2.200 -1.7430  0.2099 -2.5778
 4758SOL     OW25906   1.395   3.631   6.453  0.2137 -0.5271 -0.0508
 4758SOL    HW125907   1.307   3.660   6.476  0.4016 -0.3583  0.4731
 4758SOL    HW225908   1.366   3.562   6.394 -0.8464  1.0349 -1.3373
 4759SOL     OW25909   3.359   0.624   0.113  0.3197 -0.4930  0.1532
 4759SOL    HW125910   3.357   0.717   0.133  0.3375 -0.4459 -0.0584
 4759SOL    HW225911   3.288   0.595   0.170  0.7547 -0.5080  0.6856
 4760SOL     OW25912   0.279   0.892  16.036  0.2696  0.3090  0.0666
 4760SOL    HW125913   0.343   0.949  15.993  0.9268  1.6125  2.7640
 4760SOL    HW225914   0.342   0.844  16.091  0.1583 -0.0688 -0.1376
 4761SOL     OW25915   3.002   2.151   5.922 -0.1145  0.3824 -0.5798
 4761SOL    HW125916   2.924   2.111   5.883  0.1159 -0.0372 -0.6119
 4761SOL    HW225917   3.040   2.072   5.959 -2.4388 -1.5995 -2.4002
 4762SOL     OW25918   0.857   3.595   0.985  0.4289  0.0980 -0.1925
 4762SOL    HW125919   0.791   3.636   0.929  1.9010 -3.0972 -4.1822
 4762SOL    HW225920   0.915   3.669   1.002  2.3393 -1.2195 -0.9022
 4763SOL     OW25921   1.665   1.875   5.191 -0.0867 -0.3810 -0.1044
 4763SOL    HW125922   1.680   1.904   5.101  0.5004  0.6558  0.3331
 4763SOL    HW225923   1.728   1.804   5.191  2.0716  1.5352  1.3709
 4764SOL     OW25924   1.198   4.043  15.310  0.1740 -0.0080  0.1288
 4764SOL    HW125925   1.171   3.971  15.369  0.3234 -1.5831 -1.7303
 4764SOL    HW225926   1.217   3.992  15.231 -1.2124  1.5900 -1.2095
 4765SOL     OW25927   2.087   4.551   8.734 -0.2024  0.5173  0.1278
 4765SOL    HW125928   2.009   4.510   8.696  2.5382 -4.2400 -0.3509
 4765SOL    HW225929   2.052   4.601   8.807  2.1120  1.9256  0.2814
 4766SOL     OW25930   2.877   0.821   8.734 -0.0454  0.1708  0.3688
 4766SOL    HW125931   2.884   0.822   8.638  1.5762  0.1565  0.4914
 4766SOL    HW225932   2.949   0.878   8.761  1.1661 -0.3593 -1.7876
 4767SOL     OW25933   2.193   4.236   0.464  0.8927  0.0085 -0.2863
 4767SOL    HW125934   2.151   4.268   0.544  1.7208 -2.1233  1.0196
 4767SOL    HW225935   2.151   4.298   0.405  1.7132 -0.0773 -0.9594
 4768SOL     OW25936   3.450   3.994   6.451  0.0321 -0.0012  0.2587
 4768SOL    HW125937   3.424   3.925   6.513 -1.3113  0.9805  0.7865
 4768SOL    HW225938   3.368   4.042   6.442  0.1130 -0.0956 -0.9375
 4769SOL     OW25939   0.452   0.722   3.072 -0.3960  0.3146  0.0976
 4769SOL    HW125940   0.384   0.703   3.136  0.0998  1.5792  1.0006
 4769SOL    HW225941   0.465   0.817   3.073  0.2433  0.2354 -0.7982
 4770SOL     OW25942   0.383   0.831  12.614  0.0554  0.4183  0.9659
 4770SOL    HW125943   0.388   0.736  12.604  0.1921  0.4857  0.4227
 4770SOL    HW225944   0.471   0.855  12.646  0.7560 -0.4895 -0.2726
 4771SOL     OW25945   4.706   4.580  15.601 -0.6011  0.2720  0.1953
 4771SOL    HW125946   4.650   4.536  15.536 -0.5310  0.9500 -0.3226
 4771SOL    HW225947   0.022   4.642  15.550 -0.5516 -1.3514 -1.7224
 4772SOL     OW25948   0.592   0.169   0.345  0.2186  0.0862 -0.1180
 4772SOL    HW125949   0.684   0.188   0.329  0.7639 -1.6098  1.0172
 4772SOL    HW225950   0.587   0.105   0.274  1.9401  0.1401 -0.2867
 4773SOL     OW25951   0.045   3.890   0.853 -0.0125 -0.2379 -0.1138
 4773SOL    HW125952   0.078   3.839   0.927  1.3908 -1.0888 -1.3160
 4773SOL    HW225953   0.113   3.956   0.852 -2.5072  2.3038 -1.1375
 4774SOL     OW25954   2.667   2.413   4.525 -0.3556  0.2530 -0.2063
 4774SOL    HW125955   2.686   2.418   4.619  1.7801 -0.5487 -0.5903
 4774SOL    HW225956   2.588   2.461   4.505  0.0024  1.0301  0.2370
 4775SOL     OW25957   3.945   3.501   6.458  0.1462  0.6233  0.4613
 4775SOL    HW125958   3.857   3.470   6.437  0.0952  0.1499  1.3852
 4775SOL    HW225959   3.993   3.485   6.377 -1.7329 -1.1131 -0.3233
 4776SOL     OW25960   4.222   2.316   8.508  0.3177  0.1063 -0.0011
 4776SOL    HW125961   4.266   2.250   8.562  0.6818 -2.4625 -3.4174
 4776SOL    HW225962   4.273   2.395   8.522 -2.2945  1.6362  0.8141
 4777SOL     OW25963   0.669   4.421   7.529  0.3081  0.4807  0.4279
 4777SOL    HW125964   0.592   4.409   7.473  1.3016  0.4507 -0.9482
 4777SOL    HW225965   0.688   4.515   7.532 -0.4387  0.6207  0.8956
 4778SOL     OW25966   3.516   0.794   6.264 -0.2510  0.2017  0.0538
 4778SOL    HW125967   3.481   0.834   6.185  1.0286 -0.3990 -0.8087
 4778SOL    HW225968   3.498   0.867   6.324  2.2655  0.5335  0.4265
 4779SOL     OW25969   1.050   1.488   7.886 -0.0327 -0.3069  0.3875
 4779SOL    HW125970   1.012   1.541   7.956  1.0205  0.0154  0.7106
 4779SOL    HW225971   1.102   1.559   7.849 -0.2251 -0.6655 -0.5678
 4780SOL     OW25972   2.084   4.022   5.055  0.2146  0.5641  0.2929
 4780SOL    HW125973   2.066   4.092   4.992 -2.3724 -0.2678  0.1090
 4780SOL    HW225974   1.997   4.007   5.091 -0.1163  1.4883 -0.1475
 4781SOL     OW25975   1.131   1.547   6.383  0.0042 -0.6662 -0.4664
 4781SOL    HW125976   1.133   1.602   6.304  0.0961 -0.3123 -0.2162
 4781SOL    HW225977   1.100   1.617   6.440  0.9645 -0.7068  0.1032
 4782SOL     OW25978   1.940   3.925   9.147 -0.2910 -0.3645  1.3108
 4782SOL    HW125979   1.897   3.886   9.223 -0.3711 -1.7966  0.5324
 4782SOL    HW225980   1.992   3.847   9.123  1.3371  1.4159 -1.0042
 4783SOL     OW25981   1.290   4.245  12.714 -0.6139 -0.2005 -0.4932
 4783SOL    HW125982   1.288   4.279  12.803  0.1502 -0.4663 -0.3736
 4783SOL    HW225983   1.198   4.219  12.703 -0.9709 -0.4122  3.0129
 4784SOL     OW25984   0.145   4.196  17.630 -0.7552 -0.2694 -0.1966
 4784SOL    HW125985   0.176   4.106  17.640  0.5231  0.3310  1.2259
 4784SOL    HW225986   0.075   4.200  17.695  0.6088 -0.3308  1.2714
 4785SOL     OW25987   3.404   2.206   6.568 -0.7166  0.1885 -0.1543
 4785SOL    HW125988   3.319   2.179   6.602  0.6205  0.0768  3.1169
 4785SOL    HW225989   3.469   2.182   6.634 -0.4837 -0.9998 -0.8185
 4786SOL     OW25990   2.589   4.524   5.247  0.6274  0.1876 -0.1783
 4786SOL    HW125991   2.586   4.616   5.273  0.4552 -0.0661  0.7038
 4786SOL    HW225992   2.508   4.523   5.195  0.1171 -0.0574  0.6224
 4787SOL     OW25993   3.093   3.252   1.058 -0.8054 -0.1825  0.1584
 4787SOL    HW125994   3.172   3.291   1.022 -0.9726  0.1945  0.1938
 4787SOL    HW225995   3.048   3.330   1.093 -0.3204  1.3006 -2.5088
 4788SOL     OW25996   3.371   0.477   8.733  0.0815 -0.2571  0.1271
 4788SOL    HW125997   3.306   0.548   8.733  0.7327  0.3337  0.8351
 4788SOL    HW225998   3.313   0.406   8.760  0.1433  0.2690  1.6667
 4789SOL     OW25999   4.562   1.297  16.849  0.2994 -0.2718  0.4048
 4789SOL    HW126000   4.526   1.222  16.896  0.3680 -0.1963  0.5773
 4789SOL    HW226001   4.482   1.331  16.810  1.4813 -1.0366 -2.6506
 4790SOL     OW26002   2.580   2.181   4.307  0.2735  0.0036  0.2848
 4790SOL    HW126003   2.529   2.247   4.354 -1.1029 -1.1188  0.3902
 4790SOL    HW226004   2.659   2.190   4.360  0.6564  1.3858 -0.5278
 4791SOL     OW26005   2.959   0.281  17.129 -0.1101 -0.0476 -0.0717
 4791SOL    HW126006   2.943   0.187  17.117  1.4277  0.1310 -3.3105
 4791SOL    HW226007   2.988   0.314  17.044  3.3685 -0.9547  0.7632
 4792SOL     OW26008   4.563   1.472   4.751  0.3133 -0.2577 -0.1103
 4792SOL    HW126009   4.506   1.397   4.771  0.3779 -0.4261 -0.5364
 4792SOL    HW226010   4.500   1.544   4.756 -0.4557 -1.1540  2.9000
 4793SOL     OW26011   3.209   0.484   8.132 -0.5353 -0.0878  0.4035
 4793SOL    HW126012   3.287   0.435   8.157 -2.0723 -0.8880  3.5403
 4793SOL    HW226013   3.237   0.570   8.100  1.8389 -1.7768 -2.0472
 4794SOL     OW26014   4.567   3.344   2.354 -0.4239 -0.2091  0.2991
 4794SOL    HW126015   4.489   3.398   2.341 -0.8191 -1.0398 -0.8591
 4794SOL    HW226016   4.625   3.419   2.368 -2.0050  1.1659 -0.5513
 4795SOL     OW26017   0.789   2.545   7.043  0.7697 -0.4935 -0.1247
 4795SOL    HW126018   0.722   2.601   7.005 -0.4286 -0.1169  2.5576
 4795SOL    HW226019   0.740   2.463   7.052  2.1440 -1.0958  1.8868
 4796SOL     OW26020   4.349   1.360   7.125  0.1447 -0.4970 -0.6926
 4796SOL    HW126021   4.427   1.310   7.149 -1.3484 -1.0972  2.9532
 4796SOL    HW226022   4.283   1.299   7.091  0.5748 -1.2871 -0.1182
 4797SOL     OW26023   4.013   4.641   4.653 -0.1547 -0.9931  0.4423
 4797SOL    HW126024   3.961   4.650   4.732 -2.8844 -1.1772 -1.3441
 4797SOL    HW226025   4.088   4.693   4.684  0.2227 -0.1798 -1.8441
 4798SOL     OW26026   2.512   0.092   6.845  0.1786  0.1371 -0.3954
 4798SOL    HW126027   2.576   0.061   6.909  0.4934 -0.9004 -1.2008
 4798SOL    HW226028   2.541   0.039   6.770 -1.6060 -1.3398 -0.0316
 4799SOL     OW26029   3.744   0.556   2.249 -0.4386  0.2973  0.4347
 4799SOL    HW126030   3.762   0.474   2.204  0.9312  0.0921  1.3494
 4799SOL    HW226031   3.791   0.534   2.330  0.5415 -1.4347 -0.6053
 4800SOL     OW26032   3.901   0.061  16.037 -0.8478 -0.3012  0.1719
 4800SOL    HW126033   3.965   0.089  16.103  0.4322  1.4945 -1.8170
 4800SOL    HW226034   3.848   0.141  16.041 -1.9229 -0.9062 -2.2839
 4801SOL     OW26035   3.021   2.270   9.232  0.5394  0.1887  0.1811
 4801SOL    HW126036   2.926   2.264   9.246  0.1100  2.5502 -1.5680
 4801SOL    HW226037   3.043   2.361   9.253 -0.2789 -0.2211  2.8150
 4802SOL     OW26038   1.595   0.665  10.135  0.3146  0.6929 -0.4222
 4802SOL    HW126039   1.650   0.742  10.121  0.3590  0.8692  0.6881
 4802SOL    HW226040   1.575   0.657  10.229  0.3586 -0.0765 -0.4804
 4803SOL     OW26041   3.326   2.015   9.214  0.5907  0.4460 -0.0412
 4803SOL    HW126042   3.272   2.087   9.247  1.2730  1.7752 -1.8347
 4803SOL    HW226043   3.377   2.067   9.152 -1.7835  1.3976 -1.2189
 4804SOL     OW26044   3.629   0.716   5.872 -0.6149 -0.0159  0.3111
 4804SOL    HW126045   3.704   0.763   5.908 -1.3648  1.0615  0.4507
 4804SOL    HW226046   3.632   0.640   5.930 -1.1096 -0.4216 -0.1958
 4805SOL     OW26047   0.157   2.727   1.514  0.1922  0.2642  0.6957
 4805SOL    HW126048   0.072   2.772   1.512  0.0007 -0.1237 -0.0370
 4805SOL    HW226049   0.144   2.661   1.445 -1.3847  0.0835  1.1689
 4806SOL     OW26050   1.696   2.127   8.247 -0.1634  0.6197 -0.0762
 4806SOL    HW126051   1.786   2.100   8.262 -1.0779 -0.9786  2.4652
 4806SOL    HW226052   1.655   2.045   8.219 -0.4208  1.7669 -3.1123
 4807SOL     OW26053   0.412   4.502   2.393 -0.1958 -0.0211 -0.6088
 4807SOL    HW126054   0.420   4.410   2.369 -1.8819 -0.4917  0.6343
 4807SOL    HW226055   0.449   4.511   2.481 -0.5902  2.8235 -0.7103
 4808SOL     OW26056   2.244   4.132   8.316  0.0849 -0.0956  0.3958
 4808SOL    HW126057   2.321   4.164   8.271 -1.2011  3.1998  0.5496
 4808SOL    HW226058   2.282   4.101   8.398  1.6175  1.0418  0.1007
 4809SOL     OW26059   4.563   3.838   7.584 -0.6553  0.0429 -0.0896
 4809SOL    HW126060   4.546   3.846   7.678  1.3839  1.1891  0.1741
 4809SOL    HW226061   4.488   3.879   7.540  0.2242  1.2405 -0.4734
 4810SOL     OW26062   1.439   4.576   0.587 -0.3184 -0.6044 -0.4852
 4810SOL    HW126063   1.368   4.614   0.535 -1.3545 -0.8394  0.7487
 4810SOL    HW226064   1.449   4.637   0.661 -1.7880 -0.7931 -0.1374
 4811SOL     OW26065   3.186   1.116  11.583  0.2118  0.1733  0.4496
 4811SOL    HW126066   3.159   1.057  11.654 -2.5316  0.4180 -0.4111
 4811SOL    HW226067   3.108   1.114  11.528  1.1057  1.2376 -0.8331
 4812SOL     OW26068   0.531   4.566   2.706 -0.1077  0.0275  0.4500
 4812SOL    HW126069   0.480   4.629   2.758 -0.2576  1.1396 -1.0418
 4812SOL    HW226070   0.528   4.497   2.773  0.5028 -1.5514 -1.1472
 4813SOL     OW26071   0.654   3.880  12.355  0.2020 -0.1998 -0.7345
 4813SOL    HW126072   0.726   3.887  12.292 -1.6392 -2.2852 -3.0734
 4813SOL    HW226073   0.642   3.973  12.375  0.7640 -0.9303  2.9345
 4814SOL     OW26074   3.839   2.173  13.545 -0.8827  0.2441 -0.0497
 4814SOL    HW126075   3.869   2.219  13.624 -2.3833 -3.0959  2.4168
 4814SOL    HW226076   3.859   2.081  13.558  0.7044  0.5047 -0.5946
 4815SOL     OW26077   3.457   1.257  10.139 -0.5744 -0.5329  1.1788
 4815SOL    HW126078   3.431   1.252  10.047  1.0437  1.0362  0.6325
 4815SOL    HW226079   3.544   1.219  10.132 -0.3363 -0.2135  2.4038
 4816SOL     OW26080   2.466   0.569   5.623 -0.2497  0.5519 -0.1073
 4816SOL    HW126081   2.395   0.506   5.636  0.5880 -0.6430 -1.2962
 4816SOL    HW226082   2.545   0.516   5.613 -0.2061  0.6812 -0.4636
 4817SOL     OW26083   2.476   2.051   2.890  0.2565 -0.1243 -0.0124
 4817SOL    HW126084   2.547   2.112   2.870  1.7279 -1.4161  1.2266
 4817SOL    HW226085   2.403   2.109   2.870 -1.1841 -1.8562  0.2033
 4818SOL     OW26086   1.535   4.238   3.560  0.2212 -0.3402  0.1800
 4818SOL    HW126087   1.505   4.148   3.549  3.8427 -1.7170  1.5390
 4818SOL    HW226088   1.453   4.286   3.571  1.6370  2.1034 -0.0522
 4819SOL     OW26089   0.937   4.347   6.764 -0.3296 -0.6809  0.3779
 4819SOL    HW126090   0.954   4.303   6.847  3.5969  0.5529  0.1866
 4819SOL    HW226091   1.028   4.353   6.735 -0.7097  2.0992 -0.2330
 4820SOL     OW26092   1.487   3.102   6.579 -0.5080  0.3910  0.6703
 4820SOL    HW126093   1.502   3.197   6.582  0.9941  0.2302 -1.5181
 4820SOL    HW226094   1.524   3.071   6.661 -0.2284 -1.0635 -0.0192
 4821SOL     OW26095   2.330   1.054   8.014 -0.4204 -0.6904  0.2366
 4821SOL    HW126096   2.401   1.118   8.016 -0.1318 -0.9537 -1.3090
 4821SOL    HW226097   2.256   1.113   7.996  1.4057  1.3446 -0.5758
 4822SOL     OW26098   3.309   0.561   9.750 -0.2401  0.3348  0.4373
 4822SOL    HW126099   3.248   0.570   9.677  1.3772 -0.4261 -1.0355
 4822SOL    HW226100   3.384   0.529   9.700 -1.8176 -1.2434 -0.9127
 4823SOL     OW26101   0.957   4.188  16.089 -0.1738 -0.1564 -0.5974
 4823SOL    HW126102   0.962   4.276  16.051 -4.0310  0.1447 -0.4078
 4823SOL    HW226103   1.023   4.143  16.038 -1.3095  0.4559 -2.5824
 4824SOL     OW26104   2.401   3.984   4.813  0.0909 -0.0088 -0.0293
 4824SOL    HW126105   2.350   3.909   4.842  0.3363  0.2446  1.0536
 4824SOL    HW226106   2.331   4.042   4.783  1.6341  1.8095 -0.1598
 4825SOL     OW26107   2.437   3.757   7.171  0.2810 -0.0640  0.0580
 4825SOL    HW126108   2.509   3.815   7.147  0.8801 -1.2464 -1.0065
 4825SOL    HW226109   2.360   3.787   7.123  0.5283 -1.8471 -1.4645
 4826SOL     OW26110   2.496   3.991   4.559  0.0093 -0.2193  0.1282
 4826SOL    HW126111   2.470   3.991   4.651 -1.8364 -0.7801 -0.4025
 4826SOL    HW226112   2.452   4.070   4.529 -2.0784 -0.7882  1.6729
 4827SOL     OW26113   2.164   2.171   4.285 -0.0510 -0.3553 -0.4190
 4827SOL    HW126114   2.238   2.139   4.234 -0.1279 -2.4655  0.7658
 4827SOL    HW226115   2.091   2.121   4.247 -1.0804  1.2178 -0.5150
 4828SOL     OW26116   2.783   2.122   8.320  0.3131  0.1419 -0.0137
 4828SOL    HW126117   2.823   2.084   8.399  1.0251  0.5960 -0.1599
 4828SOL    HW226118   2.821   2.066   8.253 -1.1296  2.0290 -2.4125
 4829SOL     OW26119   3.946   2.145   6.592 -0.8103 -0.4365  0.0780
 4829SOL    HW126120   3.867   2.094   6.578 -1.9322  1.7544 -1.4755
 4829SOL    HW226121   3.918   2.213   6.532  1.1936  1.2258  1.0430
 4830SOL     OW26122   2.133   3.424  17.382  0.1429 -0.1010 -0.1387
 4830SOL    HW126123   2.123   3.504  17.330 -2.1241 -0.1511  0.2414
 4830SOL    HW226124   2.171   3.369  17.314  0.3370  0.9508 -0.8804
 4831SOL     OW26125   4.078   2.920   3.286 -0.5540 -0.3223 -0.0253
 4831SOL    HW126126   4.070   2.936   3.192 -2.0431 -1.9549 -0.1786
 4831SOL    HW226127   4.151   2.857   3.285 -1.4102 -1.3054 -1.2891
 4832SOL     OW26128   1.115   2.836   8.921  0.2906  0.0266 -0.0984
 4832SOL    HW126129   1.020   2.853   8.920 -0.0171 -1.6553  1.8628
 4832SOL    HW226130   1.108   2.744   8.895  0.4145  0.3302 -1.1905
 4833SOL     OW26131   2.651   3.700  10.130 -0.3016  0.1235  0.1910
 4833SOL    HW126132   2.641   3.743  10.215  0.0483  0.7889 -0.1029
 4833SOL    HW226133   2.693   3.616  10.150  0.3447  0.3871 -0.0588
 4834SOL     OW26134   2.286   0.548   0.079 -0.1648  0.1195 -0.2365
 4834SOL    HW126135   2.378   0.572   0.080 -0.2341  0.4883 -2.1610
 4834SOL    HW226136   2.250   0.601   0.008  0.8257 -0.7723 -1.4035
 4835SOL     OW26137   2.105   3.959  16.777  1.1434 -0.1503 -0.3594
 4835SOL    HW126138   2.198   3.972  16.760  0.9082  0.5120 -1.1759
 4835SOL    HW226139   2.091   3.881  16.723 -0.4493  0.8935 -1.4549
 4836SOL     OW26140   3.640   0.232   2.803 -0.6105 -0.3201  0.4370
 4836SOL    HW126141   3.661   0.316   2.844 -0.0857 -0.5826  0.6930
 4836SOL    HW226142   3.598   0.192   2.879 -2.0740 -2.4362 -1.4839
 4837SOL     OW26143   1.890   4.708   5.199  0.6954  0.1766  0.0855
 4837SOL    HW126144   1.842   4.626   5.190  3.3393 -1.1497 -2.0269
 4837SOL    HW226145   1.972   4.678   5.238  0.4108  3.4309  3.1785
 4838SOL     OW26146   3.297   0.446  15.509  0.4219  0.3477 -0.4385
 4838SOL    HW126147   3.314   0.530  15.552  1.4664 -0.6517  1.0892
 4838SOL    HW226148   3.236   0.399  15.566  0.1865  1.7534  0.4488
 4839SOL     OW26149   1.558   3.660   5.497  0.3754 -0.3953  0.5679
 4839SOL    HW126150   1.504   3.657   5.418  0.8597  1.1155  0.1881
 4839SOL    HW226151   1.521   3.584   5.543  0.0178 -0.6702 -0.1715
 4840SOL     OW26152   2.737   1.794  13.981  0.4196 -0.3834  0.0502
 4840SOL    HW126153   2.734   1.706  13.943 -2.6419  1.5771 -4.1946
 4840SOL    HW226154   2.672   1.790  14.051 -0.4750 -1.3351 -0.8273
 4841SOL     OW26155   0.156   0.888   4.121 -0.4300 -0.8355  0.2706
 4841SOL    HW126156   0.086   0.908   4.183  0.2072 -1.0828  1.0650
 4841SOL    HW226157   0.142   0.954   4.053 -1.5893 -1.1708  0.1826
 4842SOL     OW26158   2.414   1.440  16.020  0.1053 -0.2229 -0.3472
 4842SOL    HW126159   2.451   1.418  15.934 -0.9849 -0.3277 -0.8012
 4842SOL    HW226160   2.444   1.530  16.035 -0.3448 -0.2356  0.6507
 4843SOL     OW26161   3.403   3.508  12.215 -0.2625  0.1927 -0.4717
 4843SOL    HW126162   3.338   3.531  12.148  0.1487  3.7985  0.3714
 4843SOL    HW226163   3.355   3.436  12.255 -0.4164  1.1522  1.0567
 4844SOL     OW26164   0.951   2.938   7.864  0.3925  0.4738  0.0622
 4844SOL    HW126165   0.914   3.005   7.921 -1.0061 -0.6756  0.5011
 4844SOL    HW226166   0.987   2.880   7.931 -2.1920 -0.0996  0.9427
 4845SOL     OW26167   0.447   2.760  10.648 -0.3769 -0.0358 -0.0711
 4845SOL    HW126168   0.524   2.802  10.609 -0.8506  1.9433  1.0968
 4845SOL    HW226169   0.427   2.820  10.721  0.6836  1.5090 -1.0492
 4846SOL     OW26170   1.154   0.369   1.573  0.0337  0.4103 -0.4851
 4846SOL    HW126171   1.107   0.325   1.644  0.1939  1.1356  0.0691
 4846SOL    HW226172   1.153   0.301   1.506  0.1094 -0.5344  0.4695
 4847SOL     OW26173   0.542   1.041   3.006  0.3467  0.0487  0.5797
 4847SOL    HW126174   0.456   1.044   3.048 -0.2718  0.0024 -0.6808
 4847SOL    HW226175   0.563   1.134   2.991 -1.5903 -0.0996 -3.0883
 4848SOL     OW26176   0.656   3.022   3.023  0.1380  0.2038  0.0947
 4848SOL    HW126177   0.659   2.941   2.971 -0.8490  0.4879 -0.4171
 4848SOL    HW226178   0.575   3.002   3.070 -0.1830  1.8930  0.2725
 4849SOL     OW26179   1.903   3.211   9.341  0.3338  0.4894  0.3802
 4849SOL    HW126180   1.978   3.259   9.376  0.7801  0.0344  0.0482
 4849SOL    HW226181   1.859   3.185   9.422  2.6285  0.8571  1.7694
 4850SOL     OW26182   2.443   0.971   4.884  0.1630  0.1267  0.1802
 4850SOL    HW126183   2.447   0.951   4.978 -4.5309 -0.9507  0.1770
 4850SOL    HW226184   2.495   0.896   4.856 -1.8068 -1.7903  1.6221
 4851SOL     OW26185   4.658   2.384   0.102  0.3472  0.4571 -0.4326
 4851SOL    HW126186   4.674   2.470   0.062  0.3963 -1.2914 -4.2496
 4851SOL    HW226187   0.007   2.351   0.135  0.2336  1.8930  1.3049
 4852SOL     OW26188   1.204   2.730  10.026 -0.3554 -0.0010  0.3474
 4852SOL    HW126189   1.145   2.778  10.085  0.9918 -1.3511  2.7641
 4852SOL    HW226190   1.154   2.649  10.029 -0.6382  0.1622 -0.0484
 4853SOL     OW26191   4.618   2.809   6.225 -0.3568 -0.4380 -0.1532
 4853SOL    HW126192   4.571   2.850   6.153 -0.2860  0.3223  0.2284
 4853SOL    HW226193   4.703   2.785   6.188 -0.3410  2.3155 -1.9334
 4854SOL     OW26194   0.716   2.356   0.687  0.0080  0.2615  0.0885
 4854SOL    HW126195   0.705   2.261   0.676  1.3870  0.5094 -3.5471
 4854SOL    HW226196   0.675   2.361   0.773 -1.3595  0.2272 -0.5509
 4855SOL     OW26197   3.116   1.378   4.713  0.5331 -0.2571  0.1422
 4855SOL    HW126198   3.026   1.408   4.720  0.7205  0.5171 -0.7900
 4855SOL    HW226199   3.134   1.354   4.804 -0.6123  0.1764  0.4769
 4856SOL     OW26200   1.918   4.071   0.051 -0.9273 -0.2166  0.1307
 4856SOL    HW126201   1.856   4.006   0.083 -0.6829 -0.5091  0.0183
 4856SOL    HW226202   1.867   4.112  17.718  0.0455  1.8558  0.6377
 4857SOL     OW26203   1.764   0.640  15.175 -0.3026  0.3063  0.0592
 4857SOL    HW126204   1.852   0.653  15.209 -0.7716 -2.2324  2.2530
 4857SOL    HW226205   1.778   0.553  15.137 -0.3822 -0.5639  2.0243
 4858SOL     OW26206   0.849   4.486  17.641  0.6961 -0.7644  0.6528
 4858SOL    HW126207   0.926   4.430  17.650  1.6972  0.4607 -0.3915
 4858SOL    HW226208   0.782   4.418  17.632  0.9515 -0.8268 -0.9256
 4859SOL     OW26209   3.365   4.714   5.276  0.1835 -0.3227 -0.3472
 4859SOL    HW126210   3.294   0.034   5.241  0.4613  2.5900  3.6611
 4859SOL    HW226211   3.335   4.664   5.352  1.3976 -0.3041  0.1303
 4860SOL     OW26212   0.443   0.569   3.550 -0.1473  0.0058  0.0631
 4860SOL    HW126213   0.464   0.642   3.491 -2.9321  0.6462 -0.1214
 4860SOL    HW226214   0.388   0.615   3.613  0.5628  0.2455  0.5056
 4861SOL     OW26215   2.823   1.390   9.754 -0.0333 -0.0001 -0.3049
 4861SOL    HW126216   2.822   1.414   9.847 -3.6285 -0.3930 -0.2400
 4861SOL    HW226217   2.803   1.298   9.771 -0.9225  0.3105  0.3372
 4862SOL     OW26218   0.668   0.547   2.397 -0.0876 -0.2437 -0.1363
 4862SOL    HW126219   0.693   0.494   2.473 -0.6320 -1.3903 -0.7614
 4862SOL    HW226220   0.573   0.543   2.410  0.0787  1.2681  1.5022
 4863SOL     OW26221   1.066   2.918  13.567  0.1302 -0.2730  0.4452
 4863SOL    HW126222   1.068   2.899  13.661 -2.7220 -0.7217  0.4262
 4863SOL    HW226223   0.976   2.948  13.555  0.9180  0.7165 -2.9541
 4864SOL     OW26224   2.269   0.012   7.495  0.3478  0.2037  0.0918
 4864SOL    HW126225   2.331   4.690   7.449 -0.2888 -2.3082  2.2953
 4864SOL    HW226226   2.280   0.096   7.450  1.0070  1.4036  2.4944
 4865SOL     OW26227   1.957   2.461   7.166  0.4622  0.2360 -0.8816
 4865SOL    HW126228   2.007   2.530   7.210 -0.4567  0.4224 -0.1370
 4865SOL    HW226229   2.007   2.452   7.085 -0.1173 -0.1667 -1.1934
 4866SOL     OW26230   3.918   0.687   7.391  0.3611  0.6249 -0.2864
 4866SOL    HW126231   4.011   0.706   7.397  0.5309 -0.5386  0.8367
 4866SOL    HW226232   3.926   0.624   7.320 -0.1317  0.2638 -0.0256
 4867SOL     OW26233   1.072   0.132  11.456  0.2183 -0.2282 -0.4311
 4867SOL    HW126234   1.031   0.074  11.520  1.2998  0.0372  0.4848
 4867SOL    HW226235   0.997   0.188  11.436 -1.1084 -1.1054  2.1504
 4868SOL     OW26236   4.102   2.391  13.313 -0.2023  0.2296  0.6161
 4868SOL    HW126237   4.075   2.455  13.379 -1.8864  3.0404 -2.8303
 4868SOL    HW226238   4.189   2.419  13.286 -0.3569 -0.5133 -0.6415
 4869SOL     OW26239   0.935   1.459  17.547  0.0058 -0.6336 -0.0719
 4869SOL    HW126240   0.913   1.433  17.636  1.4385  1.0871  0.7899
 4869SOL    HW226241   0.901   1.389  17.492  0.2448 -1.3704  0.7359
 4870SOL     OW26242   3.086   0.979  11.817 -0.5424 -0.2047 -0.6241
 4870SOL    HW126243   2.998   0.942  11.826  0.0252 -1.9992 -2.5094
 4870SOL    HW226244   3.143   0.925  11.871  0.8681  1.3281 -0.5798
 4871SOL     OW26245   4.111   3.760  14.327 -0.6477 -0.0832 -0.0619
 4871SOL    HW126246   4.057   3.728  14.255  1.0728  0.4281 -1.5910
 4871SOL    HW226247   4.048   3.789  14.393 -1.1354 -1.0379 -0.1142
 4872SOL     OW26248   4.485   2.227   4.895 -0.5919 -0.2565 -0.5692
 4872SOL    HW126249   4.447   2.293   4.952 -1.1107 -1.2880  0.2749
 4872SOL    HW226250   4.481   2.273   4.811  2.2366 -1.3442 -1.3203
 4873SOL     OW26251   2.011   4.674  10.907  0.1042  0.6135 -0.0617
 4873SOL    HW126252   1.994   4.649  10.816  0.0445 -0.2909  0.2005
 4873SOL    HW226253   2.102   4.702  10.893  0.0399  0.8606  0.0241
 4874SOL     OW26254   0.323   4.404   5.588  0.5110  0.4025  0.2211
 4874SOL    HW126255   0.404   4.371   5.548  1.2111  1.9078  0.3943
 4874SOL    HW226256   0.303   4.475   5.528 -2.6550 -1.1903 -0.5974
 4875SOL     OW26257   4.716   0.325   1.992 -0.0200  0.4261  0.1766
 4875SOL    HW126258   0.058   0.287   1.948 -1.2153  0.4810 -1.9624
 4875SOL    HW226259   0.013   0.359   2.076  1.4552  0.8613 -0.5542
 4876SOL     OW26260   0.941   2.697  16.203 -0.4673 -0.7839  0.3537
 4876SOL    HW126261   1.016   2.692  16.263  0.2433 -3.8007 -0.8104
 4876SOL    HW226262   0.885   2.766  16.239 -0.2684  0.4618 -1.7364
 4877SOL     OW26263   2.453   2.134   7.523  0.7195  0.0898 -0.1850
 4877SOL    HW126264   2.395   2.087   7.462  1.5637 -1.1508 -0.0261
 4877SOL    HW226265   2.425   2.223   7.499  0.4550  0.7657  2.6393
 4878SOL     OW26266   4.216   2.096   7.558  0.0944  0.0091 -0.7389
 4878SOL    HW126267   4.194   2.019   7.506  0.8276 -1.8269  1.6654
 4878SOL    HW226268   4.311   2.089   7.551  0.3877  0.3909  2.6386
 4879SOL     OW26269   0.717   2.924   6.530 -0.5737  0.4389  0.0749
 4879SOL    HW126270   0.622   2.922   6.521 -0.7291 -0.2703  1.9723
 4879SOL    HW226271   0.735   2.893   6.619 -0.5403 -2.5527 -0.9569
 4880SOL     OW26272   2.060   2.354   7.499 -0.3773  0.2743  0.4123
 4880SOL    HW126273   2.039   2.260   7.501 -1.9184  0.6449  1.6344
 4880SOL    HW226274   1.970   2.385   7.506 -0.9219 -1.0042 -0.7305
 4881SOL     OW26275   1.439   3.546   7.963 -0.0199  1.0758 -0.4446
 4881SOL    HW126276   1.436   3.620   7.903  0.7893  1.7507  0.3419
 4881SOL    HW226277   1.529   3.558   7.994 -0.0125  0.2132 -0.1432
 4882SOL     OW26278   1.765   2.286   2.753  0.4499  0.0909 -0.1347
 4882SOL    HW126279   1.745   2.235   2.832 -2.1893 -1.0563 -1.5696
 4882SOL    HW226280   1.848   2.245   2.730  0.3088 -1.4204  2.0378
 4883SOL     OW26281   2.198   3.285   8.686  0.3406  0.2732  0.2212
 4883SOL    HW126282   2.156   3.265   8.770 -0.7169 -2.1391 -0.8646
 4883SOL    HW226283   2.219   3.196   8.657  2.1073  0.0322  2.2626
 4884SOL     OW26284   0.919   3.331   6.170 -0.8812  0.1288  0.2248
 4884SOL    HW126285   0.975   3.305   6.097 -0.7959 -1.0968  0.7265
 4884SOL    HW226286   0.931   3.426   6.174  0.2388 -0.0359  0.6099
 4885SOL     OW26287   2.318   1.475   8.763  0.4032  0.1769  0.1149
 4885SOL    HW126288   2.372   1.398   8.748 -0.5395 -0.1252 -1.6412
 4885SOL    HW226289   2.353   1.498   8.849  0.6954 -0.7181  0.2399
 4886SOL     OW26290   3.799   1.917   7.555  0.2013 -1.0241 -0.3639
 4886SOL    HW126291   3.819   2.010   7.559  0.9013 -1.2911  3.0511
 4886SOL    HW226292   3.883   1.897   7.514  0.4223  1.6567 -1.1599
 4887SOL     OW26293   4.278   4.169   3.328  0.2458 -0.3508  0.4362
 4887SOL    HW126294   4.348   4.150   3.392  0.6739 -0.4520 -0.0592
 4887SOL    HW226295   4.219   4.102   3.363 -0.6302  0.9600  1.4668
 4888SOL     OW26296   1.392   4.157   2.795 -0.1162  0.1290  0.1722
 4888SOL    HW126297   1.353   4.076   2.760 -0.6648  0.7405 -0.6267
 4888SOL    HW226298   1.439   4.123   2.871 -0.3082 -1.2550 -0.3183
 4889SOL     OW26299   1.500   0.643   7.195  0.4759 -0.1360  0.0742
 4889SOL    HW126300   1.476   0.726   7.235  2.2812  1.2547 -1.7796
 4889SOL    HW226301   1.445   0.647   7.116  1.8710 -1.0147 -0.9350
 4890SOL     OW26302   2.059   0.580   8.104 -0.2987 -0.6430  0.1777
 4890SOL    HW126303   1.964   0.571   8.112 -0.6361  1.2307 -1.8044
 4890SOL    HW226304   2.080   0.637   8.178 -0.9104 -0.5999  0.3195
 4891SOL     OW26305   2.136   3.441   3.265  0.3188  0.3430 -0.0475
 4891SOL    HW126306   2.041   3.455   3.262  0.2811  0.2752  1.0701
 4891SOL    HW226307   2.146   3.358   3.218 -0.9339  0.7639 -1.0826
 4892SOL     OW26308   0.730   4.075   3.536 -0.2226 -0.8650  0.0112
 4892SOL    HW126309   0.733   3.999   3.594  2.6256 -0.3448  0.5319
 4892SOL    HW226310   0.655   4.119   3.577 -0.0459  1.7018 -2.3985
 4893SOL     OW26311   3.788   4.613   6.561  0.0378  0.1322 -0.2927
 4893SOL    HW126312   3.875   4.642   6.532  1.0050  0.5559  3.0339
 4893SOL    HW226313   3.756   4.557   6.491 -0.3563 -0.8481  0.6649
 4894SOL     OW26314   1.191   0.640   6.198 -0.0583  0.0360  0.5126
 4894SOL    HW126315   1.185   0.623   6.292  1.5720  1.0692  0.8016
 4894SOL    HW226316   1.102   0.674   6.187  0.3195  0.9054  0.1522
 4895SOL     OW26317   2.821   0.342   9.409  0.2803 -0.3564 -0.0996
 4895SOL    HW126318   2.888   0.312   9.348  1.1119  0.3988  0.4455
 4895SOL    HW226319   2.864   0.365   9.491 -4.7816 -1.8949  3.0316
 4896SOL     OW26320   4.679   2.882   2.287 -0.2461  0.1639  0.4768
 4896SOL    HW126321   0.008   2.919   2.226 -0.8175  1.6837  0.7968
 4896SOL    HW226322   4.609   2.948   2.284 -1.1411 -0.8575 -1.2659
 4897SOL     OW26323   4.577   3.132  14.549  0.0523 -0.4129  0.1126
 4897SOL    HW126324   4.595   3.046  14.512  0.6084 -0.9755  1.6999
 4897SOL    HW226325   4.557   3.182  14.469 -1.3078  0.6557  1.1184
 4898SOL     OW26326   1.042   4.396   3.466  0.2262  0.0422 -0.1835
 4898SOL    HW126327   1.024   4.316   3.416  2.0357 -0.4433 -0.0443
 4898SOL    HW226328   1.092   4.358   3.539  0.1116 -0.3332 -0.2994
 4899SOL     OW26329   1.921   3.791   8.198 -0.1662 -0.0425  0.6800
 4899SOL    HW126330   1.916   3.875   8.153 -0.6667  0.1293  1.0607
 4899SOL    HW226331   1.930   3.738   8.119 -2.5266  0.6387 -0.0313
 4900SOL     OW26332   1.944   1.942   6.534  0.2663  0.1000 -0.1593
 4900SOL    HW126333   1.997   1.901   6.466 -1.8013 -2.1255 -0.4500
 4900SOL    HW226334   1.995   1.913   6.610 -0.1047 -0.6898 -0.2138
 4901SOL     OW26335   3.714   1.191  10.087  0.1656  0.0842  0.3695
 4901SOL    HW126336   3.791   1.155  10.131 -0.0625 -0.8100  0.0320
 4901SOL    HW226337   3.734   1.183   9.994 -2.0559  1.4370 -0.2304
 4902SOL     OW26338   1.284   2.500   7.760  0.0264  0.1039 -0.2112
 4902SOL    HW126339   1.201   2.492   7.807 -1.4180  1.4803 -2.5656
 4902SOL    HW226340   1.329   2.564   7.815  0.4463 -0.1635 -0.2426
 4903SOL     OW26341   0.273   1.340  17.192 -0.6158 -0.5548 -0.0179
 4903SOL    HW126342   0.263   1.357  17.286 -1.0086 -0.0579 -0.1471
 4903SOL    HW226343   0.363   1.364  17.172 -0.9512 -2.2074 -3.6384
 4904SOL     OW26344   0.726   2.624   5.848  0.6537 -0.0358 -0.5187
 4904SOL    HW126345   0.705   2.531   5.861  1.0664 -0.1895 -0.9451
 4904SOL    HW226346   0.696   2.631   5.757 -1.5822 -0.1563  0.2259
 4905SOL     OW26347   4.552   1.169   0.409  0.1486  0.2677  0.0935
 4905SOL    HW126348   4.565   1.088   0.360 -0.3683 -0.2542  0.8194
 4905SOL    HW226349   4.495   1.147   0.483  1.8343 -3.5182  0.2352
 4906SOL     OW26350   4.448   3.802   5.337  0.1323  0.4616  0.5709
 4906SOL    HW126351   4.406   3.888   5.337 -1.1810 -0.1588 -1.2311
 4906SOL    HW226352   4.409   3.764   5.415  1.0674  1.1574  1.3641
 4907SOL     OW26353   2.222   0.942   2.854  0.2447  0.2911 -0.1501
 4907SOL    HW126354   2.231   1.035   2.875  0.9039  0.3486 -0.6820
 4907SOL    HW226355   2.210   0.954   2.760  1.6151 -3.1727 -0.7990
 4908SOL     OW26356   4.477   1.792   3.058  0.1182  0.4158 -0.4631
 4908SOL    HW126357   4.508   1.773   3.147 -2.2100 -0.5776  0.1430
 4908SOL    HW226358   4.445   1.706   3.030 -0.4417 -0.0473  1.6124
 4909SOL     OW26359   0.109   0.499   9.781  0.1314  0.0681 -0.3440
 4909SOL    HW126360   0.107   0.480   9.687  0.1331  0.6832 -0.4662
 4909SOL    HW226361   0.022   0.537   9.793 -1.2703 -3.2088  0.1180
 4910SOL     OW26362   1.979   2.699  16.432  0.1590 -0.1684  0.5870
 4910SOL    HW126363   2.045   2.651  16.483  1.2381  2.4455  1.6560
 4910SOL    HW226364   1.932   2.632  16.382  2.3261 -0.8208 -0.6003
 4911SOL     OW26365   4.094   0.258  10.415  0.3661 -0.1162 -0.0305
 4911SOL    HW126366   4.063   0.286  10.329  1.6196  0.6716 -0.2164
 4911SOL    HW226367   4.020   0.208  10.450 -0.1459 -0.5787 -1.7944
 4912SOL     OW26368   3.773   2.172  13.909  0.0371 -0.5116  0.6076
 4912SOL    HW126369   3.678   2.182  13.897 -0.0534 -0.6029  1.2569
 4912SOL    HW226370   3.782   2.095  13.964  1.0197  0.3724  1.6980
 4913SOL     OW26371   1.891   4.033  11.358  0.0702  0.5604  0.6748
 4913SOL    HW126372   1.799   4.052  11.371 -0.6320 -1.7190 -0.9430
 4913SOL    HW226373   1.922   4.116  11.321 -0.1591  1.4515  2.4900
 4914SOL     OW26374   2.605   1.257  13.579  0.3970 -0.2923  0.5048
 4914SOL    HW126375   2.620   1.348  13.607  2.8037 -0.2942 -0.7409
 4914SOL    HW226376   2.542   1.262  13.507  2.3193  0.6069 -1.1345
 4915SOL     OW26377   3.624   2.099   6.072  0.6986  0.2621  0.0735
 4915SOL    HW126378   3.563   2.123   6.142  0.9131  0.9363  0.0333
 4915SOL    HW226379   3.678   2.178   6.079  0.7519  0.2763 -0.5639
 4916SOL     OW26380   0.417   1.482   6.492  0.9298  0.2719 -0.3748
 4916SOL    HW126381   0.464   1.479   6.409  1.6621  0.8416  0.0227
 4916SOL    HW226382   0.390   1.390   6.491 -0.6657  0.7199  1.9547
 4917SOL     OW26383   1.393   1.637  10.519 -0.1436 -0.0811 -0.3722
 4917SOL    HW126384   1.410   1.606  10.608  0.8587 -0.9059 -0.8668
 4917SOL    HW226385   1.450   1.713  10.528 -0.3656  0.0430  0.0105
 4918SOL     OW26386   3.789   4.081   4.779 -0.0150  0.1624 -0.5244
 4918SOL    HW126387   3.742   4.152   4.736 -1.1217 -0.4266 -0.2961
 4918SOL    HW226388   3.724   4.064   4.847  2.5158 -2.8401  1.1520
 4919SOL     OW26389   1.063   1.064  13.138 -0.3600 -0.3868 -0.0750
 4919SOL    HW126390   1.081   1.153  13.169 -0.0038 -0.2242 -0.7440
 4919SOL    HW226391   0.977   1.079  13.098 -0.4203 -1.2366 -0.2664
 4920SOL     OW26392   3.377   3.506  13.565 -0.3748  0.6552 -0.0140
 4920SOL    HW126393   3.294   3.553  13.575 -1.1862 -0.7065 -0.2477
 4920SOL    HW226394   3.429   3.578  13.529  0.2202 -0.6972 -1.8821
 4921SOL     OW26395   1.886   1.960  11.547  0.1723  0.1866 -0.3440
 4921SOL    HW126396   1.806   1.947  11.597 -0.5923  1.2870 -1.2812
 4921SOL    HW226397   1.958   1.941  11.607 -0.7961 -0.6237  0.5569
 4922SOL     OW26398   2.758   3.611   3.050 -0.2647  0.4839 -0.7057
 4922SOL    HW126399   2.813   3.646   2.981  0.9151 -0.0601 -0.0373
 4922SOL    HW226400   2.779   3.519   3.034 -0.9318  0.2644 -0.3401
 4923SOL     OW26401   2.245   2.998   8.624  0.5689 -0.4173  0.1976
 4923SOL    HW126402   2.271   2.934   8.559 -1.2584 -0.0922 -0.8592
 4923SOL    HW226403   2.158   2.974   8.657  0.4237 -1.5814 -1.0390
 4924SOL     OW26404   4.409   1.945  15.263  0.2372  0.0609 -0.0201
 4924SOL    HW126405   4.349   1.883  15.306  0.1508 -0.0812 -0.3451
 4924SOL    HW226406   4.355   2.024  15.262  1.0029  0.5502 -1.0445
 4925SOL     OW26407   2.472   1.955   4.435  0.0120 -0.0194 -0.1801
 4925SOL    HW126408   2.534   1.989   4.500 -1.3040 -0.7975  1.4715
 4925SOL    HW226409   2.446   2.035   4.389  0.0266 -0.4018 -0.8514
 4926SOL     OW26410   3.700   4.630   2.388 -0.3509 -0.2777 -0.5185
 4926SOL    HW126411   3.684   4.655   2.479  0.8817 -4.1517  0.7731
 4926SOL    HW226412   3.612   4.644   2.355 -0.7001 -2.5280 -0.5577
 4927SOL     OW26413   4.241   1.386  16.440 -0.0459 -0.5326 -0.6601
 4927SOL    HW126414   4.185   1.441  16.385  0.2429 -0.9049 -1.3227
 4927SOL    HW226415   4.194   1.303  16.447  0.4492 -0.4836  3.1780
 4928SOL     OW26416   2.154   2.415  16.013 -0.1775 -0.3449 -0.0766
 4928SOL    HW126417   2.087   2.453  15.956  0.2326  2.5673  1.4273
 4928SOL    HW226418   2.216   2.486  16.028  1.1763 -2.0515  2.3392
 4929SOL     OW26419   1.842   2.822   4.044  0.3123  0.1815 -1.4211
 4929SOL    HW126420   1.859   2.750   3.984  0.0730 -0.7809 -0.3459
 4929SOL    HW226421   1.765   2.859   4.002 -0.3279  1.1185  0.5772
 4930SOL     OW26422   1.056   2.171   3.009 -0.3310 -0.7256  0.2238
 4930SOL    HW126423   1.035   2.206   3.096 -1.2720 -1.4653  0.2961
 4930SOL    HW226424   1.075   2.257   2.972 -1.0501 -1.9721 -3.0395
 4931SOL     OW26425   0.508   3.732  11.469 -0.6360 -0.9126  0.1385
 4931SOL    HW126426   0.553   3.667  11.524 -1.3493 -2.4342 -1.0843
 4931SOL    HW226427   0.479   3.680  11.394 -0.6220 -0.9150  0.1347
 4932SOL     OW26428   1.664   2.023   5.422  0.5381 -0.1041 -0.4011
 4932SOL    HW126429   1.577   2.043   5.455  0.7755  0.0492  0.1394
 4932SOL    HW226430   1.646   1.999   5.331  0.3783 -2.2132  0.1847
 4933SOL     OW26431   3.151   3.540   8.959  0.1437  0.2088  0.0927
 4933SOL    HW126432   3.154   3.580   9.046 -0.6894  1.5896 -0.5242
 4933SOL    HW226433   3.102   3.610   8.916  0.7881  0.6672  0.1060
 4934SOL     OW26434   2.582   2.406   3.881  0.1876 -0.0611 -0.3872
 4934SOL    HW126435   2.669   2.373   3.858  0.9533  1.0555  0.9334
 4934SOL    HW226436   2.569   2.466   3.807  0.4835 -1.2344 -1.4013
 4935SOL     OW26437   3.981   3.976   3.831  0.0767  0.8832  0.1298
 4935SOL    HW126438   3.953   4.066   3.851  0.0021  1.1164 -1.0077
 4935SOL    HW226439   3.975   3.940   3.919  0.4261  0.1746 -0.1373
 4936SOL     OW26440   3.634   3.186   6.545  0.1011 -0.3900  0.3973
 4936SOL    HW126441   3.687   3.165   6.622  3.1456  0.9662 -1.3440
 4936SOL    HW226442   3.584   3.105   6.535 -0.3767  0.0008 -0.3799
 4937SOL     OW26443   4.618   0.043   5.739 -0.5402 -0.1767 -0.3701
 4937SOL    HW126444   4.702   0.083   5.714  0.0170 -0.6754  0.6895
 4937SOL    HW226445   4.584   0.095   5.812 -1.8851  1.9757 -2.5374
 4938SOL     OW26446   1.700   1.014  16.723 -0.3591  0.2450  0.0554
 4938SOL    HW126447   1.710   0.956  16.647 -0.2042  0.5066 -0.1282
 4938SOL    HW226448   1.606   0.997  16.730 -0.3561 -0.1419 -0.7865
 4939SOL     OW26449   3.144   0.690   3.547  0.2708  0.1519 -0.3450
 4939SOL    HW126450   3.194   0.614   3.518  0.4548  0.7279 -1.5285
 4939SOL    HW226451   3.058   0.648   3.537 -0.0449  1.0684 -1.4878
 4940SOL     OW26452   2.906   2.256   7.290  0.5514  0.2549  0.7423
 4940SOL    HW126453   2.962   2.263   7.213 -0.8501 -1.2117 -0.4140
 4940SOL    HW226454   2.917   2.346   7.322  1.7735  1.2884 -2.5628
 4941SOL     OW26455   0.396   4.542   3.792 -0.8761  0.2040 -0.3637
 4941SOL    HW126456   0.437   4.481   3.732 -0.8895  0.8695 -1.0507
 4941SOL    HW226457   0.440   4.627   3.786 -0.5182  0.1021  0.8939
 4942SOL     OW26458   1.601   0.081  13.571  1.1112 -0.0689 -0.5523
 4942SOL    HW126459   1.694   0.081  13.547  1.4649  2.4317  0.9048
 4942SOL    HW226460   1.587   0.174  13.557 -0.1832  0.2575  3.1453
 4943SOL     OW26461   3.231   0.939  10.135  0.1666  0.0606  0.3681
 4943SOL    HW126462   3.248   0.882  10.060  0.1428  0.3742  0.1231
 4943SOL    HW226463   3.304   0.933  10.197  0.4514 -1.7005 -0.1131
 4944SOL     OW26464   3.023   4.048   4.395 -0.4632  0.2931 -0.3694
 4944SOL    HW126465   2.943   4.058   4.344 -0.8276 -2.5078 -0.3570
 4944SOL    HW226466   3.005   3.976   4.455  0.7958  0.9815  0.8464
 4945SOL     OW26467   0.340   3.786   0.774  0.3598 -0.8279  0.5354
 4945SOL    HW126468   0.396   3.857   0.743 -0.5912  0.9774  2.9921
 4945SOL    HW226469   0.309   3.748   0.691 -1.0491  3.0426 -0.7305
 4946SOL     OW26470   0.526   3.453  10.160 -0.0773  0.3536 -0.0677
 4946SOL    HW126471   0.471   3.396  10.106 -0.3455  1.0806 -0.5712
 4946SOL    HW226472   0.457   3.507  10.199 -1.1915 -1.1870  0.0815
 4947SOL     OW26473   2.317   4.187   6.202 -0.0637  0.2558  0.5088
 4947SOL    HW126474   2.286   4.259   6.148 -1.2153  0.3465  1.2942
 4947SOL    HW226475   2.346   4.123   6.137  2.1506  0.0859  1.6771
 4948SOL     OW26476   0.434   3.376  14.270  0.6565  0.2188 -0.1858
 4948SOL    HW126477   0.371   3.344  14.205  1.6665 -2.4130  0.1197
 4948SOL    HW226478   0.439   3.301  14.329  1.2966 -0.4656 -1.1073
 4949SOL     OW26479   3.229   0.776   3.992  0.4849 -0.1973  0.2200
 4949SOL    HW126480   3.231   0.682   3.973  2.0134 -0.1738  0.2352
 4949SOL    HW226481   3.153   0.800   3.939  1.3176  0.6547 -0.6055
 4950SOL     OW26482   2.944   1.441   2.715  0.3590 -0.3067 -0.1241
 4950SOL    HW126483   2.911   1.368   2.661 -1.7206 -0.3944  1.2560
 4950SOL    HW226484   2.863   1.467   2.760 -0.3326 -2.3307 -0.1812
 4951SOL     OW26485   4.250   1.295   5.930 -0.6345  0.0591 -0.3502
 4951SOL    HW126486   4.292   1.348   5.863 -2.3511 -1.1048 -2.3190
 4951SOL    HW226487   4.326   1.240   5.951 -0.3595  0.7818  0.5926
 4952SOL     OW26488   4.208   3.811   8.769 -0.3020  0.1836 -0.1260
 4952SOL    HW126489   4.223   3.831   8.677 -0.2496  0.6450 -0.0176
 4952SOL    HW226490   4.281   3.852   8.815  0.2173 -0.3560 -0.4765
 4953SOL     OW26491   3.624   0.053   3.016 -0.4113  0.2083 -0.6423
 4953SOL    HW126492   3.597   0.062   3.108 -1.5724  1.8313 -1.1369
 4953SOL    HW226493   3.718   0.038   3.023 -0.7310 -1.2751  0.3167
 4954SOL     OW26494   2.862   1.202  13.543 -0.0165  0.0757  0.2040
 4954SOL    HW126495   2.843   1.135  13.478 -0.8417 -1.6014  2.1830
 4954SOL    HW226496   2.774   1.239  13.555 -1.5735 -3.5483  0.0142
 4955SOL     OW26497   1.178   1.936   8.640 -0.3395  0.0285  0.4102
 4955SOL    HW126498   1.117   1.916   8.569 -0.1355  2.1275 -0.3694
 4955SOL    HW226499   1.238   1.861   8.638  2.2604  2.0742  1.4150
 4956SOL     OW26500   0.684   3.176   1.124 -0.6313 -0.7132 -0.2351
 4956SOL    HW126501   0.654   3.163   1.034 -0.8053 -1.5586 -0.0579
 4956SOL    HW226502   0.724   3.262   1.113 -1.4878 -0.5006 -1.7379
 4957SOL     OW26503   4.587   2.683  13.026  0.0013  0.0919 -0.0119
 4957SOL    HW126504   4.627   2.621  12.964 -1.6157 -0.6560 -0.3062
 4957SOL    HW226505   4.495   2.659  13.029  0.3118 -1.2345 -0.7921
 4958SOL     OW26506   0.013   2.035   3.286 -0.3881 -0.2401 -0.8565
 4958SOL    HW126507   4.713   2.028   3.197  0.7664 -1.8004 -1.1750
 4958SOL    HW226508   4.706   1.964   3.334  0.2770  0.8777  1.3820
 4959SOL     OW26509   2.715   2.458   6.512  0.2665 -0.0997 -0.1456
 4959SOL    HW126510   2.796   2.428   6.471 -0.5681 -0.0329 -1.8458
 4959SOL    HW226511   2.655   2.446   6.438 -0.2183  0.5996  0.1310
 4960SOL     OW26512   1.376   2.042  15.650  0.6141 -0.0970 -0.1862
 4960SOL    HW126513   1.452   2.029  15.708  0.0058 -0.5119  0.5164
 4960SOL    HW226514   1.374   1.962  15.598 -0.3899  0.5031 -1.0745
 4961SOL     OW26515   1.267   4.596   0.035  0.5649  0.6888 -0.2906
 4961SOL    HW126516   1.312   4.647  17.704  0.8117  1.2483  0.2980
 4961SOL    HW226517   1.206   4.665   0.061  0.1074  0.1540  0.0392
 4962SOL     OW26518   1.583   0.471  16.215  0.3455  0.4191  0.1472
 4962SOL    HW126519   1.554   0.553  16.176  2.5687  1.6813  1.1906
 4962SOL    HW226520   1.634   0.501  16.290 -1.6590 -0.5570  1.9084
 4963SOL     OW26521   3.772   0.702  15.653  0.0666  0.4374 -0.5476
 4963SOL    HW126522   3.853   0.746  15.679  1.3804 -1.3404 -1.6293
 4963SOL    HW226523   3.752   0.671  15.741 -0.5184  1.0703 -0.4563
 4964SOL     OW26524   1.191   2.280  11.650  0.6174 -0.3526 -0.3081
 4964SOL    HW126525   1.134   2.237  11.587  1.6578 -1.7916 -0.2584
 4964SOL    HW226526   1.190   2.369  11.613 -1.2011  0.3155  1.3560
 4965SOL     OW26527   1.021   1.946  10.158 -0.5833 -0.2323  0.0263
 4965SOL    HW126528   1.030   2.030  10.204 -1.5103 -0.4210  0.5721
 4965SOL    HW226529   1.063   1.888  10.222  1.0354  0.4258 -0.4406
 4966SOL     OW26530   3.930   3.160   4.125  0.8338  0.0149  0.3330
 4966SOL    HW126531   3.944   3.235   4.183  1.7142  1.0912 -1.2779
 4966SOL    HW226532   3.982   3.093   4.170 -0.6601 -0.0907  1.9284
 4967SOL     OW26533   2.459   4.709  13.473 -0.4277  0.2728  0.4597
 4967SOL    HW126534   2.516   4.634  13.487  0.3961  0.6533 -0.9296
 4967SOL    HW226535   2.422   4.715  13.385 -0.0103 -0.0607  0.2681
 4968SOL     OW26536   2.144   1.827   8.375 -0.5837 -0.4776 -0.4979
 4968SOL    HW126537   2.161   1.772   8.452 -1.6264 -1.4390 -0.9424
 4968SOL    HW226538   2.179   1.910   8.406  1.4818 -1.4431 -0.2751
 4969SOL     OW26539   0.761   3.831  16.721  0.4379  0.0888 -0.0533
 4969SOL    HW126540   0.678   3.785  16.727 -0.1190  0.9681 -0.9304
 4969SOL    HW226541   0.815   3.777  16.778  0.1767 -0.7641 -0.6055
 4970SOL     OW26542   3.620   0.265   7.078 -0.0733 -0.2303 -0.1860
 4970SOL    HW126543   3.675   0.191   7.101 -1.1573 -0.7133  0.8735
 4970SOL    HW226544   3.645   0.268   6.986  0.6814  1.3474  0.0614
 4971SOL     OW26545   0.237   0.820   7.649  0.6174 -0.0217  0.6189
 4971SOL    HW126546   0.201   0.876   7.580 -0.6755 -3.1623 -1.2844
 4971SOL    HW226547   0.282   0.888   7.698 -0.3196 -0.4662  2.0871
 4972SOL     OW26548   2.275   3.302  17.191 -0.0095  0.3790  0.3836
 4972SOL    HW126549   2.305   3.289  17.101 -0.5459 -2.6315  0.6295
 4972SOL    HW226550   2.249   3.216  17.224 -0.3732  0.4100  0.1694
 4973SOL     OW26551   3.712   2.679   5.677 -0.4403 -0.0671 -0.0449
 4973SOL    HW126552   3.801   2.683   5.642 -0.6477 -2.0822 -0.8028
 4973SOL    HW226553   3.666   2.743   5.624 -1.5389 -1.1010 -0.3286
 4974SOL     OW26554   2.524   2.580   9.200  0.1367  0.0891 -0.1185
 4974SOL    HW126555   2.529   2.668   9.237 -1.0976  0.3581 -0.6123
 4974SOL    HW226556   2.459   2.606   9.135 -1.2104  0.9051  1.5893
 4975SOL     OW26557   0.241   2.183  17.693  0.0495  0.5544  0.1446
 4975SOL    HW126558   0.303   2.216   0.022  0.0643  0.1746  0.3214
 4975SOL    HW226559   0.283   2.210  17.611  1.8803 -2.1609  0.1750
 4976SOL     OW26560   3.892   0.687   9.794 -0.0606  0.1030  0.5515
 4976SOL    HW126561   3.843   0.668   9.874  1.3543 -1.7047  0.9942
 4976SOL    HW226562   3.817   0.694   9.735  0.7718 -0.4324 -0.5716
 4977SOL     OW26563   3.134   1.555   6.835  0.0736  0.1513 -0.3656
 4977SOL    HW126564   3.159   1.506   6.914  0.2815  0.2009 -0.4011
 4977SOL    HW226565   3.071   1.491   6.802 -0.4214  0.9401 -0.9754
 4978SOL     OW26566   1.580   4.296   8.154  0.2345 -0.3724 -0.4614
 4978SOL    HW126567   1.664   4.340   8.136  0.6964 -1.3807 -0.7500
 4978SOL    HW226568   1.543   4.297   8.066  0.6033  0.1187 -0.6169
 4979SOL     OW26569   0.359   0.655  12.375  0.1193  0.6013 -0.6371
 4979SOL    HW126570   0.269   0.685  12.390  0.0727  1.5188 -2.8104
 4979SOL    HW226571   0.347   0.654  12.280 -2.7696 -1.3012 -0.2330
 4980SOL     OW26572   4.086   1.557   5.423 -0.1318  0.0014  0.2024
 4980SOL    HW126573   4.076   1.633   5.480  0.9837 -0.2592  0.7466
 4980SOL    HW226574   4.045   1.568   5.338  0.9158  0.7644 -0.2058
 4981SOL     OW26575   0.679   2.708   6.283 -0.2158  0.2693  0.1758
 4981SOL    HW126576   0.680   2.786   6.339 -1.6045  0.3254  0.1372
 4981SOL    HW226577   0.669   2.753   6.199 -1.2760 -0.3145 -0.0096
 4982SOL     OW26578   2.741   1.949   2.952 -0.2660 -0.2100 -0.1780
 4982SOL    HW126579   2.800   1.885   2.992 -1.2017 -1.9935 -1.6092
 4982SOL    HW226580   2.801   2.023   2.941 -1.6183  1.1545  1.6930
 4983SOL     OW26581   3.822   4.038  13.850 -0.5108 -0.4721  0.3116
 4983SOL    HW126582   3.811   4.068  13.940 -1.2213  1.3013 -0.3821
 4983SOL    HW226583   3.812   4.117  13.797 -2.5124 -1.2461 -0.4839
 4984SOL     OW26584   1.514   3.357   7.747  0.3904  0.9502 -0.5089
 4984SOL    HW126585   1.448   3.315   7.692  0.4621  0.3447 -0.1359
 4984SOL    HW226586   1.466   3.380   7.826  3.8144  0.8681  1.6047
 4985SOL     OW26587   3.174   2.730  10.392  0.5602  0.2434  0.7773
 4985SOL    HW126588   3.242   2.797  10.389  0.6234  0.0574 -2.1258
 4985SOL    HW226589   3.223   2.652  10.419  2.7323  0.6835 -1.8893
 4986SOL     OW26590   0.679   3.810   0.546 -0.6761  0.1514  0.0371
 4986SOL    HW126591   0.612   3.872   0.516  0.2159 -0.2214 -2.6878
 4986SOL    HW226592   0.713   3.767   0.468 -3.2686 -0.5684 -0.7124
 4987SOL     OW26593   4.324   1.714   5.208 -0.4134 -0.0653  0.3042
 4987SOL    HW126594   4.390   1.758   5.154 -1.2475  2.3185  1.2453
 4987SOL    HW226595   4.337   1.628   5.167 -1.0776 -0.2588  0.5014
 4988SOL     OW26596   0.752   2.241   2.107  0.4862 -0.1751  0.0188
 4988SOL    HW126597   0.815   2.249   2.035 -1.6499 -0.8380 -1.8915
 4988SOL    HW226598   0.675   2.221   2.055 -1.2672  2.6962  1.5238
 4989SOL     OW26599   0.678   2.343   5.831 -0.5472  0.0620  0.0198
 4989SOL    HW126600   0.722   2.259   5.839 -1.5610 -0.3154  1.7475
 4989SOL    HW226601   0.685   2.371   5.740  3.2208 -0.5897  0.1479
 4990SOL     OW26602   2.753   2.029   6.590  0.2464 -0.0845  0.1718
 4990SOL    HW126603   2.793   2.115   6.599 -2.6203  1.0436  1.8111
 4990SOL    HW226604   2.672   2.047   6.637  0.9725  0.7378  1.0985
 4991SOL     OW26605   1.990   3.396  16.620 -0.7057 -0.9117 -0.8269
 4991SOL    HW126606   1.948   3.420  16.537 -1.0399  0.5645 -0.2275
 4991SOL    HW226607   2.082   3.394  16.592  0.3086 -0.6593  2.5078
 4992SOL     OW26608   4.157   2.711  16.671  0.7537  0.4051  0.0212
 4992SOL    HW126609   4.136   2.618  16.678 -1.5459  0.6791 -3.3030
 4992SOL    HW226610   4.072   2.745  16.698 -0.0942 -3.1541  1.7856
 4993SOL     OW26611   3.149   2.801  16.324  0.4690  0.0604 -0.2618
 4993SOL    HW126612   3.106   2.823  16.407 -1.1688  0.2647 -1.1672
 4993SOL    HW226613   3.091   2.847  16.264  1.2080 -0.3929 -1.3192
 4994SOL     OW26614   3.874   4.185  14.083 -0.5711 -0.2143 -0.2436
 4994SOL    HW126615   3.953   4.212  14.035 -0.1406 -0.4072  0.3513
 4994SOL    HW226616   3.902   4.187  14.175 -0.7544  0.9953 -0.2123
 4995SOL     OW26617   0.799   0.048   4.579 -0.4456  0.4375  0.6146
 4995SOL    HW126618   0.804   4.687   4.578 -0.5543  0.4540 -1.7667
 4995SOL    HW226619   0.865   0.062   4.648  0.7816 -1.3818 -0.1894
 4996SOL     OW26620   4.009   3.717   0.873  0.2728 -0.2097  0.3720
 4996SOL    HW126621   3.981   3.645   0.929 -2.7060  1.8350  1.5076
 4996SOL    HW226622   4.066   3.667   0.813 -3.1969 -2.5236 -1.0139
 4997SOL     OW26623   2.583   4.457   7.071  0.6305  0.2562  0.3698
 4997SOL    HW126624   2.528   4.496   7.139  2.1317  0.3814  1.5045
 4997SOL    HW226625   2.659   4.436   7.125 -0.6451 -2.0438  1.2861
 4998SOL     OW26626   0.271   0.222   9.570  0.0309 -0.3164  0.3555
 4998SOL    HW126627   0.214   0.236   9.646 -0.6730 -2.1876  0.1751
 4998SOL    HW226628   0.344   0.278   9.595  0.8650 -0.9601 -0.6108
 4999SOL     OW26629   0.711   3.656   6.364 -0.0282  0.6070  0.0548
 4999SOL    HW126630   0.717   3.631   6.272  1.6222  2.0585 -0.2463
 4999SOL    HW226631   0.766   3.735   6.356 -1.3173  1.5560  0.6016
 5000SOL     OW26632   2.811   1.612   0.230  0.1000 -0.9448  0.8030
 5000SOL    HW126633   2.858   1.659   0.161  1.1434 -0.5099  1.8079
 5000SOL    HW226634   2.728   1.586   0.189  0.4911 -0.4673 -0.2789
 5001SOL     OW26635   1.645   3.340  11.708 -0.2214 -0.1250 -0.4022
 5001SOL    HW126636   1.655   3.245  11.709  0.4256 -0.0924 -2.5921
 5001SOL    HW226637   1.585   3.339  11.633 -0.7276  0.9198 -0.0051
 5002SOL     OW26638   1.610   4.202  15.564 -0.0573  0.0900 -0.5763
 5002SOL    HW126639   1.517   4.205  15.541 -0.3156  0.4355  0.5393
 5002SOL    HW226640   1.617   4.167  15.652 -1.0582  0.7671 -0.2235
 5003SOL     OW26641   0.419   4.583   8.005 -0.3543 -0.3337 -0.4518
 5003SOL    HW126642   0.513   4.567   8.001 -0.0877  1.3072 -0.6856
 5003SOL    HW226643   0.394   4.560   8.095  2.1450 -0.5638  0.1767
 5004SOL     OW26644   1.577   2.285   7.898 -0.0025 -0.2701 -0.5316
 5004SOL    HW126645   1.555   2.376   7.920  1.7446  0.6110 -2.3247
 5004SOL    HW226646   1.623   2.267   7.980 -0.7228  1.3702  0.2246
 5005SOL     OW26647   2.405   0.417   3.083 -0.2855 -0.9256 -0.3220
 5005SOL    HW126648   2.326   0.458   3.049  0.1566 -0.6796 -1.0649
 5005SOL    HW226649   2.475   0.460   3.034 -0.1166 -0.1448  0.5923
 5006SOL     OW26650   4.396   1.729   3.846  0.1906  0.0110  0.5575
 5006SOL    HW126651   4.353   1.720   3.932 -0.1635 -0.7544  0.3005
 5006SOL    HW226652   4.318   1.702   3.797  0.1390 -1.7454  1.6152
 5007SOL     OW26653   3.989   1.696   1.350 -0.1206 -0.2151 -0.1390
 5007SOL    HW126654   3.945   1.611   1.359  0.6594 -0.4716  1.1980
 5007SOL    HW226655   4.003   1.699   1.255  0.2579 -0.0391 -0.0782
 5008SOL     OW26656   1.015   4.395   6.206 -0.5955 -0.1883  0.3216
 5008SOL    HW126657   1.020   4.474   6.152  2.0641  0.8926  2.1634
 5008SOL    HW226658   1.038   4.424   6.294 -2.1182  0.6428  0.4502
 5009SOL     OW26659   3.267   1.458  10.194  0.3265  0.1942  0.0339
 5009SOL    HW126660   3.334   1.391  10.178  0.0477 -0.0839  0.0483
 5009SOL    HW226661   3.192   1.414  10.155  0.7746 -0.4491 -0.1104
 5010SOL     OW26662   2.080   4.648  12.542 -0.5590  0.7581  0.2490
 5010SOL    HW126663   2.159   4.593  12.542 -0.8082  0.3843  3.6827
 5010SOL    HW226664   2.067   4.660  12.636  0.2843  1.2135  0.3153
 5011SOL     OW26665   0.385   3.148  14.432 -0.4230 -0.1085  0.0028
 5011SOL    HW126666   0.322   3.133  14.502  0.5954 -2.6688  0.4077
 5011SOL    HW226667   0.340   3.094  14.366 -1.2156 -1.5518  1.7262
 5012SOL     OW26668   4.219   3.570   2.750 -0.6127 -0.0209  0.3830
 5012SOL    HW126669   4.282   3.607   2.689 -2.2864  1.4345 -0.4673
 5012SOL    HW226670   4.265   3.505   2.804 -1.2682 -0.5614  0.2900
 5013SOL     OW26671   2.784   1.827  10.406 -0.1785 -0.3929 -0.0528
 5013SOL    HW126672   2.692   1.839  10.430  0.1637 -1.0273  1.5921
 5013SOL    HW226673   2.780   1.903  10.349  2.0447  0.3932  0.8427
 5014SOL     OW26674   3.652   0.250  11.658 -0.1977  0.1452 -0.5434
 5014SOL    HW126675   3.622   0.209  11.577 -3.5555  1.8628 -0.1646
 5014SOL    HW226676   3.565   0.247  11.697  0.4569 -0.7137  0.8672
 5015SOL     OW26677   4.512   2.270   5.502  0.4297  0.0233 -0.5340
 5015SOL    HW126678   4.591   2.310   5.466  0.4929  1.2555  0.9497
 5015SOL    HW226679   4.455   2.347   5.496 -1.2619 -1.1551  0.4999
 5016SOL     OW26680   0.455   3.692  14.870  0.7322 -0.4843 -0.4289
 5016SOL    HW126681   0.384   3.747  14.837  0.5731  0.0895  0.8817
 5016SOL    HW226682   0.444   3.707  14.963 -1.1477  2.5307 -1.1444
 5017SOL     OW26683   1.043   2.165  10.312  0.1452  0.0028  0.1860
 5017SOL    HW126684   1.044   2.127  10.399 -1.5224 -0.7632 -0.1245
 5017SOL    HW226685   0.957   2.206  10.301  1.5119  3.3818  2.3097
 5018SOL     OW26686   0.394   1.112   2.056  0.1116  0.0476 -0.0658
 5018SOL    HW126687   0.387   1.050   2.128  0.9125 -0.6004 -0.5463
 5018SOL    HW226688   0.323   1.171   2.082  0.1524 -0.3559  0.9652
 5019SOL     OW26689   0.923   3.909   8.941 -0.0975 -0.1321 -0.3262
 5019SOL    HW126690   0.917   3.823   8.899  1.8231 -0.6977  0.5268
 5019SOL    HW226691   0.896   3.886   9.030 -0.5396  0.4072 -0.3234
 5020SOL     OW26692   1.638   3.762   6.414  0.1260  0.4409 -0.1920
 5020SOL    HW126693   1.675   3.687   6.366 -0.0933  0.5522 -0.5360
 5020SOL    HW226694   1.547   3.735   6.425 -0.3275  2.0566 -0.0137
 5021SOL     OW26695   3.704   3.405   6.419  0.1548  0.1181  0.0622
 5021SOL    HW126696   3.621   3.404   6.371 -0.6099 -1.2209  1.4189
 5021SOL    HW226697   3.695   3.331   6.478  2.6738 -0.9481 -0.8980
 5022SOL     OW26698   0.589   4.409   5.404 -0.6904  0.5150  0.1517
 5022SOL    HW126699   0.538   4.488   5.384  0.8318  1.5825  0.4517
 5022SOL    HW226700   0.658   4.422   5.338 -2.4880  1.1759 -1.5889
 5023SOL     OW26701   3.131   1.445   8.577  0.5353  0.0333  0.0479
 5023SOL    HW126702   3.174   1.458   8.492 -1.0090 -1.0147 -0.8942
 5023SOL    HW226703   3.152   1.528   8.620  1.3884 -0.2751  0.2186
 5024SOL     OW26704   3.085   3.120   9.349  0.5666  0.2378  0.1086
 5024SOL    HW126705   3.116   3.130   9.439  1.4660 -0.7285 -0.0894
 5024SOL    HW226706   3.166   3.116   9.297  1.7771  0.0419  1.9988
 5025SOL     OW26707   3.617   3.113   5.528 -0.1996 -0.0356  0.4397
 5025SOL    HW126708   3.555   3.178   5.560 -0.9283 -0.6354  0.2487
 5025SOL    HW226709   3.692   3.169   5.507  1.1522 -1.2335  2.0420
 5026SOL     OW26710   3.533   1.546   2.297 -0.0700 -0.0678  0.5834
 5026SOL    HW126711   3.520   1.527   2.204  0.2046 -1.3430  0.8028
 5026SOL    HW226712   3.617   1.592   2.292 -0.4810  0.5559 -0.6897
 5027SOL     OW26713   2.820   1.793   4.668 -0.2224  0.0816  0.3671
 5027SOL    HW126714   2.910   1.823   4.683 -0.1197 -0.5715  1.0577
 5027SOL    HW226715   2.827   1.742   4.586  1.6051 -0.3562  0.7824
 5028SOL     OW26716   0.342   4.423   6.471  0.2227  0.1169  0.9183
 5028SOL    HW126717   0.299   4.508   6.474 -0.9986 -0.5376  1.8156
 5028SOL    HW226718   0.336   4.396   6.380  0.7360 -0.6760  1.1109
 5029SOL     OW26719   4.715   2.213  16.209 -0.0094  0.5212  0.4029
 5029SOL    HW126720   4.730   2.209  16.303  0.4368  1.5774  0.3723
 5029SOL    HW226721   4.621   2.193  16.203  0.7155 -2.3149 -1.3106
 5030SOL     OW26722   0.317   0.498   7.042 -0.2869  0.3353 -0.2869
 5030SOL    HW126723   0.237   0.468   6.999  0.9224 -0.1862 -2.1887
 5030SOL    HW226724   0.389   0.443   7.011 -1.7618 -0.5430 -2.1577
 5031SOL     OW26725   2.934   4.562   6.855 -0.2257 -0.7371  0.0215
 5031SOL    HW126726   2.963   4.638   6.905 -0.9947 -1.0127  0.8676
 5031SOL    HW226727   3.014   4.513   6.835  0.3542  0.5071 -0.7151
 5032SOL     OW26728   4.676   4.711   1.785  0.7347 -0.2541 -0.0880
 5032SOL    HW126729   4.603   0.001   1.728 -0.0101  0.5435  1.2145
 5032SOL    HW226730   4.732   0.053   1.777  0.0782  0.2221 -0.1696
 5033SOL     OW26731   2.029   3.410   5.810 -0.0848  0.4711  0.1711
 5033SOL    HW126732   2.081   3.391   5.732 -2.0531  1.2011 -1.3206
 5033SOL    HW226733   2.049   3.502   5.825 -0.6434  0.5494  0.4636
 5034SOL     OW26734   3.338   0.985   1.948  0.4123 -1.0099 -0.2068
 5034SOL    HW126735   3.392   0.936   1.886  0.9390  1.1382 -1.4264
 5034SOL    HW226736   3.395   1.043   1.999  1.6995  0.4570 -3.3583
 5035SOL     OW26737   1.636   0.964   5.113 -0.2194  0.2773 -0.2915
 5035SOL    HW126738   1.636   0.939   5.020 -1.9331  0.9769 -0.4831
 5035SOL    HW226739   1.544   0.938   5.123 -0.0962  0.2752  0.8410
 5036SOL     OW26740   4.183   2.896  14.840  0.3230  0.0644  0.4530
 5036SOL    HW126741   4.251   2.848  14.793 -0.0781 -1.9346  1.8890
 5036SOL    HW226742   4.224   2.970  14.885  1.8012 -0.3217 -0.2341
 5037SOL     OW26743   3.689   1.114   2.178 -0.1469 -0.3828  0.4082
 5037SOL    HW126744   3.724   1.028   2.200  0.2024 -0.7952 -1.7782
 5037SOL    HW226745   3.760   1.179   2.180 -0.3130 -0.1665 -0.4377
 5038SOL     OW26746   4.694   4.443  10.171 -0.4312 -0.2218 -0.0513
 5038SOL    HW126747   4.655   4.477  10.091 -0.8556  2.3460  1.2309
 5038SOL    HW226748   4.649   4.505  10.229 -1.3254 -0.1444 -0.8210
 5039SOL     OW26749   3.850   2.780   2.474  0.8526 -0.4888  0.2427
 5039SOL    HW126750   3.793   2.833   2.417  1.7222  0.4592  0.2477
 5039SOL    HW226751   3.784   2.717   2.505  0.5829  0.7541  2.2122
 5040SOL     OW26752   3.803   1.873   8.630 -0.0115  0.4382 -0.1090
 5040SOL    HW126753   3.884   1.876   8.681  0.3900 -0.0197 -0.7298
 5040SOL    HW226754   3.782   1.966   8.636  0.2335  0.4165  1.2209
 5041SOL     OW26755   4.027   1.502   9.117 -0.0315  0.3240 -0.0764
 5041SOL    HW126756   4.016   1.590   9.079 -0.4725  0.0585 -0.5629
 5041SOL    HW226757   4.084   1.474   9.045  0.6688  1.1319  0.1675
 5042SOL     OW26758   2.195   2.945   2.008 -0.4574 -0.5798 -0.0632
 5042SOL    HW126759   2.259   2.969   2.075 -0.2536 -0.8396 -0.1689
 5042SOL    HW226760   2.128   2.914   2.070  0.0266  0.1044  0.7976
 5043SOL     OW26761   2.614   0.202   4.244  0.5513 -0.2066 -0.4512
 5043SOL    HW126762   2.648   0.290   4.258 -0.1156  0.1699 -1.1748
 5043SOL    HW226763   2.675   0.145   4.291 -1.1696 -0.4707  1.4228
 5044SOL     OW26764   0.146   2.535   5.896  0.0984  0.2654  0.1936
 5044SOL    HW126765   0.117   2.489   5.975 -0.7262 -0.0293 -0.2869
 5044SOL    HW226766   0.228   2.493   5.869 -0.5333 -0.4580 -0.5865
 5045SOL     OW26767   4.597   2.331   7.081  0.1784 -0.4317 -0.0523
 5045SOL    HW126768   4.606   2.402   7.017  0.9344 -1.5893 -1.2291
 5045SOL    HW226769   4.512   2.346   7.122 -0.7914 -2.4803 -1.3097
 5046SOL     OW26770   3.817   2.249   2.182  0.3447  0.0532 -0.2336
 5046SOL    HW126771   3.834   2.161   2.214 -2.3608  0.0557  1.2010
 5046SOL    HW226772   3.728   2.261   2.215 -0.1992 -0.1047 -1.6534
 5047SOL     OW26773   3.508   1.663   4.485 -0.2487  0.0106 -0.6055
 5047SOL    HW126774   3.521   1.686   4.577 -0.4291 -0.3792 -0.4801
 5047SOL    HW226775   3.412   1.657   4.483 -0.0817 -1.8708 -2.5964
 5048SOL     OW26776   0.523   3.524   9.516  0.3516  0.4300  0.7079
 5048SOL    HW126777   0.494   3.482   9.597 -0.4136 -0.0611  0.1761
 5048SOL    HW226778   0.573   3.602   9.543 -0.5467  1.3910 -0.4118
 5049SOL     OW26779   0.886   4.178   8.003  0.2874 -0.5545 -0.2751
 5049SOL    HW126780   0.952   4.108   8.010  1.5889  0.9587  2.5154
 5049SOL    HW226781   0.823   4.155   8.071 -0.3003  0.5523 -0.4499
 5050SOL     OW26782   3.114   4.647   1.185  0.5772  0.3512  0.0135
 5050SOL    HW126783   3.037   4.674   1.234  2.2096  2.0314  1.6291
 5050SOL    HW226784   3.174   4.718   1.207  2.5888 -1.4376  0.3207
 5051SOL     OW26785   2.575   0.522  12.443  0.0495  0.2916  0.1438
 5051SOL    HW126786   2.511   0.570  12.497  0.8350 -0.3618  1.6415
 5051SOL    HW226787   2.563   0.560  12.355 -0.5107 -2.8922 -1.1413
 5052SOL     OW26788   4.212   4.329   7.747 -0.6967 -0.1786  0.0377
 5052SOL    HW126789   4.264   4.401   7.713  2.0403 -2.6236 -0.8879
 5052SOL    HW226790   4.124   4.343   7.711 -0.9139 -1.2641  0.1585
 5053SOL     OW26791   2.536   2.455   7.574  0.1510  0.5418  0.1594
 5053SOL    HW126792   2.460   2.443   7.517 -1.6155  2.4994  2.0896
 5053SOL    HW226793   2.543   2.551   7.575 -0.7375  0.6042  0.1241
 5054SOL     OW26794   1.200   0.201   3.528  0.4454 -0.8545  0.5243
 5054SOL    HW126795   1.239   0.219   3.613  3.2710  0.0960 -0.9721
 5054SOL    HW226796   1.279   0.213   3.476  1.5737 -1.0590  2.1988
 5055SOL     OW26797   2.209   3.441   4.833 -0.3264 -0.5026 -0.3483
 5055SOL    HW126798   2.207   3.353   4.872  2.3925 -0.9756 -1.2819
 5055SOL    HW226799   2.278   3.430   4.768 -0.1566 -1.1247 -0.0586
 5056SOL     OW26800   4.530   4.535   4.333 -0.1585  0.2014 -0.0477
 5056SOL    HW126801   4.504   4.619   4.296 -0.8805 -1.0107 -2.3497
 5056SOL    HW226802   4.597   4.557   4.397  0.4111 -0.4430 -0.4223
 5057SOL     OW26803   1.641   1.171  17.446  0.3196  0.2996 -0.0291
 5057SOL    HW126804   1.685   1.133  17.523 -2.3741 -2.4779  0.0965
 5057SOL    HW226805   1.572   1.107  17.433  0.5731 -0.1394  0.7885
 5058SOL     OW26806   0.538   1.745   9.586  0.0714  0.2422  0.7458
 5058SOL    HW126807   0.506   1.701   9.507  0.5200  3.7546 -1.3751
 5058SOL    HW226808   0.511   1.835   9.565  2.0099  0.7962  0.6669
 5059SOL     OW26809   1.298   4.709   6.205 -0.4396  0.0119  0.4530
 5059SOL    HW126810   1.255   4.638   6.157 -0.3239  0.8707 -0.9222
 5059SOL    HW226811   1.378   4.724   6.154 -0.0944 -0.5665  0.8182
 5060SOL     OW26812   0.396   0.843  17.065 -0.2499 -0.5006 -0.4227
 5060SOL    HW126813   0.446   0.900  17.006 -0.4119 -0.8366 -0.8892
 5060SOL    HW226814   0.344   0.907  17.113  0.1561  0.7274 -1.6258
 5061SOL     OW26815   3.162   1.120   3.964  0.7317 -0.1797  0.3510
 5061SOL    HW126816   3.116   1.198   3.994 -0.0936 -0.5106 -0.0550
 5061SOL    HW226817   3.158   1.130   3.869 -1.4642  0.0944  0.4747
 5062SOL     OW26818   4.530   0.739   8.283 -0.5496 -0.0786 -0.0154
 5062SOL    HW126819   4.514   0.818   8.231  0.6773  1.5594  2.0948
 5062SOL    HW226820   4.471   0.749   8.357 -0.6345  2.4986 -0.4248
 5063SOL     OW26821   2.614   1.433   8.245 -0.2176  0.3142  0.3279
 5063SOL    HW126822   2.537   1.487   8.262 -1.8872 -1.6540 -0.9692
 5063SOL    HW226823   2.680   1.493   8.210  0.6299 -0.7798  0.0340
 5064SOL     OW26824   4.492   3.060   1.652 -0.8658 -0.0583 -0.3126
 5064SOL    HW126825   4.507   2.966   1.664  0.1851  0.2641  0.9732
 5064SOL    HW226826   4.536   3.079   1.569 -1.5587  2.8528 -0.0296
 5065SOL     OW26827   3.140   3.475   6.053  0.1598  0.0230  0.1700
 5065SOL    HW126828   3.162   3.393   6.008 -2.9565 -0.5238 -0.3970
 5065SOL    HW226829   3.210   3.534   6.027 -0.5022  1.1536  0.9811
 5066SOL     OW26830   2.541   2.634   8.609  0.1581 -0.1370 -0.2366
 5066SOL    HW126831   2.605   2.562   8.605 -1.1295 -1.3357  1.0310
 5066SOL    HW226832   2.587   2.694   8.549 -1.1163  0.5418 -0.5198
 5067SOL     OW26833   4.012   0.122   3.257 -0.5989  0.2318  0.0123
 5067SOL    HW126834   4.031   0.203   3.304 -0.1284 -0.6131  1.2757
 5067SOL    HW226835   3.943   0.096   3.317 -2.2492 -2.8760 -3.2615
 5068SOL     OW26836   1.608   1.273   8.218 -0.2803  0.2807  0.7255
 5068SOL    HW126837   1.647   1.186   8.204 -0.6215  0.5383 -1.8072
 5068SOL    HW226838   1.666   1.311   8.284 -0.5108 -0.4712  1.3655
 5069SOL     OW26839   4.622   0.949   0.233 -0.1798 -0.0198  0.0286
 5069SOL    HW126840   4.689   0.923   0.296 -0.8161  0.0632  0.7270
 5069SOL    HW226841   4.682   0.998   0.177 -1.4234  0.8857 -0.5067
 5070SOL     OW26842   4.053   0.504  15.359 -0.5815 -0.0187  0.0687
 5070SOL    HW126843   3.962   0.496  15.387 -0.6840 -0.1195 -0.2874
 5070SOL    HW226844   4.101   0.470  15.435 -1.9669  2.3404  1.9667
 5071SOL     OW26845   3.353   2.119   2.089 -0.5531 -0.2714 -0.9763
 5071SOL    HW126846   3.364   2.028   2.060  0.0823 -0.7085  0.6249
 5071SOL    HW226847   3.409   2.140   2.163 -1.1353  1.4548 -1.0175
 5072SOL     OW26848   2.018   2.595  15.864 -0.4301 -0.2434  0.1816
 5072SOL    HW126849   2.018   2.654  15.939  1.0973  1.0871 -0.8792
 5072SOL    HW226850   1.935   2.609  15.819 -0.8214  0.5791  1.1492
 5073SOL     OW26851   2.984   3.238   5.457  0.2999  0.0899 -0.4833
 5073SOL    HW126852   3.040   3.291   5.514  0.5675  0.4700 -1.0913
 5073SOL    HW226853   3.029   3.248   5.373  1.2673  1.5579  0.1962
 5074SOL     OW26854   3.685   0.545   8.351  0.0813  0.6271 -0.0724
 5074SOL    HW126855   3.735   0.534   8.432  0.4002 -0.6030 -0.4358
 5074SOL    HW226856   3.601   0.517   8.387  0.3841 -1.1747 -0.7838
 5075SOL     OW26857   3.544   3.915   9.267 -0.2540  0.5815  0.3314
 5075SOL    HW126858   3.487   3.989   9.292 -1.1900  0.5864 -1.7994
 5075SOL    HW226859   3.582   3.895   9.352 -2.2167  0.9020  1.3032
 5076SOL     OW26860   3.060   1.643   7.166 -0.1045  0.3308  0.3499
 5076SOL    HW126861   3.027   1.562   7.204 -0.8994  0.0197 -0.9760
 5076SOL    HW226862   2.981   1.697   7.154  1.0713  1.3779 -2.7889
 5077SOL     OW26863   2.378   4.302   1.750  0.4575 -0.6837 -0.7423
 5077SOL    HW126864   2.385   4.279   1.843  0.6223 -0.4198 -0.6878
 5077SOL    HW226865   2.332   4.385   1.763  0.7902 -0.3693 -1.5753
 5078SOL     OW26866   2.834   0.158   1.139  0.3400 -0.1805  0.3997
 5078SOL    HW126867   2.768   0.196   1.197  1.0666 -1.8629  2.3376
 5078SOL    HW226868   2.839   0.070   1.177  0.2576 -0.5714 -0.4911
 5079SOL     OW26869   1.905   4.129  16.891 -0.1619 -0.1362 -0.5511
 5079SOL    HW126870   1.848   4.170  16.826 -1.0107  0.4569  0.5584
 5079SOL    HW226871   1.973   4.087  16.840 -1.3723 -1.2047 -1.2889
 5080SOL     OW26872   4.631   1.705   9.040  0.3045  0.1387  0.5206
 5080SOL    HW126873   4.661   1.727   9.128 -1.2118  0.8730  0.8533
 5080SOL    HW226874   4.625   1.793   9.002  2.2508  0.1798  0.3209
 5081SOL     OW26875   2.349   4.303  12.310  0.6306  0.2581 -0.3452
 5081SOL    HW126876   2.355   4.239  12.239 -0.7666  1.4006 -1.4864
 5081SOL    HW226877   2.435   4.342  12.292  2.3404 -2.1513  2.8093
 5082SOL     OW26878   0.370   2.229   2.851 -0.2975 -0.5560  0.3177
 5082SOL    HW126879   0.422   2.172   2.795 -0.4144  0.7483 -1.1073
 5082SOL    HW226880   0.364   2.319   2.818 -1.8133 -1.1051 -0.8714
 5083SOL     OW26881   0.868   4.490  16.927  0.3311  0.1127  0.4652
 5083SOL    HW126882   0.779   4.481  16.961  0.1805  0.0465  0.0588
 5083SOL    HW226883   0.857   4.577  16.888  0.0394 -2.0385 -4.2517
 5084SOL     OW26884   3.356   2.239   0.400 -0.3226  0.3808 -0.3394
 5084SOL    HW126885   3.295   2.298   0.444 -1.1695  0.0957 -1.1387
 5084SOL    HW226886   3.293   2.205   0.336  0.9198  0.7836 -1.7865
 5085SOL     OW26887   3.141   3.103   6.178 -0.0064 -0.1847 -0.1987
 5085SOL    HW126888   3.200   3.057   6.118  0.5802 -0.2185  0.4058
 5085SOL    HW226889   3.120   3.179   6.123 -0.8706  0.1731  0.6157
 5086SOL     OW26890   1.868   4.301  12.052  0.2561 -0.2756  0.3544
 5086SOL    HW126891   1.901   4.389  12.069  2.7210 -1.2720  0.6713
 5086SOL    HW226892   1.802   4.333  11.990  1.4314  2.5565  0.5962
 5087SOL     OW26893   2.872   2.572   3.182 -0.1182  1.0083  0.0651
 5087SOL    HW126894   2.907   2.597   3.096  0.0275  3.7371  0.9314
 5087SOL    HW226895   2.871   2.658   3.225 -0.8201 -0.0515  2.1533
 5088SOL     OW26896   4.420   0.138  12.754  0.2589  0.1120 -0.0372
 5088SOL    HW126897   4.506   0.113  12.789 -0.1175  1.8738  2.1457
 5088SOL    HW226898   4.389   0.205  12.815  0.3422  0.0117  0.1157
 5089SOL     OW26899   3.228   4.170   6.459 -0.0983  0.2099 -0.3633
 5089SOL    HW126900   3.141   4.188   6.421 -0.4314  2.6249  1.5011
 5089SOL    HW226901   3.189   4.110   6.522 -0.6831  2.1529  1.1424
 5090SOL     OW26902   4.135   3.091   6.428 -0.2466  0.4665  0.6431
 5090SOL    HW126903   4.219   3.045   6.424  0.9584  2.7713 -0.3573
 5090SOL    HW226904   4.123   3.097   6.522 -0.1053  2.8440  0.4940
 5091SOL     OW26905   1.077   3.269   9.112  0.1503 -0.5102 -0.3117
 5091SOL    HW126906   1.096   3.271   9.206 -0.2106  0.6450 -0.2552
 5091SOL    HW226907   1.125   3.191   9.084  1.0369 -0.6377  1.5204
 5092SOL     OW26908   3.311   3.439   2.594 -0.1570 -0.2233 -0.2581
 5092SOL    HW126909   3.289   3.348   2.572  1.6861 -0.7032 -0.1536
 5092SOL    HW226910   3.261   3.449   2.675  0.9771  0.0872  0.4061
 5093SOL     OW26911   1.569   0.520   2.741  0.2222  0.3180  0.1131
 5093SOL    HW126912   1.642   0.539   2.681  0.3522 -0.8394 -0.0896
 5093SOL    HW226913   1.493   0.506   2.685  0.6254 -0.8731 -0.1223
 5094SOL     OW26914   3.052   2.821   5.440  0.1267  0.1616 -0.1832
 5094SOL    HW126915   3.059   2.867   5.357 -0.4507  0.8494  0.1482
 5094SOL    HW226916   2.995   2.877   5.493  2.1716  0.7698  1.3339
 5095SOL     OW26917   0.986   2.313   3.218  0.5938  0.8867  0.3837
 5095SOL    HW126918   1.037   2.393   3.231  1.3553  0.4502  0.1446
 5095SOL    HW226919   0.945   2.306   3.304 -1.1256  1.6354 -0.3916
 5096SOL     OW26920   1.967   3.611  15.047 -0.3512  0.1240  0.1158
 5096SOL    HW126921   1.975   3.706  15.045  1.6389 -0.0416 -0.2710
 5096SOL    HW226922   1.966   3.594  15.141 -2.4434  0.2097  0.1199
 5097SOL     OW26923   3.448   3.190  14.365 -0.4215 -0.0609  0.2204
 5097SOL    HW126924   3.514   3.236  14.313  0.1811  0.4326  1.4214
 5097SOL    HW226925   3.365   3.236  14.356 -1.2547 -1.3585  1.3942
 5098SOL     OW26926   0.609   3.918   4.259  0.7686 -0.6785  0.0407
 5098SOL    HW126927   0.605   4.009   4.289  0.9227 -0.3040 -1.0609
 5098SOL    HW226928   0.616   3.924   4.164  2.4496 -1.0076  0.1485
 5099SOL     OW26929   2.461   2.743   2.175  0.2507  0.3050  0.2699
 5099SOL    HW126930   2.556   2.753   2.164  0.2680  1.3693  1.3056
 5099SOL    HW226931   2.459   2.685   2.099 -1.5503  1.3525 -0.4782
 5100SOL     OW26932   1.529   3.406  15.201  0.2533  0.1560 -0.6146
 5100SOL    HW126933   1.573   3.352  15.266  0.7310 -0.0842 -1.1460
 5100SOL    HW226934   1.602   3.434  15.146  2.0334 -0.3802  1.4739
 5101SOL     OW26935   0.391   3.809   1.893  0.4161 -0.5004  0.3343
 5101SOL    HW126936   0.444   3.875   1.938  0.1076  0.1956 -0.3124
 5101SOL    HW226937   0.308   3.833   1.934 -0.1690 -2.0815  0.0758
 5102SOL     OW26938   0.034   1.649   6.216  0.0152  0.2126 -0.2681
 5102SOL    HW126939   0.008   1.611   6.300 -0.8527 -1.1850 -1.1550
 5102SOL    HW226940   0.120   1.607   6.217 -0.2690 -0.3946 -1.0394
 5103SOL     OW26941   3.660   2.896   9.479  0.4174 -0.0866 -0.2215
 5103SOL    HW126942   3.583   2.867   9.431  1.2556  0.5271 -1.9397
 5103SOL    HW226943   3.673   2.812   9.524  1.8395 -0.1066 -0.6663
 5104SOL     OW26944   0.666   3.081   0.606 -0.4330 -0.2382 -0.1860
 5104SOL    HW126945   0.590   3.135   0.586  1.6345  2.6444 -0.3965
 5104SOL    HW226946   0.655   3.004   0.551  0.9096  0.4925 -1.4791
 5105SOL     OW26947   0.083   3.492   4.387 -0.5079 -0.2294  0.0512
 5105SOL    HW126948   0.135   3.536   4.455 -1.5716  1.1413 -0.0169
 5105SOL    HW226949   4.731   3.504   4.426  0.4561 -0.1210  2.1902
 5106SOL     OW26950   0.259   4.624  11.493  0.3753 -0.0844 -0.1678
 5106SOL    HW126951   0.334   4.608  11.551  0.6101  4.0787  0.6517
 5106SOL    HW226952   0.223   4.536  11.487  0.9194 -0.2772 -0.6554
 5107SOL     OW26953   0.258   0.034  15.841 -0.5580  0.4382  0.2362
 5107SOL    HW126954   0.225   4.679  15.830  0.4535  0.0713  0.1890
 5107SOL    HW226955   0.283   0.061  15.753 -0.7567 -0.0724  0.0241
 5108SOL     OW26956   3.810   0.070   7.093 -0.4332  0.0999  0.3324
 5108SOL    HW126957   3.793   0.002   7.027  0.2294  1.7412 -1.5473
 5108SOL    HW226958   3.879   0.026   7.142 -0.4368  0.4613  0.6646
 5109SOL     OW26959   1.808   3.914  14.170 -0.1755  0.3255  0.1122
 5109SOL    HW126960   1.781   3.822  14.176 -0.8599  0.4824 -0.7018
 5109SOL    HW226961   1.785   3.920  14.078  2.2961  0.9605 -0.4736
 5110SOL     OW26962   0.864   4.160   1.788 -0.0226 -0.2840 -0.2600
 5110SOL    HW126963   0.827   4.238   1.829  0.8654  1.1461 -2.1741
 5110SOL    HW226964   0.958   4.178   1.797  0.4544 -0.8239 -3.8712
 5111SOL     OW26965   4.162   3.057   3.941  0.3386  0.0677  0.0685
 5111SOL    HW126966   4.257   3.041   3.937 -0.0328 -1.8852 -0.6696
 5111SOL    HW226967   4.141   2.975   3.987 -1.2592  1.7506  2.3290
 5112SOL     OW26968   2.391   1.069   0.018  0.2504  0.0374  0.4037
 5112SOL    HW126969   2.476   1.111   0.005  0.1953 -0.0113 -0.1463
 5112SOL    HW226970   2.328   1.139  17.737 -0.2258 -0.2370  1.0092
 5113SOL     OW26971   3.266   2.943   7.133  0.3849 -0.5154 -0.0378
 5113SOL    HW126972   3.222   3.018   7.094  0.9587  0.5863  1.4153
 5113SOL    HW226973   3.234   2.954   7.223 -1.0449 -0.8873 -0.5039
 5114SOL     OW26974   0.966   4.038  16.509 -0.5306  0.1574 -0.2835
 5114SOL    HW126975   0.886   3.987  16.503 -0.6652  0.3188  0.1527
 5114SOL    HW226976   1.008   4.002  16.430 -0.7579  2.3985 -1.4398
 5115SOL     OW26977   3.999   3.144   4.754  0.0053  0.2320  0.3587
 5115SOL    HW126978   3.909   3.163   4.727  0.0806  1.2416  0.8323
 5115SOL    HW226979   4.009   3.053   4.727 -1.4339 -0.5828  2.5596
 5116SOL     OW26980   2.906   0.205   0.558 -0.0024  0.0337  0.5996
 5116SOL    HW126981   2.953   0.168   0.633 -0.6591  0.3818  1.1870
 5116SOL    HW226982   2.852   0.273   0.599 -2.1641 -0.0652 -2.0748
 5117SOL     OW26983   0.969   2.517   8.507  0.1810  0.2618 -0.2449
 5117SOL    HW126984   0.985   2.452   8.575  2.4648 -0.4895 -1.5136
 5117SOL    HW226985   0.874   2.514   8.500  0.0719  1.7859  0.4524
 5118SOL     OW26986   2.374   2.789  14.385 -0.4640  0.7767  0.3464
 5118SOL    HW126987   2.282   2.766  14.387 -0.7204  1.5919 -2.6833
 5118SOL    HW226988   2.399   2.722  14.449  0.0459 -0.6375 -1.3322
 5119SOL     OW26989   1.974   0.168   4.297  0.6593  0.1305 -0.2609
 5119SOL    HW126990   1.915   0.093   4.304 -1.3563  1.4990 -2.6125
 5119SOL    HW226991   2.059   0.124   4.292  0.6121 -0.1203  1.1479
 5120SOL     OW26992   4.265   1.237   2.376  0.1577 -0.0322  0.1227
 5120SOL    HW126993   4.333   1.177   2.346  2.3055  1.7972  1.3247
 5120SOL    HW226994   4.209   1.177   2.425  0.7981 -2.5092 -2.2296
 5121SOL     OW26995   1.334   3.873   2.748  0.1571  0.1487 -0.5619
 5121SOL    HW126996   1.305   3.813   2.817 -0.2477 -1.6393 -2.2876
 5121SOL    HW226997   1.411   3.840   2.701 -0.0280  1.2533 -1.6240
 5122SOL     OW26998   4.432   2.328   7.571  0.5860  0.1595 -0.5611
 5122SOL    HW126999   4.493   2.320   7.499  1.1243  1.6019 -0.2689
 5122SOL    HW227000   4.352   2.325   7.518 -1.6875  1.8553  2.7675
 5123SOL     OW27001   2.344   3.896   4.335 -0.1420  0.2616  0.2778
 5123SOL    HW127002   2.379   3.929   4.417 -0.3490  1.5293 -0.1363
 5123SOL    HW227003   2.255   3.877   4.363 -0.1851  0.8560  0.5378
 5124SOL     OW27004   1.853   0.311   6.788  0.0262 -0.2520  0.1375
 5124SOL    HW127005   1.940   0.350   6.789  0.9061 -2.1949 -2.2985
 5124SOL    HW227006   1.881   0.222   6.807  4.4733  1.2849  0.7764
 5125SOL     OW27007   2.222   4.332   3.833 -0.0374  0.4653 -0.4272
 5125SOL    HW127008   2.232   4.242   3.866 -0.2402  0.1273 -1.2857
 5125SOL    HW227009   2.215   4.368   3.921 -1.2147  1.1227 -0.8015
 5126SOL     OW27010   0.729   2.790  14.686  0.4968 -0.4685 -0.4811
 5126SOL    HW127011   0.693   2.819  14.769 -1.7688  2.0505 -2.3565
 5126SOL    HW227012   0.710   2.861  14.625  0.0906 -2.2134 -2.3816
 5127SOL     OW27013   3.182   4.289   1.480  0.9987  0.6371  0.1016
 5127SOL    HW127014   3.161   4.216   1.538 -0.8037  0.2909 -0.9879
 5127SOL    HW227015   3.153   4.253   1.396 -0.5805  2.6456 -0.2117
 5128SOL     OW27016   2.867   0.011   2.552  0.3546 -0.3450  0.0797
 5128SOL    HW127017   2.956   0.024   2.586 -0.3079 -1.0188  2.0621
 5128SOL    HW227018   2.849   0.098   2.515 -0.5514 -0.2696  0.7063
 5129SOL     OW27019   0.170   3.844   7.960 -0.3327 -0.1941 -0.6888
 5129SOL    HW127020   0.247   3.858   7.905  0.6342  1.2743  1.0488
 5129SOL    HW227021   0.199   3.814   8.046 -0.4150 -0.0512 -0.6105
 5130SOL     OW27022   2.222   3.136   5.776 -0.4504 -0.3295 -0.6637
 5130SOL    HW127023   2.278   3.097   5.843 -1.2621  0.8142  0.6479
 5130SOL    HW227024   2.288   3.184   5.726  3.1630 -0.7478  3.7385
 5131SOL     OW27025   1.248   2.343   8.544  0.1311  0.1410  0.3464
 5131SOL    HW127026   1.157   2.325   8.522  0.1768  2.5011 -1.7649
 5131SOL    HW227027   1.258   2.430   8.504  0.8771 -0.0726  0.0766
 5132SOL     OW27028   2.263   2.144   3.646  0.0828 -0.2356 -0.4626
 5132SOL    HW127029   2.342   2.100   3.678 -0.0907 -0.8187 -0.8540
 5132SOL    HW227030   2.298   2.226   3.611 -0.1164  0.8555  1.8709
 5133SOL     OW27031   3.300   0.770   2.586  0.0036 -0.0231 -0.1682
 5133SOL    HW127032   3.252   0.689   2.605 -0.7039  1.6577  4.9339
 5133SOL    HW227033   3.353   0.736   2.514 -3.2923 -2.1448 -1.6130
 5134SOL     OW27034   4.689   1.366   5.610  0.2944  0.2723 -0.5245
 5134SOL    HW127035   0.008   1.369   5.689  0.4130  1.5852 -0.6597
 5134SOL    HW227036   4.644   1.450   5.617  1.8941  1.0410  0.4793
 5135SOL     OW27037   3.015   1.831   4.103  0.1180 -0.2367 -0.2803
 5135SOL    HW127038   3.038   1.884   4.027  1.0282  1.3432  1.1258
 5135SOL    HW227039   2.987   1.751   4.058 -0.0117 -0.4328  0.1570
 5136SOL     OW27040   3.600   3.605   6.073  0.4662 -0.2275  0.3802
 5136SOL    HW127041   3.674   3.566   6.027  1.0689  1.1243  0.2041
 5136SOL    HW227042   3.630   3.695   6.085 -3.1428  1.1034 -0.3090
 5137SOL     OW27043   0.319   0.394   9.210 -0.4108  0.3359 -0.0140
 5137SOL    HW127044   0.354   0.435   9.289 -0.5462 -1.4234  0.9416
 5137SOL    HW227045   0.230   0.384   9.242 -0.6059 -2.2928 -1.3953
 5138SOL     OW27046   4.557   3.856   2.063  0.2801  0.2808 -0.0021
 5138SOL    HW127047   4.546   3.949   2.078 -0.6551 -0.2574  2.5610
 5138SOL    HW227048   4.473   3.822   2.096  0.6309  0.8979  1.4925
 5139SOL     OW27049   1.224   3.960   1.320 -0.2391 -0.3946 -0.2337
 5139SOL    HW127050   1.152   4.000   1.369 -0.4757 -2.5323  1.1924
 5139SOL    HW227051   1.210   3.986   1.229  0.4431 -0.3085 -0.3136
 5140SOL     OW27052   4.425   3.219   9.729 -0.0506  0.5352 -0.4510
 5140SOL    HW127053   4.332   3.219   9.753  0.4434 -0.3012  1.4556
 5140SOL    HW227054   4.443   3.299   9.679 -2.0024  1.1877 -0.1211
 5141SOL     OW27055   2.036   4.308  10.476 -0.5904 -0.3673 -0.2043
 5141SOL    HW127056   2.094   4.237  10.449  1.9295  1.7099 -0.2606
 5141SOL    HW227057   2.079   4.393  10.461 -2.0238  0.6383  1.3689
 5142SOL     OW27058   0.295   4.115   5.321 -0.3147  0.3827 -0.1936
 5142SOL    HW127059   0.326   4.084   5.236  0.9711 -1.7140  1.0360
 5142SOL    HW227060   0.210   4.071   5.326  0.8213 -1.9425 -0.9915
 5143SOL     OW27061   2.809   2.456   4.788 -0.0998 -0.0025 -0.3442
 5143SOL    HW127062   2.761   2.508   4.852 -1.0759 -2.7988  1.1808
 5143SOL    HW227063   2.860   2.522   4.742  0.2995 -0.9479 -1.2725
 5144SOL     OW27064   2.158   1.457  12.081  0.3882 -0.0956  0.1625
 5144SOL    HW127065   2.099   1.382  12.094  3.6028 -2.7396 -0.4582
 5144SOL    HW227066   2.131   1.486  11.994 -2.2233 -0.8383  0.7070
 5145SOL     OW27067   4.628   3.222   7.662  0.6693 -0.5865 -0.2684
 5145SOL    HW127068   4.694   3.155   7.643  1.1574 -0.8942  2.5804
 5145SOL    HW227069   4.640   3.229   7.756 -0.5541 -0.5699 -0.1066
 5146SOL     OW27070   2.090   1.808  12.557 -0.3619 -0.5503 -0.1968
 5146SOL    HW127071   2.045   1.887  12.530  0.7741 -0.5029 -1.9304
 5146SOL    HW227072   2.116   1.776  12.470 -2.4165 -1.1450 -0.5986
 5147SOL     OW27073   4.333   0.216  12.473 -0.3687  0.5587  0.5792
 5147SOL    HW127074   4.306   0.129  12.446  1.8128  0.7297 -2.2002
 5147SOL    HW227075   4.377   0.200  12.557  2.2533  2.7527 -0.3502
 5148SOL     OW27076   2.811   1.109  12.809 -0.3180 -0.3259  0.0433
 5148SOL    HW127077   2.746   1.177  12.824 -0.8313 -0.4346 -1.7325
 5148SOL    HW227078   2.891   1.161  12.802 -0.9959  0.6120 -0.7419
 5149SOL     OW27079   2.474   1.158   6.665 -0.0880  0.4459 -0.1890
 5149SOL    HW127080   2.563   1.123   6.656 -0.6299 -0.0418 -3.5068
 5149SOL    HW227081   2.494   1.251   6.675 -1.7804  0.6921  0.7949
 5150SOL     OW27082   3.282   3.642   3.058 -0.5416 -0.2361  0.4895
 5150SOL    HW127083   3.275   3.654   2.963  1.1849  1.1414  0.5451
 5150SOL    HW227084   3.290   3.732   3.089 -2.8335  0.0051  0.3481
 5151SOL     OW27085   0.825   3.499   2.593 -0.3043 -0.9028 -0.3333
 5151SOL    HW127086   0.778   3.581   2.581  1.9450  0.5883  1.1998
 5151SOL    HW227087   0.831   3.457   2.507 -1.8598  0.9272 -1.3290
 5152SOL     OW27088   4.018   1.776   9.041  0.5774 -0.0343 -0.6547
 5152SOL    HW127089   4.055   1.814   8.961  0.4612  1.8270  0.1628
 5152SOL    HW227090   3.941   1.833   9.045 -0.6853 -1.8377  0.2948
 5153SOL     OW27091   2.936   3.044   2.455  0.0978  0.3879  0.3912
 5153SOL    HW127092   2.883   3.123   2.447 -0.7459 -0.1379  0.8637
 5153SOL    HW227093   2.891   2.999   2.526  1.0677 -0.5785  0.4110
 5154SOL     OW27094   3.977   3.408  10.071  0.2395  0.2744  0.0441
 5154SOL    HW127095   3.929   3.390   9.991 -0.3610 -1.0488  0.7062
 5154SOL    HW227096   3.969   3.324  10.116  0.7082  0.1452 -0.1237
 5155SOL     OW27097   2.536   3.871   5.045  0.1652  0.1591 -0.4541
 5155SOL    HW127098   2.446   3.841   5.059 -0.7233  3.2176  0.4336
 5155SOL    HW227099   2.538   3.869   4.949 -0.0566  1.7156 -0.4886
 5156SOL     OW27100   1.546   4.509  17.145  0.0432 -0.2137  0.6555
 5156SOL    HW127101   1.521   4.535  17.056 -0.5847  0.1548  0.9334
 5156SOL    HW227102   1.469   4.536  17.196  0.2233 -0.0913  0.8623
 5157SOL     OW27103   0.212   0.816   2.516 -0.5348  0.1646 -0.4089
 5157SOL    HW127104   0.217   0.879   2.588 -0.0587 -0.2680 -0.0619
 5157SOL    HW227105   0.195   0.869   2.438 -0.9550  1.8840  0.8570
 5158SOL     OW27106   3.106   2.565   2.513 -0.0796 -0.1365 -0.0626
 5158SOL    HW127107   3.044   2.518   2.568  0.3350  0.5836  1.0257
 5158SOL    HW227108   3.064   2.565   2.427  1.2682  0.6838 -0.7068
 5159SOL     OW27109   0.347   3.972  11.243 -0.3661  0.0474 -0.2972
 5159SOL    HW127110   0.442   3.983  11.251 -0.3141  0.6539 -1.7170
 5159SOL    HW227111   0.333   3.927  11.160 -0.8761  1.4689 -0.9775
 5160SOL     OW27112   3.261   1.497   9.077  0.1481 -0.2669 -0.3357
 5160SOL    HW127113   3.166   1.497   9.064 -0.0263 -0.1465  0.9169
 5160SOL    HW227114   3.294   1.486   8.988 -1.6378 -0.6556 -0.9548
 5161SOL     OW27115   4.667   3.989   5.598 -0.4554  0.1180  0.2115
 5161SOL    HW127116   4.584   3.942   5.596  0.7055 -1.9214  0.8748
 5161SOL    HW227117   4.706   3.963   5.681  2.6377 -1.6347 -1.8174
 5162SOL     OW27118   4.399   3.034   3.288  0.0675  0.0644 -0.0289
 5162SOL    HW127119   4.355   3.051   3.371 -0.0918  1.5268 -0.4128
 5162SOL    HW227120   4.355   2.954   3.260  3.2438 -1.3744 -0.9325
 5163SOL     OW27121   1.504   3.723   1.545 -0.1119 -0.5497 -0.1865
 5163SOL    HW127122   1.411   3.739   1.529  0.4874  1.3659 -1.7285
 5163SOL    HW227123   1.517   3.652   1.482  1.7099 -0.7916  0.4657
 5164SOL     OW27124   4.096   1.904   4.748  0.3512 -0.5584  0.1928
 5164SOL    HW127125   4.098   1.832   4.811  0.5084  0.0217  0.8580
 5164SOL    HW227126   4.179   1.946   4.773 -0.0461 -0.4931  1.3927
 5165SOL     OW27127   1.265   2.128  14.046  0.3824  0.5050 -0.1949
 5165SOL    HW127128   1.260   2.079  13.964  2.3396 -0.0181 -0.0102
 5165SOL    HW227129   1.249   2.209  13.999 -1.0437  0.1271 -0.3737
 5166SOL     OW27130   1.931   1.169  13.150  0.5206 -0.5269  0.2933
 5166SOL    HW127131   1.915   1.256  13.113  1.7504 -0.9570 -1.2773
 5166SOL    HW227132   1.936   1.105  13.079  0.2349  0.5179 -0.6682
 5167SOL     OW27133   2.923   0.775   2.605 -0.0371  0.9344 -0.0438
 5167SOL    HW127134   3.009   0.748   2.638 -1.0972 -0.6938  1.3837
 5167SOL    HW227135   2.929   0.865   2.637  1.4632  0.5055  0.9211
 5168SOL     OW27136   4.121   1.915  14.260 -0.0904  0.1167  0.5272
 5168SOL    HW127137   4.060   1.894  14.331 -1.5039  1.8011 -0.1749
 5168SOL    HW227138   4.124   2.011  14.257  2.1716 -0.0370 -2.1130
 5169SOL     OW27139   3.352   2.477   5.269 -0.0420 -0.1421 -0.8802
 5169SOL    HW127140   3.319   2.499   5.356 -0.2234  0.9221 -1.2279
 5169SOL    HW227141   3.359   2.382   5.279 -1.6041  0.1307  2.9818
 5170SOL     OW27142   0.062   0.431   5.976 -0.1936  0.5351  0.2927
 5170SOL    HW127143   0.107   0.388   6.049  1.0860  1.6473  0.1606
 5170SOL    HW227144   4.706   0.421   6.005  0.0561  1.7571  1.4974
 5171SOL     OW27145   2.886   3.593   5.895 -0.3615  0.7385 -0.0463
 5171SOL    HW127146   2.945   3.538   5.948  0.2157  1.7949  0.4019
 5171SOL    HW227147   2.861   3.531   5.827  1.5681 -0.3227  0.1845
 5172SOL     OW27148   1.099   1.562   5.016  0.3609 -0.2526 -0.0060
 5172SOL    HW127149   1.069   1.584   5.104 -2.6962 -2.4274 -0.4886
 5172SOL    HW227150   1.027   1.594   4.963  0.7734 -1.2399 -1.1671
 5173SOL     OW27151   0.063   2.942   8.418 -0.1392 -0.5926 -0.0749
 5173SOL    HW127152   4.723   3.002   8.421 -1.0865 -1.7896  0.4802
 5173SOL    HW227153   0.104   2.987   8.344  1.6045 -1.0782  0.6129
 5174SOL     OW27154   3.106   1.146   1.887  0.0263 -0.2312  0.2192
 5174SOL    HW127155   3.082   1.101   1.805  0.9757  3.5688 -2.1696
 5174SOL    HW227156   3.188   1.100   1.904 -0.4603 -1.3450 -0.4498
 5175SOL     OW27157   0.803   4.513   5.232 -0.0289 -0.0398  0.1793
 5175SOL    HW127158   0.851   4.562   5.299 -0.2676 -0.0420  0.3512
 5175SOL    HW227159   0.866   4.450   5.199  2.3403  1.4674  1.7893
 5176SOL     OW27160   0.161   2.843   4.075  0.2852 -0.1967  0.3163
 5176SOL    HW127161   0.153   2.912   4.009  0.4702 -0.3933  0.0834
 5176SOL    HW227162   0.084   2.787   4.060 -0.8346  1.0963  1.2422
 5177SOL     OW27163   1.209   0.984   7.883  0.3773  0.4473 -0.4750
 5177SOL    HW127164   1.166   0.925   7.821 -1.1073  0.1525  0.8268
 5177SOL    HW227165   1.162   1.066   7.868 -0.5674 -0.1278 -0.6199
 5178SOL     OW27166   4.068   2.416   2.762 -0.2117 -0.2085 -0.7327
 5178SOL    HW127167   4.013   2.339   2.774 -0.2644  0.0393  0.6138
 5178SOL    HW227168   4.056   2.470   2.840  0.0914  2.1896 -2.3552
 5179SOL     OW27169   1.328   2.797   4.610  0.2460 -0.9525 -0.1769
 5179SOL    HW127170   1.388   2.778   4.682 -1.4783 -1.5572  1.1086
 5179SOL    HW227171   1.285   2.711   4.605 -0.0578 -0.6364 -2.8869
 5180SOL     OW27172   4.620   1.578  12.218  0.4318  0.1231  0.4686
 5180SOL    HW127173   4.604   1.672  12.216  1.9971  0.4081  1.4163
 5180SOL    HW227174   4.532   1.542  12.211 -0.1818  1.6352  0.3472
 5181SOL     OW27175   4.261   3.836  15.044  0.2327 -0.1109  0.2141
 5181SOL    HW127176   4.203   3.827  15.120 -1.0513  2.5385 -0.4512
 5181SOL    HW227177   4.268   3.931  15.031  1.5868  0.1576  2.9633
 5182SOL     OW27178   4.206   2.119   4.547 -0.3139  0.2227 -0.4224
 5182SOL    HW127179   4.169   2.033   4.525 -0.1573 -0.1162  0.5972
 5182SOL    HW227180   4.299   2.095   4.551 -0.1142  0.9636 -0.6620
 5183SOL     OW27181   3.356   2.804   4.444 -0.1859  0.6741  0.4606
 5183SOL    HW127182   3.356   2.711   4.422 -0.8249  1.0104 -0.9692
 5183SOL    HW227183   3.371   2.839   4.356 -2.2285  1.3571  0.3983
 5184SOL     OW27184   1.854   1.403   3.212  0.2675 -0.1413 -0.1997
 5184SOL    HW127185   1.938   1.447   3.225  0.5816 -0.3425 -1.4947
 5184SOL    HW227186   1.882   1.320   3.172  3.7013  1.0761 -0.3094
 5185SOL     OW27187   4.510   0.205   5.942  0.0984  0.0975 -0.1045
 5185SOL    HW127188   4.547   0.222   6.028  0.0098 -1.6882  0.2874
 5185SOL    HW227189   4.468   0.286   5.913 -0.9169  0.4904  2.4435
 5186SOL     OW27190   0.650   3.850   7.351  0.1382 -0.3354 -1.1622
 5186SOL    HW127191   0.725   3.902   7.323 -0.4948  1.2635  0.0815
 5186SOL    HW227192   0.674   3.768   7.308  1.8604  0.5864 -1.9143
 5187SOL     OW27193   3.134   0.054   7.895  0.1535  0.4231 -0.2811
 5187SOL    HW127194   3.157   0.126   7.836  0.2125  1.7878  1.4107
 5187SOL    HW227195   3.039   0.052   7.898  0.1609 -0.5051 -0.8945
 5188SOL     OW27196   1.915   0.335   2.590  0.4198 -0.6138  0.0325
 5188SOL    HW127197   1.856   0.275   2.636 -0.7468  3.2607  3.6983
 5188SOL    HW227198   1.901   0.305   2.501  0.2997  1.2064 -0.5594
 5189SOL     OW27199   3.975   0.789   5.805  0.5329  0.1641 -0.1666
 5189SOL    HW127200   3.974   0.847   5.729 -0.5929 -1.9899 -1.7658
 5189SOL    HW227201   3.976   0.707   5.757 -0.9467  0.1809 -0.2187
 5190SOL     OW27202   1.234   0.442   4.306  0.5093  0.1867 -0.0737
 5190SOL    HW127203   1.306   0.487   4.351  0.5879  0.7363 -0.7478
 5190SOL    HW227204   1.279   0.381   4.248 -1.3468 -1.0739 -0.1694
 5191SOL     OW27205   4.547   0.047   3.764  0.0874 -1.3278  0.7848
 5191SOL    HW127206   4.516   0.014   3.849  1.9223 -1.5320  1.3784
 5191SOL    HW227207   4.549   0.140   3.784 -1.4147 -1.0148 -0.5002
 5192SOL     OW27208   3.923   0.799   5.333 -0.1736  0.5043  0.5665
 5192SOL    HW127209   3.886   0.887   5.321 -0.8292 -0.0027 -1.1997
 5192SOL    HW227210   3.878   0.767   5.411  1.5426 -0.2083  1.2409
 5193SOL     OW27211   0.439   2.688   8.664  0.5112  0.0669 -0.0894
 5193SOL    HW127212   0.416   2.730   8.581  0.6042 -0.6321 -0.4777
 5193SOL    HW227213   0.370   2.622   8.677  1.4184 -0.5284  1.6964
 5194SOL     OW27214   2.510   0.670   8.320  0.6289 -0.4639 -0.0718
 5194SOL    HW127215   2.549   0.585   8.297  2.2859  0.4587 -0.6354
 5194SOL    HW227216   2.428   0.679   8.272  1.8866  2.2251 -1.6866
 5195SOL     OW27217   1.928   0.196   9.055  0.0150  0.2168 -0.5663
 5195SOL    HW127218   1.843   0.193   9.098  0.6294 -0.3237  0.6381
 5195SOL    HW227219   1.951   0.289   9.060  0.9192 -0.0476  0.3109
 5196SOL     OW27220   0.087   3.001   5.682  0.0642 -0.2283 -0.3446
 5196SOL    HW127221   4.732   2.988   5.652 -0.4656  0.0613  1.1188
 5196SOL    HW227222   0.090   2.956   5.766  1.4965  0.2744 -0.1284
 5197SOL     OW27223   2.596   2.297   5.391 -0.1261 -0.1164  0.2079
 5197SOL    HW127224   2.590   2.384   5.430 -0.5542 -0.6082  1.2164
 5197SOL    HW227225   2.581   2.316   5.298 -0.1948 -4.7842 -0.7311
 5198SOL     OW27226   2.564   0.562   2.317  0.1918 -0.7834 -0.1227
 5198SOL    HW127227   2.557   0.565   2.413  0.4105  0.5264 -0.1520
 5198SOL    HW227228   2.629   0.630   2.299 -0.3058 -0.7118 -1.6087
 5199SOL     OW27229   0.221   2.176   3.763 -0.0066 -0.1342  0.5463
 5199SOL    HW127230   0.151   2.126   3.721  0.7884  0.2883 -1.3033
 5199SOL    HW227231   0.295   2.116   3.748 -0.3347 -0.2139 -0.7706
 5200SOL     OW27232   2.191   0.892   8.228 -0.1387 -0.0315  0.3998
 5200SOL    HW127233   2.228   0.917   8.313  2.9549 -0.4305 -0.8302
 5200SOL    HW227234   2.175   0.979   8.190 -0.3098 -0.3934 -0.3655
 5201SOL     OW27235   3.306   1.030  12.682 -0.8326 -0.3625  0.1687
 5201SOL    HW127236   3.329   1.085  12.607  0.1938 -1.4415 -0.3069
 5201SOL    HW227237   3.390   0.987  12.698  0.4329  1.7582 -0.6462
 5202SOL     OW27238   1.165   2.075   2.126  0.4221  0.4399 -0.1996
 5202SOL    HW127239   1.076   2.084   2.160  0.5126  0.3334  0.0662
 5202SOL    HW227240   1.166   1.979   2.127  0.1827  0.4340 -0.6479
 5203SOL     OW27241   1.834   3.837   6.128 -0.0320  0.0044  0.2136
 5203SOL    HW127242   1.887   3.790   6.192  1.5028  0.1297 -0.9777
 5203SOL    HW227243   1.896   3.889   6.077  0.8143 -0.2976  0.9386
 5204SOL     OW27244   2.455   3.250   2.138 -0.2251  0.4348  0.3831
 5204SOL    HW127245   2.407   3.176   2.174  1.4749 -1.0562 -0.4098
 5204SOL    HW227246   2.415   3.320   2.190  1.2425  0.7909  1.0538
 5205SOL     OW27247   3.402   3.886   2.277  0.3148 -0.2292  0.4096
 5205SOL    HW127248   3.429   3.820   2.340 -0.5033  0.5080  1.5344
 5205SOL    HW227249   3.480   3.910   2.226  0.7075 -0.9276  0.6776
 5206SOL     OW27250   2.472   3.828   6.695 -0.1073  1.1728 -0.0548
 5206SOL    HW127251   2.449   3.919   6.714  2.2724  1.4001  1.8089
 5206SOL    HW227252   2.544   3.842   6.634 -1.1016  0.7044 -1.3452
 5207SOL     OW27253   4.199   0.744   7.726  0.3005  0.2333  0.4379
 5207SOL    HW127254   4.124   0.709   7.775  0.7404 -0.9143  0.2752
 5207SOL    HW227255   4.199   0.838   7.745  0.8361  0.1981  0.6121
 5208SOL     OW27256   2.121   4.128   4.192 -0.4414  0.1471  0.2332
 5208SOL    HW127257   2.112   4.046   4.241 -1.4705  0.1498  0.0454
 5208SOL    HW227258   2.090   4.099   4.106 -1.0439 -0.9832  0.8382
 5209SOL     OW27259   4.689   3.763   5.191  0.0585 -0.3724  0.3276
 5209SOL    HW127260   0.010   3.731   5.263 -0.4437 -1.8309  0.0603
 5209SOL    HW227261   4.600   3.757   5.226 -0.8389  0.1650 -1.8736
 5210SOL     OW27262   3.758   0.208   8.719  0.0050  0.0714 -0.3076
 5210SOL    HW127263   3.821   0.152   8.674  0.7367  0.1390  0.6082
 5210SOL    HW227264   3.766   0.200   8.814 -1.7650  1.5064 -0.0378
 5211SOL     OW27265   4.092   4.019   3.497  0.0895 -0.3543 -0.1035
 5211SOL    HW127266   4.096   3.924   3.495  0.0725 -0.3550 -0.1069
 5211SOL    HW227267   3.999   4.040   3.489  0.1259 -0.1988 -0.1255
 5212SOL     OW27268   2.890   3.362   0.791  0.1785  0.2304 -0.2206
 5212SOL    HW127269   2.880   3.280   0.839 -2.7303  0.3541 -0.6432
 5212SOL    HW227270   2.850   3.349   0.705  2.4411 -1.0937 -1.0715
 5213SOL     OW27271   3.206   1.491   2.655  0.5304  0.1595 -0.3187
 5213SOL    HW127272   3.115   1.496   2.684  0.2069  1.1840 -1.5238
 5213SOL    HW227273   3.191   1.424   2.587 -1.9414  1.4112 -0.9975
 5214SOL     OW27274   2.160   4.134   2.317 -0.6501  0.3168  0.6314
 5214SOL    HW127275   2.136   4.225   2.331  0.9405  0.6976  0.8297
 5214SOL    HW227276   2.098   4.087   2.373 -0.6548 -1.9878 -1.2727
 5215SOL     OW27277   2.892   1.320   1.861  0.1698  0.1915  0.2049
 5215SOL    HW127278   2.817   1.280   1.904  0.3548 -1.4631 -0.9953
 5215SOL    HW227279   2.953   1.247   1.873 -0.2327 -0.2480 -0.3980
 5216SOL     OW27280   0.031   0.247   8.248  0.4668  0.1829 -0.0642
 5216SOL    HW127281   0.094   0.181   8.277  0.4131  0.5920  0.9979
 5216SOL    HW227282   4.706   0.198   8.192 -1.2530  0.0787  1.8240
 5217SOL     OW27283   4.488   4.385   9.262 -0.0645 -0.0057  0.0974
 5217SOL    HW127284   4.575   4.372   9.224 -0.6830 -0.3781 -1.1886
 5217SOL    HW227285   4.498   4.355   9.353 -1.1389 -0.2532  0.1301
 5218SOL     OW27286   3.221   2.397   8.028  0.1001 -0.4338 -0.4415
 5218SOL    HW127287   3.222   2.493   8.034  0.2228 -0.4950  0.5446
 5218SOL    HW227288   3.263   2.367   8.109  0.0527 -1.2510 -0.7249
 5219SOL     OW27289   1.558   3.215  13.506  0.3709  1.0791  0.4215
 5219SOL    HW127290   1.651   3.195  13.513 -0.3383 -2.7674 -0.8249
 5219SOL    HW227291   1.557   3.293  13.451 -0.3174 -0.3441 -1.5948
 5220SOL     OW27292   0.305   2.862   7.492 -0.3248  0.0821  0.3906
 5220SOL    HW127293   0.279   2.828   7.578  1.3566  0.9341  1.2310
 5220SOL    HW227294   0.368   2.928   7.520 -0.4177 -0.3686  1.6680
 5221SOL     OW27295   2.101   4.578   8.442  0.0590  0.2625  0.6645
 5221SOL    HW127296   2.192   4.603   8.428  0.4567 -2.5424 -1.7736
 5221SOL    HW227297   2.106   4.552   8.534  4.1767  0.7471  0.5591
 5222SOL     OW27298   2.314   1.296   5.178  0.5688  0.2851 -0.1225
 5222SOL    HW127299   2.336   1.259   5.092 -0.3024 -0.8854  0.1533
 5222SOL    HW227300   2.218   1.295   5.180  0.5976 -1.5207  0.4733
 5223SOL     OW27301   3.751   0.730   5.546 -0.4904 -0.2434  0.0703
 5223SOL    HW127302   3.741   0.706   5.638 -1.7008  0.6807  0.1887
 5223SOL    HW227303   3.688   0.673   5.501  0.9149 -0.8686 -1.0838
 5224SOL     OW27304   1.302   3.372   8.379  0.9315  0.0626 -0.2889
 5224SOL    HW127305   1.309   3.279   8.358 -0.2029 -0.2786  0.7939
 5224SOL    HW227306   1.241   3.361   8.452  0.9131  0.4626 -0.2427
 5225SOL     OW27307   1.097   0.877   4.059 -0.2009 -0.7747 -0.0277
 5225SOL    HW127308   1.063   0.857   4.146 -0.4978  1.5367  0.3872
 5225SOL    HW227309   1.068   0.966   4.041  0.1080 -1.0727 -2.0441
 5226SOL     OW27310   3.253   1.470   7.078 -0.3368 -0.2299 -0.0655
 5226SOL    HW127311   3.225   1.552   7.118  0.2662 -0.0232 -0.0749
 5226SOL    HW227312   3.232   1.410   7.150 -0.0550  0.6294  0.7367
 5227SOL     OW27313   4.152   3.582  12.815 -0.3146  0.3787 -0.2830
 5227SOL    HW127314   4.128   3.609  12.727 -1.0637  1.6234  0.2996
 5227SOL    HW227315   4.159   3.667  12.858  0.6410 -0.3332  0.9775
 5228SOL     OW27316   3.260   4.149   2.192  0.0677  0.0754 -0.1250
 5228SOL    HW127317   3.285   4.240   2.208  0.8415 -0.7172  3.1290
 5228SOL    HW227318   3.325   4.092   2.233  1.6349  1.2783 -0.9404
 5229SOL     OW27319   4.580   4.454   2.657 -0.2551 -0.1690  0.6927
 5229SOL    HW127320   4.557   4.387   2.721 -0.2678 -0.6523  0.1828
 5229SOL    HW227321   4.644   4.404   2.607  1.0821 -0.0762  2.2879
 5230SOL     OW27322   0.632   2.716   4.658 -0.1311  0.2350  0.4135
 5230SOL    HW127323   0.559   2.705   4.720  0.6948 -3.2484  0.7705
 5230SOL    HW227324   0.674   2.798   4.684 -0.4385  0.5346 -0.0296
 5231SOL     OW27325   3.449   3.280  10.301  0.3570  0.4619 -0.3379
 5231SOL    HW127326   3.484   3.266  10.213  0.1885  0.4776 -0.4073
 5231SOL    HW227327   3.407   3.366  10.295 -0.0030  0.2797 -0.4271
 5232SOL     OW27328   3.082   2.197   0.600 -0.5048 -0.8604  0.0237
 5232SOL    HW127329   3.012   2.246   0.555  0.9757  1.7741  0.5678
 5232SOL    HW227330   3.153   2.259   0.581 -2.8718  2.5861  2.1945
 5233SOL     OW27331   1.810   0.853   4.073 -0.7953 -0.1715  0.1384
 5233SOL    HW127332   1.811   0.759   4.058  0.0458 -0.7378  3.6537
 5233SOL    HW227333   1.834   0.843   4.165 -0.7786  0.6213  0.2220
 5234SOL     OW27334   1.099   3.895  14.797  0.1604  0.3767  0.3454
 5234SOL    HW127335   1.034   3.836  14.835  0.3856 -1.1090 -1.6187
 5234SOL    HW227336   1.043   3.959  14.752  0.5848 -0.9985 -2.0897
 5235SOL     OW27337   3.317   0.034   8.289  0.6469 -0.6297 -0.1843
 5235SOL    HW127338   3.328   4.725   8.204 -0.7046 -1.4046  0.0272
 5235SOL    HW227339   3.332   4.695   8.348  2.8098 -0.8398 -1.0036
 5236SOL     OW27340   4.369   2.035  12.011  0.6205  0.2824  0.3501
 5236SOL    HW127341   4.326   2.080  11.939 -0.0262 -1.6751 -0.4742
 5236SOL    HW227342   4.387   1.946  11.981  0.9827  0.6702 -0.5789
 5237SOL     OW27343   2.259   3.876  10.049  0.5696  0.6452 -0.3555
 5237SOL    HW127344   2.256   3.971  10.036  1.5456  0.4948 -1.6386
 5237SOL    HW227345   2.351   3.856  10.033  0.4908  1.1277 -1.4510
 5238SOL     OW27346   3.136   2.765   2.050  0.2109 -0.3202  0.0874
 5238SOL    HW127347   3.168   2.687   2.095 -3.9160 -0.7342  2.2673
 5238SOL    HW227348   3.062   2.793   2.104 -0.3444  0.5907 -1.1436
 5239SOL     OW27349   3.164   2.321   2.001  0.3936 -0.0609 -0.3765
 5239SOL    HW127350   3.131   2.362   2.080 -1.0027  0.6312 -1.3283
 5239SOL    HW227351   3.153   2.229   2.027 -1.2633  0.5737  1.0905
 5240SOL     OW27352   3.896   4.137   9.952  0.8750  0.6155  0.0790
 5240SOL    HW127353   3.911   4.212  10.010 -0.0739  0.8944 -0.0507
 5240SOL    HW227354   3.897   4.073  10.023 -0.7224  2.3968  1.7047
 5241SOL     OW27355   1.319   4.435   5.644 -0.0666 -0.3609 -0.2524
 5241SOL    HW127356   1.353   4.382   5.715  0.4427  0.2304 -0.0584
 5241SOL    HW227357   1.287   4.509   5.696  1.3382  1.5911 -2.1692
 5242SOL     OW27358   3.959   0.579   5.190 -0.9661  0.6049  0.3013
 5242SOL    HW127359   3.916   0.612   5.111  0.8681  0.1456 -0.9114
 5242SOL    HW227360   3.979   0.662   5.232  0.0096  0.5598 -0.0734
 5243SOL     OW27361   3.134   4.290   4.830  0.0627  0.1013 -0.3840
 5243SOL    HW127362   3.076   4.229   4.877 -1.3350  0.4800 -1.6394
 5243SOL    HW227363   3.168   4.242   4.755 -0.1531 -2.1739  0.9678
 5244SOL     OW27364   3.075   1.890   4.775 -0.5280  0.1823 -0.4451
 5244SOL    HW127365   3.147   1.830   4.790  0.3112  0.6328 -2.6399
 5244SOL    HW227366   3.039   1.893   4.864  2.3819  0.2807  0.7185
 5245SOL     OW27367   0.645   2.906   4.254  0.5554  0.5983  0.0004
 5245SOL    HW127368   0.640   3.001   4.242 -2.6721  0.4204 -0.1577
 5245SOL    HW227369   0.711   2.913   4.323 -0.1460 -1.5085  0.8787
 5246SOL     OW27370   2.476   1.523   5.643  0.3311 -0.6726  0.2329
 5246SOL    HW127371   2.468   1.447   5.701 -1.5291 -0.5562  0.1091
 5246SOL    HW227372   2.421   1.492   5.571  1.2655 -0.1018 -0.7286
 5247SOL     OW27373   0.906   2.214  12.461 -1.1447  0.3386  0.9549
 5247SOL    HW127374   0.984   2.229  12.407  0.0020 -0.3954  2.3899
 5247SOL    HW227375   0.948   2.206  12.547  0.6662 -1.3990 -0.0938
 5248SOL     OW27376   4.456   1.212   4.379  0.0050  0.6495 -0.2253
 5248SOL    HW127377   4.443   1.285   4.441  0.7639  0.5221  0.0834
 5248SOL    HW227378   4.550   1.209   4.361 -0.0312 -2.2952  0.1421
 5249SOL     OW27379   1.149   0.346   5.952  0.1607  0.1242 -0.3703
 5249SOL    HW127380   1.215   0.390   5.898 -0.6891  2.0005  0.1363
 5249SOL    HW227381   1.201   0.296   6.015  0.5099  1.2131  0.1910
 5250SOL     OW27382   3.782   1.339   1.903  0.3261 -0.0809  0.2525
 5250SOL    HW127383   3.801   1.317   1.994 -0.2539  0.0681  0.4142
 5250SOL    HW227384   3.718   1.409   1.918 -1.0352 -1.0750 -0.8476
 5251SOL     OW27385   1.576   3.601  17.257 -0.1833 -0.5074 -0.6486
 5251SOL    HW127386   1.483   3.600  17.279 -0.3696 -1.0153 -1.4538
 5251SOL    HW227387   1.571   3.669  17.190  1.6149 -0.2884 -0.5562
 5252SOL     OW27388   0.351   3.908   2.507  0.2968  0.2432 -0.0527
 5252SOL    HW127389   0.316   3.820   2.517 -1.1318  0.8414  0.1276
 5252SOL    HW227390   0.381   3.906   2.416  4.0184 -1.7067  1.2145
 5253SOL     OW27391   1.966   0.621   2.622  0.2312  0.6626 -0.1386
 5253SOL    HW127392   1.942   0.528   2.622 -0.9572  0.9629  1.9568
 5253SOL    HW227393   2.038   0.618   2.559 -0.5553 -1.7278 -0.9170
 5254SOL     OW27394   0.695   2.962  11.833  0.0273 -0.1119  0.2510
 5254SOL    HW127395   0.611   2.947  11.791 -0.0190  0.7564  0.0310
 5254SOL    HW227396   0.709   2.878  11.877 -1.3898 -0.9064 -0.8440
 5255SOL     OW27397   1.869   2.569  16.110 -0.1668  0.3883  0.4012
 5255SOL    HW127398   1.892   2.662  16.117 -0.7532  0.5045  0.8055
 5255SOL    HW227399   1.829   2.565  16.023  1.1479  3.2452 -0.3347
 5256SOL     OW27400   1.337   2.052   5.258  0.0084  0.5009  0.0062
 5256SOL    HW127401   1.360   2.060   5.351  1.5068 -0.4203 -0.2864
 5256SOL    HW227402   1.358   2.139   5.224  0.4020  0.6199  0.5647
 5257SOL     OW27403   1.821   3.133   1.113 -0.3110 -0.2028  0.3188
 5257SOL    HW127404   1.830   3.050   1.065 -1.3829 -0.0187 -0.1922
 5257SOL    HW227405   1.911   3.151   1.139 -0.0291  2.0495 -2.2500
 5258SOL     OW27406   1.479   1.534  15.183  0.6016  0.0087  0.8302
 5258SOL    HW127407   1.483   1.591  15.106 -0.9606 -1.7327 -0.5261
 5258SOL    HW227408   1.397   1.559  15.227 -0.5713 -1.1392 -0.7109
 5259SOL     OW27409   2.106   0.906  13.116  0.1379  0.4337  0.3782
 5259SOL    HW127410   2.070   0.887  13.203  2.0841 -2.0110  0.6195
 5259SOL    HW227411   2.194   0.871  13.122 -0.3184 -0.7889 -0.1324
 5260SOL     OW27412   4.091   2.827   7.187  0.2764  0.1975 -0.3789
 5260SOL    HW127413   4.003   2.864   7.189 -0.3970 -1.4200  0.0499
 5260SOL    HW227414   4.142   2.903   7.159  1.8968 -1.3031 -1.5272
 5261SOL     OW27415   3.005   1.191  11.379  0.0582 -0.2231 -0.3123
 5261SOL    HW127416   3.065   1.266  11.382  2.0901 -1.8060 -1.4712
 5261SOL    HW227417   2.936   1.223  11.437 -0.9923  1.1480 -2.3447
 5262SOL     OW27418   1.287   1.520   8.546  0.5175  0.1487  0.7727
 5262SOL    HW127419   1.235   1.592   8.509 -0.0599 -0.1145  1.0761
 5262SOL    HW227420   1.349   1.497   8.476  0.9615 -0.3409  1.3222
 5263SOL     OW27421   4.276   4.529  15.365  0.1584 -0.0778 -0.1784
 5263SOL    HW127422   4.242   4.576  15.441  0.7982  1.9272 -1.1322
 5263SOL    HW227423   4.265   4.598  15.299  0.5535 -1.1011 -1.3110
 5264SOL     OW27424   0.395   2.803   0.022  0.7176 -0.6406 -0.3356
 5264SOL    HW127425   0.408   2.782   0.114 -0.3902  2.1004  0.4574
 5264SOL    HW227426   0.300   2.793   0.012  1.0088 -1.7002 -2.1754
 5265SOL     OW27427   4.569   2.654   3.808 -0.3778  0.3592  0.3965
 5265SOL    HW127428   4.638   2.682   3.748 -1.9617  1.9319 -0.6903
 5265SOL    HW227429   4.519   2.597   3.749  0.7386 -0.8206  0.5832
 5266SOL     OW27430   3.915   0.405  16.020  0.1892  0.0942 -0.7731
 5266SOL    HW127431   3.940   0.496  16.009 -1.7863  1.0048  2.1748
 5266SOL    HW227432   3.941   0.366  15.937 -0.9633 -2.3129 -0.0002
 5267SOL     OW27433   4.295   2.651   7.227  0.5148  0.1125 -0.0265
 5267SOL    HW127434   4.356   2.700   7.282 -1.4177  3.2043 -0.6392
 5267SOL    HW227435   4.219   2.708   7.211  1.8201  1.8561  0.0181
 5268SOL     OW27436   3.355   4.728   9.225  0.5687 -0.2711 -0.5328
 5268SOL    HW127437   3.313   0.029   9.146 -3.5247 -0.6237  1.4921
 5268SOL    HW227438   3.282   4.721   9.287  0.2875  0.4402 -0.7724
 5269SOL     OW27439   4.060   1.007   9.924 -0.1096  0.5917 -0.7219
 5269SOL    HW127440   4.029   1.025  10.012 -0.6423 -2.6610 -0.2330
 5269SOL    HW227441   3.985   1.036   9.873  1.1861  2.0851 -1.7624
 5270SOL     OW27442   1.256   3.344   3.767 -0.0182  0.1645  0.0869
 5270SOL    HW127443   1.288   3.291   3.694  0.0262 -1.2408  1.1363
 5270SOL    HW227444   1.315   3.317   3.837 -0.7749  0.1757  0.7252
 5271SOL     OW27445   3.691   3.831   6.151  0.1644  0.0132  0.0720
 5271SOL    HW127446   3.677   3.813   6.244 -0.0292  1.6891  0.3680
 5271SOL    HW227447   3.640   3.909   6.133  0.1231  0.0062  0.1571
 5272SOL     OW27448   2.438   4.308   5.776 -0.3231 -0.2231 -0.0829
 5272SOL    HW127449   2.523   4.273   5.802 -0.2524  0.6134  0.8027
 5272SOL    HW227450   2.456   4.307   5.682  1.4559 -0.7787  0.2753
 5273SOL     OW27451   2.128   0.175  11.915  0.2056 -0.2938 -0.4199
 5273SOL    HW127452   2.217   0.208  11.926  0.5156 -1.6273  1.0501
 5273SOL    HW227453   2.099   0.196  12.004  2.1948  0.2036  0.1036
 5274SOL     OW27454   1.915   0.200   5.543 -0.0058 -0.1919 -0.1289
 5274SOL    HW127455   1.862   0.122   5.527 -1.5391  0.3954  2.0980
 5274SOL    HW227456   2.000   0.158   5.536  0.8950  0.8083  4.7294
 5275SOL     OW27457   2.066   0.547   4.694  0.0104  0.1659  0.3217
 5275SOL    HW127458   2.040   0.494   4.618  0.7446 -0.1585  0.2979
 5275SOL    HW227459   2.038   0.503   4.774 -1.4851  0.0348 -0.2776
 5276SOL     OW27460   2.157   1.253  13.251  0.0191 -0.2364 -0.1595
 5276SOL    HW127461   2.079   1.213  13.212  0.4347 -2.6086  1.4848
 5276SOL    HW227462   2.176   1.199  13.328  1.8181  1.0645  0.3152
 5277SOL     OW27463   2.210   4.139   6.847  0.4394  0.0233 -0.0044
 5277SOL    HW127464   2.284   4.126   6.789  0.2582  4.3486 -1.2322
 5277SOL    HW227465   2.141   4.165   6.786 -0.7941 -2.1358  0.4973
 5278SOL     OW27466   2.291   3.204   4.961  0.6601  0.1002 -0.4281
 5278SOL    HW127467   2.252   3.125   4.999 -1.5364  1.0442 -0.6635
 5278SOL    HW227468   2.351   3.165   4.898  1.2245 -4.1801  2.7604
 5279SOL     OW27469   3.610   0.561   1.253 -0.2414 -0.2213 -0.2196
 5279SOL    HW127470   3.666   0.490   1.222 -0.5755  0.3838 -2.2028
 5279SOL    HW227471   3.663   0.640   1.253  1.3874 -1.2947  1.0900
 5280SOL     OW27472   3.139   0.511   7.781  0.4466  0.3827  0.1297
 5280SOL    HW127473   3.228   0.523   7.813  0.0415 -0.7136  1.6562
 5280SOL    HW227474   3.137   0.422   7.746 -0.3106 -0.3494  2.0748
 5281SOL     OW27475   4.652   3.439  14.250  0.3084  0.2776 -0.3887
 5281SOL    HW127476   4.578   3.496  14.271  0.9046  0.1693  1.9451
 5281SOL    HW227477   4.712   3.511  14.233  0.8200 -0.1262 -0.2969
 5282SOL     OW27478   4.440   3.059  13.161 -0.2300 -0.3246 -0.3684
 5282SOL    HW127479   4.468   3.034  13.249 -0.0816  0.7268 -0.1131
 5282SOL    HW227480   4.454   3.154  13.162  0.2026 -0.4143  1.7061
 5283SOL     OW27481   0.718   3.599   6.101  0.0740  0.1598 -0.5211
 5283SOL    HW127482   0.682   3.536   6.038 -2.5504 -0.5302  1.6928
 5283SOL    HW227483   0.802   3.619   6.058 -0.7680 -0.5712 -2.5242
 5284SOL     OW27484   2.211   2.658  12.879 -0.0710  0.8275 -0.3335
 5284SOL    HW127485   2.250   2.600  12.944 -1.0505  0.9338  0.3667
 5284SOL    HW227486   2.290   2.669  12.827 -0.1517 -0.4528 -0.7335
 5285SOL     OW27487   2.899   1.257   6.532  0.0047  0.7513 -0.4700
 5285SOL    HW127488   2.913   1.351   6.522 -2.8429  0.9408 -2.7783
 5285SOL    HW227489   2.988   1.228   6.550 -0.2612 -0.5603 -1.2576
 5286SOL     OW27490   2.840   3.417   5.166  0.5250 -0.0944  0.0186
 5286SOL    HW127491   2.781   3.355   5.209 -0.9516  0.1154 -1.7131
 5286SOL    HW227492   2.820   3.397   5.075  2.3540  0.1388 -0.4294
 5287SOL     OW27493   3.218   1.095   2.246 -0.7795 -0.3863 -0.0976
 5287SOL    HW127494   3.229   1.008   2.285 -0.5199 -0.0399  0.5836
 5287SOL    HW227495   3.274   1.093   2.168 -2.2841 -2.7447 -1.1527
 5288SOL     OW27496   2.419   0.726   6.682 -0.1278  0.4392  0.3757
 5288SOL    HW127497   2.340   0.701   6.730  0.9626 -0.2159  1.8105
 5288SOL    HW227498   2.393   0.793   6.619  2.1242 -0.7610 -1.8077
 5289SOL     OW27499   0.243   1.598   6.655 -0.2308 -0.3376  0.4137
 5289SOL    HW127500   0.197   1.643   6.585 -2.1770  0.6880  2.3515
 5289SOL    HW227501   0.312   1.559   6.602 -0.0206  0.1771  0.3128
 5290SOL     OW27502   0.124   3.392   7.508 -0.2914 -0.3854 -0.3022
 5290SOL    HW127503   0.072   3.461   7.467 -0.9359 -0.1256  0.9526
 5290SOL    HW227504   0.118   3.419   7.600  0.6812 -2.0536  0.2646
 5291SOL     OW27505   3.252   3.661   2.789  0.0229 -0.4655 -0.4477
 5291SOL    HW127506   3.344   3.672   2.766 -0.4791  1.4030 -1.5348
 5291SOL    HW227507   3.207   3.679   2.706 -0.0188  0.4752 -0.2130
 5292SOL     OW27508   3.038   2.569   4.959 -0.2214 -0.4128  0.8671
 5292SOL    HW127509   2.979   2.628   5.007 -2.6447 -2.4558  0.4219
 5292SOL    HW227510   3.024   2.491   5.012 -2.4046 -0.4210  0.3002
 5293SOL     OW27511   3.156   0.717   0.784 -0.7574 -0.2850 -0.4141
 5293SOL    HW127512   3.112   0.802   0.792 -0.6987 -0.5162  2.1336
 5293SOL    HW227513   3.188   0.731   0.695 -0.2601 -1.8406 -0.4768
 5294SOL     OW27514   3.242   3.933  16.526 -0.0065 -0.2231  0.4384
 5294SOL    HW127515   3.150   3.926  16.502  0.0975 -0.2349  0.0307
 5294SOL    HW227516   3.267   4.013  16.480  1.7492  1.0463  3.5862
 5295SOL     OW27517   4.354   1.088   0.586 -0.4989 -0.0244  0.2452
 5295SOL    HW127518   4.312   1.166   0.548 -0.1794 -0.1504 -0.3801
 5295SOL    HW227519   4.279   1.035   0.615 -0.5486 -0.3971 -0.5614
 5296SOL     OW27520   2.095   4.074  13.907 -0.0754 -0.1567 -0.2811
 5296SOL    HW127521   2.048   4.128  13.843 -1.6668 -1.5592 -0.2890
 5296SOL    HW227522   2.080   3.988  13.868 -1.9411  0.0510  0.0157
 5297SOL     OW27523   3.705   2.023   5.843 -0.9434  0.6336  0.1497
 5297SOL    HW127524   3.740   2.096   5.792  1.5223  0.2267  1.2202
 5297SOL    HW227525   3.662   2.067   5.917 -0.2349 -1.4748  1.8326
 5298SOL     OW27526   3.648   3.380  16.010  0.2705 -0.3500  0.0700
 5298SOL    HW127527   3.723   3.340  16.055 -0.9857 -2.8970 -0.0801
 5298SOL    HW227528   3.592   3.384  16.088 -2.1141 -1.1195 -1.6235
 5299SOL     OW27529   3.837   3.246  16.122  0.1925 -0.3150  0.1875
 5299SOL    HW127530   3.902   3.195  16.074  0.9444  0.7400  0.0728
 5299SOL    HW227531   3.890   3.278  16.195 -1.8194  0.6356  1.2397
 5300SOL     OW27532   1.908   1.370   3.541 -0.5432 -0.5954 -0.2434
 5300SOL    HW127533   1.954   1.302   3.492 -0.3577  0.5239 -1.6244
 5300SOL    HW227534   1.815   1.349   3.541 -0.6429 -0.1642  0.0338
 5301SOL     OW27535   0.908   2.259  15.837  0.5959  0.4347 -0.2172
 5301SOL    HW127536   0.876   2.252  15.747 -3.9205 -0.4749  1.4410
 5301SOL    HW227537   0.833   2.305  15.875 -0.7840 -0.1629 -2.2513
 5302SOL     OW27538   2.314   1.874  10.849  0.6600 -0.2554  0.2236
 5302SOL    HW127539   2.227   1.853  10.884  1.0700  0.8328  1.8797
 5302SOL    HW227540   2.356   1.789  10.840  0.9488  0.1514 -2.4139
 5303SOL     OW27541   4.218   3.674  16.942  0.5717  0.4584 -0.3315
 5303SOL    HW127542   4.221   3.765  16.913  0.6360  0.1481 -1.2849
 5303SOL    HW227543   4.143   3.692  16.999  0.0770 -0.8468 -0.5519
 5304SOL     OW27544   4.368   0.511   5.023  0.2404 -0.8642 -0.3028
 5304SOL    HW127545   4.434   0.465   4.971  1.8329  1.3982 -0.2859
 5304SOL    HW227546   4.334   0.578   4.963  0.5618 -0.7746 -0.3852
 5305SOL     OW27547   3.480   1.504   2.655  0.2700  0.1242  0.3472
 5305SOL    HW127548   3.388   1.526   2.641  0.0687  0.2510  1.8546
 5305SOL    HW227549   3.487   1.433   2.591  0.4980  0.8547 -0.4320
 5306SOL     OW27550   3.356   3.959   3.353  0.6662  0.1330  0.1673
 5306SOL    HW127551   3.442   3.917   3.365  0.1288 -1.0151  0.0379
 5306SOL    HW227552   3.330   3.940   3.263  0.1353 -1.3252  0.6325
 5307SOL     OW27553   4.008   0.039  13.708  0.3445  0.0819 -0.1971
 5307SOL    HW127554   4.083   0.098  13.721  0.8696 -0.7319  0.4812
 5307SOL    HW227555   3.937   0.102  13.717 -0.4750 -0.5141 -2.4509
 5308SOL     OW27556   0.208   2.697   5.530  0.3190  0.1131  0.1745
 5308SOL    HW127557   0.174   2.779   5.495 -1.3498 -0.4001  0.6051
 5308SOL    HW227558   0.127   2.657   5.562  0.1281  0.0584 -0.3803
 5309SOL     OW27559   1.575   0.900  16.269  0.6027 -0.2052  0.3900
 5309SOL    HW127560   1.666   0.905  16.239  0.9492  0.6980  1.6067
 5309SOL    HW227561   1.529   0.849  16.203 -0.3268 -0.0788  0.9489
 5310SOL     OW27562   1.437   2.991   8.095 -0.5933 -0.0609  0.3114
 5310SOL    HW127563   1.384   3.035   8.029  1.9681  0.6210 -1.3176
 5310SOL    HW227564   1.489   3.065   8.126 -0.3075  0.2226 -0.8413
 5311SOL     OW27565   3.754   3.327   4.918 -0.2428  0.1433 -0.3090
 5311SOL    HW127566   3.830   3.358   4.967  0.5563  0.3673 -1.6622
 5311SOL    HW227567   3.705   3.409   4.913  1.0529  1.0680  1.9232
 5312SOL     OW27568   0.485   4.709   5.527 -0.0512 -0.5313  0.3264
 5312SOL    HW127569   0.542   0.037   5.482  1.1501 -0.4931  1.8720
 5312SOL    HW227570   0.467   0.006   5.616 -0.1077  2.7553 -0.8326
 5313SOL     OW27571   1.049   3.810   3.853  0.0243  0.4728 -0.3567
 5313SOL    HW127572   0.957   3.830   3.837 -0.0946 -0.4631 -0.8099
 5313SOL    HW227573   1.044   3.776   3.942  0.2099  1.1932 -0.0668
 5314SOL     OW27574   1.849   2.390   8.964  0.4909 -0.3935 -0.4969
 5314SOL    HW127575   1.878   2.469   9.010 -2.1437  0.1148  0.2714
 5314SOL    HW227576   1.823   2.431   8.881 -0.1835 -0.8564 -0.5170
 5315SOL     OW27577   1.372   1.172  12.165  0.0692  0.7529  0.0832
 5315SOL    HW127578   1.388   1.082  12.138  0.8526  0.5018  1.3685
 5315SOL    HW227579   1.349   1.217  12.083  2.0522 -0.3785 -1.0923
 5316SOL     OW27580   3.719   4.140   8.180 -0.1012 -0.4394  0.6437
 5316SOL    HW127581   3.676   4.054   8.178  1.9718 -1.4154 -2.2110
 5316SOL    HW227582   3.750   4.148   8.090 -0.3800  1.2735  0.7050
 5317SOL     OW27583   4.251   0.470  13.680 -0.4651  0.2739  0.2729
 5317SOL    HW127584   4.221   0.525  13.607 -1.7345  0.0395  0.6181
 5317SOL    HW227585   4.304   0.534  13.727  0.1642  0.0864 -0.1796
 5318SOL     OW27586   4.166   1.722   3.469 -0.4020 -0.1733  0.1309
 5318SOL    HW127587   4.114   1.692   3.543  0.5875 -0.6325  0.6439
 5318SOL    HW227588   4.193   1.638   3.433  3.6567  1.9027 -1.6830
 5319SOL     OW27589   0.398   0.632   8.027 -0.4052  0.1001 -0.4178
 5319SOL    HW127590   0.313   0.626   8.071 -0.2566  0.0912 -0.1322
 5319SOL    HW227591   0.429   0.703   8.083  0.9564 -1.9467  1.3764
 5320SOL     OW27592   4.427   0.627  13.813 -0.5151 -0.7561 -0.3742
 5320SOL    HW127593   4.501   0.577  13.849 -0.0368  0.4035  0.2409
 5320SOL    HW227594   4.468   0.685  13.749 -3.1686 -1.9673 -3.1845
 5321SOL     OW27595   3.896   0.486  12.784 -0.0198 -0.1604  0.2487
 5321SOL    HW127596   3.989   0.463  12.779  0.0166 -0.4030  1.8331
 5321SOL    HW227597   3.906   0.567  12.834 -2.1828  1.2267 -1.5725
 5322SOL     OW27598   2.598   1.373   7.777  0.0948  0.6484 -0.1496
 5322SOL    HW127599   2.635   1.436   7.714 -0.9329  1.7779  0.3854
 5322SOL    HW227600   2.597   1.291   7.728  0.8861  0.4917  0.0971
 5323SOL     OW27601   0.878   2.728   1.930 -0.3223 -0.1762 -0.1334
 5323SOL    HW127602   0.909   2.712   2.019  0.0408  2.5522  0.2445
 5323SOL    HW227603   0.785   2.727   1.953  0.5479  1.1797  3.5208
 5324SOL     OW27604   2.311   1.912  12.297  0.4561 -0.0805 -0.6363
 5324SOL    HW127605   2.315   1.978  12.227 -1.3091  1.2601  0.5159
 5324SOL    HW227606   2.318   1.835  12.241  1.0830 -0.3765 -0.1428
 5325SOL     OW27607   3.772   2.364   5.154  0.3658 -0.2199  0.6000
 5325SOL    HW127608   3.769   2.451   5.193  1.4371  0.2357 -0.3337
 5325SOL    HW227609   3.821   2.320   5.224  0.0223  0.7956  1.4804
 5326SOL     OW27610   0.241   3.488   2.870 -0.0999  0.0620 -0.2150
 5326SOL    HW127611   0.305   3.490   2.798  0.7654 -1.7211  0.4982
 5326SOL    HW227612   0.201   3.575   2.865  0.4757  0.3220 -0.2896
 5327SOL     OW27613   2.234   1.229   3.615 -0.1133 -0.2815 -0.1036
 5327SOL    HW127614   2.183   1.232   3.696 -0.2442 -0.3837 -0.1814
 5327SOL    HW227615   2.168   1.209   3.549 -1.0172 -0.5967  0.8902
 5328SOL     OW27616   2.073   4.229  11.615 -0.3301 -0.5933  0.4974
 5328SOL    HW127617   2.019   4.294  11.570 -2.5674 -1.9426  1.2606
 5328SOL    HW227618   2.071   4.258  11.706  0.0023 -2.0356  0.9571
 5329SOL     OW27619   2.150   2.143  13.572  0.4618  0.1642  0.1868
 5329SOL    HW127620   2.126   2.093  13.495  0.4308 -0.7525  0.7909
 5329SOL    HW227621   2.076   2.203  13.586  0.1352 -0.1160 -0.3500
 5330SOL     OW27622   1.670   4.302   1.150 -0.1791 -0.1330  0.1870
 5330SOL    HW127623   1.633   4.283   1.063  0.1335  2.0750 -0.4227
 5330SOL    HW227624   1.716   4.218   1.158 -1.1889 -0.7221 -0.1762
 5331SOL     OW27625   4.126   2.146  15.787 -0.1838  0.6970 -0.5598
 5331SOL    HW127626   4.103   2.238  15.799  1.0919  0.8787  0.5582
 5331SOL    HW227627   4.222   2.152  15.781  0.0286 -2.0092 -0.0106
 5332SOL     OW27628   1.650   1.889   7.866 -0.5052 -0.9729 -0.5683
 5332SOL    HW127629   1.682   1.857   7.950  1.8600 -1.5489 -1.7092
 5332SOL    HW227630   1.732   1.885   7.817  0.2373 -0.2565  0.6266
 5333SOL     OW27631   3.443   2.716   0.864  0.3753  0.0883 -0.2383
 5333SOL    HW127632   3.513   2.748   0.921 -0.6466  2.7369 -0.4797
 5333SOL    HW227633   3.393   2.796   0.853  0.5421  0.3802  1.1592
 5334SOL     OW27634   0.998   4.145   3.103 -0.3290 -0.5737  0.0144
 5334SOL    HW127635   0.974   4.149   3.195 -1.4006  0.6679 -0.3268
 5334SOL    HW227636   0.984   4.234   3.072  0.4424 -0.2239  0.6689
 5335SOL     OW27637   1.228   3.719   5.543 -0.2413 -0.1729  0.1159
 5335SOL    HW127638   1.265   3.722   5.631 -1.3717  0.3269  0.5803
 5335SOL    HW227639   1.135   3.733   5.560  0.3842  1.7638  1.9349
 5336SOL     OW27640   1.162   3.337   4.950  0.1801  0.2812  0.1152
 5336SOL    HW127641   1.178   3.279   4.876 -0.8757 -0.6711  0.6427
 5336SOL    HW227642   1.067   3.345   4.952  0.3207  2.3772 -1.6326
 5337SOL     OW27643   2.088   2.996   1.258 -0.1946  0.1838  0.2855
 5337SOL    HW127644   2.117   2.969   1.345  0.0818  2.2589  0.8509
 5337SOL    HW227645   2.110   2.921   1.203 -1.1251 -0.5820  0.9620
 5338SOL     OW27646   3.871   3.202  12.494 -0.1052  0.2961  0.0997
 5338SOL    HW127647   3.866   3.122  12.441  0.5831 -0.4534  1.1628
 5338SOL    HW227648   3.914   3.266  12.437 -0.5018  1.1790  0.8019
 5339SOL     OW27649   0.222   4.035   2.890 -0.3192 -0.1060 -0.0939
 5339SOL    HW127650   0.242   4.037   2.984  0.6322 -3.9705 -0.2450
 5339SOL    HW227651   0.179   4.121   2.887 -1.4456 -0.6541  0.2858
 5340SOL     OW27652   3.422   0.883  13.867  0.1248  0.1602  0.1796
 5340SOL    HW127653   3.348   0.832  13.900 -0.1697  0.6193  0.2238
 5340SOL    HW227654   3.388   0.948  13.806 -1.3092 -1.3383 -0.6229
 5341SOL     OW27655   2.679   1.661   2.912 -0.0923 -0.5791  0.4984
 5341SOL    HW127656   2.711   1.638   2.825 -0.5841 -1.2205  0.4834
 5341SOL    HW227657   2.760   1.686   2.954 -0.7768  2.4188  0.0207
 5342SOL     OW27658   3.678   2.409  17.282 -0.4526  0.1473  0.3251
 5342SOL    HW127659   3.635   2.489  17.253  1.3294  0.4313 -1.4707
 5342SOL    HW227660   3.598   2.364  17.310 -0.1702 -1.2411 -1.1224
 5343SOL     OW27661   0.609   3.436   7.163  0.8253  0.3734  0.1282
 5343SOL    HW127662   0.647   3.397   7.242 -0.6471 -1.3152 -0.0030
 5343SOL    HW227663   0.547   3.369   7.135 -0.6452  0.9616  1.9883
 5344SOL     OW27664   2.461   1.785   4.234  0.3627 -0.1107 -0.6832
 5344SOL    HW127665   2.378   1.740   4.222 -0.4680  1.1565  0.3187
 5344SOL    HW227666   2.443   1.854   4.298  3.7861  0.0965  0.0671
 5345SOL     OW27667   3.506   1.718   5.836 -0.2166  0.3549 -0.0495
 5345SOL    HW127668   3.530   1.793   5.891 -1.2843  1.6410 -1.3591
 5345SOL    HW227669   3.575   1.731   5.771 -1.2693 -2.6328 -1.7552
 5346SOL     OW27670   0.968   1.157  10.673 -0.1642  0.4600 -0.1693
 5346SOL    HW127671   1.025   1.099  10.622 -0.3945  0.7322 -0.7357
 5346SOL    HW227672   0.988   1.238  10.626  1.1061  0.5583  0.5190
 5347SOL     OW27673   4.625   0.183   4.125 -0.1812  0.1741  0.1802
 5347SOL    HW127674   4.662   0.114   4.179 -0.6944 -0.4492 -0.2580
 5347SOL    HW227675   4.533   0.159   4.117 -0.0456  0.5763 -2.6473
 5348SOL     OW27676   0.826   3.555   5.586 -0.0922  0.6393  0.2953
 5348SOL    HW127677   0.879   3.627   5.552  0.5103  1.4155  2.9178
 5348SOL    HW227678   0.812   3.590   5.673  0.3262  0.5781  0.3872
 5349SOL     OW27679   3.791   4.124   3.423  0.5532  0.7192 -0.3165
 5349SOL    HW127680   3.831   4.171   3.496 -1.3080 -0.2736  1.3720
 5349SOL    HW227681   3.697   4.133   3.439  0.3740  0.7023 -1.3800
 5350SOL     OW27682   2.607   3.173   1.921 -0.3103 -0.1874 -0.4732
 5350SOL    HW127683   2.574   3.187   2.009  2.3376  0.2136  0.4547
 5350SOL    HW227684   2.532   3.132   1.879 -0.5655  0.5964 -0.7842
 5351SOL     OW27685   4.664   4.366   2.167 -0.7693  0.1763 -0.4747
 5351SOL    HW127686   4.604   4.354   2.241 -0.5769  0.3423 -0.2908
 5351SOL    HW227687   4.616   4.422   2.106 -1.6977  0.2603  0.3278
 5352SOL     OW27688   2.956   1.853   8.732  0.6959  0.2571 -0.5971
 5352SOL    HW127689   2.871   1.844   8.688  0.4212 -1.0758  0.2076
 5352SOL    HW227690   2.981   1.765   8.761  1.5090  0.3454 -1.0310
 5353SOL     OW27691   1.896   0.130   2.868  0.8397  0.3285 -0.0524
 5353SOL    HW127692   1.858   0.193   2.930 -0.1397 -0.5270  0.2143
 5353SOL    HW227693   1.835   0.123   2.795 -0.2648 -1.2241  1.0085
 5354SOL     OW27694   0.146   2.071   6.696 -0.2673  0.2034  0.2412
 5354SOL    HW127695   0.238   2.056   6.673 -1.0052 -1.1933 -1.8106
 5354SOL    HW227696   0.111   1.982   6.701  0.2158  0.0801  1.3767
 5355SOL     OW27697   4.276   4.459   1.811 -0.1088 -0.7228  0.2698
 5355SOL    HW127698   4.207   4.399   1.841 -2.8321  2.0711 -0.4594
 5355SOL    HW227699   4.322   4.407   1.745  0.1134 -0.3781  0.1556
 5356SOL     OW27700   3.623   3.134   7.572  0.4735  0.0404  0.3617
 5356SOL    HW127701   3.527   3.134   7.567  0.4434 -2.1965  0.6454
 5356SOL    HW227702   3.645   3.192   7.645  0.2032  0.5914  0.0043
 5357SOL     OW27703   1.229   1.440   5.871 -0.3359 -0.4234  0.1284
 5357SOL    HW127704   1.311   1.423   5.823 -0.0106  0.2062  0.4604
 5357SOL    HW227705   1.169   1.370   5.846 -2.1504  0.9158  0.7469
 5358SOL     OW27706   3.888   1.504  12.340 -0.4255  0.0669  0.2996
 5358SOL    HW127707   3.891   1.572  12.408  0.6376  2.2462 -1.9300
 5358SOL    HW227708   3.978   1.507  12.308 -0.0513  0.1514  1.3297
 5359SOL     OW27709   1.235   4.471  10.665 -0.2516 -0.2138 -0.1751
 5359SOL    HW127710   1.171   4.541  10.680  2.3117  2.1996 -0.5633
 5359SOL    HW227711   1.292   4.520  10.606  2.0629 -1.0091  1.3788
 5360SOL     OW27712   2.224   0.255   6.007  0.1994  0.6954  0.0842
 5360SOL    HW127713   2.198   0.347   5.996  2.5171  1.6582  2.6582
 5360SOL    HW227714   2.291   0.272   6.073 -1.5025 -0.7605  2.1550
 5361SOL     OW27715   4.609   3.328   1.142 -0.7879  0.3680  0.0399
 5361SOL    HW127716   4.620   3.393   1.073 -2.0860  0.3256 -0.2051
 5361SOL    HW227717   4.521   3.297   1.121 -1.0762  1.7072 -0.7477
 5362SOL     OW27718   2.128   3.904  13.654 -0.7646  0.3015 -0.3924
 5362SOL    HW127719   2.178   3.980  13.624 -0.2210  1.0871  2.4704
 5362SOL    HW227720   2.198   3.865  13.707 -0.8087 -1.2266 -1.4701
 5363SOL     OW27721   4.185   2.764   4.009  0.2001 -0.5743 -0.7453
 5363SOL    HW127722   4.192   2.669   4.020  0.1036 -0.6126 -1.0247
 5363SOL    HW227723   4.254   2.787   4.071 -1.3516  3.0749 -0.3808
 5364SOL     OW27724   0.581   3.404   2.841  0.1330 -0.3532 -0.9549
 5364SOL    HW127725   0.671   3.376   2.827  0.6202  1.6247 -1.8345
 5364SOL    HW227726   0.534   3.323   2.824  0.9592 -1.3661  1.6042
 5365SOL     OW27727   1.451   0.221   8.357  0.0518 -0.1344  0.2205
 5365SOL    HW127728   1.444   0.312   8.384  1.6988  0.3893 -1.1120
 5365SOL    HW227729   1.361   0.200   8.333  0.0821  1.4364 -1.2951
 5366SOL     OW27730   1.524   1.787   3.882 -0.0036  0.1916  0.3353
 5366SOL    HW127731   1.594   1.723   3.893  0.4624  0.7910  0.8464
 5366SOL    HW227732   1.451   1.738   3.919  0.2411  0.7269  1.5306
 5367SOL     OW27733   3.696   2.437   5.484  0.0410 -0.3341 -0.4494
 5367SOL    HW127734   3.650   2.503   5.536  1.6052 -1.0088  1.7756
 5367SOL    HW227735   3.619   2.385   5.464 -0.6457  1.4874 -2.6276
 5368SOL     OW27736   3.783   0.340   8.135 -0.5058  0.2905 -0.0394
 5368SOL    HW127737   3.859   0.308   8.184 -1.1030  0.8183  1.2478
 5368SOL    HW227738   3.764   0.414   8.192 -0.6047  1.0624 -1.0812
 5369SOL     OW27739   1.660   3.536   3.989 -0.3084  0.1907  0.4565
 5369SOL    HW127740   1.720   3.480   4.038  1.1903  0.3329 -1.2137
 5369SOL    HW227741   1.579   3.516   4.036  0.0413 -0.1308  0.9214
 5370SOL     OW27742   1.826   2.770   7.176 -0.2002 -0.2862 -0.3958
 5370SOL    HW127743   1.882   2.846   7.162  1.0680 -0.7649  1.9860
 5370SOL    HW227744   1.895   2.713   7.211  1.7710  1.2080 -1.8482
 5371SOL     OW27745   3.166   0.604   1.450 -0.3509 -1.0384 -0.2724
 5371SOL    HW127746   3.219   0.613   1.370 -0.1736 -0.8870 -0.1386
 5371SOL    HW227747   3.103   0.540   1.418  1.2198 -1.3427 -2.8142
 5372SOL     OW27748   2.986   3.166   3.501 -0.4887  0.3878  0.1297
 5372SOL    HW127749   3.030   3.114   3.568  0.8058  0.3749 -0.7393
 5372SOL    HW227750   3.051   3.236   3.506  1.1109 -1.0979  0.3698
 5373SOL     OW27751   4.567   3.052  14.150 -0.1518  0.2634  0.1645
 5373SOL    HW127752   4.624   2.994  14.100  0.0143 -1.5607  2.4807
 5373SOL    HW227753   4.624   3.082  14.220 -0.3302  2.0588 -0.4523
 5374SOL     OW27754   3.553   0.791   6.825 -0.3539 -0.4490  0.0517
 5374SOL    HW127755   3.612   0.790   6.900 -0.6876  1.7340  0.3395
 5374SOL    HW227756   3.473   0.753   6.863 -0.0958 -0.3288  0.7152
 5375SOL     OW27757   0.288   4.030   5.058 -0.0179 -0.1793 -0.3286
 5375SOL    HW127758   0.225   4.084   5.011  0.1402  0.4847  0.2106
 5375SOL    HW227759   0.366   4.035   5.002  0.2219  1.3725  0.1414
 5376SOL     OW27760   1.156   3.685  11.534 -0.2831 -0.4297 -0.0636
 5376SOL    HW127761   1.171   3.675  11.628  0.7239  2.0487  0.0369
 5376SOL    HW227762   1.081   3.744  11.533 -1.3572 -1.7938 -0.1381
 5377SOL     OW27763   3.127   3.485   0.355  0.2272 -0.3949  0.5721
 5377SOL    HW127764   3.052   3.427   0.338 -0.7032  0.8602  0.3992
 5377SOL    HW227765   3.125   3.537   0.275 -1.7765 -3.3972 -1.3194
 5378SOL     OW27766   0.941   3.809   5.128  0.0986 -0.6534  0.4144
 5378SOL    HW127767   0.907   3.790   5.040  1.7437 -0.0558 -0.3502
 5378SOL    HW227768   0.889   3.747   5.179 -2.9424  1.1498 -0.4982
 5379SOL     OW27769   0.948   3.813   0.083 -0.4177  0.1875  0.9666
 5379SOL    HW127770   1.018   3.874   0.103 -1.0820  1.6160 -1.0449
 5379SOL    HW227771   0.952   3.766   0.166 -0.1032  1.2431  1.5493
 5380SOL     OW27772   1.296   1.507   4.188  0.0284  0.2568 -0.5775
 5380SOL    HW127773   1.254   1.420   4.190  0.4024  0.0518 -1.3354
 5380SOL    HW227774   1.262   1.545   4.269  1.6676  0.7851 -0.1434
 5381SOL     OW27775   1.035   0.205  16.790 -0.6038  0.1632  0.5721
 5381SOL    HW127776   1.043   0.169  16.702  1.5643 -2.3226  1.7627
 5381SOL    HW227777   1.085   0.287  16.791  1.5974 -1.1580 -0.2824
 5382SOL     OW27778   1.229   4.046   9.995  0.1403  0.4723  0.2039
 5382SOL    HW127779   1.136   4.069   9.990  0.0980  0.1148 -0.5663
 5382SOL    HW227780   1.231   4.048  10.091 -0.8220 -1.1471  0.2611
 5383SOL     OW27781   1.005   0.525   3.228 -0.6151  0.0178 -0.1771
 5383SOL    HW127782   0.924   0.494   3.268 -0.1169  2.1282  2.4721
 5383SOL    HW227783   1.041   0.446   3.187  0.6392  0.7308 -0.4413
 5384SOL     OW27784   1.117   3.921  16.309  0.1636 -0.4496 -0.2980
 5384SOL    HW127785   1.151   3.834  16.326  0.1891 -0.6915 -1.5556
 5384SOL    HW227786   1.151   3.934  16.220  1.7106 -1.2236  0.1915
 5385SOL     OW27787   0.124   2.771   8.012 -0.4268  0.4848  0.0336
 5385SOL    HW127788   0.110   2.827   7.936 -1.1604  0.9970  0.5461
 5385SOL    HW227789   0.032   2.769   8.039  0.0695  0.7421  1.7623
 5386SOL     OW27790   1.939   0.046   3.870  0.0068 -0.5531  0.1265
 5386SOL    HW127791   2.022   0.011   3.902  1.6980  2.2029 -1.2557
 5386SOL    HW227792   1.885   4.705   3.846 -3.5066  2.4730 -1.4478
 5387SOL     OW27793   1.013   0.932   6.112  0.8095 -0.2234 -0.0641
 5387SOL    HW127794   0.953   0.866   6.146 -0.7489  0.6834 -1.0432
 5387SOL    HW227795   1.072   0.943   6.186 -1.4512 -1.1581  1.8663
 5388SOL     OW27796   2.855   2.681  16.698  0.2589  0.2253 -0.2470
 5388SOL    HW127797   2.786   2.733  16.738  1.0745  1.7286 -0.8144
 5388SOL    HW227798   2.809   2.599  16.682  0.0632  0.3703 -0.4234
 5389SOL     OW27799   0.235   0.178  10.176 -0.3660  0.1444 -0.0341
 5389SOL    HW127800   0.247   0.263  10.134 -3.0704  0.1818 -0.7431
 5389SOL    HW227801   0.293   0.177  10.252 -0.7827 -0.6696  0.2697
 5390SOL     OW27802   4.420   3.784   9.274  0.2477 -0.3101  0.1538
 5390SOL    HW127803   4.428   3.844   9.348  0.4459 -1.1461  0.8064
 5390SOL    HW227804   4.325   3.777   9.259  0.3511 -1.2216 -0.0399
 5391SOL     OW27805   2.789   3.748   3.612 -0.3865  0.0523  0.2355
 5391SOL    HW127806   2.852   3.759   3.541  1.6785 -1.0606  1.8985
 5391SOL    HW227807   2.794   3.830   3.662 -1.1621 -1.3962  2.6521
 5392SOL     OW27808   3.818   2.216   5.666 -0.1886 -0.2917  0.4841
 5392SOL    HW127809   3.727   2.232   5.640 -0.0532 -1.7468 -0.9101
 5392SOL    HW227810   3.848   2.306   5.678 -1.0642  0.1817 -0.7807
 5393SOL     OW27811   4.365   1.663   9.963  0.1860 -0.1209 -0.6989
 5393SOL    HW127812   4.414   1.736   9.927 -0.1669  0.1606 -0.6033
 5393SOL    HW227813   4.297   1.713  10.007 -0.5731 -1.7284 -0.0477
 5394SOL     OW27814   3.867   3.814   5.863  0.0601 -0.3938  0.8218
 5394SOL    HW127815   3.952   3.778   5.838 -0.0098 -1.1414  1.6650
 5394SOL    HW227816   3.891   3.853   5.947  2.3516  0.6499 -0.3090
 5395SOL     OW27817   3.426   3.016   9.632  0.0744 -0.4782  0.3966
 5395SOL    HW127818   3.450   3.058   9.715 -0.2229  1.8174 -0.6969
 5395SOL    HW227819   3.498   2.953   9.630  1.2049  0.9405 -2.5833
 5396SOL     OW27820   1.012   2.486   7.220  0.3041  0.1951  1.0924
 5396SOL    HW127821   1.016   2.395   7.252 -1.4065 -0.1569  0.2963
 5396SOL    HW227822   0.921   2.490   7.190  0.3121 -2.8320  0.6345
 5397SOL     OW27823   1.293   2.977   0.153 -1.1692 -0.1585 -0.0552
 5397SOL    HW127824   1.337   3.039   0.211 -0.5823 -0.6526  0.0269
 5397SOL    HW227825   1.217   2.957   0.208 -1.5640  2.5973  0.4169
 5398SOL     OW27826   3.459   4.300   1.485 -0.2771  0.0490 -0.1905
 5398SOL    HW127827   3.365   4.309   1.503  0.0114  0.1772  1.2040
 5398SOL    HW227828   3.500   4.313   1.570  0.4618 -0.8866 -0.3993
 5399SOL     OW27829   0.216   3.461  14.624 -0.2102  0.7246  0.2928
 5399SOL    HW127830   0.171   3.538  14.590  0.8101  1.1547 -0.0966
 5399SOL    HW227831   0.168   3.385  14.592  0.7007  0.4418 -0.4145
 5400SOL     OW27832   1.789   2.483   2.469  0.3452  0.0454 -0.2842
 5400SOL    HW127833   1.832   2.398   2.464 -1.5267 -0.8755 -0.7945
 5400SOL    HW227834   1.833   2.527   2.542  0.5133 -1.5168  0.5467
 5401SOL     OW27835   0.464   0.867  16.293 -0.0777  0.3309 -0.4008
 5401SOL    HW127836   0.508   0.921  16.227 -1.1906  1.4513 -0.2153
 5401SOL    HW227837   0.487   0.780  16.261  1.4671 -0.0058  1.5650
 5402SOL     OW27838   3.977   1.500   5.171  0.4169  0.0429 -0.3510
 5402SOL    HW127839   3.963   1.418   5.125  0.8305 -0.1721 -0.0934
 5402SOL    HW227840   3.891   1.536   5.148  0.2536  0.2756  0.6451
 5403SOL     OW27841   1.204   2.137   6.330 -0.2162  0.4365  0.0937
 5403SOL    HW127842   1.245   2.091   6.258 -0.4228  0.6721 -0.1748
 5403SOL    HW227843   1.248   2.100   6.407  0.4692  1.0405 -0.0034
 5404SOL     OW27844   2.093   3.929   0.195  1.1582  0.2692  0.3626
 5404SOL    HW127845   2.114   3.858   0.134 -0.5885 -0.1528  0.2292
 5404SOL    HW227846   2.020   3.977   0.155  0.2927 -1.9841 -0.7791
 5405SOL     OW27847   1.881   3.246   3.769  0.1491  0.0123 -0.4981
 5405SOL    HW127848   1.912   3.279   3.854  1.5822 -0.4769 -0.8435
 5405SOL    HW227849   1.913   3.307   3.703 -1.7559  0.9681 -0.5521
 5406SOL     OW27850   1.855   3.536   1.738  0.5053  0.5952 -0.4219
 5406SOL    HW127851   1.926   3.518   1.677  0.5690 -0.7148  0.0308
 5406SOL    HW227852   1.895   3.501   1.818  0.5198  2.8034  0.5454
 5407SOL     OW27853   4.270   3.409   5.372 -0.0646  0.1464 -0.3612
 5407SOL    HW127854   4.206   3.377   5.309 -0.3821  1.3958 -0.6604
 5407SOL    HW227855   4.266   3.351   5.448 -0.5715  1.9270  0.9838
 5408SOL     OW27856   2.120   2.721   1.255  0.2104 -0.2999 -0.2065
 5408SOL    HW127857   2.213   2.707   1.274  1.0313  2.9122 -1.8646
 5408SOL    HW227858   2.105   2.684   1.167 -0.8900  2.4153 -1.1661
 5409SOL     OW27859   1.488   4.182   2.288 -0.7801 -0.0902  0.1280
 5409SOL    HW127860   1.520   4.111   2.342 -1.6056 -0.6292 -0.0846
 5409SOL    HW227861   1.427   4.230   2.345 -0.2454  0.8366 -0.0781
 5410SOL     OW27862   4.126   4.205   6.021 -0.3756 -0.2216 -0.3786
 5410SOL    HW127863   4.186   4.279   6.030 -0.3556 -0.0385 -2.1595
 5410SOL    HW227864   4.047   4.240   6.064  0.6729  1.6695  0.0130
 5411SOL     OW27865   3.307   4.049   8.614 -0.2187  0.4447 -0.1371
 5411SOL    HW127866   3.360   4.081   8.688  0.4248  0.1832 -0.4793
 5411SOL    HW227867   3.270   3.968   8.647 -0.9085  1.2336  1.0518
 5412SOL     OW27868   0.335   3.345   9.997  0.0056  0.0058 -0.2654
 5412SOL    HW127869   0.273   3.403  10.041  0.1428 -1.9502  2.5064
 5412SOL    HW227870   0.294   3.258   9.985  0.6062  0.0538 -2.8007
 5413SOL     OW27871   2.798   2.376  15.037  0.0112 -0.1379 -0.2207
 5413SOL    HW127872   2.874   2.406  14.986  0.2065  0.6797  0.5432
 5413SOL    HW227873   2.734   2.369  14.967  0.4665  2.8465 -0.9526
 5414SOL     OW27874   2.374   3.812  13.735 -0.0355  0.1692 -0.2070
 5414SOL    HW127875   2.460   3.832  13.771  0.2163 -0.0301 -0.7012
 5414SOL    HW227876   2.387   3.766  13.652 -2.1934  1.0160 -1.0403
 5415SOL     OW27877   4.670   4.506   5.724  0.3483 -0.0786  0.0277
 5415SOL    HW127878   4.575   4.503   5.738  0.1372  1.7703 -0.9918
 5415SOL    HW227879   4.679   4.601   5.729  3.7285 -0.4020  0.3094
 5416SOL     OW27880   1.787   1.686   6.442  0.4212 -0.5665  0.1547
 5416SOL    HW127881   1.800   1.606   6.391 -0.6488 -1.1793  0.8341
 5416SOL    HW227882   1.817   1.667   6.531  0.9016  1.1296  0.3496
 5417SOL     OW27883   1.084   3.758   7.535 -0.2396 -0.7005  0.3763
 5417SOL    HW127884   1.060   3.740   7.626  0.5611 -2.4330  0.2432
 5417SOL    HW227885   1.069   3.673   7.494 -0.7535 -0.7679  0.7084
 5418SOL     OW27886   4.330   1.313   3.224 -0.1040 -0.0233  0.5339
 5418SOL    HW127887   4.386   1.236   3.213 -1.3511 -0.6356 -1.4757
 5418SOL    HW227888   4.265   1.299   3.155  0.4956  0.1113 -0.0655
 5419SOL     OW27889   1.533   4.701   6.923  0.1201 -0.3375 -0.2244
 5419SOL    HW127890   1.617   4.718   6.966  0.6348  0.9336 -1.7392
 5419SOL    HW227891   1.517   4.611   6.953 -1.1523 -0.1381 -0.3069
 5420SOL     OW27892   3.281   4.088   5.425 -0.0675  0.9573 -0.4332
 5420SOL    HW127893   3.301   4.180   5.407 -0.1230  1.0299 -0.1344
 5420SOL    HW227894   3.216   4.094   5.495  0.6293  0.0622  0.2828
 5421SOL     OW27895   2.996   1.309   6.834 -0.2871  0.1735 -0.1671
 5421SOL    HW127896   2.958   1.230   6.795  1.0618 -0.1831 -0.7667
 5421SOL    HW227897   2.982   1.294   6.927 -1.2748  1.5922 -0.1004
 5422SOL     OW27898   4.485   0.578   5.262  0.8355  0.2935 -0.1912
 5422SOL    HW127899   4.461   0.538   5.179 -0.8379  3.8689 -1.4311
 5422SOL    HW227900   4.529   0.499   5.295  2.3503  0.0059 -2.9645
 5423SOL     OW27901   3.727   2.519   6.456  0.1986 -0.3088  0.0428
 5423SOL    HW127902   3.659   2.584   6.473  0.3036 -0.4214  0.8662
 5423SOL    HW227903   3.701   2.467   6.532  0.0445 -0.4374 -0.0957
 5424SOL     OW27904   1.526   1.341   0.364 -0.7164  0.3165  0.3873
 5424SOL    HW127905   1.601   1.284   0.378  0.5069  1.9759  0.5009
 5424SOL    HW227906   1.536   1.393   0.443  1.4736  1.8117 -0.8730
 5425SOL     OW27907   3.923   4.227   6.681  0.3020  0.0461 -0.0995
 5425SOL    HW127908   3.958   4.274   6.606  0.1439 -0.9686 -0.8142
 5425SOL    HW227909   3.887   4.302   6.729  0.1981  0.0809 -0.2310
 5426SOL     OW27910   4.167   2.875   9.233 -0.3506 -0.2673  0.0470
 5426SOL    HW127911   4.190   2.855   9.323  1.1716  0.8263 -0.0890
 5426SOL    HW227912   4.246   2.848   9.186 -2.0846 -2.2879 -1.7183
 5427SOL     OW27913   1.388   2.163  13.734 -0.4641  0.0607 -0.3711
 5427SOL    HW127914   1.315   2.210  13.694 -0.0024  0.8632 -0.2710
 5427SOL    HW227915   1.367   2.071  13.715 -3.3008  0.7519 -0.4838
 5428SOL     OW27916   0.957   2.735   5.919  0.1693 -0.4761  0.6667
 5428SOL    HW127917   0.869   2.698   5.920  0.0020 -0.1018 -0.1919
 5428SOL    HW227918   0.995   2.721   5.832  0.1209 -2.2770  0.9365
 5429SOL     OW27919   1.212   2.975   5.804 -0.0387 -0.4738  0.1223
 5429SOL    HW127920   1.120   2.998   5.809  0.2500  0.9803 -1.2243
 5429SOL    HW227921   1.253   3.045   5.753 -1.6808  0.0306 -0.4956
 5430SOL     OW27922   1.882   0.715  10.748  0.4070  0.0312 -0.1933
 5430SOL    HW127923   1.957   0.669  10.785  0.4726  0.7320  0.5453
 5430SOL    HW227924   1.815   0.647  10.746  0.1721  0.2464  0.2602
 5431SOL     OW27925   0.386   0.224   1.624 -0.3231 -0.6303  0.0778
 5431SOL    HW127926   0.466   0.271   1.647 -0.4081 -0.0546 -0.8325
 5431SOL    HW227927   0.339   0.306   1.614 -0.7887 -0.9122 -0.0684
 5432SOL     OW27928   0.772   0.359   2.144 -0.2775 -0.2403  0.0362
 5432SOL    HW127929   0.778   0.440   2.194 -0.4116 -0.9617  1.2284
 5432SOL    HW227930   0.771   0.393   2.054 -0.8409 -0.2914  0.0259
 5433SOL     OW27931   4.692   3.806   8.603 -0.2265 -0.0009 -0.2174
 5433SOL    HW127932   4.725   3.722   8.634  1.2515  0.7758  0.3255
 5433SOL    HW227933   4.651   3.853   8.676  0.3585  0.4058 -0.1502
 5434SOL     OW27934   3.962   3.965   8.826 -0.2404 -0.2232  0.3178
 5434SOL    HW127935   3.961   4.002   8.737 -2.5832  1.0571  0.8924
 5434SOL    HW227936   4.038   3.907   8.812  0.5552  0.7413  0.6789
 5435SOL     OW27937   4.081   2.511   9.594 -0.3244  0.1271  0.0547
 5435SOL    HW127938   4.141   2.437   9.601 -1.3883 -0.7568 -0.1199
 5435SOL    HW227939   4.141   2.586   9.589  0.9641 -0.8522  0.9277
 5436SOL     OW27940   1.795   3.901  13.014 -0.1767  0.3803  0.0935
 5436SOL    HW127941   1.851   3.861  12.947 -1.0156 -1.5361  0.5301
 5436SOL    HW227942   1.721   3.930  12.961 -0.6365  0.9215  1.0343
 5437SOL     OW27943   4.128   0.358   3.357  0.7376  0.1916  0.0068
 5437SOL    HW127944   4.183   0.432   3.329 -3.5865  2.7991 -1.6000
 5437SOL    HW227945   4.197   0.292   3.362  0.8443  0.4177  1.3849
 5438SOL     OW27946   3.645   3.543   2.381  0.8197  0.2334  0.3347
 5438SOL    HW127947   3.563   3.573   2.419  2.1782  1.7134  2.1353
 5438SOL    HW227948   3.619   3.513   2.294 -1.6573  1.8982  0.5101
 5439SOL     OW27949   0.309   1.036   6.291  0.1448  0.2670  0.4202
 5439SOL    HW127950   0.217   1.020   6.310  0.2128 -0.4474  0.1434
 5439SOL    HW227951   0.339   0.946   6.277  0.9609  0.4567  0.9222
 5440SOL     OW27952   3.804   3.085   9.720  0.3137  0.1073  0.1277
 5440SOL    HW127953   3.804   3.113   9.628 -0.7582 -1.8034 -0.4585
 5440SOL    HW227954   3.877   3.024   9.714  1.1172  0.9519  1.5625
 5441SOL     OW27955   1.617   3.647  13.492 -1.1909 -0.1444  0.4378
 5441SOL    HW127956   1.560   3.575  13.465 -0.6158  0.3433 -2.0363
 5441SOL    HW227957   1.655   3.674  13.408 -1.3975  2.8475  1.3019
 5442SOL     OW27958   2.062   4.069  15.980 -0.2181 -0.1709 -0.9505
 5442SOL    HW127959   1.973   4.088  16.011 -0.0949  0.1692 -0.8015
 5442SOL    HW227960   2.056   4.106  15.892 -0.6994 -2.3159 -1.8093
 5443SOL     OW27961   0.808   4.690  10.647 -0.4624  0.2908 -0.2238
 5443SOL    HW127962   0.735   4.648  10.602  0.4974 -1.7263  0.1398
 5443SOL    HW227963   0.804   0.040  10.601 -2.4386  2.4067  3.7767
 5444SOL     OW27964   1.912   0.993  16.364  0.2407 -0.0728 -0.6415
 5444SOL    HW127965   1.894   0.984  16.270 -0.1938 -2.0592 -0.3801
 5444SOL    HW227966   1.943   1.083  16.367  1.0657 -0.4203  1.3508
 5445SOL     OW27967   2.807   4.377  12.497  0.6489 -0.1966  0.4754
 5445SOL    HW127968   2.876   4.310  12.494  0.3627 -0.4837  0.3345
 5445SOL    HW227969   2.854   4.438  12.555 -3.9373  0.7830  3.1420
 5446SOL     OW27970   1.690   3.301   9.156  0.5448  0.0172  0.2551
 5446SOL    HW127971   1.747   3.365   9.113 -0.4321  1.3549  0.9606
 5446SOL    HW227972   1.735   3.278   9.237 -2.1159 -3.0781  0.8377
 5447SOL     OW27973   2.073   3.495  10.395  0.1163  0.2043 -0.0699
 5447SOL    HW127974   2.029   3.413  10.373 -0.4747  0.2800  0.8263
 5447SOL    HW227975   2.138   3.450  10.448  1.2078  0.0651 -1.5187
 5448SOL     OW27976   3.938   2.848   5.526 -0.2451 -0.3301 -0.5729
 5448SOL    HW127977   3.982   2.893   5.454 -0.0731  2.0877  1.0494
 5448SOL    HW227978   3.911   2.924   5.578  3.2756 -1.6722  3.2699
 5449SOL     OW27979   3.414   2.714   7.361 -0.4927  0.3014  0.1052
 5449SOL    HW127980   3.487   2.776   7.365  0.0766 -0.0993 -3.8271
 5449SOL    HW227981   3.431   2.667   7.443 -1.2801  0.3012  0.2728
 5450SOL     OW27982   4.492   0.607   1.908 -0.3224 -0.0206 -0.7925
 5450SOL    HW127983   4.402   0.638   1.920 -0.1533  1.1109 -2.4397
 5450SOL    HW227984   4.477   0.514   1.920  1.2540 -0.1267  0.4285
 5451SOL     OW27985   1.398   1.554   6.729  0.4816 -0.2624  0.2287
 5451SOL    HW127986   1.461   1.547   6.801 -1.0239 -0.5750  1.5157
 5451SOL    HW227987   1.336   1.624   6.749  1.2230  0.5606 -0.3481
 5452SOL     OW27988   0.558   3.641   2.064 -0.0498 -0.0678  0.5359
 5452SOL    HW127989   0.479   3.694   2.064 -2.6719 -3.9498 -0.4808
 5452SOL    HW227990   0.622   3.706   2.092 -0.7234 -0.1561  2.2701
 5453SOL     OW27991   2.605   1.908   9.595 -0.1080  0.5901 -0.1042
 5453SOL    HW127992   2.532   1.970   9.594  0.3996  1.1758 -1.4228
 5453SOL    HW227993   2.624   1.914   9.689 -2.7187 -1.1033  0.5222
 5454SOL     OW27994   1.189   4.677   8.460 -0.0795 -0.2997  0.9628
 5454SOL    HW127995   1.103   4.650   8.429  0.0681  0.5725 -0.1639
 5454SOL    HW227996   1.168   4.679   8.554 -1.8225  1.0393  0.5451
 5455SOL     OW27997   3.877   1.712  17.203 -0.6093 -0.2305 -0.0474
 5455SOL    HW127998   3.817   1.785  17.184  0.8460  0.4081 -2.1265
 5455SOL    HW227999   3.922   1.750  17.279 -1.3602 -2.6016  1.5785
 5456SOL     OW28000   2.988   0.064  13.670 -0.0137  0.4384 -0.2992
 5456SOL    HW128001   3.001   0.159  13.665 -1.3409  0.5838 -1.0438
 5456SOL    HW228002   3.067   0.022  13.635 -0.1618 -1.6561  1.9517
 5457SOL     OW28003   3.640   1.393   4.325  0.0448  0.3980  0.1894
 5457SOL    HW128004   3.643   1.462   4.258 -2.5419  1.2115  0.8803
 5457SOL    HW228005   3.577   1.433   4.385  0.7674 -2.1551  2.6022
 5458SOL     OW28006   4.511   3.249   3.998 -0.0266  0.6983 -0.0419
 5458SOL    HW128007   4.545   3.180   3.942 -0.8676  2.0504 -2.2279
 5458SOL    HW228008   4.462   3.293   3.928  0.5238  2.2708  0.5455
 5459SOL     OW28009   3.500   3.839   7.731  0.3787 -0.2182  0.2429
 5459SOL    HW128010   3.515   3.905   7.798 -1.4498  2.1015 -1.6195
 5459SOL    HW228011   3.464   3.769   7.786 -1.5446  0.6569  0.0870
 5460SOL     OW28012   1.703   2.468   1.694  0.3454  0.0594  0.2361
 5460SOL    HW128013   1.619   2.481   1.737 -0.3952 -1.6986 -0.6867
 5460SOL    HW228014   1.708   2.540   1.632 -1.9928 -0.5149 -0.6089
 5461SOL     OW28015   0.657   2.429   5.236  0.1400 -0.8058  0.3114
 5461SOL    HW128016   0.681   2.340   5.261  0.6139 -0.9456 -0.6220
 5461SOL    HW228017   0.734   2.484   5.252  0.0910 -1.5431  3.0908
 5462SOL     OW28018   0.634   2.501   4.435 -0.3114  0.2804  0.6790
 5462SOL    HW128019   0.603   2.567   4.498 -0.6438  0.4266  0.3574
 5462SOL    HW228020   0.706   2.456   4.480 -0.4795 -1.1431 -0.4903
 5463SOL     OW28021   1.885   2.920   3.129  0.1366  0.4301  0.2462
 5463SOL    HW128022   1.829   2.852   3.167  0.8607  0.4211  1.3041
 5463SOL    HW228023   1.969   2.904   3.173  1.8343  0.2154 -3.0821
 5464SOL     OW28024   3.238   0.460   0.676  0.5137  0.2330  0.3887
 5464SOL    HW128025   3.155   0.412   0.672  0.1048  1.3585 -4.0739
 5464SOL    HW228026   3.223   0.526   0.744  1.1468  3.0274 -2.2087
 5465SOL     OW28027   4.103   0.212   2.520  0.2857  0.4324  0.1457
 5465SOL    HW128028   4.132   0.184   2.607  0.2411  2.9921  0.9890
 5465SOL    HW228029   4.140   0.299   2.507  0.0919  0.1813 -1.9963
 5466SOL     OW28030   0.589   0.924   5.971 -0.2187  0.7525 -0.4702
 5466SOL    HW128031   0.495   0.919   5.984 -0.1521 -1.7720 -0.9579
 5466SOL    HW228032   0.626   0.926   6.059 -2.1740 -1.3953  0.3808
 5467SOL     OW28033   3.005   4.281  16.975 -0.1026 -0.3837  0.3684
 5467SOL    HW128034   3.095   4.256  16.954 -0.1101 -1.2485  1.3527
 5467SOL    HW228035   2.986   4.218  17.045  0.7911 -2.8493 -1.6153
 5468SOL     OW28036   2.327   4.662   2.174  0.4658  0.4241  0.5954
 5468SOL    HW128037   2.411   4.657   2.129 -0.9502 -0.8509 -1.9232
 5468SOL    HW228038   2.355   4.688   2.262  0.5714 -1.6383  1.1744
 5469SOL     OW28039   3.015   2.962   7.893 -0.2472  0.1434  0.1200
 5469SOL    HW128040   2.942   2.930   7.944 -0.0438  1.4327  1.2215
 5469SOL    HW228041   3.057   3.026   7.951  0.2924  0.2309 -0.3669
 5470SOL     OW28042   2.025   4.447   7.701 -0.1602  0.2144  0.2590
 5470SOL    HW128043   2.021   4.529   7.652  0.1577 -0.1520 -0.3810
 5470SOL    HW228044   1.975   4.398   7.636  1.0813  0.8802 -1.2023
 5471SOL     OW28045   2.100   1.221   3.854 -0.3011 -0.1043  0.2789
 5471SOL    HW128046   2.040   1.148   3.841  0.1584 -0.3918 -0.2183
 5471SOL    HW228047   2.161   1.184   3.918 -0.9652  0.3052  1.1518
 5472SOL     OW28048   1.330   4.195  15.487 -0.4527  0.2102  0.2388
 5472SOL    HW128049   1.258   4.229  15.541 -0.4352 -0.8326  0.9171
 5472SOL    HW228050   1.278   4.144  15.425  0.1150 -1.6875  1.3134
 5473SOL     OW28051   0.012   1.790   4.353  0.2196 -0.4202  0.1694
 5473SOL    HW128052   4.718   1.826   4.437  2.1234 -0.4206  0.8254
 5473SOL    HW228053   0.101   1.765   4.376  0.6468  1.8565  1.0045
 5474SOL     OW28054   0.431   3.218   6.805  0.6123 -0.6333 -0.6877
 5474SOL    HW128055   0.470   3.297   6.766  0.3708  0.0749  0.4936
 5474SOL    HW228056   0.417   3.169   6.724  2.0500 -0.2148 -1.1796
 5475SOL     OW28057   3.567   2.216   2.269  0.0792  0.1057  0.0202
 5475SOL    HW128058   3.547   2.266   2.349  0.0984  2.5941 -1.5349
 5475SOL    HW228059   3.576   2.126   2.300  2.6352  0.2751 -0.2978
 5476SOL     OW28060   1.436   3.182   3.398  0.7896 -0.6744  0.1484
 5476SOL    HW128061   1.385   3.138   3.467  0.6390 -0.7058  0.0158
 5476SOL    HW228062   1.360   3.227   3.360 -0.1812 -2.0943  0.4270
 5477SOL     OW28063   4.186   0.926   3.801  0.0411 -1.2287 -0.0923
 5477SOL    HW128064   4.201   0.837   3.832 -0.4688 -0.0404  3.6039
 5477SOL    HW228065   4.112   0.945   3.858  0.5081 -2.9762  1.0923
 5478SOL     OW28066   3.676   2.469   4.348 -0.1649 -0.0208 -0.3647
 5478SOL    HW128067   3.727   2.435   4.422 -2.0602  1.4947  1.6423
 5478SOL    HW228068   3.730   2.540   4.313 -0.2789  0.2023 -0.0885
 5479SOL     OW28069   0.113   4.520  15.810 -0.0641 -0.1827  0.1120
 5479SOL    HW128070   0.073   4.510  15.724  0.7090 -1.1069 -0.1468
 5479SOL    HW228071   0.039   4.540  15.867  0.5162  1.0812  0.4183
 5480SOL     OW28072   0.177   4.040   6.654 -0.3752 -0.3430 -0.0423
 5480SOL    HW128073   0.155   4.012   6.566 -2.4994  0.7097  0.1564
 5480SOL    HW228074   0.187   4.133   6.636  1.7262 -0.5129  0.2783
 5481SOL     OW28075   2.928   3.620   2.018 -0.0655  0.7685  1.0468
 5481SOL    HW128076   2.967   3.702   2.047  0.8073  1.3337 -1.8286
 5481SOL    HW228077   2.998   3.556   2.010 -0.2968  0.6918 -0.3230
 5482SOL     OW28078   2.742   4.085   9.428 -0.0377 -0.2985  0.0643
 5482SOL    HW128079   2.675   4.022   9.453 -1.2512 -0.3124 -3.2157
 5482SOL    HW228080   2.819   4.028   9.432 -0.6370 -1.1261 -0.0488
 5483SOL     OW28081   0.116   2.248  12.379 -0.3853 -0.5756  0.0134
 5483SOL    HW128082   0.028   2.285  12.372 -1.1432 -2.1776  1.1452
 5483SOL    HW228083   0.145   2.292  12.459  0.3965 -1.2218  0.0842
 5484SOL     OW28084   1.277   1.960   3.993 -0.2867 -0.3053  0.1359
 5484SOL    HW128085   1.317   1.918   3.917 -3.0212 -2.9543  0.1385
 5484SOL    HW228086   1.198   2.008   3.968  1.1128  1.2991 -1.2297
 5485SOL     OW28087   0.692   0.398  15.375 -0.0591  0.5334 -0.2214
 5485SOL    HW128088   0.742   0.369  15.299  0.1378  1.0541 -0.2948
 5485SOL    HW228089   0.757   0.415  15.444 -0.0827  0.3361 -0.1501
 5486SOL     OW28090   4.542   3.868  11.797 -0.0341 -0.2137  0.2089
 5486SOL    HW128091   4.521   3.955  11.832 -0.4339 -1.0284  1.9798
 5486SOL    HW228092   4.567   3.892  11.708 -0.7072 -2.4625 -0.5753
 5487SOL     OW28093   3.583   3.500   3.452  0.1675  0.0994 -0.6206
 5487SOL    HW128094   3.596   3.485   3.545  0.5909  2.2241 -0.3204
 5487SOL    HW228095   3.530   3.580   3.458  1.0599  0.5927  0.7266
 5488SOL     OW28096   0.416   0.783   3.371  0.2701 -0.2256  0.0226
 5488SOL    HW128097   0.322   0.766   3.367  0.3077 -0.8744  1.9421
 5488SOL    HW228098   0.413   0.878   3.383  1.2008 -0.1752 -0.1510
 5489SOL     OW28099   2.451   0.465   3.413  0.1372  0.0351 -0.3605
 5489SOL    HW128100   2.499   0.386   3.388 -0.1572  0.0929 -1.1173
 5489SOL    HW228101   2.512   0.529   3.375  2.0519 -1.7803 -0.3538
 5490SOL     OW28102   2.263   2.576   3.498 -0.0401  0.0798  0.2632
 5490SOL    HW128103   2.187   2.631   3.481 -0.5003 -1.0587 -1.4220
 5490SOL    HW228104   2.226   2.489   3.480 -0.5022  0.3473 -0.0714
 5491SOL     OW28105   0.955   1.659   8.076 -1.1163  0.3870  0.3213
 5491SOL    HW128106   0.899   1.719   8.026 -0.1939 -0.3545 -1.6059
 5491SOL    HW228107   1.025   1.715   8.110 -0.0965  0.4241 -1.8659
 5492SOL     OW28108   3.816   0.335   9.894 -0.3958 -0.3291  0.2076
 5492SOL    HW128109   3.754   0.370   9.830 -0.0882 -0.8572 -0.3795
 5492SOL    HW228110   3.807   0.382   9.977  0.2460  1.3384 -0.6684
 5493SOL     OW28111   1.375   0.999   2.421 -0.1376  0.2042 -0.4910
 5493SOL    HW128112   1.332   0.928   2.470  1.2569  0.3731  0.9900
 5493SOL    HW228113   1.397   0.955   2.339  1.4309 -0.0861  0.0661
 5494SOL     OW28114   3.275   0.058   6.866 -0.5359  0.0835  0.2677
 5494SOL    HW128115   3.244   4.703   6.877  1.9119 -1.2133 -3.4667
 5494SOL    HW228116   3.215   0.085   6.797  1.1591 -0.4585 -1.3995
 5495SOL     OW28117   2.430   3.194  17.472 -0.4404 -0.7669 -0.4846
 5495SOL    HW128118   2.502   3.161  17.527 -0.2749 -2.1865 -1.5495
 5495SOL    HW228119   2.486   3.241  17.410  0.6128 -1.9815 -0.4664
 5496SOL     OW28120   1.174   3.200  17.491 -0.3573 -0.1064 -0.5905
 5496SOL    HW128121   1.133   3.287  17.493  0.0073  0.0604 -0.2173
 5496SOL    HW228122   1.256   3.223  17.448  0.3674  0.0245  0.8450
 5497SOL     OW28123   4.667   1.760  15.514  0.5411  0.1111  0.5235
 5497SOL    HW128124   4.666   1.805  15.429  0.1540  1.1240  1.0665
 5497SOL    HW228125   4.679   1.839  15.567 -2.2194 -0.9346  2.6963
 5498SOL     OW28126   2.801   0.714   4.267  0.0636  0.3910  0.0074
 5498SOL    HW128127   2.818   0.711   4.361  0.2187 -0.2980 -0.0396
 5498SOL    HW228128   2.788   0.808   4.256 -1.1973  0.2062 -0.1657
 5499SOL     OW28129   3.825   0.456  15.495 -0.8142  0.2286 -0.2844
 5499SOL    HW128130   3.758   0.392  15.521 -0.8678  0.1971 -0.5058
 5499SOL    HW228131   3.817   0.527  15.559  0.1994  1.0969 -1.1243
 5500SOL     OW28132   1.795   2.483   2.950 -0.7250  0.4411  0.7315
 5500SOL    HW128133   1.870   2.534   2.919  1.0542 -1.8476  1.3177
 5500SOL    HW228134   1.783   2.439   2.866  0.9211  2.3271 -0.4957
 5501SOL     OW28135   2.770   3.323   4.915 -0.0885 -0.3009  0.6898
 5501SOL    HW128136   2.725   3.376   4.849 -0.0697 -0.9105  0.1873
 5501SOL    HW228137   2.858   3.358   4.902 -0.5329  0.0655 -1.2689
 5502SOL     OW28138   2.092   3.041  17.248  0.0736  0.0867  0.0611
 5502SOL    HW128139   2.003   3.065  17.271  0.5900 -1.3571  3.6140
 5502SOL    HW228140   2.134   3.057  17.333  0.4129 -1.4366  0.1752
 5503SOL     OW28141   3.535   4.106   5.743  0.0360 -0.0556 -0.1558
 5503SOL    HW128142   3.566   4.115   5.653  0.5464  0.3177  0.0580
 5503SOL    HW228143   3.605   4.054   5.782  1.6218  0.9528 -1.6426
 5504SOL     OW28144   1.804   0.052   9.805 -0.1032 -0.2410  0.1003
 5504SOL    HW128145   1.774   0.059   9.715  3.0490 -0.3774 -0.9471
 5504SOL    HW228146   1.871   0.119   9.817 -0.8031  0.4390  0.1965
 5505SOL     OW28147   0.743   4.704   5.740  0.1751  0.3014  0.0077
 5505SOL    HW128148   0.734   0.030   5.813 -0.9593 -0.8109  0.7626
 5505SOL    HW228149   0.655   4.669   5.727  0.2685 -0.4305  1.3577
 5506SOL     OW28150   0.740   3.757   2.579  0.1858  0.7903 -0.0296
 5506SOL    HW128151   0.715   3.836   2.531 -0.1261 -0.7520 -2.3766
 5506SOL    HW228152   0.757   3.793   2.666  1.9160 -0.4133  0.1349
 5507SOL     OW28153   1.182   1.986   7.729 -0.3281 -0.4425  0.2955
 5507SOL    HW128154   1.207   2.040   7.804 -1.7337 -3.2154  2.7485
 5507SOL    HW228155   1.245   1.915   7.742 -0.0136 -0.0800  0.7701
 5508SOL     OW28156   4.105   1.218  10.305 -0.8128 -0.3466  0.2973
 5508SOL    HW128157   4.036   1.250  10.363 -1.0283  0.1070 -0.2117
 5508SOL    HW228158   4.160   1.296  10.302 -0.7767 -0.3387  1.1393
 5509SOL     OW28159   0.841   4.685  14.799 -0.1106 -0.5943 -0.5649
 5509SOL    HW128160   0.838   0.003  14.878 -3.6186 -3.3073  1.0968
 5509SOL    HW228161   0.747   4.680  14.780  0.0746  2.1790 -2.2754
 5510SOL     OW28162   0.448   2.747   9.532 -0.4782  0.6792 -0.1918
 5510SOL    HW128163   0.369   2.734   9.585 -0.9213 -0.8704 -1.2384
 5510SOL    HW228164   0.462   2.839   9.556  1.9662  0.0743  0.7014
 5511SOL     OW28165   4.096   3.204  10.834  0.0996 -0.2186 -0.3774
 5511SOL    HW128166   4.191   3.210  10.835 -0.0316  1.6850  0.8330
 5511SOL    HW228167   4.077   3.110  10.828 -0.6544 -0.1286  0.4664
 5512SOL     OW28168   1.190   1.235   4.264 -0.1823  0.5932 -0.4852
 5512SOL    HW128169   1.269   1.184   4.245  0.7203  1.5693  0.6329
 5512SOL    HW228170   1.127   1.200   4.201  1.0302 -0.6594 -0.9982
 5513SOL     OW28171   0.309   1.119   5.037 -0.1189  0.0004 -0.1460
 5513SOL    HW128172   0.247   1.192   5.046 -2.0799 -1.3901 -2.2879
 5513SOL    HW228173   0.281   1.082   4.953  0.2691  2.1013 -1.2077
 5514SOL     OW28174   2.166   0.263   8.730  0.5360  0.1963 -0.1059
 5514SOL    HW128175   2.228   0.248   8.802  0.3222 -0.2118 -0.0063
 5514SOL    HW228176   2.146   0.171   8.710  1.4576 -0.3121  1.3382
 5515SOL     OW28177   0.218   4.385  14.845 -0.3834  0.3279  0.1925
 5515SOL    HW128178   0.194   4.299  14.880  0.9819 -0.6848 -1.3846
 5515SOL    HW228179   0.263   4.410  14.926  0.4517  0.2807 -0.2516
 5516SOL     OW28180   0.980   2.988   6.400  0.2429 -0.0356 -0.2869
 5516SOL    HW128181   1.058   2.948   6.440  0.5193  1.3819  0.5778
 5516SOL    HW228182   0.909   2.962   6.458  0.2707  1.6416  0.4898
 5517SOL     OW28183   2.679   3.486  10.552 -0.0820 -0.4776  0.1695
 5517SOL    HW128184   2.621   3.413  10.531 -0.1670 -0.5624  0.7086
 5517SOL    HW228185   2.658   3.482  10.645  0.0380  0.4862  0.2421
 5518SOL     OW28186   3.795   3.404  12.094  0.7271 -0.4877 -0.2321
 5518SOL    HW128187   3.869   3.367  12.046  1.4230 -0.0416  0.4960
 5518SOL    HW228188   3.750   3.454  12.026 -0.2343 -1.6380 -0.4357
 5519SOL     OW28189   0.884   1.575   6.123  0.1999 -0.4297 -0.1532
 5519SOL    HW128190   0.936   1.609   6.051 -0.8900  0.7881 -0.3530
 5519SOL    HW228191   0.907   1.631   6.197 -0.2470 -0.6372  0.1401
 5520SOL     OW28192   2.447   2.757   1.076 -0.3223 -0.1608 -0.7162
 5520SOL    HW128193   2.379   2.733   1.139 -0.9407  2.1019 -0.5011
 5520SOL    HW228194   2.464   2.670   1.040  0.1704 -1.1417  1.8962
 5521SOL     OW28195   4.270   2.121   2.112  0.9190 -0.2163 -0.1490
 5521SOL    HW128196   4.231   2.034   2.106 -0.1808  0.1109  2.2910
 5521SOL    HW228197   4.189   2.171   2.098  1.6718  0.4824 -1.9791
 5522SOL     OW28198   0.502   1.449   7.323 -0.6912  0.2414 -0.3327
 5522SOL    HW128199   0.489   1.396   7.402 -0.1638  0.6409  0.0153
 5522SOL    HW228200   0.420   1.497   7.330 -1.9947 -2.0135  0.0714
 5523SOL     OW28201   1.185   3.613   4.920 -0.4707 -0.0183 -0.2976
 5523SOL    HW128202   1.165   3.607   4.827 -0.4273 -1.6064 -0.1966
 5523SOL    HW228203   1.186   3.519   4.937  0.2384  0.2377  1.0760
 5524SOL     OW28204   1.264   3.026   9.847  0.1097 -0.0314  0.9227
 5524SOL    HW128205   1.178   3.010   9.886 -1.2177  0.0986 -1.8976
 5524SOL    HW228206   1.287   3.109   9.890 -0.8886  0.4101  0.6101
 5525SOL     OW28207   1.747   2.321   3.576 -0.0094 -1.0959  0.2473
 5525SOL    HW128208   1.708   2.265   3.509  1.3690  1.6329 -2.8543
 5525SOL    HW228209   1.755   2.260   3.649  1.1665 -1.0209  0.1830
 5526SOL     OW28210   0.099   3.232   6.965 -0.1922  0.4813 -0.7959
 5526SOL    HW128211   0.082   3.252   7.057  0.1586 -0.0693 -0.6086
 5526SOL    HW228212   0.133   3.314   6.931  1.7803  0.2532  0.6202
 5527SOL     OW28213   2.138   2.060   2.174  0.8293 -0.0189 -0.1667
 5527SOL    HW128214   2.074   2.048   2.244  0.1500  1.7498 -0.4971
 5527SOL    HW228215   2.120   2.144   2.132 -1.1588 -0.7830 -0.8209
 5528SOL     OW28216   0.286   4.555   1.752 -0.0545  0.4510 -0.0610
 5528SOL    HW128217   0.263   4.605   1.673  0.0691  0.5275 -0.0481
 5528SOL    HW228218   0.205   4.505   1.762 -0.4936  1.4683  1.4558
 5529SOL     OW28219   1.893   0.133  12.490 -0.2384  1.1970  0.3013
 5529SOL    HW128220   1.810   0.087  12.504  1.4511 -1.3415  1.7932
 5529SOL    HW228221   1.951   0.083  12.547 -0.7278 -0.0944 -0.3377
 5530SOL     OW28222   4.486   0.893  11.967  0.5554  0.0068  0.3625
 5530SOL    HW128223   4.519   0.833  11.899 -1.9524 -1.3574  0.3673
 5530SOL    HW228224   4.565   0.901  12.021  1.8686 -1.5081 -1.2981
 5531SOL     OW28225   2.574   1.881   9.079  0.2784  0.2168 -0.0840
 5531SOL    HW128226   2.644   1.863   9.141  0.7260  0.1258 -0.6143
 5531SOL    HW228227   2.608   1.965   9.050 -1.9213  0.4995 -1.8649
 5532SOL     OW28228   3.338   4.273   7.573  0.2676  0.1701 -0.4205
 5532SOL    HW128229   3.265   4.232   7.528  1.6875 -0.3879 -2.1969
 5532SOL    HW228230   3.294   4.341   7.623  0.3239  0.1854 -0.3909
 5533SOL     OW28231   3.222   2.777   9.180  0.0459  0.0724 -0.6107
 5533SOL    HW128232   3.159   2.849   9.188 -2.2839 -1.6723 -3.0650
 5533SOL    HW228233   3.227   2.759   9.086  3.0036 -1.4440 -0.1684
 5534SOL     OW28234   0.011   0.671   5.698 -0.2147  0.0009  0.4837
 5534SOL    HW128235   4.713   0.595   5.650  0.2349 -0.6064  1.1389
 5534SOL    HW228236   0.011   0.734   5.626  0.9887 -0.3050  0.2057
 5535SOL     OW28237   3.670   1.319   8.720  0.4732  0.2517 -0.2129
 5535SOL    HW128238   3.714   1.277   8.646  1.0119  1.2394 -0.4512
 5535SOL    HW228239   3.589   1.272   8.701  1.6879 -1.1525 -1.9340
 5536SOL     OW28240   2.219   1.483   3.821 -0.3964 -0.0238 -0.0816
 5536SOL    HW128241   2.173   1.399   3.814  1.3215 -1.1977  2.6434
 5536SOL    HW228242   2.150   1.529   3.868 -0.0150  1.7906 -1.3088
 5537SOL     OW28243   2.406   3.712   7.444  0.5304  0.0200 -0.0476
 5537SOL    HW128244   2.429   3.619   7.449 -0.5499 -0.2006  0.7298
 5537SOL    HW228245   2.440   3.725   7.355 -0.7404 -0.2004 -0.5586
 5538SOL     OW28246   4.384   2.967   6.408 -0.3772 -0.3008  0.5532
 5538SOL    HW128247   4.331   2.896   6.373 -2.4883  1.5897 -0.0669
 5538SOL    HW228248   4.425   2.904   6.468 -2.0781 -3.3530 -1.5292
 5539SOL     OW28249   0.191   0.638   2.145  0.1519  0.0442  0.1815
 5539SOL    HW128250   0.189   0.594   2.230 -0.8483 -3.2877 -1.5779
 5539SOL    HW228251   0.099   0.666   2.140 -0.4729 -1.5061  3.0680
 5540SOL     OW28252   3.016   4.657   6.215  0.4584  0.1074  0.2278
 5540SOL    HW128253   2.956   4.727   6.188  1.4252  1.0309  0.4785
 5540SOL    HW228254   2.958   4.592   6.255 -0.5699 -1.1496 -3.2828
 5541SOL     OW28255   1.037   3.247   7.731 -0.6172 -0.8054 -0.8529
 5541SOL    HW128256   0.988   3.244   7.813 -0.9033 -0.1833 -1.0043
 5541SOL    HW228257   1.098   3.316   7.755 -1.9758 -0.2492  1.0042
 5542SOL     OW28258   0.866   0.883   9.090  0.4448 -0.6105  0.5779
 5542SOL    HW128259   0.810   0.946   9.136  1.3411  0.4996  0.1529
 5542SOL    HW228260   0.851   0.900   8.997 -0.4416 -2.0989  0.4432
 5543SOL     OW28261   0.369   2.107  11.333  0.8240  0.0619  0.5468
 5543SOL    HW128262   0.331   2.040  11.390  0.1924  0.1682  0.2423
 5543SOL    HW228263   0.330   2.085  11.249 -2.6141  0.5656  2.0352
 5544SOL     OW28264   4.397   4.269  13.217  0.0403  0.0229  0.2715
 5544SOL    HW128265   4.434   4.233  13.137  0.6999 -1.4741  1.2647
 5544SOL    HW228266   4.471   4.258  13.276 -0.0682  1.8074  0.7505
 5545SOL     OW28267   3.850   0.464   7.563  0.4440 -0.2041  0.2003
 5545SOL    HW128268   3.813   0.407   7.496  2.7005 -1.2917 -0.1090
 5545SOL    HW228269   3.832   0.547   7.518  0.1242  0.9281  2.4313
 5546SOL     OW28270   1.319   4.687   3.757  0.0603  0.1667  0.1190
 5546SOL    HW128271   1.271   0.015   3.703 -0.3971 -0.8256 -0.6308
 5546SOL    HW228272   1.294   4.732   3.838 -1.0616 -0.9472  0.4052
 5547SOL     OW28273   1.350   2.799   7.806  0.1660  0.6326  0.2745
 5547SOL    HW128274   1.276   2.827   7.752  0.2027  0.7913  0.3053
 5547SOL    HW228275   1.308   2.780   7.890  1.2748 -1.9023  0.2428
 5548SOL     OW28276   4.231   3.084   1.559 -0.4569  0.1456  0.1102
 5548SOL    HW128277   4.282   3.157   1.524  2.2565 -2.0987 -0.5244
 5548SOL    HW228278   4.285   3.061   1.634 -2.0839  0.1870  1.3005
 5549SOL     OW28279   0.075   2.016   1.361  0.2806  0.2477 -0.3826
 5549SOL    HW128280   0.033   2.094   1.398  0.0298  0.6237 -1.4407
 5549SOL    HW228281   0.014   1.980   1.297  0.7821  1.2141 -1.4058
 5550SOL     OW28282   2.313   4.262   3.173  0.2084 -0.5682 -0.6346
 5550SOL    HW128283   2.329   4.276   3.266  1.7192  1.5915 -1.2031
 5550SOL    HW228284   2.261   4.339   3.149  0.7861  0.4901  1.4743
 5551SOL     OW28285   3.899   4.614   9.516  0.2340 -0.2415  0.0466
 5551SOL    HW128286   3.895   4.551   9.588  4.4313  0.4193  0.8093
 5551SOL    HW228287   3.852   4.686   9.558  0.0210 -0.3366 -0.0282
 5552SOL     OW28288   3.404   0.196   2.678 -0.1023 -0.3752  0.1324
 5552SOL    HW128289   3.496   0.197   2.707  0.1725  1.1228 -0.7994
 5552SOL    HW228290   3.382   0.103   2.667 -1.2904 -0.2784  1.8393
 5553SOL     OW28291   1.760   4.240   4.477 -0.0291 -0.6375  0.1027
 5553SOL    HW128292   1.702   4.253   4.402  0.5854 -1.4515 -0.5185
 5553SOL    HW228293   1.841   4.263   4.430 -0.2234  1.8081  1.0096
 5554SOL     OW28294   3.497   3.346   9.062  1.0178 -0.2602  0.2264
 5554SOL    HW128295   3.502   3.440   9.078  2.4792  0.1358 -2.4394
 5554SOL    HW228296   3.541   3.344   8.976  3.9184 -0.4684  1.7076
 5555SOL     OW28297   0.529   2.745   9.267 -0.4545  0.4912 -0.2518
 5555SOL    HW128298   0.504   2.776   9.353 -1.6068  0.1093 -0.4569
 5555SOL    HW228299   0.606   2.795   9.240  0.4697 -1.2430 -0.8611
 5556SOL     OW28300   1.194   0.337   8.475  0.9472  0.2970 -0.4146
 5556SOL    HW128301   1.115   0.317   8.525  0.8251  1.4739 -0.1434
 5556SOL    HW228302   1.184   0.284   8.396  2.6042  0.1455 -0.5162
 5557SOL     OW28303   2.870   0.601   5.591 -0.0837 -0.1843 -0.0343
 5557SOL    HW128304   2.893   0.618   5.500  0.7817 -0.4100  0.1406
 5557SOL    HW228305   2.836   0.512   5.587  0.6612 -0.4836  0.1962
 5558SOL     OW28306   1.904   1.033   8.565 -0.0725  0.5340  0.2214
 5558SOL    HW128307   1.871   0.958   8.615 -1.6074  0.7394 -0.4797
 5558SOL    HW228308   1.998   1.023   8.579  0.2430  2.0498 -0.8503
 5559SOL     OW28309   3.679   1.823   5.644 -0.4075  0.7999  0.1873
 5559SOL    HW128310   3.685   1.869   5.728  0.9581  0.4936  0.2517
 5559SOL    HW228311   3.729   1.883   5.589  0.6958  1.0618  1.4706
 5560SOL     OW28312   4.379   3.616   6.060  0.6027  0.3943 -0.3119
 5560SOL    HW128313   4.452   3.607   5.999 -0.4717 -0.0710 -1.5003
 5560SOL    HW228314   4.391   3.544   6.122 -2.3413 -1.6812 -2.2164
 5561SOL     OW28315   4.122   0.383  13.055  0.0430  0.1143  0.4606
 5561SOL    HW128316   4.038   0.339  13.042 -0.1145  0.2708  0.9566
 5561SOL    HW228317   4.152   0.330  13.129  0.7051 -0.8755 -0.5203
 5562SOL     OW28318   2.357   2.623  14.595 -0.0886 -0.1501 -0.0193
 5562SOL    HW128319   2.360   2.659  14.684  1.3476  0.0469 -0.1410
 5562SOL    HW228320   2.285   2.564  14.618  0.5282 -1.0860 -0.5000
 5563SOL     OW28321   2.260   0.450  12.349 -0.0473  0.1572 -0.0711
 5563SOL    HW128322   2.337   0.395  12.367 -0.0500  0.3997  0.6694
 5563SOL    HW228323   2.299   0.510  12.284  0.4998  2.4607  2.3990
 5564SOL     OW28324   3.038   4.030  15.932 -0.1658 -0.8620 -0.2303
 5564SOL    HW128325   3.099   4.053  15.862 -1.0932 -0.0939 -0.7754
 5564SOL    HW228326   3.073   3.943  15.955  1.8108 -0.1412 -0.5666
 5565SOL     OW28327   0.939   3.722   0.380  0.0360 -0.4358  0.2140
 5565SOL    HW128328   0.974   3.737   0.468 -1.5407  1.0542  0.6010
 5565SOL    HW228329   0.885   3.644   0.387  0.7390 -1.1782 -3.0454
 5566SOL     OW28330   2.504   0.952   2.447  0.3028 -0.4197  0.1496
 5566SOL    HW128331   2.531   0.877   2.500 -0.4844  1.1480  2.7484
 5566SOL    HW228332   2.497   0.909   2.361  0.1335  1.1541 -0.6283
 5567SOL     OW28333   0.168   2.788   6.207 -0.3218 -0.3742  0.5901
 5567SOL    HW128334   0.233   2.857   6.197  0.0116 -0.9365 -1.0779
 5567SOL    HW228335   0.220   2.716   6.241 -0.3256 -1.0925 -0.9404
 5568SOL     OW28336   3.151   3.753   2.326 -0.4182  0.1935  0.3025
 5568SOL    HW128337   3.219   3.820   2.331  0.3835 -0.5457 -0.5986
 5568SOL    HW228338   3.134   3.764   2.232  0.6881 -1.3157 -0.0845
 5569SOL     OW28339   2.777   0.610   2.798 -0.2967  0.4379  0.1747
 5569SOL    HW128340   2.759   0.688   2.745 -0.5826  1.2783  1.5160
 5569SOL    HW228341   2.716   0.616   2.871 -0.3043  1.9298  0.0405
 5570SOL     OW28342   3.343   4.667   8.056 -0.2944 -0.1937  0.7680
 5570SOL    HW128343   3.377   4.592   8.008 -1.0941  0.1329 -0.2869
 5570SOL    HW228344   3.274   4.693   7.996 -0.0734  0.6412  0.8806
 5571SOL     OW28345   2.725   1.299   5.498  0.0609 -0.6458  0.3005
 5571SOL    HW128346   2.654   1.297   5.562 -0.3243 -0.3438 -0.1218
 5571SOL    HW228347   2.672   1.274   5.423 -1.5732  1.2488  0.8162
 5572SOL     OW28348   2.927   3.875   5.806  0.1830 -0.0756 -0.6310
 5572SOL    HW128349   2.978   3.913   5.878 -1.6558 -2.5809  1.9701
 5572SOL    HW228350   2.931   3.783   5.833 -0.1721  0.4552  1.2687
 5573SOL     OW28351   3.479   3.655   6.921 -0.0816  0.1133  0.1082
 5573SOL    HW128352   3.502   3.573   6.878 -0.3439 -0.3801  0.9024
 5573SOL    HW228353   3.383   3.660   6.920  0.0547  2.6023 -0.2252
 5574SOL     OW28354   1.244   4.206  17.560 -0.2946 -0.0796 -1.5175
 5574SOL    HW128355   1.319   4.154  17.532 -0.8735 -1.7918  0.0883
 5574SOL    HW228356   1.183   4.132  17.557 -0.0975 -0.2722 -0.8668
 5575SOL     OW28357   0.585   0.754   9.081 -0.3402 -0.7142  0.7123
 5575SOL    HW128358   0.613   0.733   9.170 -0.2627 -2.9960  0.1554
 5575SOL    HW228359   0.660   0.810   9.063  0.6599 -2.0455  0.7446
 5576SOL     OW28360   4.593   0.016   0.752 -0.6039 -0.1376 -0.2310
 5576SOL    HW128361   4.610   4.685   0.684  0.1354  0.7275 -0.8886
 5576SOL    HW228362   4.647   0.093   0.731 -0.2247 -0.4417 -0.3942
 5577SOL     OW28363   1.405   0.378   5.859 -0.1926  0.0337 -0.5048
 5577SOL    HW128364   1.460   0.397   5.935 -3.0698 -0.8170  1.7594
 5577SOL    HW228365   1.447   0.432   5.792 -0.9220  1.6994  0.4040
 5578SOL     OW28366   4.147   3.827   4.310  0.0718 -0.6920 -0.1685
 5578SOL    HW128367   4.160   3.733   4.321  2.8422 -0.0063  2.2775
 5578SOL    HW228368   4.229   3.843   4.262  0.1864 -1.7989 -0.3454
 5579SOL     OW28369   3.969   0.718   7.880 -0.3459  0.2888 -0.1964
 5579SOL    HW128370   3.927   0.803   7.893 -2.4449 -0.8407  0.2846
 5579SOL    HW228371   3.974   0.687   7.970 -1.1089  0.0339 -0.2390
 5580SOL     OW28372   1.678   2.798   1.116 -0.6589  0.5814  0.5051
 5580SOL    HW128373   1.735   2.835   1.049 -1.1642  0.1025 -0.1794
 5580SOL    HW228374   1.741   2.763   1.180  0.9481 -1.5485 -2.2267
 5581SOL     OW28375   0.658   3.592  13.365  0.1691  0.2497 -0.1392
 5581SOL    HW128376   0.619   3.507  13.346 -2.0122  1.6897 -2.1125
 5581SOL    HW228377   0.582   3.635  13.404  1.4064  1.3996  0.9939
 5582SOL     OW28378   0.034   3.916   3.128 -0.0931  0.2938 -0.1213
 5582SOL    HW128379   4.697   3.967   3.089 -2.0802  0.0880  3.2571
 5582SOL    HW228380   4.728   3.892   3.211 -0.2411  1.2101  0.0789
 5583SOL     OW28381   0.035   3.199  14.304 -0.0432  0.0745 -0.2673
 5583SOL    HW128382   0.064   3.191  14.394 -1.6660  0.6679  0.3089
 5583SOL    HW228383   4.724   3.283  14.292  0.3349  0.6290  2.2068
 5584SOL     OW28384   4.338   3.932   9.017  0.3139 -0.0557  0.2545
 5584SOL    HW128385   4.345   4.002   9.083  0.7782  0.9459 -0.8499
 5584SOL    HW228386   4.414   3.880   9.042  1.5148  0.0779 -3.2032
 5585SOL     OW28387   1.529   2.790  15.177  0.0943  0.4756 -0.2681
 5585SOL    HW128388   1.471   2.781  15.253 -1.2965  0.0230 -1.3642
 5585SOL    HW228389   1.500   2.879  15.154 -2.5800 -0.0334  1.1034
 5586SOL     OW28390   4.523   1.683   1.322  0.5326 -0.4216  0.5830
 5586SOL    HW128391   4.438   1.724   1.340  0.3686 -0.6025  0.2323
 5586SOL    HW228392   4.492   1.656   1.235 -0.7037 -0.1451  0.9358
 5587SOL     OW28393   4.372   0.194   6.922  0.1410 -0.1205  0.1567
 5587SOL    HW128394   4.352   0.196   7.016 -1.6175 -5.4811 -0.0984
 5587SOL    HW228395   4.309   0.260   6.894  0.2778 -0.6966 -1.5242
 5588SOL     OW28396   4.447   0.687  11.614 -0.1034  1.3213  0.0312
 5588SOL    HW128397   4.501   0.675  11.692  0.1420  2.1112 -0.0216
 5588SOL    HW228398   4.473   0.774  11.584  2.1572 -0.1800 -2.4043
 5589SOL     OW28399   0.826   2.339   6.397 -0.0211 -0.6138 -0.2408
 5589SOL    HW128400   0.843   2.256   6.352 -0.0543 -0.6646 -0.1579
 5589SOL    HW228401   0.854   2.406   6.334  0.3181 -0.3093  0.2344
 5590SOL     OW28402   4.188   4.133   8.885 -0.0829  0.2319  0.3683
 5590SOL    HW128403   4.125   4.078   8.840  0.2609  0.4221 -0.3561
 5590SOL    HW228404   4.219   4.076   8.955  0.4293 -1.4815 -1.2688
 5591SOL     OW28405   3.496   0.562   3.129  0.5199  0.2354 -0.0337
 5591SOL    HW128406   3.475   0.470   3.120 -3.0987  0.7560  3.0585
 5591SOL    HW228407   3.420   0.602   3.087  1.0469 -1.3693 -2.5431
 5592SOL     OW28408   4.260   2.437  12.102 -0.2162  0.1972  0.3040
 5592SOL    HW128409   4.337   2.388  12.073  0.4685  0.5513  1.5160
 5592SOL    HW228410   4.210   2.453  12.023  1.5219  0.0301 -0.8210
 5593SOL     OW28411   0.895   1.714   8.936  0.1727 -0.3174 -0.4309
 5593SOL    HW128412   0.905   1.809   8.923  1.1966 -0.1962  1.2501
 5593SOL    HW228413   0.841   1.708   9.015  0.1042  1.8356 -0.3036
 5594SOL     OW28414   1.841   0.828   8.770  0.0934  0.3592 -0.2604
 5594SOL    HW128415   1.789   0.747   8.779  1.0503 -0.3967 -1.5472
 5594SOL    HW228416   1.846   0.860   8.860 -1.6565  0.8911 -0.3563
 5595SOL     OW28417   2.453   0.684   9.255 -0.0536  0.0290  0.0772
 5595SOL    HW128418   2.503   0.650   9.329  1.5376  0.4754 -0.8024
 5595SOL    HW228419   2.443   0.602   9.206 -1.8860 -0.5807  1.4499
 5596SOL     OW28420   3.431   0.239   0.986  0.8034  0.3600 -0.2337
 5596SOL    HW128421   3.340   0.241   1.016  0.6352  0.8738 -0.7815
 5596SOL    HW228422   3.433   0.164   0.927  0.1022  1.3910 -1.5649
 5597SOL     OW28423   3.288   4.155  16.379  0.0698  0.1594  0.3215
 5597SOL    HW128424   3.272   4.238  16.424 -3.7205 -0.0043 -0.7548
 5597SOL    HW228425   3.282   4.176  16.285 -1.0408  2.9463  1.0103
 5598SOL     OW28426   3.346   3.218   8.450 -0.1330  0.4724 -0.2849
 5598SOL    HW128427   3.337   3.149   8.516 -2.0438  0.4746 -0.5452
 5598SOL    HW228428   3.255   3.246   8.449 -0.7388 -1.5047 -0.0701
 5599SOL     OW28429   0.921   4.257  10.691  0.4934  0.3615 -0.4263
 5599SOL    HW128430   0.830   4.243  10.719  0.3253  0.9183 -0.6895
 5599SOL    HW228431   0.948   4.315  10.762  0.7897  0.2697 -0.4643
 5600SOL     OW28432   3.532   0.712   6.573 -0.6155  0.2551 -0.2031
 5600SOL    HW128433   3.543   0.730   6.666 -0.4056  0.9481 -0.3602
 5600SOL    HW228434   3.492   0.789   6.532  1.4966  1.0650 -0.7550
 5601SOL     OW28435   0.505   4.569   5.767  0.0276  0.3713 -0.3130
 5601SOL    HW128436   0.426   4.527   5.731 -0.6377  1.1360  0.2477
 5601SOL    HW228437   0.472   4.606   5.849 -1.2775 -1.7832  0.1304
 5602SOL     OW28438   1.650   0.019  12.538 -0.0118 -0.1107 -0.2872
 5602SOL    HW128439   1.573   0.025  12.482  0.8526 -1.3341 -1.6118
 5602SOL    HW228440   1.666   4.659  12.533 -0.4574 -0.0616 -3.0242
 5603SOL     OW28441   3.404   3.100   2.276 -0.1979  0.3504 -0.3870
 5603SOL    HW128442   3.396   3.014   2.236  1.2003  0.4607 -0.8982
 5603SOL    HW228443   3.477   3.091   2.337 -0.0331  0.5319 -0.5596
 5604SOL     OW28444   1.685   0.367  14.994  0.3131  0.2060  0.1336
 5604SOL    HW128445   1.743   0.294  15.017  0.6115  0.5705  0.5305
 5604SOL    HW228446   1.663   0.359  14.901 -2.7468  1.4561  0.7518
 5605SOL     OW28447   1.817   3.662   5.680 -0.3003  0.3657  0.5036
 5605SOL    HW128448   1.747   3.702   5.629 -0.3404 -3.1307 -2.1722
 5605SOL    HW228449   1.884   3.728   5.694  1.0192 -1.1075  1.1916
 5606SOL     OW28450   2.262   0.979   2.078  0.5056  0.0647 -0.5836
 5606SOL    HW128451   2.347   0.985   2.122  1.1434  0.8936 -1.9394
 5606SOL    HW228452   2.284   1.007   1.990 -1.6648 -0.7411 -1.3657
 5607SOL     OW28453   1.741   0.332   3.343  0.4769 -0.3223  0.0976
 5607SOL    HW128454   1.695   0.416   3.354 -0.6895 -1.3246  2.7738
 5607SOL    HW228455   1.828   0.370   3.332  1.0488 -1.2226  1.5731
 5608SOL     OW28456   3.998   2.417   0.197 -0.4102 -0.2709 -0.0391
 5608SOL    HW128457   4.023   2.473   0.125  1.2107 -1.1584 -0.1598
 5608SOL    HW228458   4.073   2.432   0.254 -0.1520 -1.2701 -0.1016
 5609SOL     OW28459   1.768   2.724  16.636 -0.0068 -0.1345 -0.7205
 5609SOL    HW128460   1.850   2.755  16.596  0.8016 -2.0514 -0.5460
 5609SOL    HW228461   1.747   2.793  16.699 -1.9197 -3.1986  2.0023
 5610SOL     OW28462   1.727   2.667   3.152  0.3094  0.1051  0.0805
 5610SOL    HW128463   1.720   2.619   3.234  0.4004 -0.2954 -0.1432
 5610SOL    HW228464   1.768   2.600   3.096 -0.1476 -0.2974  0.2249
 5611SOL     OW28465   3.963   0.173  16.545 -0.4624  1.0234 -0.0727
 5611SOL    HW128466   3.963   0.097  16.488 -0.5159  0.3475  0.8286
 5611SOL    HW228467   3.976   0.236  16.474 -2.9499  1.5006 -0.1109
 5612SOL     OW28468   0.111   3.660   1.657  0.3478  0.1355  0.3450
 5612SOL    HW128469   0.057   3.585   1.632 -1.0594  0.0956  3.4823
 5612SOL    HW228470   0.076   3.726   1.597 -0.3460 -0.7166 -0.1826
 5613SOL     OW28471   4.236   0.726   1.918  0.3992  0.2606  0.3886
 5613SOL    HW128472   4.250   0.808   1.870  2.9774  0.5355  1.6272
 5613SOL    HW228473   4.177   0.756   1.987  0.8999  0.2634  0.8157
 5614SOL     OW28474   4.267   1.425   6.185 -0.3284  0.2113  0.1409
 5614SOL    HW128475   4.363   1.425   6.190 -0.5430  0.2378  3.9900
 5614SOL    HW228476   4.257   1.374   6.104 -1.9102  0.3284  0.2724
 5615SOL     OW28477   0.485   2.633   8.233 -0.8626 -0.7994  0.2100
 5615SOL    HW128478   0.458   2.678   8.153 -1.2027  0.1271  0.8494
 5615SOL    HW228479   0.481   2.701   8.300 -0.7157 -1.6069  1.0219
 5616SOL     OW28480   3.072   0.133  12.800 -0.5912  0.4349 -0.5463
 5616SOL    HW128481   3.164   0.154  12.785  0.2022 -1.0432  2.3513
 5616SOL    HW228482   3.055   0.117  12.893  1.3171 -0.2177 -0.3153
 5617SOL     OW28483   1.944   2.103   8.548 -0.6973  0.2432 -0.3710
 5617SOL    HW128484   1.931   2.031   8.610 -2.5462  0.1288 -0.8666
 5617SOL    HW228485   2.025   2.146   8.575 -2.3880  2.4012  1.2927
 5618SOL     OW28486   4.531   2.762  13.387 -0.3276  0.4391 -0.2752
 5618SOL    HW128487   4.528   2.858  13.379  0.3770  0.4180 -0.7756
 5618SOL    HW228488   4.617   2.742  13.349 -0.8490 -0.4984 -0.9587
 5619SOL     OW28489   2.558   1.107  11.346  0.0773  0.1313  0.0053
 5619SOL    HW128490   2.536   1.046  11.417 -2.7569  1.2496  0.0765
 5619SOL    HW228491   2.470   1.126  11.313  0.4345 -1.4584 -1.8300
 5620SOL     OW28492   1.826   2.047   1.894 -0.2160 -1.0202 -0.6320
 5620SOL    HW128493   1.743   1.999   1.888 -0.0245 -1.4223 -0.0820
 5620SOL    HW228494   1.886   1.974   1.882  0.0584 -0.7515 -0.8908
 5621SOL     OW28495   3.834   0.486  14.762  0.5552  0.2714 -0.1884
 5621SOL    HW128496   3.905   0.538  14.801 -1.1489  2.4159  0.0560
 5621SOL    HW228497   3.819   0.533  14.680  1.2471  0.5439 -0.1584
 5622SOL     OW28498   0.343   0.397  12.977  0.6703  0.0928  0.1311
 5622SOL    HW128499   0.275   0.379  12.912  0.3090 -1.2819  0.8842
 5622SOL    HW228500   0.415   0.415  12.917 -0.3159  1.4497 -0.6537
 5623SOL     OW28501   2.125   0.366   2.789  0.1211 -0.3871 -0.0952
 5623SOL    HW128502   2.074   0.287   2.806 -2.2627  1.1365 -0.1950
 5623SOL    HW228503   2.077   0.387   2.709  0.3998 -3.3668 -1.0558
 5624SOL     OW28504   1.544   4.188  13.059  0.3114 -0.3908 -0.2244
 5624SOL    HW128505   1.494   4.269  13.048 -0.0320 -0.2688  2.3270
 5624SOL    HW228506   1.516   4.151  13.143  1.5045  1.2335  0.8777
 5625SOL     OW28507   1.793   0.079   3.519 -0.1447  0.0720  0.9164
 5625SOL    HW128508   1.879   0.116   3.537 -1.3551  2.9401  0.7632
 5625SOL    HW228509   1.759   0.145   3.459  0.6806  1.2996  1.7852
 5626SOL     OW28510   0.337   4.731   9.420  0.2886 -0.5427  0.0399
 5626SOL    HW128511   0.330   0.077   9.470  2.0730 -0.1566 -0.3133
 5626SOL    HW228512   0.377   4.668   9.480 -1.6134 -0.4511  1.3795
 5627SOL     OW28513   2.485   4.009   9.177 -0.1792 -0.2704 -0.5598
 5627SOL    HW128514   2.451   3.930   9.218 -1.4934 -0.4716 -2.0185
 5627SOL    HW228515   2.533   3.984   9.097 -2.0705 -1.6618 -1.2627
 5628SOL     OW28516   2.022   4.215   3.038 -0.1037  0.1003  0.3208
 5628SOL    HW128517   2.113   4.185   3.037 -0.6547 -1.4396 -3.1853
 5628SOL    HW228518   1.983   4.148   3.094 -2.5325  1.8430  0.7209
 5629SOL     OW28519   2.015   3.429   3.615  0.6280 -0.1196  0.0637
 5629SOL    HW128520   1.983   3.431   3.525 -1.0753  0.2025  0.6779
 5629SOL    HW228521   1.943   3.476   3.658 -0.0529 -1.6317  0.5867
 5630SOL     OW28522   3.842   2.592   3.923  0.1735  0.0716  0.1531
 5630SOL    HW128523   3.752   2.586   3.954  0.0738 -1.5774 -0.4811
 5630SOL    HW228524   3.841   2.688   3.918 -0.7186  0.1009  0.9094
 5631SOL     OW28525   1.447   4.600  10.523  0.0220 -0.0951 -0.4319
 5631SOL    HW128526   1.498   4.586  10.602 -0.5741 -0.7438 -0.1652
 5631SOL    HW228527   1.430   4.694  10.526  1.3405  0.0456  1.8014
 5632SOL     OW28528   3.818   2.903   8.140  0.2826 -0.2424 -0.6621
 5632SOL    HW128529   3.852   2.819   8.108 -0.5306 -1.0340  0.5137
 5632SOL    HW228530   3.878   2.961   8.094  1.6309 -0.6674  0.5454
 5633SOL     OW28531   3.778   0.277   5.733  0.0458 -0.2713 -0.2753
 5633SOL    HW128532   3.694   0.322   5.745  1.1430  1.1375  2.1677
 5633SOL    HW228533   3.787   0.248   5.642  1.6504  1.7519 -0.7643
 5634SOL     OW28534   1.691   4.312   1.669 -0.2046 -0.8275 -0.1338
 5634SOL    HW128535   1.619   4.314   1.731  1.2175 -1.2002  1.5446
 5634SOL    HW228536   1.718   4.220   1.675  0.0573 -0.6654  1.1138
 5635SOL     OW28537   3.213   2.694   8.935 -0.5847 -0.0251 -0.1275
 5635SOL    HW128538   3.270   2.634   8.887 -1.1359  0.9091 -1.9622
 5635SOL    HW228539   3.141   2.631   8.945 -2.0946  1.6749 -0.2470
 5636SOL     OW28540   1.199   0.746   8.523  0.4419  0.9308 -0.5502
 5636SOL    HW128541   1.155   0.678   8.573  0.0493 -1.0573 -3.5680
 5636SOL    HW228542   1.224   0.808   8.592 -2.5188  2.1816 -0.6273
 5637SOL     OW28543   3.954   4.395   5.504  0.6382 -0.5018  0.3536
 5637SOL    HW128544   3.920   4.484   5.515  1.5594 -0.3048  1.6493
 5637SOL    HW228545   3.984   4.372   5.592  0.8108  0.0365  0.4352
 5638SOL     OW28546   0.656   1.740   5.038  0.3175  0.3016 -0.1500
 5638SOL    HW128547   0.732   1.770   4.989  0.7257  1.1102  0.9870
 5638SOL    HW228548   0.631   1.665   4.985 -0.9385  0.6793 -0.1094
 5639SOL     OW28549   3.945   1.708   0.710  0.4717  0.2095  0.2415
 5639SOL    HW128550   3.861   1.744   0.680 -0.1122 -0.2852  1.2652
 5639SOL    HW228551   3.983   1.720   0.623  1.6125 -2.6915  0.3410
 5640SOL     OW28552   3.327   1.060  14.298 -0.2285 -0.6430 -0.3898
 5640SOL    HW128553   3.353   1.151  14.283 -1.3061 -0.4259 -0.9677
 5640SOL    HW228554   3.364   1.051  14.385 -2.9989  0.8253  0.9510
 5641SOL     OW28555   1.643   0.648   0.873 -0.2720  0.2981  0.2547
 5641SOL    HW128556   1.563   0.676   0.828 -0.1428  0.3081  0.0338
 5641SOL    HW228557   1.619   0.621   0.962 -1.7816  0.1438 -0.1935
 5642SOL     OW28558   4.410   0.792   6.003  0.3212  0.3785  0.6845
 5642SOL    HW128559   4.315   0.787   5.992  0.4141 -3.0617  1.2970
 5642SOL    HW228560   4.417   0.761   6.094 -0.3870 -1.4375  0.1338
 5643SOL     OW28561   1.470   2.373  11.070 -0.5027  0.1039  0.7666
 5643SOL    HW128562   1.530   2.438  11.107 -0.1882  1.6708 -2.4622
 5643SOL    HW228563   1.390   2.425  11.080 -0.9276 -0.8054  2.0581
 5644SOL     OW28564   3.501   0.503  17.656  0.0853 -0.1433 -0.1860
 5644SOL    HW128565   3.441   0.559  17.706 -0.1487  0.3171 -0.9867
 5644SOL    HW228566   3.577   0.487  17.712  1.0401 -1.1118 -1.7614
 5645SOL     OW28567   1.316   4.427   2.028  0.4996 -0.1520  0.0637
 5645SOL    HW128568   1.302   4.489   1.958  0.3478  0.2439  0.4459
 5645SOL    HW228569   1.338   4.490   2.097 -1.6665 -0.8145  1.3611
 5646SOL     OW28570   1.569   0.179   5.337  0.0109  0.6157 -0.7661
 5646SOL    HW128571   1.573   0.112   5.269  0.5846 -0.2247  0.0930
 5646SOL    HW228572   1.558   0.136   5.422 -0.3102  2.6252  0.2010
 5647SOL     OW28573   0.650   0.496   5.541  0.0281 -0.7154 -0.0385
 5647SOL    HW128574   0.577   0.485   5.603 -1.0883  0.6147 -1.1489
 5647SOL    HW228575   0.727   0.531   5.586  1.0161 -2.7411 -0.1235
 5648SOL     OW28576   4.068   1.504  17.160  0.1367 -0.4255 -0.1547
 5648SOL    HW128577   4.054   1.513  17.254 -0.1341 -0.7227 -0.1655
 5648SOL    HW228578   4.015   1.573  17.120  0.3492 -0.6777 -0.8771
 5649SOL     OW28579   1.090   0.523   3.626  0.4078 -0.3642  0.2788
 5649SOL    HW128580   1.007   0.478   3.640  0.0137  0.8266  1.7756
 5649SOL    HW228581   1.059   0.591   3.565  0.1752  0.4093  1.2542
 5650SOL     OW28582   1.743   1.050  17.686  0.1208  0.3176 -0.4576
 5650SOL    HW128583   1.809   0.996  17.729 -0.1043 -1.8921 -2.8733
 5650SOL    HW228584   1.662   1.017  17.725 -0.1924  0.6020 -0.8656
 5651SOL     OW28585   2.243   1.242   7.676  0.1150 -0.1375 -0.1642
 5651SOL    HW128586   2.195   1.165   7.707  2.7404 -1.5509  0.3694
 5651SOL    HW228587   2.246   1.309   7.745 -2.6530 -1.3741  1.1484
 5652SOL     OW28588   1.958   3.189  14.855 -0.2935 -0.6333 -0.1769
 5652SOL    HW128589   1.919   3.145  14.779 -1.5464  1.0087 -0.4886
 5652SOL    HW228590   1.991   3.265  14.808 -0.2023 -0.8348 -0.4411
 5653SOL     OW28591   0.524   1.871   0.839 -0.1268  0.2871 -0.5730
 5653SOL    HW128592   0.439   1.859   0.796  0.7507 -1.0887 -1.8895
 5653SOL    HW228593   0.491   1.912   0.920  1.1197  4.5928 -2.2365
 5654SOL     OW28594   0.781   1.013   2.663 -0.5470 -0.0823 -0.0655
 5654SOL    HW128595   0.747   0.924   2.650 -1.4628  0.4699 -1.3981
 5654SOL    HW228596   0.780   1.050   2.575 -1.7874  0.3164  0.1192
 5655SOL     OW28597   4.389   0.201   5.317 -0.1141  0.3124  0.1045
 5655SOL    HW128598   4.457   0.253   5.275  2.0081 -0.9429  2.0209
 5655SOL    HW228599   4.431   0.126   5.360  4.7745  2.6279 -0.6620
 5656SOL     OW28600   2.662   4.720   9.755  0.1660 -0.2367  0.2355
 5656SOL    HW128601   2.677   0.067   9.708 -1.3487 -1.2048 -1.8770
 5656SOL    HW228602   2.719   4.665   9.701 -1.2904  0.0228 -1.5652
 5657SOL     OW28603   1.942   2.247   2.408  0.7164 -0.0313 -0.4626
 5657SOL    HW128604   1.972   2.287   2.327  2.3916  0.9976  0.6485
 5657SOL    HW228605   1.930   2.155   2.386 -1.1804  0.1779 -0.2529
 5658SOL     OW28606   3.289   4.621   6.214  0.1314 -0.4797 -0.1887
 5658SOL    HW128607   3.307   4.550   6.153 -0.2541 -0.7151 -0.0210
 5658SOL    HW228608   3.195   4.633   6.208  0.5377  2.6981 -0.8073
 5659SOL     OW28609   3.152   3.460   3.188  0.4198  0.0367  0.1556
 5659SOL    HW128610   3.223   3.410   3.229 -1.0206 -0.8745  1.5517
 5659SOL    HW228611   3.212   3.519   3.143  0.4871  1.0748  1.6010
 5660SOL     OW28612   3.692   2.618   6.928  0.0703  0.3701  0.5256
 5660SOL    HW128613   3.600   2.592   6.925  0.1861  0.1001 -0.6463
 5660SOL    HW228614   3.709   2.586   6.840  1.4428  0.1162  0.8852
 5661SOL     OW28615   2.919   2.028  11.030 -0.6336 -0.3990 -0.2253
 5661SOL    HW128616   2.880   1.941  11.029 -0.4397 -0.5148  1.3978
 5661SOL    HW228617   2.959   2.028  11.117 -0.5779  0.0724 -0.2525
 5662SOL     OW28618   3.745   1.012   9.048  0.0281 -0.2280 -0.4930
 5662SOL    HW128619   3.738   1.107   9.059  2.3709 -0.2409  1.0218
 5662SOL    HW228620   3.779   0.994   9.135  0.1962  0.1568 -0.4796
 5663SOL     OW28621   3.733   0.814   2.149 -1.0698 -0.8283  0.9430
 5663SOL    HW128622   3.640   0.817   2.126 -0.3175 -3.3922 -2.5415
 5663SOL    HW228623   3.743   0.728   2.191  2.8539 -1.3227 -0.9865
 5664SOL     OW28624   0.241   1.403   5.603  0.0423 -0.8951  0.0190
 5664SOL    HW128625   0.241   1.435   5.693 -0.2693 -1.7941  0.3454
 5664SOL    HW228626   0.331   1.414   5.572 -1.6697  0.6972 -4.4244
 5665SOL     OW28627   0.135   2.153   8.770 -0.4832  0.6013 -0.4335
 5665SOL    HW128628   0.210   2.147   8.830 -0.1202  0.0262 -0.9470
 5665SOL    HW228629   0.115   2.246   8.776  1.4282  1.0307 -0.7458
 5666SOL     OW28630   2.210   2.394  11.534 -0.2325 -0.4446  0.8233
 5666SOL    HW128631   2.231   2.439  11.616  3.5818  0.6547 -0.7287
 5666SOL    HW228632   2.114   2.397  11.531 -0.1484  0.0124 -1.5376
 5667SOL     OW28633   2.447   0.071  16.482 -0.0058  0.0931  0.1971
 5667SOL    HW128634   2.492   0.153  16.462 -1.3104  0.9282  0.7311
 5667SOL    HW228635   2.369   0.102  16.528  0.1655  1.2547 -0.3185
 5668SOL     OW28636   1.486   2.888   1.904  0.4907 -0.5338  0.8121
 5668SOL    HW128637   1.508   2.955   1.839 -1.3624  0.2494  0.9786
 5668SOL    HW228638   1.395   2.866   1.885  0.6869 -1.0655  0.4783
 5669SOL     OW28639   0.716   4.700   7.524  0.1626 -0.2473 -0.0120
 5669SOL    HW128640   0.635   4.691   7.472  2.0804  0.2946 -3.0993
 5669SOL    HW228641   0.683   0.002   7.606  2.0973 -0.4771  0.8586
 5670SOL     OW28642   4.396   2.644   8.272  0.0959  0.1835 -0.0051
 5670SOL    HW128643   4.313   2.618   8.313 -0.7153 -0.8756 -2.3405
 5670SOL    HW228644   4.373   2.734   8.250 -0.1030  0.3771  0.9816
 5671SOL     OW28645   0.390   1.524   9.083 -0.2520 -0.3995 -0.5084
 5671SOL    HW128646   0.306   1.548   9.045 -0.1434  2.1137  0.8806
 5671SOL    HW228647   0.445   1.553   9.010  0.4721  0.1336  0.2520
 5672SOL     OW28648   3.291   1.469   8.360  0.1831 -0.0741 -0.0644
 5672SOL    HW128649   3.290   1.540   8.296  0.5533  0.4056  0.4612
 5672SOL    HW228650   3.383   1.456   8.380 -0.2858 -0.8494  1.6148
 5673SOL     OW28651   1.884   4.413   8.647  0.0230  0.6762 -0.2466
 5673SOL    HW128652   1.866   4.415   8.553 -1.2537  0.3168 -0.0130
 5673SOL    HW228653   1.794   4.419   8.679  0.6863 -0.4067  1.8073
 5674SOL     OW28654   0.781   1.238  10.853 -0.1638  0.2790 -0.1962
 5674SOL    HW128655   0.734   1.158  10.875 -1.6634  1.8067  2.1320
 5674SOL    HW228656   0.844   1.212  10.786  0.7744  0.7749  0.4948
 5675SOL     OW28657   1.586   3.978  15.134 -0.1455  0.0381  0.1632
 5675SOL    HW128658   1.638   3.979  15.214 -1.3431  0.8694  0.9214
 5675SOL    HW228659   1.498   3.966  15.169  0.0451 -1.4496  0.1562
 5676SOL     OW28660   0.037   1.259   3.085 -0.7856  0.1884 -0.3742
 5676SOL    HW128661   4.728   1.174   3.079  1.1596 -0.6972 -2.0611
 5676SOL    HW228662   0.078   1.271   2.999 -0.4875  4.9879  0.4377
 5677SOL     OW28663   0.657   4.618  17.073 -0.6041  0.1806 -0.0005
 5677SOL    HW128664   0.575   4.662  17.097  0.0571  2.6612 -2.2453
 5677SOL    HW228665   0.714   4.695  17.082  0.5175 -0.4427 -1.9565
 5678SOL     OW28666   2.069   1.585  12.329 -0.5509 -0.1547 -0.4757
 5678SOL    HW128667   2.146   1.536  12.356 -0.3233  0.2510 -0.3810
 5678SOL    HW228668   2.048   1.520  12.262 -0.5972  0.4390 -1.0416
 5679SOL     OW28669   2.648   2.558   2.850  0.2329 -0.3156  0.2911
 5679SOL    HW128670   2.642   2.538   2.944  2.4664  2.1208  0.9337
 5679SOL    HW228671   2.742   2.567   2.842  0.0699 -1.0166 -2.2798
 5680SOL     OW28672   3.122   0.572  14.625 -0.3854 -0.2948  0.1232
 5680SOL    HW128673   3.216   0.553  14.622 -0.5420 -0.8690 -1.5239
 5680SOL    HW228674   3.111   0.647  14.566 -0.7214 -0.7063 -0.3404
 5681SOL     OW28675   1.888   4.671   1.448  0.0352 -0.3101 -0.5037
 5681SOL    HW128676   1.842   4.587   1.438 -1.7691  0.4913  0.9605
 5681SOL    HW228677   1.951   4.651   1.516 -0.8434  1.3153  0.7887
 5682SOL     OW28678   0.614   3.887   6.955  0.1379  0.6148 -0.3709
 5682SOL    HW128679   0.521   3.866   6.948  0.8806 -2.3171 -1.3226
 5682SOL    HW228680   0.658   3.811   6.995  0.3609  1.3020  0.6990
 5683SOL     OW28681   3.386   2.915   7.845 -0.1980  0.0112 -0.0680
 5683SOL    HW128682   3.365   2.829   7.808  2.7598 -0.6937 -0.0961
 5683SOL    HW228683   3.389   2.902   7.940  0.9254 -0.5091 -0.1764
 5684SOL     OW28684   0.809   4.479  15.816 -0.0353  0.1837  0.0916
 5684SOL    HW128685   0.849   4.454  15.899 -0.1768 -1.4463 -0.3396
 5684SOL    HW228686   0.783   4.398  15.772 -0.2285  0.3985 -0.1913
 5685SOL     OW28687   4.382   1.942   2.862 -0.6039  0.6858 -0.4612
 5685SOL    HW128688   4.332   2.002   2.918 -0.3791 -0.4458  0.9489
 5685SOL    HW228689   4.424   1.885   2.926 -0.6128 -0.2118 -1.2574
 5686SOL     OW28690   2.536   3.242   3.261  0.2629 -0.5138 -0.5292
 5686SOL    HW128691   2.587   3.275   3.335  1.8809  0.4417 -2.0738
 5686SOL    HW228692   2.469   3.196   3.311  1.4056 -2.1676 -0.5122
 5687SOL     OW28693   0.653   3.575  11.644 -0.5018 -0.3440 -0.6124
 5687SOL    HW128694   0.604   3.517  11.703 -1.4435  0.5093 -0.5721
 5687SOL    HW228695   0.743   3.548  11.664  0.1093  1.9348 -0.2712
 5688SOL     OW28696   1.578   0.661   1.708 -0.0061 -0.1836  0.8539
 5688SOL    HW128697   1.529   0.670   1.626  1.1623 -0.8763  0.0649
 5688SOL    HW228698   1.561   0.571   1.734  2.0476 -0.3393  1.7137
 5689SOL     OW28699   3.171   2.640   6.637  0.0494 -0.1870 -0.4939
 5689SOL    HW128700   3.168   2.734   6.654 -0.9218 -0.1227 -0.9973
 5689SOL    HW228701   3.099   2.639   6.574  1.1508 -2.0058 -1.7312
 5690SOL     OW28702   2.943   0.996   9.830 -0.1586 -0.0870  0.8201
 5690SOL    HW128703   2.962   1.028   9.918  0.2318  0.9560  0.3545
 5690SOL    HW228704   2.863   1.043   9.808  0.2034  0.7093  1.2388
 5691SOL     OW28705   2.001   3.968   3.975 -0.2636  0.0865  0.2623
 5691SOL    HW128706   2.045   3.890   3.940 -0.0385 -0.0251  0.7953
 5691SOL    HW228707   1.909   3.953   3.954  0.2533  0.3894 -2.2565
 5692SOL     OW28708   2.348   3.482   5.910 -0.0307  0.4930  0.1279
 5692SOL    HW128709   2.425   3.534   5.934  0.8331 -0.6140 -0.2723
 5692SOL    HW228710   2.386   3.400   5.878 -3.1284 -1.2507  0.9446
 5693SOL     OW28711   2.891   3.606  10.659 -0.0592  0.1620 -0.4742
 5693SOL    HW128712   2.820   3.573  10.603 -0.7790 -2.2867  1.8887
 5693SOL    HW228713   2.951   3.534  10.641 -0.5974 -0.4469  0.1713
 5694SOL     OW28714   4.279   3.014   7.085 -0.4764  0.3183  0.5915
 5694SOL    HW128715   4.359   3.065   7.095  0.7664 -1.3638 -0.8568
 5694SOL    HW228716   4.293   2.975   6.999  0.1218 -0.6734  1.1368
 5695SOL     OW28717   2.296   0.403   8.239 -0.0293  0.0675  0.9380
 5695SOL    HW128718   2.304   0.330   8.300 -0.0306 -1.5038 -0.9108
 5695SOL    HW228719   2.267   0.473   8.297  0.2822  0.8289  0.1751
 5696SOL     OW28720   1.831   0.080   7.317 -0.0571 -0.1105  0.8400
 5696SOL    HW128721   1.900   0.110   7.258  0.2561 -0.5093  1.0038
 5696SOL    HW228722   1.828   0.145   7.387 -2.0114  3.3849 -2.4675
 5697SOL     OW28723   1.624   3.181   3.773  0.2398  0.2714  0.3650
 5697SOL    HW128724   1.634   3.177   3.678  0.9660 -0.8170  0.4922
 5697SOL    HW228725   1.716   3.189   3.797  0.5342  0.6205 -0.8754
 5698SOL     OW28726   2.074   3.103   8.019 -0.4364  0.3800 -0.3147
 5698SOL    HW128727   2.114   3.104   7.932 -0.3533  0.1303 -0.2813
 5698SOL    HW228728   2.018   3.180   8.023  1.2209  1.4771  1.7359
 5699SOL     OW28729   4.707   1.992   9.131  0.4076  0.3861  0.1683
 5699SOL    HW128730   4.685   1.971   9.040 -0.2017  0.1827  0.3637
 5699SOL    HW228731   4.621   1.985   9.172 -0.0454  1.0030 -0.6724
 5700SOL     OW28732   0.299   3.434   6.187  0.6651  0.2204 -0.4668
 5700SOL    HW128733   0.269   3.352   6.227 -1.5710  0.3804 -1.8064
 5700SOL    HW228734   0.348   3.478   6.256 -0.2768 -1.0081  0.9670
 5701SOL     OW28735   3.121   0.254   7.646  0.0712  0.3885  0.1736
 5701SOL    HW128736   3.178   0.264   7.570  0.0879 -1.4710 -0.0604
 5701SOL    HW228737   3.035   0.231   7.610 -0.4133  0.2099  1.4323
 5702SOL     OW28738   2.283   0.655   7.605 -0.2358  0.3094  0.3741
 5702SOL    HW128739   2.354   0.641   7.668 -0.3863  2.2335  0.9670
 5702SOL    HW228740   2.288   0.750   7.598 -1.5269  0.2424 -1.5468
 5703SOL     OW28741   0.357   2.343   5.884 -0.1222  0.1323 -0.5405
 5703SOL    HW128742   0.448   2.350   5.913 -0.7371  1.1527  1.0834
 5703SOL    HW228743   0.355   2.380   5.795  1.0685  0.9617 -0.2268
 5704SOL     OW28744   2.157   0.312   7.950 -0.5379 -0.3171  0.7868
 5704SOL    HW128745   2.151   0.386   8.010  0.0775  0.1739  0.2421
 5704SOL    HW228746   2.194   0.240   8.002 -0.3654 -0.1030  0.9603
 5705SOL     OW28747   2.721   4.357   8.319 -0.2617  0.1002 -0.1710
 5705SOL    HW128748   2.689   4.440   8.285  0.0230 -0.0843 -0.9064
 5705SOL    HW228749   2.790   4.378   8.380  0.6240 -0.8227 -0.8509
 5706SOL     OW28750   3.244   3.576   1.049  0.3877  0.6276  0.5326
 5706SOL    HW128751   3.179   3.563   0.980 -0.1075  0.2984  1.0626
 5706SOL    HW228752   3.298   3.646   1.012  2.2213 -0.3315  1.3696
 5707SOL     OW28753   1.167   1.033   4.556  0.1353  0.4469 -0.1964
 5707SOL    HW128754   1.146   0.987   4.475  0.8125 -0.5414  0.1900
 5707SOL    HW228755   1.260   1.012   4.569 -1.1285 -3.3828  2.7023
 5708SOL     OW28756   0.769   1.469   6.868 -0.2080 -0.1127  0.0239
 5708SOL    HW128757   0.845   1.502   6.821 -0.4985 -0.2401 -0.5411
 5708SOL    HW228758   0.760   1.529   6.941  0.4137  0.1509 -0.1176
 5709SOL     OW28759   4.677   0.042  13.926  0.2941  0.3666  0.8222
 5709SOL    HW128760   4.723   4.707  13.973 -0.6609  0.5614  2.0659
 5709SOL    HW228761   4.628   0.074  14.002 -1.5391 -0.4690  0.0052
 5710SOL     OW28762   2.946   0.211   1.549 -0.2536  0.6639  0.1860
 5710SOL    HW128763   3.018   0.149   1.565  1.6877  2.0038 -3.1829
 5710SOL    HW228764   2.874   0.169   1.594 -0.4912  2.7598  1.7444
 5711SOL     OW28765   4.611   1.401   7.375  0.4213  0.0813  0.4591
 5711SOL    HW128766   4.668   1.409   7.451  1.9924  0.3793 -0.7368
 5711SOL    HW228767   4.649   1.448   7.300  0.5643 -1.0252 -0.1683
 5712SOL     OW28768   4.141   1.339   2.066  0.5680  0.4325  0.0272
 5712SOL    HW128769   4.196   1.415   2.083  1.1085 -0.2770  1.3801
 5712SOL    HW228770   4.116   1.351   1.974  0.6089 -1.3884 -0.2153
 5713SOL     OW28771   4.399   1.679   4.784  0.0611  0.8350 -0.7439
 5713SOL    HW128772   4.446   1.760   4.805 -1.2349  0.9400  1.8371
 5713SOL    HW228773   4.330   1.692   4.850  0.1725  0.0315 -0.4691
 5714SOL     OW28774   3.556   3.646   8.492 -0.2144 -0.0515 -0.4910
 5714SOL    HW128775   3.604   3.728   8.492 -0.5593  0.1513 -0.5282
 5714SOL    HW228776   3.610   3.605   8.424 -1.4392 -2.4445 -0.0412
 5715SOL     OW28777   4.072   1.861   3.893 -0.4859 -0.0887  0.2371
 5715SOL    HW128778   4.088   1.915   3.816  1.0360  0.0141  0.6313
 5715SOL    HW228779   3.984   1.886   3.923 -1.9347 -2.0429 -2.3653
 5716SOL     OW28780   4.169   4.142   7.480  0.0589  0.2629  0.0296
 5716SOL    HW128781   4.166   4.234   7.454  0.8636  0.4676  0.6356
 5716SOL    HW228782   4.076   4.123   7.489 -0.2002  1.3218 -0.3560
 5717SOL     OW28783   0.050   4.673  17.574 -0.0414  0.0841 -0.0425
 5717SOL    HW128784   0.106   4.611  17.622 -0.3230 -1.0255 -1.1552
 5717SOL    HW228785   0.108   4.695  17.501  1.6143 -0.4259  1.1052
 5718SOL     OW28786   2.827   3.662   6.916 -0.0501 -0.1847 -0.1697
 5718SOL    HW128787   2.876   3.700   6.843  2.1922 -2.8594 -0.0799
 5718SOL    HW228788   2.884   3.677   6.991 -1.7188 -1.4550  1.3402
 5719SOL     OW28789   2.461   1.382   5.982  0.1071  0.0135 -0.0058
 5719SOL    HW128790   2.464   1.292   6.015  1.1413  0.1296  0.2164
 5719SOL    HW228791   2.403   1.376   5.906  1.7536 -1.4404 -1.1692
 5720SOL     OW28792   1.591   1.291   2.077 -0.1833 -0.1721  0.4545
 5720SOL    HW128793   1.597   1.385   2.092 -0.4919 -0.1159  0.2400
 5720SOL    HW228794   1.628   1.264   2.161 -0.2170  1.6645  1.0473
 5721SOL     OW28795   3.106   3.011   9.055 -0.6505  0.0675 -0.2619
 5721SOL    HW128796   3.013   2.992   9.045 -1.0455  1.7716  0.3730
 5721SOL    HW228797   3.111   3.075   8.984  1.0879 -1.4340 -1.4975
 5722SOL     OW28798   3.490   3.394   3.935 -0.7332  0.1280 -0.3762
 5722SOL    HW128799   3.553   3.464   3.953  2.0003 -1.9552 -1.8500
 5722SOL    HW228800   3.522   3.358   3.852 -2.2034  2.0874 -1.8134
 5723SOL     OW28801   4.687   4.273  15.786 -0.2106  0.2397  0.9024
 5723SOL    HW128802   4.725   4.246  15.870 -2.2192 -2.0559  1.0913
 5723SOL    HW228803   4.655   4.358  15.815 -0.0568  0.6586 -0.1900
 5724SOL     OW28804   4.717   4.410   8.848  0.2193 -0.7298  0.4341
 5724SOL    HW128805   4.697   4.503   8.862 -1.7202 -0.8192 -1.7515
 5724SOL    HW228806   0.061   4.415   8.794  1.1875 -0.1830  1.8939
 5725SOL     OW28807   0.157   2.905   5.160  0.3722  0.3931  0.1728
 5725SOL    HW128808   0.248   2.926   5.179 -0.1393  1.5673  1.3356
 5725SOL    HW228809   0.165   2.813   5.135 -0.0920  0.2869  0.4057
 5726SOL     OW28810   2.932   2.273  12.281 -0.0058  0.4193 -0.2762
 5726SOL    HW128811   2.878   2.313  12.349 -0.7880 -0.7428 -0.2204
 5726SOL    HW228812   3.020   2.303  12.307 -0.3249  0.4287  0.7949
 5727SOL     OW28813   2.530   1.701  14.920 -0.2228  0.3164  0.4770
 5727SOL    HW128814   2.603   1.676  14.977  0.6599  1.1382 -0.2937
 5727SOL    HW228815   2.578   1.761  14.863 -0.0236 -0.4659 -0.1842
 5728SOL     OW28816   1.576   2.983  14.506 -0.1756 -0.3906 -0.2627
 5728SOL    HW128817   1.578   2.975  14.601 -0.1179  0.5836 -0.1840
 5728SOL    HW228818   1.614   2.897  14.486  1.7800  0.4628 -0.1330
 5729SOL     OW28819   1.176   3.431   4.209 -0.7079 -0.8518  0.1840
 5729SOL    HW128820   1.210   3.450   4.297  0.3436 -0.1448 -0.3723
 5729SOL    HW228821   1.171   3.336   4.217 -1.7526 -0.7333  0.9998
 5730SOL     OW28822   0.183   2.349  14.963 -0.0524  0.3921 -0.1389
 5730SOL    HW128823   0.143   2.265  14.945 -1.7471  1.3043 -0.6136
 5730SOL    HW228824   0.265   2.316  15.002 -2.3153 -2.4537  2.2063
 5731SOL     OW28825   3.774   1.389   3.260 -0.5754 -0.5374 -0.4199
 5731SOL    HW128826   3.784   1.450   3.186 -2.0998 -0.1046 -0.2583
 5731SOL    HW228827   3.692   1.347   3.235  0.6250 -1.2075 -3.2196
 5732SOL     OW28828   1.476   4.000   9.068  0.1475 -0.1410 -0.5496
 5732SOL    HW128829   1.453   4.074   9.011 -2.1568 -1.1777 -0.9665
 5732SOL    HW228830   1.541   3.952   9.016 -1.1137 -1.3732 -1.0021
 5733SOL     OW28831   3.831   0.945   7.213 -0.2626  0.2487 -0.0933
 5733SOL    HW128832   3.834   0.976   7.303  0.5882  2.0961 -0.7485
 5733SOL    HW228833   3.865   0.860   7.242 -0.1679  0.8829  1.6158
 5734SOL     OW28834   1.788   4.616  14.495 -0.2412 -0.7655  0.0922
 5734SOL    HW128835   1.814   4.587  14.582  1.3974  1.9071  0.5115
 5734SOL    HW228836   1.709   4.665  14.519 -0.7880 -1.8530  0.4702
 5735SOL     OW28837   0.773   2.333   7.384  0.0230  0.3522 -0.0376
 5735SOL    HW128838   0.764   2.254   7.331 -4.0006 -1.2390  3.0502
 5735SOL    HW228839   0.761   2.295   7.471 -0.7555  0.7209  0.0155
 5736SOL     OW28840   2.471   3.506   5.589  0.7030 -0.2180 -0.3892
 5736SOL    HW128841   2.561   3.500   5.557  1.3420  0.3361  1.3340
 5736SOL    HW228842   2.480   3.573   5.657  0.9979 -0.1869 -0.4614
 5737SOL     OW28843   2.517   1.049   0.446  0.3929 -0.1243 -0.0595
 5737SOL    HW128844   2.560   1.127   0.481 -1.0006  0.3280  0.6791
 5737SOL    HW228845   2.568   0.976   0.482 -0.1867  0.8062  2.7200
 5738SOL     OW28846   2.582   4.352   2.690  0.5550  0.3468  0.2601
 5738SOL    HW128847   2.569   4.447   2.693 -0.2876  0.2855 -1.6404
 5738SOL    HW228848   2.514   4.313   2.745  1.8036 -0.6193  1.1303
 5739SOL     OW28849   0.592   2.476   9.175 -0.2792  0.1048  0.1823
 5739SOL    HW128850   0.560   2.565   9.191 -1.1305 -0.0557 -0.5892
 5739SOL    HW228851   0.685   2.494   9.157  0.2613 -3.0503 -0.1648
 5740SOL     OW28852   0.537   4.491  12.474 -0.2611  0.3141  0.4908
 5740SOL    HW128853   0.604   4.557  12.496 -0.1949  0.5688 -0.4809
 5740SOL    HW228854   0.477   4.551  12.429 -0.1286  0.2499  0.2274
 5741SOL     OW28855   4.408   2.718   7.610 -0.5471  0.3944  0.2833
 5741SOL    HW128856   4.323   2.743   7.648 -0.4166  0.4080  0.5657
 5741SOL    HW228857   4.395   2.750   7.521 -0.2698 -0.9880 -0.2446
 5742SOL     OW28858   3.708   2.322   9.333  0.1884  0.2194 -0.1863
 5742SOL    HW128859   3.683   2.338   9.242  1.0620 -0.7153 -0.5897
 5742SOL    HW228860   3.787   2.377   9.336 -0.8043  1.8674 -4.6056
 5743SOL     OW28861   4.182   0.330   2.058  0.3216 -0.0683 -0.0958
 5743SOL    HW128862   4.206   0.254   2.004  0.2243 -0.3948  0.3262
 5743SOL    HW228863   4.274   0.351   2.074  0.3002  0.5642 -0.8185
 5744SOL     OW28864   3.072   3.655   4.102 -0.0133  0.1436 -0.4016
 5744SOL    HW128865   2.995   3.628   4.052  1.4911  0.3128 -2.8089
 5744SOL    HW228866   3.141   3.620   4.045  0.7224  1.0564 -0.0726
 5745SOL     OW28867   4.377   1.966   1.126  0.6713 -0.0973  0.0521
 5745SOL    HW128868   4.350   1.920   1.206  0.5181  1.2044  0.7497
 5745SOL    HW228869   4.472   1.963   1.128  0.7165  0.2236 -1.5869
 5746SOL     OW28870   1.027   2.589  15.962 -0.4497  0.1547 -0.5194
 5746SOL    HW128871   0.994   2.630  15.882  1.2659  0.6759 -0.9538
 5746SOL    HW228872   0.990   2.639  16.034  0.0940  0.1481 -0.2361
 5747SOL     OW28873   3.140   0.335   6.280  0.2217 -0.4667 -0.0225
 5747SOL    HW128874   3.180   0.260   6.324 -1.6513 -2.1652 -1.1787
 5747SOL    HW228875   3.208   0.355   6.216 -1.0450  0.6755 -0.9884
 5748SOL     OW28876   1.130   3.566   4.668 -0.2539  0.9130 -0.2819
 5748SOL    HW128877   1.210   3.519   4.646 -0.7511  0.0496 -0.2401
 5748SOL    HW228878   1.122   3.637   4.605  2.1445  1.2493 -0.2006
 5749SOL     OW28879   3.012   1.945  14.659 -0.1580  0.1534 -0.3701
 5749SOL    HW128880   3.019   1.911  14.570 -0.1039 -2.9377  0.8211
 5749SOL    HW228881   2.957   1.875  14.695  2.0825 -0.5097  1.7315
 5750SOL     OW28882   0.071   0.417   3.031  0.6732  0.8310 -0.9663
 5750SOL    HW128883   0.145   0.357   3.040 -1.3338 -1.5324 -0.0766
 5750SOL    HW228884   0.017   0.379   3.101  0.1295  2.3093 -0.5730
 5751SOL     OW28885   2.093   4.496   4.588  0.3599  0.5022  0.0700
 5751SOL    HW128886   2.000   4.515   4.577  0.2120 -0.4980 -0.4116
 5751SOL    HW228887   2.102   4.435   4.514  1.0969  1.5203 -0.6902
 5752SOL     OW28888   1.838   2.156   7.767  0.0539 -0.3335 -0.1766
 5752SOL    HW128889   1.910   2.184   7.823 -0.0971 -1.1056  0.3975
 5752SOL    HW228890   1.802   2.240   7.740  4.6355  1.7563  0.1629
 5753SOL     OW28891   2.078   1.979  10.371 -0.0164  0.8630  0.1227
 5753SOL    HW128892   2.048   1.930  10.448  1.5125  1.2525  0.9794
 5753SOL    HW228893   2.012   2.046  10.354  0.9006  1.6036 -0.5199
 5754SOL     OW28894   1.762   4.425   6.160  0.6755  0.0577 -0.3176
 5754SOL    HW128895   1.734   4.379   6.081 -1.0383 -0.1709  0.4182
 5754SOL    HW228896   1.680   4.424   6.208 -0.0112 -0.3341 -1.4955
 5755SOL     OW28897   2.835   2.634   3.787 -0.0224 -0.3217  0.4449
 5755SOL    HW128898   2.817   2.540   3.794  0.9541 -0.4874  0.7889
 5755SOL    HW228899   2.830   2.661   3.695 -0.9640  0.0217  0.5996
 5756SOL     OW28900   3.390   0.927   9.790  0.1130  0.3045  0.3349
 5756SOL    HW128901   3.351   0.893   9.870 -0.0057 -1.8559 -0.6204
 5756SOL    HW228902   3.313   0.980   9.769  0.4466  0.9795  0.8333
 5757SOL     OW28903   1.684   3.189   3.264 -0.4691 -0.0825 -0.2258
 5757SOL    HW128904   1.721   3.101   3.273  0.1064  0.1777 -0.0270
 5757SOL    HW228905   1.606   3.175   3.318 -0.9234  0.3781 -0.7682
 5758SOL     OW28906   0.371   3.099   8.316 -0.5310 -0.1324 -0.5716
 5758SOL    HW128907   0.343   3.101   8.407 -1.2046 -1.4117 -0.7462
 5758SOL    HW228908   0.289   3.092   8.267  0.2546 -0.4229 -1.8323
 5759SOL     OW28909   1.250   1.503  12.049  0.1580  0.1139  0.4467
 5759SOL    HW128910   1.180   1.567  12.035 -0.0564 -0.0815  0.6271
 5759SOL    HW228911   1.200   1.450  12.110  0.6884  0.7125  1.3977
 5760SOL     OW28912   1.777   2.424   3.954 -0.3490  0.0786  0.6335
 5760SOL    HW128913   1.755   2.450   4.044 -0.6152 -0.1096  0.6246
 5760SOL    HW228914   1.842   2.487   3.923  1.4658 -2.1748 -0.1733
 5761SOL     OW28915   0.252   2.545   9.015  0.0177  0.1584  0.1733
 5761SOL    HW128916   0.201   2.626   9.022  2.3092  1.6657 -0.8077
 5761SOL    HW228917   0.338   2.579   8.990  0.1180 -0.2414 -0.0125
 5762SOL     OW28918   3.269   4.160   3.781  0.1253 -0.5601 -0.0112
 5762SOL    HW128919   3.206   4.205   3.726  0.9470  2.5923  1.6311
 5762SOL    HW228920   3.267   4.068   3.756 -1.3574  0.1317 -2.3391
 5763SOL     OW28921   1.450   1.803  10.216  0.1705 -0.3679  0.2182
 5763SOL    HW128922   1.435   1.712  10.191 -0.4659 -0.9277  2.6655
 5763SOL    HW228923   1.360   1.828  10.237 -0.5013 -1.4007 -1.4413
 5764SOL     OW28924   1.870   1.796   4.001  0.5609  0.0369 -0.6791
 5764SOL    HW128925   1.806   1.866   3.997  0.8197  0.3957  1.8041
 5764SOL    HW228926   1.813   1.727   4.035  1.0943 -1.0757 -2.0006
 5765SOL     OW28927   2.076   1.547  13.215 -0.3419 -0.3482 -0.1376
 5765SOL    HW128928   2.083   1.454  13.233 -3.3841 -0.8942 -1.7769
 5765SOL    HW228929   2.166   1.581  13.218 -0.3781 -0.4912  2.0489
 5766SOL     OW28930   1.370   4.376   2.489  0.2084  0.2269  0.2297
 5766SOL    HW128931   1.313   4.452   2.472 -2.5291 -1.5862  1.2893
 5766SOL    HW228932   1.389   4.387   2.583 -0.6978  0.6265  0.3696
 5767SOL     OW28933   1.730   0.457   2.358  0.0112  0.1137  0.2547
 5767SOL    HW128934   1.713   0.436   2.266 -1.1247  1.2721  0.2011
 5767SOL    HW228935   1.704   0.549   2.356 -0.4065 -0.0064  0.3309
 5768SOL     OW28936   1.033   0.352  17.425 -0.5303  0.3020  0.3452
 5768SOL    HW128937   1.009   0.424  17.484  1.8388  2.1385 -0.9145
 5768SOL    HW228938   1.127   0.349  17.442 -0.6875  3.0661  1.7914
 5769SOL     OW28939   0.720   1.843   2.253  0.1991  0.4167 -0.4267
 5769SOL    HW128940   0.755   1.754   2.259 -1.3221 -0.1579 -0.1543
 5769SOL    HW228941   0.636   1.827   2.209  0.9389 -0.1076 -1.6648
 5770SOL     OW28942   3.359   1.889   6.103  0.9151 -0.4079 -0.5665
 5770SOL    HW128943   3.454   1.898   6.097  1.0083 -1.6669 -0.9737
 5770SOL    HW228944   3.340   1.940   6.182 -1.2192 -2.4108  0.2432
 5771SOL     OW28945   2.872   0.375  16.623 -0.3193  0.2985 -0.1773
 5771SOL    HW128946   2.917   0.378  16.708 -3.0335 -0.8694  1.3080
 5771SOL    HW228947   2.833   0.462  16.611 -1.3094 -0.3432 -1.5593
 5772SOL     OW28948   3.538   2.230   3.465  0.0042  0.0086  0.0509
 5772SOL    HW128949   3.493   2.300   3.417  0.4698  0.8294  0.8039
 5772SOL    HW228950   3.515   2.151   3.416 -0.6634 -1.5093  2.8311
 5773SOL     OW28951   2.208   0.040   4.259  0.7562  0.5718  0.1490
 5773SOL    HW128952   2.278   0.069   4.201 -0.2701 -0.1949 -1.4950
 5773SOL    HW228953   2.160   4.726   4.192  0.1972 -0.2805  1.1727
 5774SOL     OW28954   4.139   0.557  10.665 -0.3772 -1.1271  0.2646
 5774SOL    HW128955   4.148   0.462  10.679 -0.1894 -1.2910 -0.9155
 5774SOL    HW228956   4.059   0.558  10.612 -1.1446  0.5013  1.4741
 5775SOL     OW28957   1.727   2.299   3.142  0.6330  0.1398 -0.6960
 5775SOL    HW128958   1.731   2.222   3.084  2.4676  0.1227 -0.5557
 5775SOL    HW228959   1.771   2.356   3.079  1.5503 -1.7017 -1.7426
 5776SOL     OW28960   4.025   4.241   5.154 -0.1908 -0.0581 -0.4090
 5776SOL    HW128961   3.980   4.276   5.077 -0.6244 -1.7766 -0.9421
 5776SOL    HW228962   4.092   4.307   5.172  1.1045 -1.7580  1.0788
 5777SOL     OW28963   4.629   0.930   2.461  0.3698  0.4157  0.3600
 5777SOL    HW128964   4.642   0.862   2.528 -1.7282 -0.4597 -0.1336
 5777SOL    HW228965   4.545   0.963   2.493  1.2778  2.7117  0.3493
 5778SOL     OW28966   1.449   0.695  16.121  0.6798  0.8060 -0.1487
 5778SOL    HW128967   1.461   0.760  16.052  0.5578 -1.3110 -2.1368
 5778SOL    HW228968   1.357   0.707  16.143  0.4968  0.2804 -0.6483
 5779SOL     OW28969   1.697   4.131  17.604  0.7910  0.2933 -0.2820
 5779SOL    HW128970   1.608   4.125  17.640  1.8685 -2.0432  1.9579
 5779SOL    HW228971   1.686   4.103  17.513 -0.2129 -0.6682  0.1350
 5780SOL     OW28972   4.043   2.882   4.978  0.0693  0.6426  0.2833
 5780SOL    HW128973   3.990   2.930   5.042  0.0917  2.5655 -1.1207
 5780SOL    HW228974   3.974   2.855   4.917 -0.0628  3.0743 -0.6591
 5781SOL     OW28975   0.469   2.554  10.424 -0.4582 -0.2609 -0.4236
 5781SOL    HW128976   0.450   2.591  10.510  2.0115  0.6425 -0.2604
 5781SOL    HW228977   0.484   2.468  10.463  3.3631  0.4675 -0.2503
 5782SOL     OW28978   3.454   3.864   9.008  0.1674  0.8958 -0.1270
 5782SOL    HW128979   3.400   3.937   8.977 -2.3215 -1.4062 -1.2443
 5782SOL    HW228980   3.479   3.889   9.097  1.2029 -0.4785 -0.0403
 5783SOL     OW28981   2.178   0.539   0.458 -0.5059 -0.2572  0.0597
 5783SOL    HW128982   2.096   0.589   0.456 -0.0865  0.3757 -1.2715
 5783SOL    HW228983   2.229   0.592   0.397  1.5539 -0.7615  1.3451
 5784SOL     OW28984   2.461   1.461  13.095 -0.3308  0.2745  0.4926
 5784SOL    HW128985   2.430   1.505  13.174 -1.4943 -0.0115  0.1921
 5784SOL    HW228986   2.403   1.494  13.026  1.0423 -0.0979 -0.8294
 5785SOL     OW28987   3.196   2.550   8.595  0.2494  0.7446 -0.1199
 5785SOL    HW128988   3.214   2.476   8.653  0.1621  1.0643  0.3186
 5785SOL    HW228989   3.110   2.575   8.629 -0.7397 -2.5724 -0.2033
 5786SOL     OW28990   0.116   0.013   2.743  0.7793 -0.6326 -0.1411
 5786SOL    HW128991   0.048   4.707   2.689  0.0906 -0.0152  0.2631
 5786SOL    HW228992   0.099   0.107   2.731  0.6250 -0.8154 -1.3108
 5787SOL     OW28993   3.629   1.364   7.064  0.2665 -0.1731  0.4002
 5787SOL    HW128994   3.671   1.372   7.150  1.4448 -1.3846 -0.0507
 5787SOL    HW228995   3.632   1.452   7.027 -0.7644  0.2195  1.2710
 5788SOL     OW28996   3.197   3.714   5.537  0.1436  0.1193  0.2331
 5788SOL    HW128997   3.221   3.635   5.490 -0.4933  0.3656 -0.5063
 5788SOL    HW228998   3.145   3.760   5.471  0.0894 -1.7469 -1.0046
 5789SOL     OW28999   4.353   1.731  11.014  1.1919 -0.6947 -0.3595
 5789SOL    HW129000   4.360   1.638  10.992  1.0593 -0.1441 -2.8049
 5789SOL    HW229001   4.258   1.740  11.006  1.5061  0.9030 -2.4663
 5790SOL     OW29002   0.671   2.683   4.090 -0.3820 -0.2309  0.4725
 5790SOL    HW129003   0.686   2.762   4.143  2.7522 -0.2158 -0.4811
 5790SOL    HW229004   0.690   2.605   4.141 -1.5379 -0.8051  0.0253
 5791SOL     OW29005   3.878   1.349  13.866 -0.0616  0.4878 -0.0691
 5791SOL    HW129006   3.958   1.304  13.891 -0.9025 -0.7616  0.4026
 5791SOL    HW229007   3.858   1.326  13.775 -1.6493 -1.9529  0.9009
 5792SOL     OW29008   3.481   2.830   9.286  0.0604  0.3506 -0.2500
 5792SOL    HW129009   3.496   2.864   9.199 -0.2883  2.7181  0.6216
 5792SOL    HW229010   3.387   2.812   9.286 -0.1289  1.3057  0.7135
 5793SOL     OW29011   4.108   0.440   7.515 -0.4841 -0.4436 -0.2601
 5793SOL    HW129012   4.150   0.525   7.510 -0.0589 -0.6110  0.3875
 5793SOL    HW229013   4.021   0.454   7.553  0.0958  3.1623 -0.3154
 5794SOL     OW29014   3.123   4.400   5.739 -0.3507  0.2165  0.2516
 5794SOL    HW129015   3.158   4.412   5.651 -1.3608 -0.4995 -0.2462
 5794SOL    HW229016   3.166   4.315   5.754 -3.7914 -1.8182 -1.3739
 5795SOL     OW29017   2.701   0.577  16.456 -0.0457 -0.2432  0.5724
 5795SOL    HW129018   2.638   0.623  16.512  0.2201  1.0174 -0.1720
 5795SOL    HW229019   2.695   0.630  16.377 -1.9671 -0.6104  0.4689
 5796SOL     OW29020   4.041   4.388   4.519 -0.3618 -0.7908 -0.0237
 5796SOL    HW129021   4.014   4.478   4.539 -1.5030 -0.6600 -2.2230
 5796SOL    HW229022   4.080   4.347   4.596 -1.1917  0.0785  0.8557
 5797SOL     OW29023   0.254   0.909   9.543  0.3058 -0.0102  0.9980
 5797SOL    HW129024   0.213   0.960   9.613  1.0450  1.6169  0.2481
 5797SOL    HW229025   0.181   0.871   9.494 -1.0495  1.0747  2.1922
 5798SOL     OW29026   0.739   4.430   7.069 -0.2445  0.6057  0.0299
 5798SOL    HW129027   0.727   4.521   7.042  0.0606 -0.3540 -3.2867
 5798SOL    HW229028   0.833   4.426   7.053  0.1365  0.4552  2.2805
 5799SOL     OW29029   3.617   0.252   2.185 -0.1259 -0.1880  0.1256
 5799SOL    HW129030   3.539   0.304   2.166  1.0931  1.1075 -1.2683
 5799SOL    HW229031   3.611   0.236   2.279 -2.4237 -0.2178 -0.0252
 5800SOL     OW29032   3.365   2.556   9.623  0.0314 -0.2343 -0.5654
 5800SOL    HW129033   3.276   2.587   9.607 -0.0766 -1.2877 -1.9961
 5800SOL    HW229034   3.380   2.529   9.533  0.5551  0.8310 -0.7908
 5801SOL     OW29035   4.336   1.717   2.151  0.9290 -0.0300 -0.0317
 5801SOL    HW129036   4.345   1.622   2.164  1.8586  0.1206  0.4069
 5801SOL    HW229037   4.418   1.727   2.101  0.5383 -0.9578 -0.8601
 5802SOL     OW29038   1.237   3.921   2.147 -0.1686 -0.1165  0.4135
 5802SOL    HW129039   1.233   3.826   2.156 -0.4263 -0.0800  0.6982
 5802SOL    HW229040   1.184   3.947   2.072  2.1659  1.5963 -0.6320
 5803SOL     OW29041   2.568   4.650   5.564 -0.2340 -0.1062  0.3471
 5803SOL    HW129042   2.542   4.693   5.483 -1.9096  0.0323  0.9682
 5803SOL    HW229043   2.664   4.654   5.562 -0.3720  2.3052 -0.9841
 5804SOL     OW29044   2.044   2.078   4.879  0.2417 -0.3068 -0.1172
 5804SOL    HW129045   2.009   2.119   4.958 -0.5326  2.2117 -1.7734
 5804SOL    HW229046   2.078   1.993   4.910  2.5501  0.1627 -1.3642
 5805SOL     OW29047   0.038   1.253   6.233 -0.2041 -0.7289  0.2013
 5805SOL    HW129048   0.057   1.244   6.327  3.4165  1.0927 -0.3846
 5805SOL    HW229049   0.125   1.266   6.197  0.8025 -0.0710  2.9003
 5806SOL     OW29050   2.216   0.872   4.375  1.1695 -0.6247 -0.2796
 5806SOL    HW129051   2.189   0.862   4.466 -0.0409  1.8704 -0.3561
 5806SOL    HW229052   2.310   0.858   4.387  0.7963 -2.2729  0.6548
 5807SOL     OW29053   4.675   2.889  14.426 -0.1881 -0.2357 -0.2456
 5807SOL    HW129054   4.673   2.794  14.434 -1.7525  0.0862  2.9926
 5807SOL    HW229055   0.034   2.910  14.429 -0.8297  2.3151  2.1860
 5808SOL     OW29056   3.336   1.419   5.235 -0.0504  0.6171  0.0682
 5808SOL    HW129057   3.414   1.412   5.291 -0.7907 -0.3804  0.9749
 5808SOL    HW229058   3.283   1.478   5.287  1.1786  0.1161  1.8955
 5809SOL     OW29059   2.881   3.490  13.641 -0.0557 -0.0735  0.0087
 5809SOL    HW129060   2.948   3.553  13.615 -1.0283  0.1308 -1.9773
 5809SOL    HW229061   2.865   3.515  13.732  1.0723 -0.5863  0.3580
 5810SOL     OW29062   4.587   4.082   5.228 -0.2040 -0.2091  0.1517
 5810SOL    HW129063   4.587   4.165   5.277  2.3858  0.5093 -1.0895
 5810SOL    HW229064   4.634   4.032   5.295  0.9899 -0.1968 -0.6883
 5811SOL     OW29065   0.611   2.800  10.174  0.0295 -0.2605  0.0657
 5811SOL    HW129066   0.610   2.704  10.174  1.2053 -0.2797  1.5211
 5811SOL    HW229067   0.650   2.823  10.259 -1.1090 -0.0744  0.5271
 5812SOL     OW29068   4.083   0.647   6.743  0.3013 -0.3151  0.5517
 5812SOL    HW129069   4.055   0.722   6.691 -0.5827 -1.3220 -0.4470
 5812SOL    HW229070   4.142   0.600   6.683 -1.8865 -1.2636 -0.8764
 5813SOL     OW29071   3.086   1.792   6.531 -0.8175  0.0226  0.0066
 5813SOL    HW129072   3.169   1.746   6.520 -0.4998  0.6584 -0.2196
 5813SOL    HW229073   3.085   1.798   6.627  3.4190  0.3573  0.0229
 5814SOL     OW29074   4.608   1.287   1.475 -0.7936  0.4954 -0.0962
 5814SOL    HW129075   4.606   1.345   1.398  2.1429 -1.9709 -2.0246
 5814SOL    HW229076   4.642   1.354   1.535 -1.0605  1.3819 -0.9439
 5815SOL     OW29077   4.558   3.178   6.334  0.0357 -0.1358 -0.2270
 5815SOL    HW129078   4.587   3.183   6.425 -0.5402  0.0408 -0.0483
 5815SOL    HW229079   4.488   3.112   6.332 -0.5827  0.4448  2.2459
 5816SOL     OW29080   1.273   3.929   7.611 -0.3475  0.0245 -0.3305
 5816SOL    HW129081   1.222   4.007   7.588 -1.8774 -1.0581 -0.5969
 5816SOL    HW229082   1.213   3.862   7.577 -1.5982  0.8916  0.1560
 5817SOL     OW29083   1.443   0.282  13.272 -0.3185 -0.0840  0.5652
 5817SOL    HW129084   1.446   0.187  13.277  2.8598 -0.0119  0.4229
 5817SOL    HW229085   1.397   0.285  13.189  0.2309  0.1079  0.2651
 5818SOL     OW29086   1.231   0.231   7.739 -0.5288 -0.1259  0.1096
 5818SOL    HW129087   1.168   0.303   7.753  0.2948  0.6329 -0.0876
 5818SOL    HW229088   1.216   0.189   7.655  0.7812  0.0424 -0.2097
 5819SOL     OW29089   3.225   2.086   8.442 -0.2615 -0.1461  0.1185
 5819SOL    HW129090   3.280   2.120   8.513 -1.4520 -1.6273  1.7580
 5819SOL    HW229091   3.243   2.155   8.379  3.4031  0.7760  2.1276
 5820SOL     OW29092   2.658   2.669   9.835  0.4889 -0.0976 -0.2492
 5820SOL    HW129093   2.716   2.686   9.909 -0.3926  0.2473  0.3690
 5820SOL    HW229094   2.599   2.735   9.871 -1.6789 -0.6773 -2.7142
 5821SOL     OW29095   1.274   2.217  11.369  0.5405  0.0211 -0.4687
 5821SOL    HW129096   1.189   2.227  11.411  0.7068  1.1683 -0.4045
 5821SOL    HW229097   1.325   2.198  11.448  0.9767  1.4789 -0.4000
 5822SOL     OW29098   0.429   0.907  11.219  0.7072  0.6869  0.4958
 5822SOL    HW129099   0.367   0.874  11.154  0.5436  3.4691 -0.7902
 5822SOL    HW229100   0.441   0.995  11.183  3.0202  0.0881 -0.2043
 5823SOL     OW29101   3.923   0.738   4.550  0.0216 -0.1406  0.7119
 5823SOL    HW129102   3.949   0.670   4.613 -0.1507 -1.3357 -0.4938
 5823SOL    HW229103   4.007   0.780   4.529 -0.3019  0.1230 -0.0436
 5824SOL     OW29104   3.666   3.871   6.707 -0.0414 -0.6729  0.1468
 5824SOL    HW129105   3.698   3.781   6.695 -1.3453 -1.1471  0.2761
 5824SOL    HW229106   3.742   3.907   6.753 -0.1463 -0.1744 -0.0741
 5825SOL     OW29107   4.713   1.535   8.370  0.1657  0.6309  0.2216
 5825SOL    HW129108   4.664   1.595   8.426 -1.1443 -1.2333  1.1000
 5825SOL    HW229109   0.065   1.574   8.371  0.7137 -0.5573 -0.4561
 5826SOL     OW29110   1.814   1.959   9.120  0.5437  0.6580  0.0026
 5826SOL    HW129111   1.844   1.873   9.092  0.6350  1.0673 -1.1799
 5826SOL    HW229112   1.778   1.998   9.040 -0.5155 -1.3499 -0.4942
 5827SOL     OW29113   2.883   0.320   8.926 -0.8343  0.3388  0.6440
 5827SOL    HW129114   2.856   0.233   8.899  0.7385  0.0049  0.1484
 5827SOL    HW229115   2.890   0.295   9.019  1.0087  2.0856  0.9914
 5828SOL     OW29116   0.148   3.215   0.924  0.1293 -0.2251  0.7169
 5828SOL    HW129117   0.142   3.167   1.006  0.3975 -0.1589  0.7782
 5828SOL    HW229118   0.149   3.300   0.969  1.8575  1.7278 -2.9759
 5829SOL     OW29119   1.541   0.086   7.288 -0.3535  0.1570 -0.0432
 5829SOL    HW129120   1.611   0.047   7.340 -0.6811  0.7920  0.8588
 5829SOL    HW229121   1.595   0.146   7.235 -0.3206  0.7478  0.6647
 5830SOL     OW29122   3.945   3.468   8.525  0.2345  0.3513 -0.1362
 5830SOL    HW129123   3.916   3.505   8.608  1.1592 -0.8727  0.7517
 5830SOL    HW229124   3.896   3.532   8.474  0.5620  0.8097  0.1242
 5831SOL     OW29125   0.450   3.817   3.208  0.4387  0.2582  0.1444
 5831SOL    HW129126   0.542   3.790   3.205  0.6403  0.8042  1.6399
 5831SOL    HW229127   0.433   3.839   3.116  0.0460 -0.9330 -0.0744
 5832SOL     OW29128   1.044   0.310  12.812 -0.1865  0.4216 -0.1760
 5832SOL    HW129129   1.054   0.363  12.891  2.8034 -1.0813  0.4712
 5832SOL    HW229130   0.952   0.289  12.820 -0.4542  1.2692 -1.0164
 5833SOL     OW29131   0.787   3.237   1.831 -0.8621  0.1249 -0.5817
 5833SOL    HW129132   0.807   3.144   1.831  0.2280  0.3585 -1.6707
 5833SOL    HW229133   0.823   3.264   1.746 -1.6530  1.1206 -0.6008
 5834SOL     OW29134   0.730   4.586   8.427  0.0807 -0.5138 -0.0851
 5834SOL    HW129135   0.692   4.654   8.483 -0.1893  1.9434 -3.2997
 5834SOL    HW229136   0.788   4.541   8.489  1.2837 -0.6221 -1.3115
 5835SOL     OW29137   3.978   3.238   1.209  0.2457  0.6660  0.0281
 5835SOL    HW129138   3.957   3.204   1.296  0.8192  0.7158  0.1895
 5835SOL    HW229139   3.891   3.274   1.192  0.5286  0.6722 -1.4015
 5836SOL     OW29140   1.724   4.028   4.886  0.5150  0.3772 -0.6062
 5836SOL    HW129141   1.644   3.977   4.883  1.9012 -1.7976 -0.8112
 5836SOL    HW229142   1.760   4.022   4.974  0.5307 -1.7449 -0.7675
 5837SOL     OW29143   3.975   1.614   7.500  0.5219  0.8358 -0.1321
 5837SOL    HW129144   4.045   1.549   7.509 -0.9769 -0.7806 -0.1242
 5837SOL    HW229145   3.901   1.580   7.550 -1.5517  2.2395 -2.2562
 5838SOL     OW29146   1.987   4.428   1.173  0.1443  0.6086  0.6896
 5838SOL    HW129147   1.921   4.492   1.147 -0.7385 -0.3952  0.4795
 5838SOL    HW229148   1.961   4.415   1.264 -1.3099  1.8804  0.4667
 5839SOL     OW29149   1.473   0.309  14.666  0.2197 -0.4149  0.2937
 5839SOL    HW129150   1.486   0.355  14.583 -1.2950 -1.5162 -0.5458
 5839SOL    HW229151   1.545   0.245  14.669  0.8301  0.2312 -0.4188
 5840SOL     OW29152   1.831   4.614  12.063 -0.2801 -0.3901 -0.9234
 5840SOL    HW129153   1.835   4.704  12.095  0.0365 -0.6378 -0.2564
 5840SOL    HW229154   1.851   4.574  12.148  0.7904 -1.0621 -1.4938
 5841SOL     OW29155   4.557   1.817   5.426  0.3332  0.0291 -0.4559
 5841SOL    HW129156   4.465   1.842   5.436 -0.1282 -1.4355 -1.0824
 5841SOL    HW229157   4.600   1.902   5.417  1.0219 -0.1241  1.3425
 5842SOL     OW29158   3.608   2.964   8.283 -0.5002 -0.4121  0.1891
 5842SOL    HW129159   3.658   2.981   8.363 -1.6609 -2.0802  1.2533
 5842SOL    HW229160   3.673   2.929   8.222 -0.2522  1.5976 -0.7377
 5843SOL     OW29161   1.313   4.098   7.305 -0.4946 -0.5044 -0.0955
 5843SOL    HW129162   1.224   4.063   7.299 -0.6994 -0.3734  2.1993
 5843SOL    HW229163   1.331   4.085   7.212 -4.0868 -2.9527 -0.4246
 5844SOL     OW29164   0.157   3.702   9.012 -0.0012  0.4903 -0.4071
 5844SOL    HW129165   0.165   3.650   8.932 -1.6133  0.1589 -0.3537
 5844SOL    HW229166   0.227   3.656   9.059 -0.4471  0.9933  0.7598
 5845SOL     OW29167   0.692   0.114   5.956 -0.0695 -0.2972  0.2402
 5845SOL    HW129168   0.630   0.114   6.029 -0.5767  1.5156 -0.1850
 5845SOL    HW229169   0.753   0.178   5.992  1.6727 -1.9434  0.1784
 5846SOL     OW29170   2.911   4.240   8.927 -0.2738  0.5988 -0.0334
 5846SOL    HW129171   2.880   4.220   9.015 -1.0513  0.3089 -0.3785
 5846SOL    HW229172   2.843   4.290   8.880 -2.7675 -0.6987  2.1970
 5847SOL     OW29173   0.517   3.571   7.577  0.7225  0.5785  0.3365
 5847SOL    HW129174   0.500   3.576   7.483  1.5926 -1.3520  0.0816
 5847SOL    HW229175   0.500   3.663   7.597 -1.0805 -0.4172  3.3439
 5848SOL     OW29176   2.825   3.640   4.967  0.6037 -0.1506  0.5275
 5848SOL    HW129177   2.777   3.625   5.048  0.1627  1.2541  0.5301
 5848SOL    HW229178   2.907   3.684   4.993 -0.3511  1.9334 -0.0283
 5849SOL     OW29179   2.180   2.376  14.488  0.5531 -0.4064  0.4359
 5849SOL    HW129180   2.171   2.296  14.436  0.1333  1.9046 -3.1099
 5849SOL    HW229181   2.236   2.418  14.422 -0.2554  1.2670  0.8147
 5850SOL     OW29182   4.059   4.143  14.527 -0.6584  0.0031 -0.0664
 5850SOL    HW129183   4.151   4.119  14.518 -1.0768 -0.8566 -1.9707
 5850SOL    HW229184   4.063   4.225  14.477 -1.5507 -0.7576 -1.3992
 5851SOL     OW29185   2.264   3.228  13.272  0.3165 -0.6710  0.3129
 5851SOL    HW129186   2.277   3.187  13.186 -0.1240 -3.5634  1.6542
 5851SOL    HW229187   2.354   3.253  13.294  0.1310 -0.3516  0.6904
 5852SOL     OW29188   3.997   2.379  11.910  0.0749  0.6408  0.6387
 5852SOL    HW129189   3.968   2.434  11.838 -0.9417 -1.5594 -0.6549
 5852SOL    HW229190   3.918   2.372  11.965 -1.7711 -1.1660 -2.2540
 5853SOL     OW29191   2.177   3.111   8.957 -0.0995  0.1047  0.4156
 5853SOL    HW129192   2.142   3.200   8.953 -0.8285 -0.2591 -1.1230
 5853SOL    HW229193   2.100   3.064   8.987 -1.1190  0.9899 -0.8353
 5854SOL     OW29194   4.246   1.367  12.370  0.1619  0.0438  0.3844
 5854SOL    HW129195   4.159   1.334  12.391  0.3726  0.2932  1.6466
 5854SOL    HW229196   4.304   1.302  12.409  2.1585  1.4906 -0.2081
 5855SOL     OW29197   4.547   4.187  11.846  0.3298  0.4130  0.2091
 5855SOL    HW129198   4.581   4.200  11.758  2.4935 -0.4437  0.9188
 5855SOL    HW229199   4.516   4.276  11.866  1.1683  0.5334  0.9872
 5856SOL     OW29200   0.666   1.257   8.419  0.5030 -0.1467 -0.1847
 5856SOL    HW129201   0.624   1.220   8.497 -1.5535 -1.0312 -1.7144
 5856SOL    HW229202   0.758   1.234   8.427  0.7783  1.0309  0.0007
 5857SOL     OW29203   2.035   2.852  13.733 -0.8564 -0.4877  0.5808
 5857SOL    HW129204   2.114   2.845  13.786 -0.3358 -1.6981 -0.3399
 5857SOL    HW229205   1.977   2.796  13.785 -0.6551 -0.2678  1.0354
 5858SOL     OW29206   4.026   4.247   6.409  0.6206 -0.3097 -0.3884
 5858SOL    HW129207   4.100   4.307   6.417  0.7832 -1.1081  4.2195
 5858SOL    HW229208   3.984   4.290   6.334  1.5489 -0.2871 -0.8891
 5859SOL     OW29209   1.100   1.110   1.786  0.5852 -0.1440 -0.1914
 5859SOL    HW129210   1.190   1.139   1.769 -0.0974  1.2168 -1.5906
 5859SOL    HW229211   1.113   1.016   1.793  0.0422 -0.2441 -0.5169
 5860SOL     OW29212   1.842   2.976   1.430 -0.4420 -0.5088 -0.0114
 5860SOL    HW129213   1.908   3.014   1.372 -1.5105  0.3050 -0.6985
 5860SOL    HW229214   1.855   3.032   1.507 -2.7774 -0.5314  0.4044
 5861SOL     OW29215   3.657   1.417   3.620  0.4842 -0.1110  0.2234
 5861SOL    HW129216   3.726   1.354   3.639  1.0010  0.0371 -1.2239
 5861SOL    HW229217   3.713   1.476   3.570  2.2825 -0.5093  1.7813
 5862SOL     OW29218   4.661   2.475   6.472  0.1368  0.2850  0.4107
 5862SOL    HW129219   4.686   2.477   6.564  1.1819 -1.3322  0.1625
 5862SOL    HW229220   4.693   2.394   6.433  2.7842 -0.3324  3.8620
 5863SOL     OW29221   2.809   1.442  16.080  0.2958 -0.1904  0.3285
 5863SOL    HW129222   2.826   1.393  16.160  1.2443 -0.9088 -0.3075
 5863SOL    HW229223   2.770   1.373  16.026 -2.3410  2.3435 -0.9644
 5864SOL     OW29224   0.097   1.891   3.746 -0.3746 -0.2367  0.0262
 5864SOL    HW129225   0.068   1.833   3.676  0.6467  0.8450 -1.2697
 5864SOL    HW229226   0.009   1.918   3.772 -0.8581 -0.4341 -1.4135
 5865SOL     OW29227   2.683   0.297   7.921  0.1024 -0.1697  0.7157
 5865SOL    HW129228   2.710   0.387   7.906 -0.1540 -0.1130  0.5924
 5865SOL    HW229229   2.602   0.319   7.968 -0.6348 -1.5593  0.1146
 5866SOL     OW29230   2.108   2.035   0.990 -0.4888  0.1440 -0.0724
 5866SOL    HW129231   2.157   1.953   0.980 -4.2092 -1.9323 -0.9743
 5866SOL    HW229232   2.158   2.080   1.059  1.3314 -0.5314 -0.9522
 5867SOL     OW29233   4.669   0.218   6.529 -0.2239  0.1413  0.3893
 5867SOL    HW129234   4.651   0.156   6.599  0.5395 -0.5331 -0.0164
 5867SOL    HW229235   4.626   0.291   6.573 -0.5680 -0.0259  0.3267
 5868SOL     OW29236   0.732   1.076  11.142  0.1015 -0.7138  0.1425
 5868SOL    HW129237   0.680   1.151  11.172 -1.5921 -0.4043 -3.4876
 5868SOL    HW229238   0.668   1.031  11.088  0.3047  0.8736 -1.4279
 5869SOL     OW29239   1.341   1.378  13.200 -0.4371 -0.4083  0.3550
 5869SOL    HW129240   1.421   1.341  13.163  1.4468  2.5385  1.4211
 5869SOL    HW229241   1.315   1.320  13.271  0.9597 -1.3088  0.1335
 5870SOL     OW29242   1.840   1.906  12.831 -0.2885  0.5807 -0.3157
 5870SOL    HW129243   1.889   1.825  12.816  2.4454  1.9408  1.3293
 5870SOL    HW229244   1.906   1.975  12.822 -0.8670  0.9083 -2.0162
 5871SOL     OW29245   2.013   3.296  13.312  0.4519 -0.0511  0.3192
 5871SOL    HW129246   2.031   3.375  13.261 -2.1560 -0.2216 -0.8739
 5871SOL    HW229247   2.096   3.255  13.288  1.3991  2.0387  0.0438
 5872SOL     OW29248   3.526   3.944  14.628  0.7185  0.0109  0.1605
 5872SOL    HW129249   3.621   3.948  14.621  0.7481  0.2140  0.6261
 5872SOL    HW229250   3.503   4.017  14.686  0.3643 -1.4073  1.8237
 5873SOL     OW29251   2.778   3.482   3.716  0.4356 -0.0861  0.2678
 5873SOL    HW129252   2.795   3.554   3.655 -2.4460  0.0716 -0.3490
 5873SOL    HW229253   2.814   3.521   3.796 -1.5583 -0.8450  1.5575
 5874SOL     OW29254   3.558   3.653  14.638  0.1090  0.6009 -0.2303
 5874SOL    HW129255   3.577   3.746  14.648 -0.0324  0.9355 -3.3452
 5874SOL    HW229256   3.485   3.644  14.577  0.7888  3.4941 -1.4475
 5875SOL     OW29257   1.830   0.335   3.055 -0.1239 -0.3746  0.1597
 5875SOL    HW129258   1.830   0.426   3.026  0.5369 -1.0152 -1.9275
 5875SOL    HW229259   1.901   0.340   3.119 -0.4247 -2.8300  0.6918
 5876SOL     OW29260   3.947   1.541  17.448  0.2424 -0.1138  0.5031
 5876SOL    HW129261   3.854   1.519  17.446  0.3157 -0.2598 -0.8918
 5876SOL    HW229262   3.943   1.633  17.476 -0.7226  0.7213 -2.4190
 5877SOL     OW29263   2.580   2.579   3.328 -0.8328 -0.0533  0.0343
 5877SOL    HW129264   2.578   2.624   3.244 -0.6476  1.6177  0.9183
 5877SOL    HW229265   2.534   2.499   3.303  0.0013 -0.9582  1.3964
 5878SOL     OW29266   1.324   1.359  17.439 -0.7084  0.6985 -0.1248
 5878SOL    HW129267   1.252   1.327  17.384 -0.7794  1.0476 -0.2369
 5878SOL    HW229268   1.287   1.441  17.469  1.7843  1.6808  0.2483
 5879SOL     OW29269   0.266   2.249   1.954 -0.1645  0.1003  0.0014
 5879SOL    HW129270   0.292   2.268   1.864  1.3407  0.0416  0.4303
 5879SOL    HW229271   0.260   2.331   2.002  0.2663  1.9196 -3.0545
 5880SOL     OW29272   1.567   4.101   4.629 -0.5230 -0.1637 -0.2481
 5880SOL    HW129273   1.644   4.127   4.577  0.1472 -1.0611  0.3023
 5880SOL    HW229274   1.598   4.109   4.719 -2.4022  2.0234  0.2088
 5881SOL     OW29275   0.664   3.105   2.112  0.3578 -0.3010  0.7056
 5881SOL    HW129276   0.624   3.053   2.181  1.4149 -0.3874  1.2496
 5881SOL    HW229277   0.628   3.192   2.128  1.1133  0.3168 -0.9416
 5882SOL     OW29278   2.950   1.013   8.392 -0.4651 -0.4343  0.5796
 5882SOL    HW129279   2.926   1.083   8.333 -0.7436 -2.0604 -1.2395
 5882SOL    HW229280   2.870   0.963   8.408 -0.0146 -1.9290 -1.8142
 5883SOL     OW29281   1.555   3.808  16.822 -0.5646 -0.5703 -0.0167
 5883SOL    HW129282   1.543   3.902  16.836  2.8511 -0.3834  1.7304
 5883SOL    HW229283   1.620   3.815  16.752 -0.4841  1.6054  0.2659
 5884SOL     OW29284   2.345   2.775   1.844  0.7347 -0.0935 -0.2786
 5884SOL    HW129285   2.384   2.694   1.878 -2.5602 -0.9085  1.6142
 5884SOL    HW229286   2.297   2.817   1.916 -1.2677 -2.2628 -0.3446
 5885SOL     OW29287   2.280   3.772   3.517 -0.6667 -0.3900 -0.4186
 5885SOL    HW129288   2.374   3.785   3.505 -0.7414  0.4812 -0.0149
 5885SOL    HW229289   2.271   3.677   3.504  2.7388 -0.8778  0.8861
 5886SOL     OW29290   3.527   2.090   5.404 -0.2252  0.0870 -0.0260
 5886SOL    HW129291   3.491   2.004   5.383 -2.3409  0.3004  2.8234
 5886SOL    HW229292   3.554   2.118   5.317 -0.8471  0.8316  0.0240
 5887SOL     OW29293   1.857   0.606   8.589 -0.4179 -0.0973  0.1509
 5887SOL    HW129294   1.943   0.563   8.594 -0.3586  0.1056  0.8588
 5887SOL    HW229295   1.890   0.693   8.610  0.1521 -0.2376 -0.1673
 5888SOL     OW29296   0.744   1.955   8.641  0.4817 -0.2989  0.2002
 5888SOL    HW129297   0.784   1.908   8.568 -3.0997 -2.3404 -0.4841
 5888SOL    HW229298   0.650   1.937   8.633  0.7150 -2.1005  1.3090
 5889SOL     OW29299   1.234   3.646   2.243  0.3305  0.3715  0.4275
 5889SOL    HW129300   1.176   3.617   2.314  1.5902  2.2369  2.2055
 5889SOL    HW229301   1.276   3.563   2.220 -0.9215  0.0760 -0.7523
 5890SOL     OW29302   1.455   0.773   6.412  0.5955 -0.2609 -0.2374
 5890SOL    HW129303   1.377   0.779   6.468  1.4196  0.7782  0.8001
 5890SOL    HW229304   1.499   0.700   6.455  0.8009  0.2878  0.4787
 5891SOL     OW29305   2.322   4.406  10.973  0.5628 -0.1227 -0.1549
 5891SOL    HW129306   2.414   4.381  10.976  0.8097  0.6775 -1.1202
 5891SOL    HW229307   2.290   4.340  10.911 -1.0961  0.0086  0.5445
 5892SOL     OW29308   0.538   2.253   6.448 -0.1876 -0.2538 -0.1154
 5892SOL    HW129309   0.545   2.263   6.353  0.0666  1.9239  0.1411
 5892SOL    HW229310   0.629   2.232   6.469  0.3982  1.0260 -1.3927
 5893SOL     OW29311   4.333   3.232  15.688  0.0836 -0.3661  0.2576
 5893SOL    HW129312   4.363   3.295  15.622  0.5352 -0.9546 -0.1030
 5893SOL    HW229313   4.340   3.287  15.766  0.3110 -1.2017  0.8166
 5894SOL     OW29314   2.821   0.032   8.611  0.3758 -0.1400 -0.7314
 5894SOL    HW129315   2.871   0.109   8.636  0.9689 -0.5066 -0.7964
 5894SOL    HW229316   2.893   4.703   8.611 -0.2230 -0.8157 -2.4100
 5895SOL     OW29317   0.960   1.481   7.611  0.6073  0.2288 -0.2809
 5895SOL    HW129318   1.020   1.543   7.568  1.5582  0.1322  0.9234
 5895SOL    HW229319   1.012   1.451   7.685 -2.1076 -0.0950  1.4867
 5896SOL     OW29320   3.778   4.651   8.976  0.1092 -0.0256 -0.4157
 5896SOL    HW129321   3.707   4.639   9.039  0.8223 -1.1217  0.1830
 5896SOL    HW229322   3.793   0.011   8.981 -0.3077  0.0740 -1.0433
 5897SOL     OW29323   0.773   1.432   5.066 -0.0049 -0.0686 -0.3789
 5897SOL    HW129324   0.678   1.422   5.058 -0.1418  0.5770  0.4451
 5897SOL    HW229325   0.808   1.406   4.981 -0.5880 -0.8710 -0.3805
 5898SOL     OW29326   4.408   1.554   2.955 -0.4481 -0.2452 -0.4550
 5898SOL    HW129327   4.463   1.564   2.878  1.3193  0.6566  0.9380
 5898SOL    HW229328   4.330   1.559   2.900 -1.3161  1.2663  0.8837
 5899SOL     OW29329   4.547   0.806   4.148 -0.2732  0.2511 -0.2131
 5899SOL    HW129330   4.508   0.894   4.146  0.3991  0.5338 -0.6607
 5899SOL    HW229331   4.469   0.752   4.165 -0.0873 -0.4255 -1.4915
 5900SOL     OW29332   2.706   1.119  14.802  0.7459 -0.0707 -0.6168
 5900SOL    HW129333   2.655   1.066  14.864  2.9422 -0.5597  0.7680
 5900SOL    HW229334   2.630   1.159  14.760  0.5405  0.1394 -0.0494
 5901SOL     OW29335   3.447   2.798   2.789 -0.7286 -0.0185  0.2825
 5901SOL    HW129336   3.383   2.868   2.797  0.2195  0.7828  0.9127
 5901SOL    HW229337   3.392   2.721   2.772  0.1827 -0.7698  0.7004
 5902SOL     OW29338   2.955   4.182   0.895 -0.3631 -0.7990  0.4827
 5902SOL    HW129339   2.863   4.199   0.876 -0.5042  0.3588  2.1528
 5902SOL    HW229340   2.975   4.260   0.948 -0.1566 -1.2238  1.0203
 5903SOL     OW29341   4.224   1.457   0.770 -0.8707 -0.6611 -0.1128
 5903SOL    HW129342   4.212   1.391   0.839  1.0820  0.1386  0.9900
 5903SOL    HW229343   4.177   1.428   0.692 -0.8090  1.6028 -0.9886
 5904SOL     OW29344   2.817   3.353   6.827  0.7233 -0.0057 -0.0410
 5904SOL    HW129345   2.900   3.315   6.857  1.4730  1.3180 -0.4628
 5904SOL    HW229346   2.855   3.436   6.799  2.8206 -1.7618 -2.3748
 5905SOL     OW29347   2.035   3.564   1.006  0.2597 -0.4836  0.0091
 5905SOL    HW129348   1.947   3.528   0.994 -0.0906  0.5546 -0.4468
 5905SOL    HW229349   2.041   3.562   1.102  2.0436  0.1214 -0.0896
 5906SOL     OW29350   4.178   0.837   4.216 -0.5601 -0.1599 -0.0849
 5906SOL    HW129351   4.236   0.912   4.218  0.2570 -0.7433 -1.8825
 5906SOL    HW229352   4.098   0.866   4.260 -0.2945  1.3578 -0.6069
 5907SOL     OW29353   1.498   3.046  15.137  0.7107  0.0695  0.1298
 5907SOL    HW129354   1.438   3.121  15.133 -0.4230 -0.9622 -1.9616
 5907SOL    HW229355   1.564   3.077  15.075 -1.7545  1.7651 -1.6503
 5908SOL     OW29356   1.067   0.651   5.448 -0.0901 -0.3872 -0.1031
 5908SOL    HW129357   1.068   0.572   5.501 -3.2244  0.0097  0.5023
 5908SOL    HW229358   1.162   0.663   5.439 -0.1582 -1.7638 -2.6520
 5909SOL     OW29359   4.558   0.691   3.327 -0.3978 -0.0240  0.3074
 5909SOL    HW129360   4.547   0.749   3.403 -1.5546  2.0738 -1.4635
 5909SOL    HW229361   4.600   0.617   3.372  0.0647 -1.1472 -1.9726
 5910SOL     OW29362   2.387   2.959   8.868 -0.0387 -0.0045  0.8956
 5910SOL    HW129363   2.324   3.009   8.920 -0.0644 -1.1568  1.9688
 5910SOL    HW229364   2.345   2.960   8.782 -0.6371  1.0351  1.1960
 5911SOL     OW29365   0.361   0.663   1.449  0.1248  0.4520 -0.1853
 5911SOL    HW129366   0.267   0.682   1.440  0.1554  1.4474  1.5842
 5911SOL    HW229367   0.384   0.705   1.532 -0.2405  1.7132 -0.7327
 5912SOL     OW29368   0.576   2.782   6.045 -0.5196  0.2553 -0.3782
 5912SOL    HW129369   0.496   2.758   5.999  1.2274 -0.4494 -3.0544
 5912SOL    HW229370   0.628   2.798   5.966 -0.5442 -2.0270 -0.8610
 5913SOL     OW29371   3.635   2.364   9.077  0.0609 -0.7554  0.1296
 5913SOL    HW129372   3.550   2.320   9.076 -1.3763  2.0522 -0.7793
 5913SOL    HW229373   3.682   2.312   9.011  0.0917 -0.0765 -0.3827
 5914SOL     OW29374   3.018   3.305   8.441  0.8359 -0.2390  0.0086
 5914SOL    HW129375   3.017   3.400   8.455 -1.0875 -0.1585 -0.7023
 5914SOL    HW229376   2.985   3.264   8.521 -1.0740  1.0543 -0.1160
 5915SOL     OW29377   3.878   4.262  10.225 -0.7704  0.1045 -0.4927
 5915SOL    HW129378   3.881   4.181  10.275  0.5761 -0.6706 -1.8217
 5915SOL    HW229379   3.929   4.318  10.285 -1.2390  0.1319 -0.1219
 5916SOL     OW29380   3.285   2.545  10.708 -0.4589  0.2280  0.1040
 5916SOL    HW129381   3.370   2.500  10.708 -0.9609 -0.7121 -1.0718
 5916SOL    HW229382   3.244   2.497  10.636  0.2128 -1.8938  1.1358
 5917SOL     OW29383   1.045   4.706  15.720 -0.6286 -0.3006  0.1785
 5917SOL    HW129384   0.952   4.686  15.724 -0.1198 -2.3945  1.2819
 5917SOL    HW229385   1.062   0.031  15.793  0.5830 -1.2218  0.6540
 5918SOL     OW29386   2.813   4.350  17.548  0.2021 -0.7493  0.1686
 5918SOL    HW129387   2.793   4.427  17.602  2.5026 -1.2621  1.7664
 5918SOL    HW229388   2.726   4.338  17.511  0.2548  0.6373 -0.3984
 5919SOL     OW29389   2.657   4.584  17.248 -0.1354 -0.2674  1.0992
 5919SOL    HW129390   2.669   4.636  17.327  1.0807  0.0717  0.6935
 5919SOL    HW229391   2.720   4.513  17.264  0.5002 -0.2754 -1.3868
 5920SOL     OW29392   2.673   1.198   3.824 -0.2943 -0.5223  0.3642
 5920SOL    HW129393   2.699   1.182   3.915 -1.5891  2.0551  1.2137
 5920SOL    HW229394   2.609   1.129   3.813  0.7205 -1.0367 -2.2741
 5921SOL     OW29395   0.098   1.827  14.967 -0.2053 -0.5963 -0.6943
 5921SOL    HW129396   0.015   1.807  14.924  0.0043 -0.3300 -1.2352
 5921SOL    HW229397   0.156   1.789  14.901  1.6687  0.7480  0.1787
 5922SOL     OW29398   4.038   2.982   6.202 -0.1236 -0.1597  0.5589
 5922SOL    HW129399   4.073   3.033   6.275  0.7260  0.8306 -0.5403
 5922SOL    HW229400   4.098   2.909   6.218  0.4506  0.0173 -0.7964
 5923SOL     OW29401   3.304   0.192   4.956  1.0053 -0.6127  0.3458
 5923SOL    HW129402   3.321   0.273   5.004  2.1278  0.8018 -2.4199
 5923SOL    HW229403   3.212   0.170   4.969  1.3071  0.1089  3.5751
 5924SOL     OW29404   3.674   4.470   4.957  0.1375 -0.0890 -0.0441
 5924SOL    HW129405   3.622   4.428   5.026 -1.5912  3.7749  0.9772
 5924SOL    HW229406   3.675   4.561   4.984  0.5025 -1.0759  3.2364
 5925SOL     OW29407   1.722   3.072   2.917  0.1838 -0.0926 -0.2623
 5925SOL    HW129408   1.630   3.078   2.943  0.0336 -0.1466 -0.7790
 5925SOL    HW229409   1.760   3.027   2.991 -1.1877 -1.4788 -0.4123
 5926SOL     OW29410   3.915   2.200  16.628  0.0136 -0.5624  0.2152
 5926SOL    HW129411   3.851   2.184  16.559  1.1817 -0.1422 -0.9764
 5926SOL    HW229412   3.849   2.210  16.696 -1.2149  2.9872 -1.5002
 5927SOL     OW29413   0.772   2.680  13.925  0.4460  0.0801 -0.2137
 5927SOL    HW129414   0.753   2.724  14.008 -0.5365 -4.0346  1.7244
 5927SOL    HW229415   0.697   2.723  13.885 -1.0849 -1.6466  0.8283
 5928SOL     OW29416   1.815   4.271   7.615  0.1134  0.2368 -0.1317
 5928SOL    HW129417   1.755   4.222   7.558  0.8277  1.9209 -2.3590
 5928SOL    HW229418   1.887   4.209   7.620 -1.8493 -2.0066  0.6197
 5929SOL     OW29419   4.157   1.946   5.124  0.3432  0.7658  0.1746
 5929SOL    HW129420   4.223   1.881   5.147 -0.1051 -0.5859 -2.3630
 5929SOL    HW229421   4.178   1.961   5.032 -3.6880  1.2599 -0.6688
 5930SOL     OW29422   1.129   0.355  11.819  0.2512  0.3170  0.0601
 5930SOL    HW129423   1.151   0.314  11.736  1.2886 -1.4145  1.2136
 5930SOL    HW229424   1.087   0.438  11.795 -0.7139 -0.5658 -1.3042
 5931SOL     OW29425   2.546   0.370   6.905 -0.2141 -0.1577 -0.2932
 5931SOL    HW129426   2.537   0.400   6.815  0.6878  0.3629 -0.2041
 5931SOL    HW229427   2.516   0.279   6.897 -1.5240  0.1268  1.2740
 5932SOL     OW29428   2.836   2.020   6.233  0.5277  0.0065 -0.1027
 5932SOL    HW129429   2.808   1.944   6.181 -0.9978  0.5107 -0.0203
 5932SOL    HW229430   2.756   2.028   6.284  0.5544 -2.2812  0.3121
 5933SOL     OW29431   3.492   3.359   2.170  0.1158  0.2174  0.2506
 5933SOL    HW129432   3.463   3.288   2.226 -2.1411  0.5720 -0.4968
 5933SOL    HW229433   3.494   3.313   2.087  3.3061  1.2000 -0.2134
 5934SOL     OW29434   2.903   3.027  15.115  0.0913  0.0831 -0.4503
 5934SOL    HW129435   2.809   3.025  15.097 -0.0940  0.4807  0.4517
 5934SOL    HW229436   2.937   2.999  15.030 -2.8969  0.2508 -1.6816
 5935SOL     OW29437   3.389   0.536   6.242 -0.0470 -0.9465 -0.2773
 5935SOL    HW129438   3.469   0.488   6.221 -1.3079 -1.5455 -3.6472
 5935SOL    HW229439   3.417   0.627   6.250  0.7428 -1.1003 -1.2844
 5936SOL     OW29440   0.419   3.999  12.619  0.1564  0.8764 -0.0583
 5936SOL    HW129441   0.392   4.058  12.689 -1.4655 -0.3018  0.3090
 5936SOL    HW229442   0.459   3.928  12.669 -1.2002 -1.7823 -2.7587
 5937SOL     OW29443   1.080   4.146  17.258  0.0595 -0.9169  0.3443
 5937SOL    HW129444   1.003   4.117  17.209 -0.9827 -0.0116  1.4443
 5937SOL    HW229445   1.044   4.207  17.322  1.3974  0.3598 -0.0999
 5938SOL     OW29446   1.405   0.382   1.657  0.1075  0.4368  0.3294
 5938SOL    HW129447   1.311   0.392   1.648  0.5711  2.7588 -1.9776
 5938SOL    HW229448   1.435   0.373   1.566 -0.9543  0.6840 -0.0400
 5939SOL     OW29449   2.382   0.223  11.718  0.1953 -0.2735 -0.1165
 5939SOL    HW129450   2.346   0.197  11.633  1.3200 -0.5475 -0.5019
 5939SOL    HW229451   2.474   0.213  11.697 -0.1401 -0.8757 -1.2761
 5940SOL     OW29452   2.136   0.394   5.050 -0.0411  0.5695  0.1317
 5940SOL    HW129453   2.057   0.373   5.102  1.1116 -2.4354  0.6733
 5940SOL    HW229454   2.113   0.356   4.965  0.1500 -0.7092  0.6556
 5941SOL     OW29455   4.508   3.919   7.852 -0.2994  0.0890 -0.9031
 5941SOL    HW129456   4.560   3.957   7.923 -1.1448 -0.5568  0.0617
 5941SOL    HW229457   4.443   3.981   7.818 -1.0362  0.2945  0.8472
 5942SOL     OW29458   3.958   4.437   0.311 -0.3423 -0.3890 -0.1654
 5942SOL    HW129459   3.966   4.443   0.406  0.2483  2.2037 -0.3790
 5942SOL    HW229460   4.044   4.425   0.272  0.9758  3.2748  1.6738
 5943SOL     OW29461   3.960   3.852   4.544 -0.3129 -0.5118  0.0092
 5943SOL    HW129462   3.962   3.939   4.583  1.3669  0.1744 -1.5989
 5943SOL    HW229463   4.019   3.859   4.469 -2.3674 -0.0778 -1.5560
 5944SOL     OW29464   3.983   1.139   4.522 -0.2206  0.2332 -0.0587
 5944SOL    HW129465   4.055   1.193   4.555 -0.1876 -0.2888  0.7279
 5944SOL    HW229466   3.917   1.155   4.589 -0.6716  1.5368 -0.8125
 5945SOL     OW29467   2.639   3.651   2.703 -0.0287 -0.2511  0.4141
 5945SOL    HW129468   2.662   3.559   2.696  0.0505 -0.1293 -0.8329
 5945SOL    HW229469   2.573   3.643   2.634  2.0412  1.8832 -1.8138
 5946SOL     OW29470   2.499   3.722  12.895  0.6763 -0.0846  0.2752
 5946SOL    HW129471   2.444   3.655  12.935  0.4693 -1.3072 -2.0548
 5946SOL    HW229472   2.429   3.784  12.874 -1.4213 -2.1966  1.1319
 5947SOL     OW29473   0.659   0.665  16.189  0.0046  0.4384 -0.3324
 5947SOL    HW129474   0.592   0.611  16.149 -0.0617 -0.3682  0.8624
 5947SOL    HW229475   0.684   0.603  16.258 -0.7271  0.2976 -0.1949
 5948SOL     OW29476   4.337   0.646   9.515 -0.0758 -0.2243 -0.2429
 5948SOL    HW129477   4.328   0.604   9.601  0.4564 -1.7402 -0.9314
 5948SOL    HW229478   4.355   0.739   9.524 -1.5327  0.1635 -1.3356
 5949SOL     OW29479   2.351   3.214   3.771  0.4147  0.3000 -0.2958
 5949SOL    HW129480   2.313   3.189   3.856  0.0130 -1.3253 -0.9510
 5949SOL    HW229481   2.358   3.309   3.785  2.6040  0.0273  0.4095
 5950SOL     OW29482   2.891   0.186   8.373 -0.3709  0.2763 -0.1558
 5950SOL    HW129483   2.930   0.270   8.347  0.8489 -0.0205  0.7369
 5950SOL    HW229484   2.921   0.179   8.464 -0.9611  1.2102  0.1117
 5951SOL     OW29485   4.040   3.711  12.117 -0.6438  0.3503  0.3218
 5951SOL    HW129486   3.972   3.745  12.174 -1.0447  0.5373 -0.2699
 5951SOL    HW229487   4.115   3.770  12.111  1.2152 -2.2257 -2.1677
 5952SOL     OW29488   3.649   4.333   4.447 -0.7583  0.1103  0.0891
 5952SOL    HW129489   3.638   4.293   4.533  0.5705  2.6546  1.4492
 5952SOL    HW229490   3.741   4.313   4.430 -0.4940  1.4467 -0.0356
 5953SOL     OW29491   3.744   2.935   2.252  0.4323  0.1270  0.3736
 5953SOL    HW129492   3.680   2.937   2.181  1.4960 -0.9935 -0.6146
 5953SOL    HW229493   3.818   2.898   2.205 -0.3877 -1.0274 -0.0101
 5954SOL     OW29494   1.849   1.960   3.335  0.4188  0.2501 -0.6136
 5954SOL    HW129495   1.925   2.017   3.320  0.8724 -0.6478 -1.6953
 5954SOL    HW229496   1.786   2.031   3.348 -1.1514 -1.4481  0.9816
 5955SOL     OW29497   2.156   2.496  15.342 -0.0540  0.0525 -0.1693
 5955SOL    HW129498   2.196   2.409  15.331 -0.8683 -0.2815 -0.4903
 5955SOL    HW229499   2.148   2.499  15.438 -0.0546 -2.4703 -0.0849
 5956SOL     OW29500   0.121   4.017   9.046 -0.0344 -0.0657  0.4935
 5956SOL    HW129501   0.143   3.992   9.135  0.8771 -0.8497  0.0415
 5956SOL    HW229502   0.210   4.039   9.017 -0.3056  1.6433  0.9222
 5957SOL     OW29503   0.238   0.860  11.028  0.0976 -0.0093  0.0284
 5957SOL    HW129504   0.184   0.785  11.003 -0.5667  0.3514  0.3865
 5957SOL    HW229505   0.164   0.910  11.061 -1.4840 -1.3882 -1.4453
 5958SOL     OW29506   1.646   0.744  13.305 -0.3157  0.6087  0.2880
 5958SOL    HW129507   1.651   0.837  13.283  1.9828  0.1437 -1.1576
 5958SOL    HW229508   1.624   0.702  13.221  0.6475 -1.1963  0.9412
 5959SOL     OW29509   2.583   4.191   7.999 -0.4265  0.1910  0.4889
 5959SOL    HW129510   2.675   4.210   7.981 -0.2006 -0.8760  0.5255
 5959SOL    HW229511   2.547   4.165   7.914 -1.4459  0.6326  0.7817
 5960SOL     OW29512   2.195   4.437   6.055  0.3253  0.3919 -0.0681
 5960SOL    HW129513   2.180   4.522   6.014  0.1045 -0.5839 -1.9873
 5960SOL    HW229514   2.170   4.458   6.145  0.4968 -3.8275  0.9230
 5961SOL     OW29515   1.660   1.252   8.759  0.7414  0.5246 -0.2424
 5961SOL    HW129516   1.636   1.174   8.809 -0.4046  0.4000 -0.9927
 5961SOL    HW229517   1.672   1.317   8.828 -2.0795 -1.1384  1.8192
 5962SOL     OW29518   3.105   2.588  14.619 -0.2291 -0.2940 -0.2254
 5962SOL    HW129519   3.189   2.633  14.614 -1.3444  1.7215 -0.6979
 5962SOL    HW229520   3.073   2.624  14.536 -0.6680 -1.1049 -0.4131
 5963SOL     OW29521   0.559   1.680   4.500  0.0976  0.0118 -0.0731
 5963SOL    HW129522   0.501   1.719   4.566  0.0715 -2.4258  1.3378
 5963SOL    HW229523   0.569   1.588   4.526  1.0660 -0.2031 -1.2027
 5964SOL     OW29524   3.005   1.753   8.292 -0.2528 -0.0142 -0.1318
 5964SOL    HW129525   3.041   1.825   8.241  1.3375  0.7973  2.1535
 5964SOL    HW229526   2.956   1.792   8.364  0.5464  0.2170  0.2891
 5965SOL     OW29527   1.624   1.099   8.991 -0.6192 -0.1385  0.0574
 5965SOL    HW129528   1.618   1.148   9.073 -1.9282  0.2078 -0.2345
 5965SOL    HW229529   1.693   1.036   9.012  0.7208  2.3967  3.4137
 5966SOL     OW29530   1.190   0.168   8.258 -0.8496 -0.1945 -0.0880
 5966SOL    HW129531   1.120   0.188   8.196 -0.4112  0.8537 -0.2492
 5966SOL    HW229532   1.221   0.083   8.228  0.5625 -0.2935  1.6523
 5967SOL     OW29533   2.835   2.213  16.916  0.1056  0.3728  0.2547
 5967SOL    HW129534   2.759   2.181  16.869  1.2365 -1.2744 -0.4413
 5967SOL    HW229535   2.878   2.137  16.955 -0.1731  0.2623  0.3425
 5968SOL     OW29536   3.412   2.874   4.201 -0.1348 -0.0044 -0.7324
 5968SOL    HW129537   3.332   2.862   4.150 -1.9878  2.8572  1.5564
 5968SOL    HW229538   3.422   2.969   4.196  2.4564 -0.1849  1.0734
 5969SOL     OW29539   3.184   3.339  10.204 -0.3002  0.4253 -0.1031
 5969SOL    HW129540   3.206   3.249  10.181 -0.3958  0.5632 -0.7340
 5969SOL    HW229541   3.166   3.381  10.120  1.3490 -0.8870 -1.1004
 5970SOL     OW29542   1.952   0.318   4.533  0.2934 -0.0721  0.3152
 5970SOL    HW129543   1.956   0.280   4.446 -2.6911  0.3003  0.0023
 5970SOL    HW229544   1.987   0.241   4.577  0.2383 -0.4158 -0.2502
 5971SOL     OW29545   4.368   0.317  10.429  0.3349 -0.2039  0.1714
 5971SOL    HW129546   4.352   0.393  10.372 -0.1521 -0.0579  0.4946
 5971SOL    HW229547   4.279   0.282  10.431 -1.2243  3.7738  0.9403
 5972SOL     OW29548   2.373   3.098   6.785 -0.1421 -0.1581 -0.7458
 5972SOL    HW129549   2.285   3.108   6.823 -0.3411 -0.9234 -1.0030
 5972SOL    HW229550   2.358   3.034   6.714 -0.0691 -3.5585  2.3056
 5973SOL     OW29551   4.476   4.481   7.902  0.0536 -0.1642  0.5725
 5973SOL    HW129552   4.537   4.407   7.896  0.2106  0.0454 -0.4669
 5973SOL    HW229553   4.478   4.509   7.993 -0.5403  0.7303  0.3041
 5974SOL     OW29554   3.641   2.403  13.476  0.2916  0.2180 -0.0824
 5974SOL    HW129555   3.719   2.388  13.529  1.4822  2.8870 -1.1216
 5974SOL    HW229556   3.601   2.317  13.462 -0.6954  0.5091  0.8915
 5975SOL     OW29557   0.897   1.847   3.205 -0.3365  0.1338 -0.3219
 5975SOL    HW129558   0.823   1.830   3.264  1.2218 -1.3151  1.2011
 5975SOL    HW229559   0.963   1.878   3.267 -2.7384 -1.6822  3.1442
 5976SOL     OW29560   1.718   0.881   3.648 -0.5371  0.6736  0.0476
 5976SOL    HW129561   1.660   0.857   3.576 -2.4080 -0.5724  1.9806
 5976SOL    HW229562   1.730   0.798   3.694 -0.8495  0.0163 -1.0499
 5977SOL     OW29563   4.268   3.338   5.668  0.0696  0.4510  0.7932
 5977SOL    HW129564   4.300   3.248   5.669  1.2003  0.8451 -0.0335
 5977SOL    HW229565   4.220   3.338   5.751 -0.2793  1.2649  0.5893
 5978SOL     OW29566   3.099   0.573   9.559 -0.0744 -0.1423  0.0874
 5978SOL    HW129567   3.073   0.662   9.584  0.0001 -0.3329  0.8724
 5978SOL    HW229568   3.168   0.600   9.500 -0.6087 -0.0829 -0.5136
 5979SOL     OW29569   0.061   1.424   3.490  0.1675 -0.1766  0.2667
 5979SOL    HW129570   0.137   1.444   3.545  0.8372 -0.9992 -0.3820
 5979SOL    HW229571   0.103   1.420   3.405  1.0513  0.5287  0.6689
 5980SOL     OW29572   2.078   2.671  10.913  0.1437 -0.3198 -0.7573
 5980SOL    HW129573   2.120   2.757  10.911 -0.5804  0.0363 -0.6975
 5980SOL    HW229574   2.139   2.622  10.967 -1.1384 -0.6392  0.4186
 5981SOL     OW29575   1.633   3.144   5.811  0.3192  0.2557  0.6921
 5981SOL    HW129576   1.698   3.202   5.851  0.8228 -1.0900  1.8576
 5981SOL    HW229577   1.682   3.061   5.802  2.7943  1.7949 -0.1401
 5982SOL     OW29578   1.856   0.847   7.555 -0.2817  0.5236 -0.5139
 5982SOL    HW129579   1.783   0.830   7.615  2.5860  0.9091  3.0806
 5982SOL    HW229580   1.925   0.789   7.586  0.1791  0.7211 -1.1695
 5983SOL     OW29581   2.375   2.312   4.441  0.2255 -0.3422  0.3872
 5983SOL    HW129582   2.363   2.261   4.521 -0.5155  0.4072  0.7481
 5983SOL    HW229583   2.305   2.279   4.384  2.9128 -1.3683 -2.3212
 5984SOL     OW29584   3.066   2.153   6.242 -0.5265 -0.4242 -0.9478
 5984SOL    HW129585   3.000   2.088   6.217  0.8989 -2.3137  0.1432
 5984SOL    HW229586   3.122   2.092   6.290  0.9752  0.2659 -1.8170
 5985SOL     OW29587   3.573   2.788   9.795  0.2937  0.1081 -0.2058
 5985SOL    HW129588   3.595   2.714   9.850 -0.1604 -0.9936 -1.4965
 5985SOL    HW229589   3.614   2.752   9.716 -0.2456 -1.3123  0.1746
 5986SOL     OW29590   3.211   3.408   9.404 -0.0180 -0.6406  0.0984
 5986SOL    HW129591   3.144   3.387   9.339 -0.5648 -0.9412  0.7550
 5986SOL    HW229592   3.198   3.338   9.468  2.9398 -0.0693  1.3254
 5987SOL     OW29593   4.480   0.283   2.387 -0.2545  0.1524  0.3115
 5987SOL    HW129594   4.406   0.224   2.373  0.1134  0.2201 -1.8028
 5987SOL    HW229595   4.552   0.225   2.412 -1.2109 -0.8764  0.7142
 5988SOL     OW29596   3.450   2.460   6.939  0.0054 -0.1428  0.0645
 5988SOL    HW129597   3.412   2.476   6.853  1.3631  3.1477  0.0683
 5988SOL    HW229598   3.405   2.514   7.005 -1.7743 -1.0078 -0.4518
 5989SOL     OW29599   0.554   0.614   9.698 -0.3924 -0.2176 -0.0259
 5989SOL    HW129600   0.558   0.690   9.640  1.1913  0.0887  0.5077
 5989SOL    HW229601   0.479   0.633   9.755 -0.5297 -1.8807  0.3443
 5990SOL     OW29602   4.683   2.014   3.013  0.3174  0.1758  0.1617
 5990SOL    HW129603   0.032   1.967   3.007  1.2143  1.3810  3.2275
 5990SOL    HW229604   4.622   1.940   3.018 -0.1542  0.4867 -1.2054
 5991SOL     OW29605   0.612   3.530   4.654 -0.0565  0.1654 -0.2875
 5991SOL    HW129606   0.599   3.593   4.583  1.0285 -0.8468 -1.3882
 5991SOL    HW229607   0.696   3.489   4.632  0.2241 -0.7409  2.4495
 5992SOL     OW29608   3.859   4.494   5.812  0.0349  0.0630  0.3981
 5992SOL    HW129609   3.837   4.509   5.720  0.4377  1.3041  0.5044
 5992SOL    HW229610   3.774   4.501   5.857 -0.0455 -0.7219  0.3704
 5993SOL     OW29611   2.588   2.362   5.109 -0.1841 -0.3854  0.2912
 5993SOL    HW129612   2.615   2.320   5.028  0.8774 -0.3642  0.6421
 5993SOL    HW229613   2.493   2.355   5.118 -0.3158 -1.7606 -2.3118
 5994SOL     OW29614   3.178   1.099   4.514  0.2348  0.0175 -0.3018
 5994SOL    HW129615   3.196   1.123   4.423  2.5585  1.5883  0.5709
 5994SOL    HW229616   3.158   1.006   4.504  1.6180 -0.3681  0.6711
 5995SOL     OW29617   1.428   2.106   5.513  0.3485  0.6283 -0.2053
 5995SOL    HW129618   1.424   2.194   5.551  2.8109  0.2419  0.9538
 5995SOL    HW229619   1.421   2.047   5.587 -2.0683  1.4841  0.2531
 5996SOL     OW29620   0.143   2.883   0.185 -0.2084 -0.1495  0.0002
 5996SOL    HW129621   0.058   2.853   0.217 -1.9278  1.7500 -2.8215
 5996SOL    HW229622   0.171   2.946   0.252  4.3682 -0.4238 -1.6927
 5997SOL     OW29623   4.538   0.308   7.640 -0.3947  0.3944 -0.2725
 5997SOL    HW129624   4.511   0.291   7.550  1.7132  1.1324 -1.0327
 5997SOL    HW229625   4.554   0.220   7.674  1.4011  0.9873  0.4074
 5998SOL     OW29626   1.563   3.113   6.908  0.3085 -0.4751 -0.3002
 5998SOL    HW129627   1.482   3.107   6.958 -0.4594 -1.3644 -1.6457
 5998SOL    HW229628   1.582   3.019   6.908 -0.2819 -0.5931  2.8378
 5999SOL     OW29629   4.514   3.469   6.976  0.5231 -0.1100  0.1430
 5999SOL    HW129630   4.457   3.532   6.934  0.2725  0.3547  1.1654
 5999SOL    HW229631   4.554   3.533   7.035 -0.5075  0.5354  0.1369
 6000SOL     OW29632   3.145   2.166   7.613 -0.2046  0.4084  0.2207
 6000SOL    HW129633   3.232   2.172   7.576 -0.1792  1.1834  0.4018
 6000SOL    HW229634   3.142   2.256   7.645 -0.5879  0.5752 -0.2790
 6001SOL     OW29635   1.496   3.960   0.538 -0.3106 -0.4930 -0.5169
 6001SOL    HW129636   1.568   4.001   0.585  0.1865 -3.5190  1.3616
 6001SOL    HW229637   1.452   4.038   0.504 -0.1291 -0.3696 -0.4697
 6002SOL     OW29638   1.725   0.998  15.854 -0.5493  0.0981  0.3796
 6002SOL    HW129639   1.689   0.966  15.771 -0.2827  1.7933 -0.3947
 6002SOL    HW229640   1.744   1.089  15.833 -0.5552  0.0938  0.3553
 6003SOL     OW29641   0.139   2.266   2.464  0.5223  0.1551  0.1602
 6003SOL    HW129642   0.221   2.233   2.427  0.8395  0.0145  0.9774
 6003SOL    HW229643   0.158   2.359   2.449  1.8180  0.1681  1.9159
 6004SOL     OW29644   0.411   1.004   7.744  0.7086  0.8730 -0.6962
 6004SOL    HW129645   0.415   1.099   7.757  0.9566  0.3869  2.7948
 6004SOL    HW229646   0.386   0.980   7.833  1.3232  1.4041 -0.3814
 6005SOL     OW29647   3.001   3.334   9.204  0.0811 -0.1474 -0.2518
 6005SOL    HW129648   3.050   3.257   9.233 -0.8307 -1.8933 -3.2979
 6005SOL    HW229649   2.928   3.294   9.157 -2.4557  4.4403 -0.1617
 6006SOL     OW29650   1.518   1.133  14.071  0.2233  0.4252  0.2801
 6006SOL    HW129651   1.568   1.212  14.092  1.1424 -0.1506  0.2747
 6006SOL    HW229652   1.574   1.056  14.084 -1.8552 -0.8546  1.6267
 6007SOL     OW29653   1.270   4.162   0.126  0.4373  0.4008  1.1294
 6007SOL    HW129654   1.337   4.101   0.095 -0.5789 -0.2161  0.1484
 6007SOL    HW229655   1.243   4.196   0.040 -2.5539 -2.0517  1.1031
 6008SOL     OW29656   3.308   3.888   4.396  0.0400  0.0438 -0.1447
 6008SOL    HW129657   3.338   3.936   4.319 -2.2892  0.7661 -0.6224
 6008SOL    HW229658   3.222   3.926   4.416 -0.8494 -0.7817 -2.3073
 6009SOL     OW29659   3.382   1.359   4.574  0.6274  0.5581 -0.7123
 6009SOL    HW129660   3.378   1.371   4.479  2.0449  0.6396 -0.7573
 6009SOL    HW229661   3.308   1.415   4.598 -0.6360 -0.1586 -2.8935
 6010SOL     OW29662   4.159   3.689   5.874 -0.2750 -0.6298  0.0332
 6010SOL    HW129663   4.176   3.783   5.874  0.2165 -0.7253 -0.6860
 6010SOL    HW229664   4.243   3.665   5.913 -1.2342 -1.4220  1.6407
 6011SOL     OW29665   2.768   0.388   7.428  0.5606  0.0345  0.2809
 6011SOL    HW129666   2.752   0.450   7.500 -2.9430  0.3971 -0.8588
 6011SOL    HW229667   2.686   0.400   7.382  1.2813  0.0892 -0.9906
 6012SOL     OW29668   3.526   1.633  15.613 -0.1712  0.1230 -0.8492
 6012SOL    HW129669   3.619   1.614  15.598  1.1304  3.7060  2.8237
 6012SOL    HW229670   3.519   1.646  15.707 -0.2715 -1.0036 -0.7101
 6013SOL     OW29671   2.566   0.204   5.821  0.0952  0.2842  0.1671
 6013SOL    HW129672   2.650   0.158   5.822 -1.0229 -1.7988  0.2339
 6013SOL    HW229673   2.594   0.289   5.855  2.9567 -0.7101  0.2972
 6014SOL     OW29674   0.597   3.175   8.581  0.4196 -0.1199  0.1166
 6014SOL    HW129675   0.614   3.214   8.495  0.6418  0.6323  0.5030
 6014SOL    HW229676   0.663   3.223   8.631  1.3798 -0.6452 -0.6283
 6015SOL     OW29677   1.027   1.988   5.791 -0.1242  0.1933 -0.3485
 6015SOL    HW129678   1.037   2.075   5.752 -0.9065  0.9047  1.0591
 6015SOL    HW229679   1.009   1.936   5.712  0.9482 -1.1436  0.2976
 6016SOL     OW29680   1.721   3.488  11.013 -0.1926 -0.0123  0.5993
 6016SOL    HW129681   1.636   3.468  11.054  0.3892  0.3085  1.9481
 6016SOL    HW229682   1.699   3.501  10.921 -3.7298 -1.9185  1.1570
 6017SOL     OW29683   0.293   0.432  10.129  0.6075  0.0499 -0.6276
 6017SOL    HW129684   0.352   0.480  10.187  0.1714 -0.7361  0.4856
 6017SOL    HW229685   0.301   0.488  10.052 -0.3000  1.8998  0.6034
 6018SOL     OW29686   3.566   0.957   7.487  0.1661 -0.4207  0.0814
 6018SOL    HW129687   3.521   0.932   7.568  0.0287  1.2665  0.5170
 6018SOL    HW229688   3.658   0.947   7.513 -0.1846  0.4985  1.6698
 6019SOL     OW29689   0.644   4.507  12.905 -0.3540 -0.3845  0.3008
 6019SOL    HW129690   0.652   4.602  12.901 -1.1685 -0.2882  0.8988
 6019SOL    HW229691   0.550   4.495  12.916 -0.0210 -0.4549  3.3110
 6020SOL     OW29692   3.653   0.365   0.589  0.4887  0.4427  0.3841
 6020SOL    HW129693   3.647   0.341   0.496 -0.3269  1.1479  0.2523
 6020SOL    HW229694   3.742   0.333   0.603  0.5506  0.4282 -0.0263
 6021SOL     OW29695   2.139   1.312  13.963  0.7874  0.2758 -0.0150
 6021SOL    HW129696   2.089   1.338  13.885 -2.0137  0.3324  1.7876
 6021SOL    HW229697   2.073   1.309  14.032 -0.0239  0.4001 -0.7751
 6022SOL     OW29698   0.497   4.480   2.102  0.3515 -0.2829 -0.0483
 6022SOL    HW129699   0.409   4.444   2.092 -0.0285  0.8156 -0.6522
 6022SOL    HW229700   0.492   4.502   2.194  0.5293  0.7062 -0.2774
 6023SOL     OW29701   0.004   3.759   8.312  0.1383  0.0401  0.4429
 6023SOL    HW129702   4.723   3.776   8.405  1.4083 -1.2800  0.8993
 6023SOL    HW229703   4.650   3.741   8.281  0.3260  0.2996 -0.2508
 6024SOL     OW29704   4.605   1.994  16.992  0.5357 -0.2519  0.1550
 6024SOL    HW129705   4.587   2.045  16.913  2.4032 -2.0121 -1.4317
 6024SOL    HW229706   4.570   1.906  16.978  1.0271 -0.7356  2.0357
 6025SOL     OW29707   1.809   1.618  12.364  0.1499  0.2182 -0.0365
 6025SOL    HW129708   1.832   1.526  12.377  0.2957  0.2323 -0.1850
 6025SOL    HW229709   1.896   1.660  12.362  0.4148 -0.3534 -0.5679
 6026SOL     OW29710   2.625   3.608   7.730 -0.0168  0.1461 -0.4568
 6026SOL    HW129711   2.586   3.545   7.791 -2.9238  2.9660  0.5859
 6026SOL    HW229712   2.716   3.622   7.753 -0.4852  2.7071 -0.2079
 6027SOL     OW29713   2.045   1.458   8.375 -0.9859  0.1071 -0.9783
 6027SOL    HW129714   2.116   1.508   8.336 -1.2720  0.3317 -1.2063
 6027SOL    HW229715   2.088   1.395   8.434  0.3570  0.6825 -1.3579
 6028SOL     OW29716   2.805   0.108   1.743  0.1797  0.3271 -0.1707
 6028SOL    HW129717   2.785   0.022   1.781 -0.6617  1.4723  2.0166
 6028SOL    HW229718   2.851   0.147   1.818 -0.0176  0.2977 -0.0316
 6029SOL     OW29719   3.968   2.177   7.572 -0.3576 -0.0458 -0.8759
 6029SOL    HW129720   3.958   2.243   7.504  0.0045 -0.1688 -1.0537
 6029SOL    HW229721   4.061   2.162   7.551 -0.3859 -0.3961 -0.7576
 6030SOL     OW29722   3.289   1.211   8.312  0.6219  0.0967  0.0820
 6030SOL    HW129723   3.282   1.300   8.346  1.5172 -0.0289  0.6048
 6030SOL    HW229724   3.254   1.213   8.223 -0.9911 -1.8632  0.6722
 6031SOL     OW29725   4.337   3.153  14.097 -0.5174  0.4758  0.1952
 6031SOL    HW129726   4.371   3.192  14.017  2.5318 -0.7620  0.8760
 6031SOL    HW229727   4.414   3.099  14.113 -0.5600 -0.2427 -2.1141
 6032SOL     OW29728   0.620   3.010   2.530  0.3827  0.6157  0.1851
 6032SOL    HW129729   0.623   3.097   2.569 -0.4550  1.0447 -0.7124
 6032SOL    HW229730   0.555   2.969   2.587 -0.0238 -0.1956 -0.8540
 6033SOL     OW29731   0.908   3.059  14.206  0.3082  0.0542  0.7697
 6033SOL    HW129732   0.940   3.007  14.280  1.1911 -0.7665 -0.1931
 6033SOL    HW229733   0.863   3.126  14.258 -1.0953 -0.0559 -0.3021
 6034SOL     OW29734   1.906   2.475   4.689  0.5535  0.0481 -0.4877
 6034SOL    HW129735   1.910   2.515   4.603  0.3698  0.6452 -0.2221
 6034SOL    HW229736   1.885   2.383   4.675 -0.1109 -0.0258  0.8972
 6035SOL     OW29737   0.090   2.528   1.338 -0.2864  1.0375  0.1703
 6035SOL    HW129738   0.001   2.505   1.366 -0.8816  0.3416 -2.3214
 6035SOL    HW229739   0.088   2.498   1.247 -3.1867  1.3946  0.1073
 6036SOL     OW29740   0.854   0.345   9.131 -0.1918  0.0886  0.0072
 6036SOL    HW129741   0.897   0.430   9.135  0.7915 -0.3901 -0.3095
 6036SOL    HW229742   0.764   0.367   9.110 -0.7557 -0.3264  1.9450
 6037SOL     OW29743   3.190   1.213  10.413 -0.0894 -0.0902  0.5080
 6037SOL    HW129744   3.225   1.187  10.328 -0.6090  0.1303  0.2294
 6037SOL    HW229745   3.122   1.271  10.379 -0.8292  0.0726  2.2687
 6038SOL     OW29746   3.483   2.775   3.758 -0.0357 -0.5333 -0.1529
 6038SOL    HW129747   3.570   2.749   3.787  0.2141  2.7085  1.9468
 6038SOL    HW229748   3.445   2.694   3.722 -0.4684 -0.2931 -0.2315
 6039SOL     OW29749   4.090   4.317   2.306 -0.3543 -0.2366 -0.1160
 6039SOL    HW129750   4.028   4.304   2.234  1.0575 -3.2026 -0.7953
 6039SOL    HW229751   4.144   4.387   2.270 -3.1648  1.0230 -1.9054
 6040SOL     OW29752   4.651   0.999   4.920  0.1257 -0.0817  0.1996
 6040SOL    HW129753   4.567   0.965   4.888  1.1313 -2.5989  0.3134
 6040SOL    HW229754   4.619   1.059   4.988  1.0426 -0.5349  1.0270
 6041SOL     OW29755   4.309   2.552   3.306 -0.1790  0.0421 -0.0304
 6041SOL    HW129756   4.311   2.464   3.270 -1.9533  0.5760 -1.4124
 6041SOL    HW229757   4.378   2.547   3.373  0.3673 -0.3499 -0.6207
 6042SOL     OW29758   3.996   0.675  15.976 -0.4655  0.2635  0.4402
 6042SOL    HW129759   4.075   0.709  16.016 -0.5189 -1.6114  2.1402
 6042SOL    HW229760   4.002   0.710  15.887 -0.0574 -1.8715 -0.3763
 6043SOL     OW29761   2.757   2.216   9.673  0.1201 -0.0986 -0.2842
 6043SOL    HW129762   2.832   2.276   9.669  0.0656 -0.0113  0.0309
 6043SOL    HW229763   2.732   2.229   9.764  2.3450 -0.1578  0.3446
 6044SOL     OW29764   1.213   2.892   8.201 -0.2059 -0.1435  0.0438
 6044SOL    HW129765   1.299   2.910   8.163  0.0323 -1.3943  0.0089
 6044SOL    HW229766   1.188   2.978   8.236 -0.6804 -0.2668  0.0042
 6045SOL     OW29767   1.523   1.446  12.233  0.2788  0.0039 -0.2408
 6045SOL    HW129768   1.480   1.530  12.221  3.1828  1.5829  0.5022
 6045SOL    HW229769   1.463   1.406  12.297  0.0996 -0.7276 -0.8636
 6046SOL     OW29770   1.187   0.689  13.986  0.3054  0.8350  0.3913
 6046SOL    HW129771   1.096   0.681  13.956  0.3186  1.1909  0.2556
 6046SOL    HW229772   1.187   0.773  14.033 -1.3969  0.1457  1.6544
 6047SOL     OW29773   0.226   0.423   8.176  0.1031 -0.4277 -0.2346
 6047SOL    HW129774   0.210   0.516   8.186  0.2731 -0.6732  2.1752
 6047SOL    HW229775   0.144   0.386   8.208  0.7589  0.7593  2.7696
 6048SOL     OW29776   3.658   0.051  11.326 -0.4779 -0.6601 -0.3488
 6048SOL    HW129777   3.609   0.130  11.347 -0.2398 -0.3657 -0.8994
 6048SOL    HW229778   3.725   0.092  11.272  0.8385 -0.5025  1.4045
 6049SOL     OW29779   2.124   0.790  14.706  0.1655 -0.7359 -0.0577
 6049SOL    HW129780   2.034   0.758  14.711  0.4676 -1.6558 -0.6746
 6049SOL    HW229781   2.174   0.712  14.731  0.4941 -0.8732 -1.1439
 6050SOL     OW29782   1.014   1.617   9.850 -0.6804 -0.2016  0.3300
 6050SOL    HW129783   1.089   1.665   9.885 -1.4378  0.5105  0.9629
 6050SOL    HW229784   0.949   1.639   9.916 -1.1547  0.3649 -0.3250
 6051SOL     OW29785   3.107   2.597   4.433 -0.1503 -0.1149 -0.0022
 6051SOL    HW129786   3.072   2.584   4.345 -0.5489  0.1409  0.1225
 6051SOL    HW229787   3.134   2.505   4.441 -2.6769 -0.8387  0.1153
 6052SOL     OW29788   0.911   0.653  14.862 -0.1148  0.2391 -0.4144
 6052SOL    HW129789   1.004   0.630  14.866  0.5416  3.1467  0.9731
 6052SOL    HW229790   0.912   0.745  14.838  0.7428  0.0097 -1.2567
 6053SOL     OW29791   2.828   1.490  11.395  0.2728  0.5927  0.3787
 6053SOL    HW129792   2.841   1.436  11.473 -0.3454  0.0464  0.0935
 6053SOL    HW229793   2.806   1.420  11.334  0.6593  1.1884 -0.4402
 6054SOL     OW29794   1.159   2.754   2.399  0.0180  0.7003 -0.3165
 6054SOL    HW129795   1.221   2.755   2.326  0.0112  0.5700 -0.3233
 6054SOL    HW229796   1.143   2.661   2.411 -0.3560  0.7935 -0.0900
 6055SOL     OW29797   1.417   1.116  16.847 -1.0285 -0.1254 -0.2273
 6055SOL    HW129798   1.466   1.102  16.927 -1.8351  1.3733  0.5171
 6055SOL    HW229799   1.441   1.204  16.819  0.9911 -0.2716  1.1032
 6056SOL     OW29800   1.726   1.859   5.848  0.7300 -0.0766  0.0492
 6056SOL    HW129801   1.818   1.883   5.837  1.3946 -0.9265  3.5494
 6056SOL    HW229802   1.693   1.949   5.853 -1.3414 -0.8715  1.0341
 6057SOL     OW29803   3.058   1.799  14.441  0.5490  0.2558  0.5232
 6057SOL    HW129804   3.039   1.836  14.355  1.7537  0.1728  0.2144
 6057SOL    HW229805   3.104   1.722  14.406  1.6667  1.0879  0.1742
 6058SOL     OW29806   3.107   1.833   4.395 -0.7680 -0.0370 -0.3102
 6058SOL    HW129807   3.159   1.907   4.426  2.2446 -2.0806 -0.4537
 6058SOL    HW229808   3.098   1.853   4.302 -0.1543  1.4929 -0.0268
 6059SOL     OW29809   2.707   0.917   3.080  0.3703 -0.4980  0.8467
 6059SOL    HW129810   2.781   0.978   3.085  0.4799 -0.7215  2.0969
 6059SOL    HW229811   2.711   0.900   2.986 -3.1693 -1.5627  0.9054
 6060SOL     OW29812   3.825   1.226   7.770 -0.8833 -0.2439  0.1410
 6060SOL    HW129813   3.868   1.234   7.855 -2.4758 -1.1026  1.0282
 6060SOL    HW229814   3.822   1.320   7.753  0.1899 -0.2412 -0.0203
 6061SOL     OW29815   1.320   0.151   0.372  0.1490  0.6621 -0.5341
 6061SOL    HW129816   1.380   0.223   0.355  2.3803 -1.0451  0.1952
 6061SOL    HW229817   1.333   0.136   0.465 -0.6162 -0.2952 -0.5802
 6062SOL     OW29818   2.696   1.261  13.185  0.8458 -0.1330 -0.1470
 6062SOL    HW129819   2.614   1.287  13.144  2.2004  3.0881 -0.8123
 6062SOL    HW229820   2.719   1.336  13.241 -0.8614 -1.0050  1.7447
 6063SOL     OW29821   3.734   4.422  15.731  0.2818 -0.1485 -0.0816
 6063SOL    HW129822   3.805   4.400  15.671 -1.0476 -3.3750 -0.4538
 6063SOL    HW229823   3.688   4.488  15.680  0.9485 -0.3523 -0.9436
 6064SOL     OW29824   2.190   0.547   2.975  0.2157  0.0680 -0.2016
 6064SOL    HW129825   2.144   0.500   2.906  0.8643  0.1935 -0.7244
 6064SOL    HW229826   2.127   0.619   2.979 -0.4078 -0.4225 -1.1440
 6065SOL     OW29827   3.917   3.046   5.706 -0.2121  0.3531 -0.3874
 6065SOL    HW129828   3.919   3.089   5.791  2.7142  0.6641 -0.6095
 6065SOL    HW229829   3.921   3.120   5.645  0.9687  1.0206  0.5279
 6066SOL     OW29830   1.063   4.049   9.297 -0.0271  0.1064 -0.2598
 6066SOL    HW129831   1.127   3.992   9.253 -0.2083 -0.0624 -0.3024
 6066SOL    HW229832   1.117   4.107   9.351  0.3457  0.2781 -0.8087
 6067SOL     OW29833   3.042   2.738  14.365  0.9482 -0.2377  0.4074
 6067SOL    HW129834   3.116   2.746  14.305  0.2445  0.0601 -0.4250
 6067SOL    HW229835   3.003   2.823  14.347  2.7552  0.4241 -0.4127
 6068SOL     OW29836   3.407   1.602   7.436 -0.0287  0.0387 -0.1758
 6068SOL    HW129837   3.316   1.627   7.452 -0.4120 -1.1056 -0.5718
 6068SOL    HW229838   3.404   1.509   7.457 -2.1465 -0.1820 -1.4674
 6069SOL     OW29839   4.512   3.024   8.036  0.1979 -0.1536 -0.1326
 6069SOL    HW129840   4.514   3.053   8.128  0.9725  0.3322 -0.2971
 6069SOL    HW229841   4.421   3.033   8.010  0.5285 -0.4003 -1.3719
 6070SOL     OW29842   3.307   3.861   5.291  0.6494 -0.2700 -0.2915
 6070SOL    HW129843   3.291   3.947   5.329 -1.5796 -0.9954  0.4254
 6070SOL    HW229844   3.355   3.828   5.367 -1.9409 -2.4186  0.4276
 6071SOL     OW29845   0.492   1.890  15.103 -0.1563  0.0798 -0.3411
 6071SOL    HW129846   0.421   1.832  15.130  0.5569 -0.8278 -0.4010
 6071SOL    HW229847   0.537   1.918  15.183  1.0522 -1.9373 -0.3135
 6072SOL     OW29848   1.096   1.448   3.547 -0.6675 -0.7948  0.1137
 6072SOL    HW129849   1.148   1.496   3.612 -1.0721  0.0406 -0.1768
 6072SOL    HW229850   1.160   1.404   3.490 -0.1515  0.1664 -0.0533
 6073SOL     OW29851   4.211   4.167   3.694  0.0842 -0.1299 -0.3940
 6073SOL    HW129852   4.219   4.100   3.761  0.0277  1.4962  1.2126
 6073SOL    HW229853   4.153   4.129   3.628 -0.3926  0.4315 -0.2965
 6074SOL     OW29854   3.397   1.912   7.048 -0.4960  0.2269 -0.2497
 6074SOL    HW129855   3.414   1.875   7.134  2.8099  0.6188 -0.7399
 6074SOL    HW229856   3.349   1.993   7.065 -1.5206 -0.7956  1.6962
 6075SOL     OW29857   0.406   3.369  10.860  0.0256  0.1808  0.7253
 6075SOL    HW129858   0.367   3.415  10.786  0.5707  0.2626  0.4884
 6075SOL    HW229859   0.450   3.302  10.808 -0.2754 -0.8025  1.7324
 6076SOL     OW29860   0.988   2.853   2.797 -0.0875  0.8423 -0.5041
 6076SOL    HW129861   0.996   2.772   2.846  0.2552  0.3266 -1.3960
 6076SOL    HW229862   0.896   2.863   2.822 -0.5088 -0.9821 -1.3232
 6077SOL     OW29863   0.477   0.681   1.747 -0.0935 -0.0672  0.0688
 6077SOL    HW129864   0.503   0.718   1.832 -2.2461 -0.3610  0.8591
 6077SOL    HW229865   0.398   0.638   1.779 -0.3398  1.9438  2.1789
 6078SOL     OW29866   2.250   0.147   6.842  0.7381 -0.0612 -0.1878
 6078SOL    HW129867   2.227   0.055   6.855 -0.0010  0.4116  1.9397
 6078SOL    HW229868   2.345   0.147   6.852  0.7460 -0.2438 -0.2612
 6079SOL     OW29869   1.486   1.484  11.901 -0.5590  0.2684  0.3606
 6079SOL    HW129870   1.442   1.550  11.847  0.9061  0.7168 -0.2608
 6079SOL    HW229871   1.418   1.475  11.968  0.9146 -1.5571  1.6031
 6080SOL     OW29872   3.181   3.791   8.020 -0.0717 -0.7881  0.5385
 6080SOL    HW129873   3.223   3.835   8.093  0.5526 -1.3326  0.5104
 6080SOL    HW229874   3.160   3.869   7.968  0.7969 -0.7996  0.1632
 6081SOL     OW29875   3.748   1.425   6.653  0.0810 -0.5381  0.2826
 6081SOL    HW129876   3.732   1.361   6.723  2.2004 -1.4380 -0.0594
 6081SOL    HW229877   3.807   1.487   6.695 -1.8804  2.7723 -1.8084
 6082SOL     OW29878   3.435   3.627  15.022 -0.7125 -0.0986 -0.0879
 6082SOL    HW129879   3.492   3.681  15.076  1.0203 -0.0763 -1.9074
 6082SOL    HW229880   3.413   3.567  15.093  1.6277  1.9718  2.3650
 6083SOL     OW29881   3.914   3.609   6.891  0.0299  0.3158 -0.4163
 6083SOL    HW129882   3.848   3.627   6.957  0.3460  0.0527 -0.0333
 6083SOL    HW229883   3.862   3.606   6.811 -0.1671  0.6965 -0.2996
 6084SOL     OW29884   1.687   2.593   2.120  0.1576  0.0967 -0.4360
 6084SOL    HW129885   1.748   2.573   2.192 -0.1125  0.6645 -0.0451
 6084SOL    HW229886   1.613   2.538   2.146  2.5585 -2.9651 -0.0127
 6085SOL     OW29887   1.168   3.877  16.883  0.4537  0.3118 -0.0777
 6085SOL    HW129888   1.163   3.876  16.787  0.4010 -0.6622 -0.0724
 6085SOL    HW229889   1.218   3.796  16.897 -1.3597 -0.9885 -1.0511
 6086SOL     OW29890   3.369   1.805   3.091  0.1386 -0.2474  0.2144
 6086SOL    HW129891   3.316   1.783   3.167 -1.3238  0.5323 -0.5785
 6086SOL    HW229892   3.350   1.727   3.040  3.0237  0.1654 -1.5268
 6087SOL     OW29893   4.018   0.036   1.259 -0.0932  0.4047 -0.5990
 6087SOL    HW129894   3.995   0.128   1.245  2.3767  1.3404  1.4597
 6087SOL    HW229895   3.936   4.725   1.240  0.6409 -0.3182 -1.9460
 6088SOL     OW29896   2.936   0.364   9.662  0.4426 -0.5153  1.0830
 6088SOL    HW129897   2.864   0.412   9.704  0.0703  1.2920 -1.6460
 6088SOL    HW229898   2.999   0.429   9.633 -0.6903  1.1073  2.2372
 6089SOL     OW29899   3.651   2.751  10.888 -0.0596 -0.2295  0.3886
 6089SOL    HW129900   3.694   2.818  10.941 -0.1097  0.8683 -0.9461
 6089SOL    HW229901   3.557   2.765  10.887  0.0989  0.7658 -1.5402
 6090SOL     OW29902   3.219   3.821   6.298  0.0214  0.1435 -0.2871
 6090SOL    HW129903   3.289   3.811   6.234  1.4440  1.0778  1.1247
 6090SOL    HW229904   3.241   3.762   6.370  0.5698  1.9869  1.0440
 6091SOL     OW29905   3.595   1.504   0.516 -0.7193  0.3192  0.5874
 6091SOL    HW129906   3.607   1.550   0.599  1.4196  0.6518  0.1069
 6091SOL    HW229907   3.681   1.463   0.505 -0.0994  1.7084  0.2231
 6092SOL     OW29908   4.215   2.847   4.638  0.3707 -0.3542  0.1066
 6092SOL    HW129909   4.121   2.865   4.624  0.2743  1.0853  2.6055
 6092SOL    HW229910   4.214   2.751   4.636  1.4617 -0.3858  1.5085
 6093SOL     OW29911   2.487   1.320   3.539  0.1379 -0.1452  0.5856
 6093SOL    HW129912   2.402   1.280   3.555 -0.0667 -0.1390 -0.4839
 6093SOL    HW229913   2.453   1.388   3.482  3.0263  1.9795  1.4144
 6094SOL     OW29914   4.664   2.328  12.670 -0.6778  0.1999 -0.4388
 6094SOL    HW129915   0.004   2.273  12.649 -0.9537 -0.5831  0.6828
 6094SOL    HW229916   4.593   2.267  12.650 -1.2905 -0.1202  2.7957
 6095SOL     OW29917   2.239   0.025   1.935  0.1787  0.2201 -0.5937
 6095SOL    HW129918   2.255   0.002   2.026  0.1225  1.0856 -0.3609
 6095SOL    HW229919   2.143   0.024   1.933  0.2331 -0.3677 -2.5052
 6096SOL     OW29920   0.617   1.621   2.875  0.2357  0.2643  0.4255
 6096SOL    HW129921   0.550   1.564   2.838  0.3261 -1.8174  3.4213
 6096SOL    HW229922   0.685   1.568   2.918  0.9284  0.9859  0.2073
 6097SOL     OW29923   2.139   3.399  15.017  0.1887  0.3312 -0.2547
 6097SOL    HW129924   2.073   3.463  15.044  1.7890  1.8840 -0.0677
 6097SOL    HW229925   2.123   3.397  14.922  1.6586  0.5921 -0.5042
 6098SOL     OW29926   4.432   2.851   1.372 -0.0083  0.1763 -0.1553
 6098SOL    HW129927   4.487   2.784   1.413  1.0586  0.5615 -0.9608
 6098SOL    HW229928   4.494   2.922   1.359 -0.5674  0.2589 -2.3812
 6099SOL     OW29929   1.289   2.998   5.133  0.2556 -0.2930  0.4288
 6099SOL    HW129930   1.254   3.080   5.167  4.4294  1.6056  0.1973
 6099SOL    HW229931   1.365   3.031   5.084 -0.2647  2.1098  1.2192
 6100SOL     OW29932   0.781   1.696   9.199 -0.2257 -0.3543 -0.0164
 6100SOL    HW129933   0.778   1.791   9.193 -1.6881 -0.2324  2.5177
 6100SOL    HW229934   0.866   1.676   9.239  0.4553  0.6329 -0.9914
 6101SOL     OW29935   3.811   0.790   3.979 -0.1074  0.0503 -0.1607
 6101SOL    HW129936   3.858   0.730   4.037 -0.0175  1.8769  1.6888
 6101SOL    HW229937   3.842   0.765   3.892 -2.6285  1.0980 -1.3645
 6102SOL     OW29938   1.188   2.944   2.965 -0.1518  0.2398  0.5008
 6102SOL    HW129939   1.105   2.940   2.918 -0.5212  1.8533  0.9958
 6102SOL    HW229940   1.158   2.923   3.054 -0.5120  0.7380  0.4959
 6103SOL     OW29941   0.931   0.399  17.008  0.2142 -0.0100  0.6858
 6103SOL    HW129942   0.912   0.305  17.005  1.2783 -0.1704 -0.6847
 6103SOL    HW229943   0.981   0.417  16.928 -0.1671 -0.6343  0.2991
 6104SOL     OW29944   2.769   1.237   6.099  0.0038 -0.3437 -0.7699
 6104SOL    HW129945   2.804   1.325   6.091  0.6664 -0.5699 -0.4165
 6104SOL    HW229946   2.812   1.191   6.026  1.3983 -0.4547  0.1184
 6105SOL     OW29947   2.306   0.354   5.687  0.1292  0.3378 -0.0508
 6105SOL    HW129948   2.333   0.312   5.768 -2.3190  0.6957  0.9646
 6105SOL    HW229949   2.213   0.366   5.710  0.1485  0.3343  0.0278
 6106SOL     OW29950   0.549   3.711   8.567  0.0253 -0.1349 -0.6901
 6106SOL    HW129951   0.509   3.796   8.585 -0.9052 -0.7895  0.2959
 6106SOL    HW229952   0.630   3.710   8.619 -0.5496 -0.1701  0.1990
 6107SOL     OW29953   2.670   0.297   4.585 -0.1098  0.2839  0.5957
 6107SOL    HW129954   2.677   0.208   4.552  3.0397  0.3061  1.2020
 6107SOL    HW229955   2.727   0.350   4.530  0.5766 -0.7227  0.3416
 6108SOL     OW29956   0.402   1.808   7.153 -0.8559  0.1311 -0.0769
 6108SOL    HW129957   0.478   1.852   7.115 -0.1743 -0.9337  0.0498
 6108SOL    HW229958   0.400   1.732   7.094  0.3729  0.8262 -1.0210
 6109SOL     OW29959   4.602   1.694   2.079 -0.2162 -0.1805 -0.0393
 6109SOL    HW129960   4.684   1.704   2.127  0.2555 -0.8715 -0.7062
 6109SOL    HW229961   4.615   1.745   2.000 -2.8552 -0.0689 -0.3958
 6110SOL     OW29962   3.972   3.056   1.456 -0.1244  0.1925  0.0397
 6110SOL    HW129963   4.062   3.055   1.487  0.0351 -0.2566 -0.4504
 6110SOL    HW229964   3.916   3.010   1.519  0.1916  1.7887  1.4794
 6111SOL     OW29965   0.291   4.127   3.615 -0.5072  0.3405 -0.3951
 6111SOL    HW129966   0.350   4.086   3.552 -1.5559 -0.4208 -0.8699
 6111SOL    HW229967   0.211   4.076   3.607  0.2559 -0.2953 -4.0369
 6112SOL     OW29968   0.470   1.922   4.209 -0.2835 -0.0487 -0.0861
 6112SOL    HW129969   0.458   1.966   4.125  2.1515 -1.1795 -1.0406
 6112SOL    HW229970   0.384   1.881   4.210  0.0439 -0.7354 -0.1797
 6113SOL     OW29971   4.121   3.112   8.294 -0.4393 -0.0504  0.0865
 6113SOL    HW129972   4.033   3.147   8.307  0.3746  1.8284  0.5633
 6113SOL    HW229973   4.182   3.169   8.342  0.5404  0.8575 -2.2520
 6114SOL     OW29974   0.627   2.576   2.277 -0.0100  0.3014 -0.5168
 6114SOL    HW129975   0.677   2.651   2.244  0.6184  1.0845  2.2085
 6114SOL    HW229976   0.541   2.582   2.235 -0.4631 -0.7021  0.2707
 6115SOL     OW29977   0.736   3.693  14.371  0.4252  0.0482  0.0732
 6115SOL    HW129978   0.728   3.600  14.352  1.6446 -0.3193  1.3621
 6115SOL    HW229979   0.651   3.718  14.407  0.5727  0.7564 -0.0653
 6116SOL     OW29980   1.818   2.515  12.636 -0.2212  0.2466  0.9590
 6116SOL    HW129981   1.759   2.450  12.674 -2.4164  0.2202 -2.4986
 6116SOL    HW229982   1.818   2.567  12.717 -0.4250  1.2648  0.3037
 6117SOL     OW29983   2.834   3.352   6.167  0.5631 -0.4598  0.4222
 6117SOL    HW129984   2.750   3.339   6.210 -0.0811  0.5580 -0.5300
 6117SOL    HW229985   2.886   3.395   6.235 -0.5525  1.4530  0.0685
 6118SOL     OW29986   4.707   1.040   3.977 -0.0957 -0.1833 -0.0263
 6118SOL    HW129987   4.620   1.033   4.015 -0.1116 -0.9176 -0.2056
 6118SOL    HW229988   4.711   1.135   3.970  0.9452  0.0554  3.3540
 6119SOL     OW29989   4.037   3.680  12.579  0.1690 -0.0656 -0.6475
 6119SOL    HW129990   3.968   3.659  12.517  0.2448 -0.9783 -0.4206
 6119SOL    HW229991   4.031   3.775  12.572 -1.0153 -0.1255 -0.3167
 6120SOL     OW29992   3.066   1.144   9.386 -0.1698 -0.1489  0.0341
 6120SOL    HW129993   3.110   1.060   9.373 -1.9263 -1.0327 -0.1450
 6120SOL    HW229994   3.137   1.199   9.354  0.9362 -0.8890  1.1569
 6121SOL     OW29995   4.542   4.543   7.186 -0.4353  0.0806 -0.3171
 6121SOL    HW129996   4.452   4.565   7.165 -0.3709  2.6563  2.1203
 6121SOL    HW229997   4.590   4.594   7.120  2.2355 -0.1103  1.4615
 6122SOL     OW29998   3.758   2.608   0.954 -0.6683 -0.2615  0.1763
 6122SOL    HW129999   3.720   2.695   0.960  0.6351  0.4422 -1.8332
 6122SOL    HW230000   3.724   2.579   1.039 -1.8709 -0.2804 -0.3017
 6123SOL     OW30001   1.524   2.575   5.853  0.3765 -0.2766 -0.6691
 6123SOL    HW130002   1.521   2.671   5.844 -0.4014 -0.0458  2.2069
 6123SOL    HW230003   1.516   2.561   5.947  2.2867  2.1217 -0.1588
 6124SOL     OW30004   3.324   3.237  15.608 -0.0484  0.1525 -0.7523
 6124SOL    HW130005   3.270   3.284  15.544 -1.4305 -1.9103 -1.0730
 6124SOL    HW230006   3.351   3.298  15.677  1.5163 -1.1729 -0.1999
 6125SOL     OW30007   3.243   1.048   7.584 -0.5719 -0.0323 -0.2070
 6125SOL    HW130008   3.252   0.976   7.521 -0.7239  0.3625 -0.6744
 6125SOL    HW230009   3.240   1.131   7.537 -1.0845  2.0707  3.5434
 6126SOL     OW30010   2.091   2.681  15.113  0.0419 -0.4958  0.3951
 6126SOL    HW130011   2.020   2.638  15.066  1.4456 -0.6453 -1.6197
 6126SOL    HW230012   2.134   2.612  15.163  0.2560 -1.4052 -1.0445
 6127SOL     OW30013   2.622   2.805   7.764  0.2751  0.1407 -0.1881
 6127SOL    HW130014   2.562   2.870   7.800 -0.1460  0.0531 -0.7293
 6127SOL    HW230015   2.581   2.797   7.678  2.1432  0.7898 -1.1450
 6128SOL     OW30016   0.541   1.145   7.361 -0.0009 -0.2892  0.0488
 6128SOL    HW130017   0.516   1.158   7.270 -1.3877  2.2176  0.7935
 6128SOL    HW230018   0.452   1.125   7.391  1.1087 -2.2597  2.1231
 6129SOL     OW30019   2.036   1.170   9.368  0.0621  0.5176  0.0320
 6129SOL    HW130020   2.066   1.158   9.278 -0.0602 -1.1168  0.2099
 6129SOL    HW230021   1.990   1.252   9.350 -0.4699 -0.4749 -3.0647
 6130SOL     OW30022   0.231   2.731   6.674  0.3178 -0.4965  0.1610
 6130SOL    HW130023   0.189   2.785   6.608  0.7501 -0.8262 -0.3868
 6130SOL    HW230024   0.212   2.776   6.756  1.3059 -1.6537  1.0367
 6131SOL     OW30025   0.703   3.659   0.775  0.2555  0.3678 -0.3063
 6131SOL    HW130026   0.663   3.590   0.723 -3.7145  1.2465  1.5380
 6131SOL    HW230027   0.715   3.734   0.717 -1.8610 -0.8862 -2.3406
 6132SOL     OW30028   1.183   4.390   6.671  0.2235  0.2591  0.1022
 6132SOL    HW130029   1.270   4.351   6.679 -0.1916 -0.7810 -0.4519
 6132SOL    HW230030   1.206   4.478   6.640 -2.0186 -0.5604 -3.8860
 6133SOL     OW30031   4.367   3.424  12.928  0.1070 -0.1696  0.0110
 6133SOL    HW130032   4.287   3.440  12.877  1.0382  1.0757 -1.0538
 6133SOL    HW230033   4.425   3.445  12.855 -1.7630  2.7889 -0.6566
 6134SOL     OW30034   1.080   2.763   8.528  0.2893  0.0757  0.3277
 6134SOL    HW130035   1.041   2.676   8.535 -2.0360  1.2699  2.0196
 6134SOL    HW230036   1.013   2.817   8.486  1.9004  1.0713 -0.9826
 6135SOL     OW30037   0.083   2.108  14.889 -1.1353  0.9951  0.3628
 6135SOL    HW130038   0.094   2.019  14.922  0.6970  0.9071 -0.4797
 6135SOL    HW230039   0.060   2.082  14.799  0.5787  1.1066 -0.1086
 6136SOL     OW30040   3.056   3.090  16.908  0.5452  0.2404  0.2942
 6136SOL    HW130041   3.071   3.035  16.985  0.2128 -0.4136 -0.1075
 6136SOL    HW230042   3.124   3.075  16.842  0.7124  1.0664  0.2739
 6137SOL     OW30043   1.154   3.805   4.515 -0.4551 -0.3453  0.4226
 6137SOL    HW130044   1.100   3.880   4.540 -2.7870 -1.9373  0.0841
 6137SOL    HW230045   1.247   3.824   4.531 -1.2240  5.0213 -1.5988
 6138SOL     OW30046   0.836   2.173   5.680  0.5698 -0.8768  0.0319
 6138SOL    HW130047   0.877   2.120   5.611  0.4230 -0.6656 -0.2197
 6138SOL    HW230048   0.863   2.265   5.669  1.0633 -1.2371 -1.7485
 6139SOL     OW30049   4.096   4.057   5.333 -0.3398 -0.0806 -0.5448
 6139SOL    HW130050   4.049   4.128   5.290 -1.6695  0.0665  1.1517
 6139SOL    HW230051   4.118   3.995   5.263 -1.2673 -2.2194  1.0729
 6140SOL     OW30052   0.079   4.555   7.944  0.1323  0.2555  0.2024
 6140SOL    HW130053   0.092   4.606   8.024 -0.4314 -0.6068  0.8504
 6140SOL    HW230054   4.720   4.567   7.932  0.3009  1.3786  0.0702
 6141SOL     OW30055   1.954   2.432  16.330 -0.2626 -0.1683 -0.5277
 6141SOL    HW130056   2.050   2.436  16.328 -0.1587 -2.5938 -0.5568
 6141SOL    HW230057   1.930   2.449  16.239 -1.6422  1.3648  0.1328
 6142SOL     OW30058   1.038   2.065   0.719  0.6560  0.0709  0.3406
 6142SOL    HW130059   1.024   1.971   0.731  0.7805  0.1701  1.2108
 6142SOL    HW230060   1.112   2.079   0.777  1.7061 -1.4261 -0.6247
 6143SOL     OW30061   0.428   0.245   7.541 -0.0133  0.5393 -0.2058
 6143SOL    HW130062   0.354   0.306   7.531 -0.9168 -0.8519 -1.9294
 6143SOL    HW230063   0.501   0.295   7.503  2.4261 -0.3184  3.3975
 6144SOL     OW30064   0.020   2.018   7.867 -0.2662  0.1572 -0.4269
 6144SOL    HW130065   0.070   2.006   7.786  2.5806  1.1031  1.1800
 6144SOL    HW230066   0.037   1.933   7.908  1.2776  0.6495 -0.0617
 6145SOL     OW30067   2.914   0.360   6.107 -0.6313 -0.1963 -0.0842
 6145SOL    HW130068   2.980   0.354   6.176  1.0560  1.5247 -1.5836
 6145SOL    HW230069   2.966   0.362   6.027 -0.1227 -1.4039  0.2074
 6146SOL     OW30070   1.376   4.433   0.238 -0.3719 -0.0696 -0.0908
 6146SOL    HW130071   1.372   4.506   0.175  1.1259 -1.1743 -1.4617
 6146SOL    HW230072   1.323   4.364   0.199 -0.9000 -1.0070  2.3115
 6147SOL     OW30073   3.308   3.354   6.706  0.2471 -0.1305  0.3761
 6147SOL    HW130074   3.294   3.329   6.798 -0.1321 -0.8253  0.1286
 6147SOL    HW230075   3.298   3.272   6.657 -1.5949 -0.0305  0.5889
 6148SOL     OW30076   3.684   1.896  12.735 -0.7709 -0.5059  0.2638
 6148SOL    HW130077   3.637   1.978  12.750  0.7601  0.1867  1.3623
 6148SOL    HW230078   3.611   1.835  12.747 -1.9353  0.8909  0.2828
 6149SOL     OW30079   3.888   4.282   6.986  0.4774  0.1313  0.2357
 6149SOL    HW130080   3.949   4.290   6.912  1.4488 -1.6078  0.8556
 6149SOL    HW230081   3.938   4.220   7.039 -0.1295 -0.7088 -0.1774
 6150SOL     OW30082   2.538   3.824   5.450 -0.2903 -0.0566 -0.2136
 6150SOL    HW130083   2.607   3.882   5.484 -0.9136  0.6885 -0.2373
 6150SOL    HW230084   2.529   3.760   5.521  0.6642  1.2996  1.1255
 6151SOL     OW30085   2.069   3.589   1.547 -0.1792  0.3799  0.1080
 6151SOL    HW130086   2.153   3.546   1.565 -2.6796 -4.4099  0.2757
 6151SOL    HW230087   2.076   3.678   1.581  1.4566 -0.4669  2.0171
 6152SOL     OW30088   2.778   1.927   3.816 -0.1399  0.5747 -0.1127
 6152SOL    HW130089   2.767   1.995   3.749 -2.2342  0.6247  0.2972
 6152SOL    HW230090   2.870   1.931   3.844  0.5704 -1.5810 -2.0982
 6153SOL     OW30091   1.769   0.042   2.386 -0.1633  0.0532 -0.5187
 6153SOL    HW130092   1.713   4.716   2.434  0.2208  1.9900  2.4076
 6153SOL    HW230093   1.708   0.115   2.378  0.6797  0.7771 -0.3625
 6154SOL     OW30094   0.847   3.724   5.804  0.2974  0.0063  0.2092
 6154SOL    HW130095   0.757   3.731   5.835  0.3079  1.8567 -0.1957
 6154SOL    HW230096   0.882   3.809   5.831  2.5904 -1.1034  0.7058
 6155SOL     OW30097   0.784   0.717   5.081 -0.2567  0.0149  0.5020
 6155SOL    HW130098   0.776   0.656   5.007  0.5991 -1.5172  1.6761
 6155SOL    HW230099   0.695   0.709   5.115  1.0106 -1.1132  3.5406
 6156SOL     OW30100   3.353   0.414   2.125  0.4923  0.1564  0.1124
 6156SOL    HW130101   3.316   0.493   2.085  0.0923  0.1621  0.4888
 6156SOL    HW230102   3.283   0.352   2.104 -0.4174  0.6374  1.7704
 6157SOL     OW30103   2.195   2.571   3.883 -0.2943  0.1082  0.1834
 6157SOL    HW130104   2.258   2.618   3.938 -0.9994  1.1918  0.0516
 6157SOL    HW230105   2.217   2.481   3.907 -0.0636 -0.1463 -0.9880
 6158SOL     OW30106   3.035   3.469  12.246  0.1747 -0.1121 -0.1694
 6158SOL    HW130107   2.962   3.432  12.196 -0.7829 -2.1871  2.7555
 6158SOL    HW230108   2.988   3.528  12.304  2.2007 -0.7892  2.1499
 6159SOL     OW30109   1.808   2.659  12.892  0.2553  0.8428  0.3624
 6159SOL    HW130110   1.823   2.711  12.971  0.1741  0.1557  0.8289
 6159SOL    HW230111   1.747   2.718  12.848  0.0024 -0.6111 -1.2205
 6160SOL     OW30112   0.343   0.677   4.168  0.0413  0.3155  0.5523
 6160SOL    HW130113   0.286   0.746   4.135 -1.1071  0.3689  2.5813
 6160SOL    HW230114   0.325   0.680   4.262 -1.6183  0.2140  0.2509
 6161SOL     OW30115   3.271   0.244   4.513  0.4839 -0.1078  0.2628
 6161SOL    HW130116   3.261   0.336   4.487 -0.7763 -0.1131  0.7109
 6161SOL    HW230117   3.190   0.219   4.558  0.7134  0.2273  0.8673
 6162SOL     OW30118   0.456   0.204   9.042  0.3612  0.1025  0.4154
 6162SOL    HW130119   0.508   0.182   9.119  0.9780 -1.8513 -0.5699
 6162SOL    HW230120   0.387   0.254   9.088 -1.8707 -2.1424 -0.5084
 6163SOL     OW30121   2.013   0.840   7.058 -0.5574 -0.6734 -0.4933
 6163SOL    HW130122   1.972   0.890   6.988 -1.4830  0.7477  1.0621
 6163SOL    HW230123   1.965   0.889   7.125  0.1553 -1.4084  0.5525
 6164SOL     OW30124   3.927   4.569   5.150  0.2811 -0.3762 -0.5288
 6164SOL    HW130125   4.011   4.551   5.194 -0.8062  2.3573  2.6614
 6164SOL    HW230126   3.921   4.664   5.162 -2.0297 -0.7327  1.0989
 6165SOL     OW30127   2.077   3.252   6.621  0.4641  0.3249  0.9992
 6165SOL    HW130128   1.999   3.248   6.565  2.4310  1.6556 -1.8827
 6165SOL    HW230129   2.094   3.159   6.635 -0.2582  0.0772  0.2716
 6166SOL     OW30130   1.770   0.593   5.403 -0.3017  0.1218 -0.4360
 6166SOL    HW130131   1.734   0.680   5.417 -2.3140 -0.7299 -0.3108
 6166SOL    HW230132   1.788   0.584   5.309 -0.4913 -1.6168 -0.3101
 6167SOL     OW30133   4.049   0.132   9.056  0.3432 -0.0536 -0.2092
 6167SOL    HW130134   4.075   0.081   8.980  0.8576  1.9886 -1.4052
 6167SOL    HW230135   4.023   0.061   9.115 -1.2566 -0.0901 -0.9558
 6168SOL     OW30136   4.381   0.050   0.344 -0.4913  0.2175  0.3864
 6168SOL    HW130137   4.407   0.098   0.266 -1.7099  0.6181  0.2174
 6168SOL    HW230138   4.465   0.031   0.385  0.5260  1.6328 -1.0597
 6169SOL     OW30139   2.359   1.472   5.400 -0.1737 -0.3202 -0.0801
 6169SOL    HW130140   2.362   1.560   5.363 -0.6585 -0.8808 -1.4363
 6169SOL    HW230141   2.335   1.422   5.322 -0.5618  1.1541 -0.8994
 6170SOL     OW30142   4.687   2.713   6.845  0.2926  0.2637 -0.2009
 6170SOL    HW130143   4.702   2.804   6.869  1.1101  0.1184 -0.1512
 6170SOL    HW230144   4.618   2.680   6.903  0.7862  0.9859  0.7980
 6171SOL     OW30145   2.542   0.592  10.234 -0.2213 -0.1385 -0.0452
 6171SOL    HW130146   2.497   0.527  10.179  0.9423 -2.8797  2.2425
 6171SOL    HW230147   2.583   0.531  10.295  0.7659  0.7325  0.1542
 6172SOL     OW30148   0.436   2.599  11.383 -0.3888  0.5201  0.3659
 6172SOL    HW130149   0.462   2.510  11.360  1.0546  0.5601  1.8544
 6172SOL    HW230150   0.480   2.643  11.310  0.6800  0.3591  0.9156
 6173SOL     OW30151   4.661   0.460  12.345 -0.9022 -0.7287  0.1796
 6173SOL    HW130152   4.692   0.550  12.356  0.2868 -1.2385  0.9654
 6173SOL    HW230153   0.011   0.415  12.350  0.3151  1.5985  0.8586
 6174SOL     OW30154   4.675   1.544   6.442  0.1387 -0.1261 -0.1593
 6174SOL    HW130155   4.621   1.618   6.470  1.6353  0.3834  1.3788
 6174SOL    HW230156   4.662   1.492   6.521  1.8671  0.1243  0.2764
 6175SOL     OW30157   4.102   4.383   8.969 -0.5546 -0.0986  0.0588
 6175SOL    HW130158   4.194   4.407   8.980 -1.0887  0.3448  3.3954
 6175SOL    HW230159   4.124   4.301   8.925 -2.5464  0.8549 -2.7450
 6176SOL     OW30160   2.063   2.901   4.394  0.5148 -0.1947 -0.1510
 6176SOL    HW130161   2.023   2.837   4.335  1.5531 -2.8428  2.0247
 6176SOL    HW230162   2.129   2.850   4.441  0.2311 -0.5089 -0.0905
 6177SOL     OW30163   0.421   3.473  15.488 -0.0592 -0.2029  0.5267
 6177SOL    HW130164   0.492   3.416  15.459  0.6617  1.3451 -0.7723
 6177SOL    HW230165   0.470   3.533  15.545  0.8088  0.5570 -1.0040
 6178SOL     OW30166   1.242   3.318  12.906 -0.0317 -0.0933  0.0609
 6178SOL    HW130167   1.163   3.266  12.895 -0.3382  0.6813 -1.4134
 6178SOL    HW230168   1.255   3.359  12.821 -0.2372  1.3637  0.7307
 6179SOL     OW30169   1.354   3.624  16.635  0.0278 -0.1652 -0.0044
 6179SOL    HW130170   1.279   3.639  16.577 -0.0844  0.3778  0.2818
 6179SOL    HW230171   1.426   3.656  16.582 -1.2993  1.5097 -0.7747
 6180SOL     OW30172   2.672   1.647   5.279 -0.4626 -0.2435  0.4825
 6180SOL    HW130173   2.686   1.710   5.209  2.1836 -1.6016 -0.1856
 6180SOL    HW230174   2.703   1.564   5.242  1.4795  0.0661  1.4167
 6181SOL     OW30175   3.991   3.304   0.059  0.2777  0.0384 -0.0917
 6181SOL    HW130176   3.948   3.369   0.114 -0.0973 -1.3284  1.2362
 6181SOL    HW230177   3.932   3.320  17.723  0.8926  2.2432 -0.0881
 6182SOL     OW30178   1.331   4.013   0.890  0.1746 -0.1958  0.1970
 6182SOL    HW130179   1.327   4.030   0.795 -1.5295 -0.4160  0.2278
 6182SOL    HW230180   1.422   4.013   0.918  0.0506  2.6988  0.6396
 6183SOL     OW30181   2.481   3.134   2.519 -0.2906 -0.2885  0.3446
 6183SOL    HW130182   2.511   3.141   2.609 -0.5319  0.6098  0.3526
 6183SOL    HW230183   2.471   3.224   2.488 -4.0419 -0.9208 -0.3893
 6184SOL     OW30184   2.642   3.263   3.671 -0.0569 -0.4507  0.8450
 6184SOL    HW130185   2.720   3.316   3.687  0.0580 -0.5046  0.4510
 6184SOL    HW230186   2.608   3.314   3.598 -0.6841 -0.3045  1.2357
 6185SOL     OW30187   0.157   0.691   8.967  0.6156 -0.4701 -0.4839
 6185SOL    HW130188   0.231   0.737   8.929  1.7955  0.2234  2.7043
 6185SOL    HW230189   0.205   0.611   8.989  2.9046  1.0471 -0.0237
 6186SOL     OW30190   0.718   1.656   3.992 -0.3970  0.4637 -0.0420
 6186SOL    HW130191   0.653   1.716   3.956 -2.3040 -1.1912  0.5974
 6186SOL    HW230192   0.701   1.671   4.085 -0.5195 -2.0976  0.3407
 6187SOL     OW30193   1.206   3.793   5.118  0.3584  0.1508 -0.1828
 6187SOL    HW130194   1.206   3.731   5.045 -1.6190  1.3189 -1.1543
 6187SOL    HW230195   1.111   3.802   5.125  0.4892  1.0881  0.3082
 6188SOL     OW30196   4.043   1.873   7.515 -0.0660 -0.1021 -0.1562
 6188SOL    HW130197   4.035   1.779   7.529  0.9287 -0.3195 -1.0074
 6188SOL    HW230198   4.128   1.869   7.471  0.2581 -2.2599  0.7021
 6189SOL     OW30199   2.935   4.608   7.734  0.4209 -0.0489  0.4210
 6189SOL    HW130200   2.932   4.680   7.797  2.6751  0.8372 -0.4812
 6189SOL    HW230201   2.928   4.531   7.791  1.0723 -0.3156  0.1491
 6190SOL     OW30202   1.496   4.072   5.929  0.4108  0.1163  0.3934
 6190SOL    HW130203   1.530   3.987   5.956 -1.2995 -0.4464  0.7473
 6190SOL    HW230204   1.403   4.056   5.916  0.5712 -0.1857 -0.3644
 6191SOL     OW30205   2.253   1.197   2.869 -0.3529  0.5312 -0.5917
 6191SOL    HW130206   2.300   1.238   2.796  0.1001  0.5719 -0.2754
 6191SOL    HW230207   2.184   1.260   2.889  1.0918  1.0246  2.7983
 6192SOL     OW30208   3.548   2.231   5.630  0.4438 -0.1766 -0.1862
 6192SOL    HW130209   3.488   2.302   5.609  0.4356 -0.5321 -1.3567
 6192SOL    HW230210   3.535   2.169   5.558 -0.4973  0.0255 -0.1895
 6193SOL     OW30211   2.996   3.765  12.748 -0.2380 -0.4998 -0.1073
 6193SOL    HW130212   3.015   3.836  12.809 -0.0469  1.1977 -2.1557
 6193SOL    HW230213   2.901   3.763  12.746 -0.2309  0.7105 -1.3601
 6194SOL     OW30214   4.296   1.547   0.191 -0.8805 -0.2666 -0.4250
 6194SOL    HW130215   4.301   1.582   0.102 -1.1689 -1.1090 -0.7743
 6194SOL    HW230216   4.360   1.477   0.183 -0.6718 -0.0146 -0.9862
 6195SOL     OW30217   4.243   0.791  11.191 -0.2493  0.2141 -0.6309
 6195SOL    HW130218   4.249   0.741  11.273  1.6884  0.4919 -0.6194
 6195SOL    HW230219   4.285   0.725  11.135 -1.9790 -1.3066 -0.1413
 6196SOL     OW30220   3.176   3.019   6.836  0.3666  0.2254 -0.2447
 6196SOL    HW130221   3.101   2.990   6.785  0.3496  0.8657 -0.5920
 6196SOL    HW230222   3.252   2.981   6.793 -0.5602 -2.9027  0.9125
 6197SOL     OW30223   1.627   0.217  17.523 -0.4710 -0.3527 -0.5849
 6197SOL    HW130224   1.675   0.134  17.530 -2.6382 -1.6725 -1.3896
 6197SOL    HW230225   1.623   0.216  17.427  1.4456 -2.3873 -0.6462
 6198SOL     OW30226   1.846   1.124   8.194  0.5164 -0.2998  0.1756
 6198SOL    HW130227   1.896   1.043   8.209  0.9731 -0.0541 -0.0064
 6198SOL    HW230228   1.914   1.185   8.164  1.0934 -0.8468  0.3747
 6199SOL     OW30229   2.504   3.905   6.232  0.2935 -0.4833  0.1310
 6199SOL    HW130230   2.409   3.903   6.218  0.6233  0.1013 -2.1852
 6199SOL    HW230231   2.529   3.947   6.149  1.1913 -1.3386 -0.0280
 6200SOL     OW30232   1.855   3.015   6.852 -0.8229 -0.0347 -0.3439
 6200SOL    HW130233   1.821   3.084   6.795  0.6090  0.5697 -0.4688
 6200SOL    HW230234   1.785   2.951   6.845 -1.4670  0.7414 -1.0223
 6201SOL     OW30235   0.388   0.616  13.157  0.4156  0.2839  0.0155
 6201SOL    HW130236   0.360   0.536  13.113  0.0164 -0.7473  2.1598
 6201SOL    HW230237   0.330   0.682  13.120  0.8490  0.0108 -1.1397
 6202SOL     OW30238   1.755   4.292   3.727 -0.4590  0.0726 -0.2037
 6202SOL    HW130239   1.820   4.241   3.679  0.9030  1.1136  0.5458
 6202SOL    HW230240   1.676   4.271   3.677 -0.2931 -2.7378  0.6759
 6203SOL     OW30241   1.015   1.989  16.446 -0.2556 -0.7050 -0.1410
 6203SOL    HW130242   1.095   2.039  16.464  0.6030 -1.9813 -0.4507
 6203SOL    HW230243   1.020   1.976  16.351 -1.4316 -0.5519 -0.2200
 6204SOL     OW30244   0.027   4.442   1.885 -0.1991  0.4183 -0.3888
 6204SOL    HW130245   4.713   4.522   1.866  3.3530  3.0796  1.8298
 6204SOL    HW230246   4.727   4.386   1.815 -0.6476  0.7584 -0.4381
 6205SOL     OW30247   3.506   1.805   7.295 -0.4585 -0.1832  0.0607
 6205SOL    HW130248   3.595   1.775   7.276 -0.0667  1.3802 -0.5374
 6205SOL    HW230249   3.475   1.725   7.336 -0.9467 -0.4450 -0.8191
 6206SOL     OW30250   2.222   4.627   6.927  0.1897  0.4951 -0.2155
 6206SOL    HW130251   2.298   4.639   6.984 -0.1558 -2.4697  0.8652
 6206SOL    HW230252   2.193   4.539   6.952 -1.0819  1.8520  3.1422
 6207SOL     OW30253   3.530   1.355  12.535 -0.1488 -0.7539  0.0538
 6207SOL    HW130254   3.460   1.308  12.489  0.0767 -0.2661 -0.8037
 6207SOL    HW230255   3.519   1.350  12.629  1.0584  1.3111  0.3138
 6208SOL     OW30256   3.498   3.660   9.757 -0.5647 -0.1792 -0.2037
 6208SOL    HW130257   3.538   3.606   9.689  0.0623 -0.7979  0.6589
 6208SOL    HW230258   3.491   3.593   9.825  0.9780  0.0137  0.1406
 6209SOL     OW30259   0.355   1.098  13.793 -0.0595 -0.0083  0.2468
 6209SOL    HW130260   0.324   1.119  13.705  0.7643  1.4349  0.3124
 6209SOL    HW230261   0.441   1.057  13.782  0.0692  0.7433 -1.5307
 6210SOL     OW30262   3.348   0.430   3.426 -0.1106  0.0360  0.4294
 6210SOL    HW130263   3.369   0.338   3.442  0.0590  0.0512  0.2926
 6210SOL    HW230264   3.437   0.464   3.428  0.0069 -0.2803  0.6551
 6211SOL     OW30265   3.104   1.868  16.458 -0.8773  0.2321 -0.6285
 6211SOL    HW130266   3.151   1.819  16.391  0.0895  0.8135 -0.3857
 6211SOL    HW230267   3.099   1.957  16.424 -1.7721  1.4444  2.6440
 6212SOL     OW30268   0.805   2.872   2.370  0.5099 -0.4070 -0.7419
 6212SOL    HW130269   0.764   2.915   2.445 -0.4312  0.1179 -1.5425
 6212SOL    HW230270   0.865   2.943   2.348 -3.0498  2.7895 -0.1941
 6213SOL     OW30271   1.657   0.190   4.559  0.3419 -0.3762  0.3783
 6213SOL    HW130272   1.617   0.103   4.563 -0.2746 -0.1377 -0.7279
 6213SOL    HW230273   1.610   0.223   4.482  1.8672  2.5694  0.7065
 6214SOL     OW30274   0.414   0.505   2.470  0.4348  0.2237 -0.0655
 6214SOL    HW130275   0.353   0.553   2.415  0.5432 -0.4751 -0.8073
 6214SOL    HW230276   0.411   0.560   2.547 -0.7745 -2.2216  1.6348
 6215SOL     OW30277   1.898   4.539  14.255  0.4029 -0.2312  0.3183
 6215SOL    HW130278   1.842   4.588  14.314  1.8328  2.3230 -0.4474
 6215SOL    HW230279   1.845   4.505  14.184 -0.6179  1.6459  0.1969
 6216SOL     OW30280   3.559   0.376   5.106 -0.0712  0.1576 -0.7526
 6216SOL    HW130281   3.599   0.461   5.126  2.1014 -1.3139  1.2051
 6216SOL    HW230282   3.484   0.376   5.165 -0.9015 -0.6851 -1.8022
 6217SOL     OW30283   0.937   2.679   8.017  0.1602 -0.5788 -0.3084
 6217SOL    HW130284   0.851   2.637   8.022 -1.0093  1.9365  0.8331
 6217SOL    HW230285   0.923   2.755   8.074  0.1771 -0.1799 -0.8374
 6218SOL     OW30286   3.242   1.768   3.851  0.5966  0.0083  0.2923
 6218SOL    HW130287   3.221   1.682   3.814  0.6374  0.2905 -0.3849
 6218SOL    HW230288   3.258   1.758   3.945 -1.9995 -1.1920  0.6200
 6219SOL     OW30289   0.696   0.194  11.447 -0.0309  0.3345 -0.3186
 6219SOL    HW130290   0.600   0.197  11.450 -0.1118 -0.5710 -2.6633
 6219SOL    HW230291   0.719   0.132  11.378  3.1829  0.9921  0.1603
 6220SOL     OW30292   1.714   0.283   5.019  0.1188  0.3370  0.4463
 6220SOL    HW130293   1.677   0.207   5.063 -1.6121  0.5972 -0.5910
 6220SOL    HW230294   1.788   0.306   5.076  0.1088 -1.5470  1.2081
 6221SOL     OW30295   1.470   3.219  13.017  0.3475  0.4558 -0.1466
 6221SOL    HW130296   1.395   3.251  12.967 -0.5057  1.0371  1.5002
 6221SOL    HW230297   1.498   3.295  13.068 -0.7532 -0.1876  1.4179
 6222SOL     OW30298   1.138   0.900   3.047 -0.2378 -0.7533  0.2420
 6222SOL    HW130299   1.180   0.844   3.112  2.2567  1.2642  0.3811
 6222SOL    HW230300   1.203   0.970   3.051 -1.4104  0.1857  2.8815
 6223SOL     OW30301   2.123   0.519   6.006  0.4080 -0.5022 -0.1384
 6223SOL    HW130302   2.164   0.602   6.033  1.1502 -0.8880 -0.0684
 6223SOL    HW230303   2.073   0.541   5.928 -0.7680  0.8231  0.9934
 6224SOL     OW30304   3.084   3.674  13.556 -0.4840  0.0109  0.6410
 6224SOL    HW130305   3.022   3.741  13.584 -0.4625 -0.1755  1.1365
 6224SOL    HW230306   3.129   3.712  13.481 -0.3741 -0.5572  0.4165
 6225SOL     OW30307   4.679   0.010   6.990  0.5896 -1.2525  0.2221
 6225SOL    HW130308   4.685   0.105   7.001 -0.4443 -1.1643  0.0683
 6225SOL    HW230309   4.614   0.004   6.920  1.0643 -1.2166 -0.2165
 6226SOL     OW30310   0.594   1.295  11.269 -0.0286 -0.0634  0.3406
 6226SOL    HW130311   0.534   1.264  11.337 -1.6828  0.1950 -1.0275
 6226SOL    HW230312   0.674   1.296  11.322 -0.4707 -1.1458  1.0212
 6227SOL     OW30313   4.004   1.023   7.004 -0.7678  0.2093 -0.3381
 6227SOL    HW130314   4.048   0.938   7.007 -3.3377 -1.0257  2.6262
 6227SOL    HW230315   3.946   1.024   7.081  0.8716 -0.9676  0.8970
 6228SOL     OW30316   2.211   2.712   4.533  0.2130 -0.6641 -0.9210
 6228SOL    HW130317   2.200   2.648   4.604 -0.5451  0.8955  0.3847
 6228SOL    HW230318   2.294   2.677   4.500  0.7452 -0.8481  0.5668
 6229SOL     OW30319   0.894   3.715   6.838  0.2183  0.5011 -0.1967
 6229SOL    HW130320   0.906   3.681   6.750 -0.9841 -1.6628  0.4776
 6229SOL    HW230321   0.870   3.628   6.869  0.3763 -0.4688 -2.7742
 6230SOL     OW30322   4.565   1.403   7.779 -0.2311  0.2172  0.4951
 6230SOL    HW130323   4.595   1.434   7.864  0.5426  1.1988 -0.1364
 6230SOL    HW230324   4.484   1.446   7.754  0.3765  0.1149 -1.6628
 6231SOL     OW30325   0.185   3.636   6.000  0.3048 -0.2749 -0.2832
 6231SOL    HW130326   0.107   3.610   5.951 -1.3896  0.6348  1.9257
 6231SOL    HW230327   0.212   3.557   6.046  0.5138 -0.1685 -0.2218
 6232SOL     OW30328   4.213   3.920   5.090  0.0756  0.5616 -0.2198
 6232SOL    HW130329   4.251   3.832   5.092 -3.0463 -0.8230 -2.7586
 6232SOL    HW230330   4.188   3.925   4.998  1.3759 -1.0933 -0.6780
 6233SOL     OW30331   0.597   4.651  14.674  0.1439  0.0461 -0.0578
 6233SOL    HW130332   0.570   4.723  14.617  1.3663  0.1142 -0.5608
 6233SOL    HW230333   0.655   4.602  14.615  0.6834 -1.1162  1.4400
 6234SOL     OW30334   3.676   4.599   0.898  0.4595 -0.1180 -0.1689
 6234SOL    HW130335   3.737   4.625   0.829  0.1319 -1.9232 -1.1488
 6234SOL    HW230336   3.599   4.645   0.864 -1.1242 -2.9987 -0.4820
 6235SOL     OW30337   1.283   2.260   0.890 -0.6600  0.2489 -0.2057
 6235SOL    HW130338   1.227   2.334   0.865 -0.2300  0.1066 -1.5908
 6235SOL    HW230339   1.371   2.286   0.863 -1.0916 -0.3950 -2.2224
 6236SOL     OW30340   0.609   3.473   4.929 -0.0543  0.3596 -0.1175
 6236SOL    HW130341   0.535   3.417   4.952 -1.4168  3.0815  2.0563
 6236SOL    HW230342   0.603   3.485   4.834 -0.4473  1.1969  0.0130
 6237SOL     OW30343   3.976   3.573   7.949 -0.2639 -0.5512  0.0983
 6237SOL    HW130344   3.935   3.568   7.862  1.1057  3.3742 -0.7747
 6237SOL    HW230345   3.984   3.481   7.973  1.3745 -0.6519 -0.8484
 6238SOL     OW30346   0.862   3.329   3.900  0.3651  0.3309  0.0076
 6238SOL    HW130347   0.788   3.370   3.856 -1.0784 -2.7317 -0.4202
 6238SOL    HW230348   0.936   3.385   3.876 -0.1208  0.0903 -2.0103
 6239SOL     OW30349   3.930   4.524  15.952  0.0438 -0.4737 -0.2436
 6239SOL    HW130350   3.845   4.508  15.911  0.1506 -0.4757 -0.4642
 6239SOL    HW230351   3.909   4.609  15.991 -1.4899 -0.3323 -1.4049
 6240SOL     OW30352   1.293   1.641   3.937 -0.1496  0.0604  0.0741
 6240SOL    HW130353   1.198   1.650   3.931  0.1442  2.4191 -1.0919
 6240SOL    HW230354   1.308   1.589   4.015 -0.0898 -1.2739 -0.8378
 6241SOL     OW30355   1.022   4.209  12.720 -0.0293  0.5447  0.0591
 6241SOL    HW130356   1.036   4.174  12.807 -0.4351 -1.7970 -0.8294
 6241SOL    HW230357   0.945   4.158  12.693  0.0111  0.7886 -0.5371
 6242SOL     OW30358   1.319   0.664   5.638 -0.4277 -0.1507 -0.7445
 6242SOL    HW130359   1.402   0.629   5.671 -1.3120 -1.0396  0.5160
 6242SOL    HW230360   1.294   0.733   5.699 -0.1871 -0.9079  0.2063
 6243SOL     OW30361   2.493   1.136   6.128 -0.0535 -0.0550 -0.3053
 6243SOL    HW130362   2.472   1.043   6.121  0.9320 -0.2244 -0.9737
 6243SOL    HW230363   2.574   1.141   6.077  0.2622 -1.0395  0.0941
 6244SOL     OW30364   2.324   3.404   6.618 -0.4630 -0.0618  0.5335
 6244SOL    HW130365   2.283   3.477   6.664  1.1210 -0.6645  2.8292
 6244SOL    HW230366   2.245   3.350   6.608 -0.7727  0.2865  1.1070
 6245SOL     OW30367   0.582   1.875  16.431 -0.3528 -0.7671  0.1285
 6245SOL    HW130368   0.660   1.912  16.473 -2.2155  2.8122  0.3624
 6245SOL    HW230369   0.609   1.783  16.425  2.0405 -0.0863  0.2264
 6246SOL     OW30370   1.333   0.650   2.420 -0.0333  0.9738  0.5802
 6246SOL    HW130371   1.258   0.608   2.378  0.8039 -1.4528  1.4946
 6246SOL    HW230372   1.290   0.713   2.478 -0.2929  0.8747  0.4964
 6247SOL     OW30373   0.835   1.208   3.611 -0.7546 -0.1945  0.1916
 6247SOL    HW130374   0.845   1.296   3.573 -1.0695 -1.4798 -2.9100
 6247SOL    HW230375   0.809   1.236   3.698  0.3102 -1.6186  0.9781
 6248SOL     OW30376   0.617   0.493  10.010  0.1609  0.8831  0.3135
 6248SOL    HW130377   0.544   0.521   9.954  0.1232  1.7605  0.7993
 6248SOL    HW230378   0.577   0.456  10.088 -0.7386  0.2841 -0.4359
 6249SOL     OW30379   2.004   0.186   7.771  0.5099 -0.0387 -0.7492
 6249SOL    HW130380   1.995   0.119   7.838 -1.2783  0.1941 -0.7529
 6249SOL    HW230381   2.077   0.240   7.799  0.1641  1.0748 -1.9544
 6250SOL     OW30382   3.199   0.210   8.507  0.5227  0.6104 -0.4995
 6250SOL    HW130383   3.189   0.302   8.480 -4.8299  0.5141  1.1868
 6250SOL    HW230384   3.241   0.174   8.429  0.8843  1.4923 -0.7093
 6251SOL     OW30385   1.528   2.072  13.941 -0.0609  0.4480 -0.4500
 6251SOL    HW130386   1.491   2.117  13.865  2.1972  0.4095 -1.5406
 6251SOL    HW230387   1.464   2.103  14.005  0.5110  0.1064  0.2874
 6252SOL     OW30388   3.879   3.941   9.759  0.0141 -0.2050  0.5552
 6252SOL    HW130389   3.786   3.936   9.781  0.7042 -0.4188  3.4272
 6252SOL    HW230390   3.909   4.023   9.799 -1.3525  0.1116  0.9554
 6253SOL     OW30391   1.331   4.642   8.230 -0.3033 -0.3113 -0.0087
 6253SOL    HW130392   1.279   4.650   8.310 -0.2150  0.0635  0.0134
 6253SOL    HW230393   1.400   4.585   8.264 -0.1720  0.5434  1.1375
 6254SOL     OW30394   3.997   4.024  15.353  0.3787 -0.6703 -0.2805
 6254SOL    HW130395   4.035   4.108  15.328  1.3313 -1.4409 -1.4181
 6254SOL    HW230396   4.024   4.018  15.445 -1.6765  0.2024  0.3809
 6255SOL     OW30397   1.686   2.057   4.740  0.6519  0.1986 -0.6454
 6255SOL    HW130398   1.672   2.149   4.764  1.9361  0.4867 -0.9579
 6255SOL    HW230399   1.601   2.033   4.703 -1.1437  0.3361  3.4650
 6256SOL     OW30400   0.201   4.389  11.388 -0.4876  0.0759 -0.2859
 6256SOL    HW130401   0.117   4.345  11.396 -0.2006 -0.0700  2.1545
 6256SOL    HW230402   0.258   4.313  11.386  1.0989  1.2531 -0.2803
 6257SOL     OW30403   3.469   2.274  16.867  0.3724  0.0344 -0.2552
 6257SOL    HW130404   3.381   2.280  16.831 -0.2409 -1.7774  0.9643
 6257SOL    HW230405   3.461   2.334  16.941  0.6309  1.1378 -1.1023
 6258SOL     OW30406   0.521   1.056   6.702  0.3690 -0.1822  0.2136
 6258SOL    HW130407   0.601   1.065   6.650 -0.1052 -1.6207 -0.7591
 6258SOL    HW230408   0.479   0.983   6.657 -0.3971 -1.1350  2.4539
 6259SOL     OW30409   4.387   3.587   5.712  0.1917  0.4872 -0.5204
 6259SOL    HW130410   4.369   3.493   5.704  2.9826 -0.2941  2.6341
 6259SOL    HW230411   4.463   3.588   5.654  0.4003 -0.5377 -0.2723
 6260SOL     OW30412   0.200   3.170   5.853  0.4882 -0.2545 -0.0007
 6260SOL    HW130413   0.213   3.259   5.820 -2.4765 -0.1317 -0.8314
 6260SOL    HW230414   0.143   3.131   5.787  1.0604  1.0269 -1.2379
 6261SOL     OW30415   1.196   4.727   4.930 -0.2428  0.2041  0.3962
 6261SOL    HW130416   1.264   4.660   4.918  0.4728  1.0473 -0.2491
 6261SOL    HW230417   1.206   0.001   5.025  0.8695 -1.3857  0.4201
 6262SOL     OW30418   3.635   1.807   2.090  0.0972  0.2531  0.6407
 6262SOL    HW130419   3.632   1.858   2.170  2.3817 -1.4544  1.8175
 6262SOL    HW230420   3.653   1.876   2.026 -1.4089  1.0715  1.1142
 6263SOL     OW30421   1.509   1.242   4.877 -0.4799  0.4373 -0.0098
 6263SOL    HW130422   1.533   1.154   4.905 -1.3791  0.3884  0.6026
 6263SOL    HW230423   1.430   1.244   4.931 -0.2538  1.2780  0.2958
 6264SOL     OW30424   3.405   3.463   7.729  0.3200  0.7446  0.4459
 6264SOL    HW130425   3.395   3.537   7.789 -1.4823  0.3636  0.6282
 6264SOL    HW230426   3.486   3.424   7.762  1.0914 -0.0621 -2.4077
 6265SOL     OW30427   3.283   2.301   8.291  0.0653 -0.5556  0.3361
 6265SOL    HW130428   3.370   2.341   8.282 -0.1007 -0.1039  0.7600
 6265SOL    HW230429   3.226   2.374   8.315 -0.8100 -0.8524 -0.8678
 6266SOL     OW30430   4.614   4.163   3.065 -0.2311  0.0861 -0.4018
 6266SOL    HW130431   4.628   4.174   3.159 -0.2359  1.6393 -0.5797
 6266SOL    HW230432   4.694   4.200   3.027  0.4069  0.3592  1.2304
 6267SOL     OW30433   3.944   4.485   8.365 -0.4436 -0.8979  0.3227
 6267SOL    HW130434   3.944   4.575   8.332 -4.0783 -1.6938 -1.8255
 6267SOL    HW230435   3.982   4.433   8.294  1.6417 -0.8981  1.4213
 6268SOL     OW30436   4.125   4.292   4.772  0.2203 -0.6580 -0.0786
 6268SOL    HW130437   4.042   4.339   4.783  1.7437  1.9233  0.4146
 6268SOL    HW230438   4.174   4.326   4.848  2.3058  0.6321 -1.9874
 6269SOL     OW30439   4.512   3.252   5.180 -0.3055  0.5353  0.3699
 6269SOL    HW130440   4.457   3.256   5.258  1.4645  1.7576  1.5674
 6269SOL    HW230441   4.591   3.301   5.205  0.7670  0.0335 -2.0386
 6270SOL     OW30442   3.490   3.448   6.255 -0.6375 -0.1190 -0.1672
 6270SOL    HW130443   3.544   3.502   6.196  0.8197 -1.9685 -0.5441
 6270SOL    HW230444   3.466   3.513   6.320  0.2392 -0.2058  0.2427
 6271SOL     OW30445   2.011   3.015  12.589 -0.2005  0.5397  0.6213
 6271SOL    HW130446   2.091   3.048  12.628  0.5003  0.1218 -0.4628
 6271SOL    HW230447   2.033   2.923  12.576  1.2950  0.8257  1.1071
 6272SOL     OW30448   3.061   1.264   4.984 -0.5371 -0.7477  0.2253
 6272SOL    HW130449   3.029   1.221   5.063  0.8028 -1.7958  0.1821
 6272SOL    HW230450   3.050   1.190   4.924 -0.5341 -0.8805  0.3908
 6273SOL     OW30451   3.174   3.951   3.540  0.2572  0.1765 -1.1662
 6273SOL    HW130452   3.237   3.957   3.468  2.0820 -1.2960  0.3427
 6273SOL    HW230453   3.132   3.865   3.535  0.4277 -0.1148  2.4706
 6274SOL     OW30454   2.217   1.505   0.920  0.0673 -0.1891 -0.5195
 6274SOL    HW130455   2.310   1.489   0.901  0.3701 -0.4855  1.2277
 6274SOL    HW230456   2.181   1.466   0.840 -0.6830 -0.9849  0.2111
 6275SOL     OW30457   0.772   3.812   3.921  0.4543  0.4053 -0.3803
 6275SOL    HW130458   0.760   3.759   4.000 -0.7040  2.0315  0.5273
 6275SOL    HW230459   0.768   3.742   3.856 -0.6221 -1.4720  1.6948
 6276SOL     OW30460   2.620   1.999   4.640  0.1614  0.5220  0.2753
 6276SOL    HW130461   2.685   2.066   4.660  1.5369 -0.6936 -0.1237
 6276SOL    HW230462   2.672   1.920   4.652 -0.8846 -0.2357 -0.1366
 6277SOL     OW30463   2.282   2.359   5.495 -0.2909 -0.0467  0.2854
 6277SOL    HW130464   2.282   2.450   5.463 -2.2091  0.3638  1.4469
 6277SOL    HW230465   2.221   2.365   5.568 -0.4451 -1.0797  0.2314
 6278SOL     OW30466   1.423   3.816   7.905  0.6045  0.1199 -0.0673
 6278SOL    HW130467   1.424   3.844   7.996  0.6779  0.3471 -0.1376
 6278SOL    HW230468   1.481   3.883   7.867  0.2308  1.1657  1.2422
 6279SOL     OW30469   4.639   2.357   8.649  0.1049  0.2391  0.5488
 6279SOL    HW130470   4.695   2.405   8.711 -1.5777  2.7513  0.1433
 6279SOL    HW230471   4.567   2.418   8.635  1.0985  0.9689 -1.3517
 6280SOL     OW30472   2.683   4.470   9.267  0.0487  0.2910  0.6013
 6280SOL    HW130473   2.658   4.426   9.348 -0.0384  1.1031  1.0122
 6280SOL    HW230474   2.598   4.477   9.222 -0.5491 -0.2851  1.6395
 6281SOL     OW30475   4.088   3.937   7.952  0.0920 -0.2370  0.3685
 6281SOL    HW130476   4.114   3.932   7.861  0.3987  1.2393  0.3754
 6281SOL    HW230477   4.040   4.019   7.966 -0.3178 -0.5543  0.8446
 6282SOL     OW30478   3.703   2.415  10.001  0.1290 -0.6862 -0.0373
 6282SOL    HW130479   3.650   2.430   9.923  1.6769 -1.4049 -1.2410
 6282SOL    HW230480   3.685   2.504  10.031 -0.8638 -0.9534  0.1538
 6283SOL     OW30481   4.511   0.319   3.843  0.0050  0.0597 -0.1235
 6283SOL    HW130482   4.575   0.381   3.807 -0.1689  0.7763  0.7715
 6283SOL    HW230483   4.461   0.375   3.903  0.7962  0.7279 -0.0708
 6284SOL     OW30484   4.124   0.777  10.231 -0.3587 -0.3832  0.8894
 6284SOL    HW130485   4.172   0.859  10.214 -1.7609  0.4474  0.9572
 6284SOL    HW230486   4.044   0.810  10.272 -0.6491  0.9385 -0.7373
 6285SOL     OW30487   0.089   4.719   3.192 -0.1415  0.7912 -0.1739
 6285SOL    HW130488   0.098   0.031   3.275 -2.8479  2.3037 -0.7171
 6285SOL    HW230489   0.169   4.733   3.142  1.2709  0.3832  2.0075
 6286SOL     OW30490   1.726   0.470   7.259  0.2869 -0.4344 -0.4447
 6286SOL    HW130491   1.697   0.477   7.350  1.2788  0.0442 -0.1760
 6286SOL    HW230492   1.659   0.522   7.215  1.3334 -1.0543 -2.7966
 6287SOL     OW30493   4.283   1.617   8.491  0.1740  0.3337 -0.7082
 6287SOL    HW130494   4.214   1.683   8.496  0.6480  0.7922 -0.0855
 6287SOL    HW230495   4.353   1.654   8.437 -0.3838  2.3006 -0.1059
 6288SOL     OW30496   1.086   3.541  10.417  0.7356  0.2626  0.5041
 6288SOL    HW130497   0.992   3.548  10.434  1.3934  1.8212  3.4572
 6288SOL    HW230498   1.115   3.596  10.490  1.7282 -0.5879  0.7505
 6289SOL     OW30499   3.394   1.944  12.000  0.1886 -0.5201  0.1802
 6289SOL    HW130500   3.308   1.939  12.042 -0.6921 -2.7371 -1.9418
 6289SOL    HW230501   3.427   2.032  12.019 -0.9480 -0.0780  0.1217
 6290SOL     OW30502   0.816   4.649   1.112  0.0147 -0.1129 -0.0534
 6290SOL    HW130503   0.792   4.566   1.153  0.6557  0.1911  0.9291
 6290SOL    HW230504   0.809   4.703   1.190  0.1332 -0.8003  0.4318
 6291SOL     OW30505   0.969   4.149   0.485  0.2353 -0.4097  0.1577
 6291SOL    HW130506   0.941   4.103   0.564 -1.2264 -1.3125 -0.8840
 6291SOL    HW230507   1.055   4.111   0.469  0.6131  0.3198  0.4384
 6292SOL     OW30508   4.469   0.898   2.751 -0.0029  0.0290  0.0601
 6292SOL    HW130509   4.542   0.837   2.763 -1.8471 -2.6792 -2.4121
 6292SOL    HW230510   4.437   0.894   2.841  0.3690  0.3415  0.2064
 6293SOL     OW30511   2.552   3.689  15.634 -0.1406 -0.5571 -0.9774
 6293SOL    HW130512   2.574   3.751  15.703  2.7522 -0.5813 -1.8818
 6293SOL    HW230513   2.630   3.697  15.579 -0.3085 -2.1097 -1.4399
 6294SOL     OW30514   1.888   0.885  13.510 -0.2641 -0.1318 -0.3214
 6294SOL    HW130515   1.817   0.823  13.526 -1.0603  0.0884 -2.9428
 6294SOL    HW230516   1.841   0.966  13.489 -2.0413 -1.1395 -0.1867
 6295SOL     OW30517   0.685   2.804   2.106  0.3026 -0.7433 -0.1213
 6295SOL    HW130518   0.616   2.867   2.122  2.4318  1.6308 -0.2938
 6295SOL    HW230519   0.753   2.851   2.155  0.7579 -2.8849  1.3061
 6296SOL     OW30520   1.215   4.090   0.389 -0.3462 -0.0192  0.1454
 6296SOL    HW130521   1.225   4.120   0.299 -0.1014  2.3539  0.9693
 6296SOL    HW230522   1.289   4.140   0.424  0.3804 -1.7598  1.1390
 6297SOL     OW30523   2.552   2.906   4.570 -0.0361  0.5026  0.3684
 6297SOL    HW130524   2.635   2.924   4.526 -0.1793  1.6248  0.5482
 6297SOL    HW230525   2.583   2.838   4.630  1.3172  1.7841  1.1512
 6298SOL     OW30526   3.143   3.466   0.800  0.0600  0.0714 -0.2344
 6298SOL    HW130527   3.118   3.521   0.726  0.9580  0.2984 -0.3720
 6298SOL    HW230528   3.064   3.412   0.810 -0.8091  0.8517 -2.7863
 6299SOL     OW30529   0.216   1.742   1.967  0.2259 -0.5310  0.2177
 6299SOL    HW130530   0.201   1.837   1.960  1.7081 -0.3969 -1.2492
 6299SOL    HW230531   0.312   1.734   1.966  0.6046  3.5756  3.1434
 6300SOL     OW30532   1.992   4.524  11.616 -0.3347 -0.3273  0.7400
 6300SOL    HW130533   2.062   4.590  11.611 -2.0070  1.3615 -0.5443
 6300SOL    HW230534   1.927   4.572  11.564 -0.1969 -0.4790  0.4277
 6301SOL     OW30535   0.442   0.546   7.767 -0.3320  0.7427 -0.1740
 6301SOL    HW130536   0.405   0.459   7.758  1.0562  0.0396  0.9242
 6301SOL    HW230537   0.431   0.565   7.860  0.4786 -0.1435  0.1024
 6302SOL     OW30538   0.283   2.306   6.834 -0.0119 -0.2985 -0.7049
 6302SOL    HW130539   0.255   2.238   6.895 -0.5193 -0.1823 -0.8074
 6302SOL    HW230540   0.200   2.329   6.793  0.2574  0.8220 -0.6429
 6303SOL     OW30541   1.769   3.774   1.620 -0.0139  0.3510 -0.4712
 6303SOL    HW130542   1.806   3.693   1.657  1.7240  1.5376  0.3925
 6303SOL    HW230543   1.678   3.753   1.598  0.1087 -2.6396  1.7474
 6304SOL     OW30544   3.681   4.004  12.850  0.2241  0.2996  0.0816
 6304SOL    HW130545   3.622   4.008  12.925 -0.0228  2.3499 -0.2305
 6304SOL    HW230546   3.701   3.911  12.842 -2.3882 -0.3721  1.3202
 6305SOL     OW30547   2.310   0.757   3.849  0.2652  0.7822  0.2557
 6305SOL    HW130548   2.283   0.722   3.764  3.7069  0.4669 -0.7139
 6305SOL    HW230549   2.248   0.710   3.905  0.4842 -0.6593 -0.7015
 6306SOL     OW30550   3.850   1.913   7.030  0.0425  0.1021 -0.4561
 6306SOL    HW130551   3.917   1.871   6.975 -1.5984 -0.0419 -2.3600
 6306SOL    HW230552   3.780   1.934   6.969  0.2828  0.3756 -0.6356
 6307SOL     OW30553   1.424   0.830   0.988  0.1429  0.1463  0.0098
 6307SOL    HW130554   1.348   0.783   1.021  1.0953 -1.5397 -0.1813
 6307SOL    HW230555   1.418   0.808   0.895 -0.4347 -2.3133  0.6316
 6308SOL     OW30556   1.984   1.370   0.953 -0.0371  0.2672  0.3678
 6308SOL    HW130557   2.064   1.416   0.981  0.3138  1.1869 -2.1531
 6308SOL    HW230558   2.027   1.314   0.889  1.2108  2.9904 -1.1856
 6309SOL     OW30559   2.695   2.361   5.687  0.3631  0.1492 -0.0429
 6309SOL    HW130560   2.780   2.401   5.667  1.2287 -0.5332  2.2556
 6309SOL    HW230561   2.709   2.299   5.616  0.2590  0.9150 -0.7284
 6310SOL     OW30562   0.565   0.533  12.526  0.3076  0.2166  0.1289
 6310SOL    HW130563   0.653   0.542  12.489  0.0106 -0.7879 -0.8211
 6310SOL    HW230564   0.509   0.568  12.457 -0.9936  0.1798  1.1748
 6311SOL     OW30565   2.209   1.267   7.278 -0.3329 -0.1843 -0.4728
 6311SOL    HW130566   2.183   1.182   7.314  1.3943 -0.1964  0.7147
 6311SOL    HW230567   2.127   1.316   7.273 -0.3281  0.0859  2.3211
 6312SOL     OW30568   3.440   3.135   4.622  0.3287 -0.1359 -0.4432
 6312SOL    HW130569   3.469   3.225   4.630  1.1392 -0.4533  0.1948
 6312SOL    HW230570   3.491   3.104   4.697 -1.2023  1.5875  1.2878
 6313SOL     OW30571   2.435   0.662  12.621 -0.4070  0.4177  0.0681
 6313SOL    HW130572   2.359   0.657  12.678 -1.1085  3.2287 -0.6041
 6313SOL    HW230573   2.476   0.739  12.660  1.3738 -0.3853 -0.2095
 6314SOL     OW30574   3.631   0.277   2.458 -0.8317  0.3423  0.3805
 6314SOL    HW130575   3.536   0.285   2.468 -0.9898 -1.8685  0.5665
 6314SOL    HW230576   3.653   0.197   2.505 -1.0849 -0.5513 -1.0359
 6315SOL     OW30577   1.676   3.455  13.104  0.1475  0.5733 -0.5266
 6315SOL    HW130578   1.765   3.420  13.102 -0.9391 -2.1782 -0.6205
 6315SOL    HW230579   1.689   3.517  13.033  0.1992  2.1760  0.8751
 6316SOL     OW30580   1.709   4.248   2.581  0.4123 -0.3087 -0.4688
 6316SOL    HW130581   1.624   4.291   2.589  1.1611  0.9521  0.5628
 6316SOL    HW230582   1.740   4.263   2.491  1.2626  0.5806 -0.0305
 6317SOL     OW30583   3.219   1.469   3.355 -0.2631  0.1139 -0.2898
 6317SOL    HW130584   3.230   1.443   3.446 -3.9665  4.2557  1.3195
 6317SOL    HW230585   3.126   1.489   3.342  0.7408  3.6452 -2.1230
 6318SOL     OW30586   0.941   2.283   8.661  0.5192 -0.1389 -0.5893
 6318SOL    HW130587   0.973   2.219   8.724 -1.2060 -1.1148 -0.7124
 6318SOL    HW230588   0.849   2.260   8.655  0.5072 -0.1588 -0.2986
 6319SOL     OW30589   0.759   4.001   1.333  0.3840  0.0360  0.0918
 6319SOL    HW130590   0.793   3.913   1.350 -2.7724 -1.1552  0.0904
 6319SOL    HW230591   0.665   3.984   1.326  0.3864  0.3653 -0.7907
 6320SOL     OW30592   1.725   1.283   5.879 -0.0475  0.6935 -0.0348
 6320SOL    HW130593   1.739   1.291   5.785 -1.4195  1.7616 -0.1456
 6320SOL    HW230594   1.740   1.372   5.912 -1.6639  1.2087 -0.6901
 6321SOL     OW30595   1.229   0.468   9.832 -0.5134 -0.3033  0.2355
 6321SOL    HW130596   1.243   0.522   9.754 -0.2986 -0.6615  0.0228
 6321SOL    HW230597   1.242   0.383   9.789 -1.5292 -1.2708  1.8498
 6322SOL     OW30598   0.938   3.842   3.523  0.1251  0.5677 -0.8517
 6322SOL    HW130599   0.897   3.767   3.567  1.1128  1.2059  1.1808
 6322SOL    HW230600   0.957   3.803   3.438 -2.9547  0.5012 -1.5064
 6323SOL     OW30601   1.346   4.087   4.210 -0.4164  0.0771  0.2780
 6323SOL    HW130602   1.387   4.019   4.156  0.0541  0.0861  0.6191
 6323SOL    HW230603   1.312   4.151   4.148  3.6012 -0.2174 -2.2153
 6324SOL     OW30604   3.317   0.920   9.157  0.1862 -0.4185  0.8269
 6324SOL    HW130605   3.382   0.917   9.086 -1.0597 -1.0117 -0.2740
 6324SOL    HW230606   3.255   0.984   9.123 -0.6667 -1.3009  0.7171
 6325SOL     OW30607   1.385   3.017  17.647  0.7979  0.6170  0.3556
 6325SOL    HW130608   1.352   3.009  17.736 -0.7162 -1.0558 -0.3707
 6325SOL    HW230609   1.313   3.063  17.604 -1.5101 -3.3400  0.0796
 6326SOL     OW30610   0.832   0.795   2.297 -0.4393  0.0152  0.4280
 6326SOL    HW130611   0.788   0.728   2.349 -0.4529  0.2734  0.7494
 6326SOL    HW230612   0.754   0.842   2.267 -0.2448 -0.7794 -1.3232
 6327SOL     OW30613   1.125   0.624  11.741  0.1208  0.5048  0.6453
 6327SOL    HW130614   1.138   0.718  11.728  0.8866  0.4882  1.2745
 6327SOL    HW230615   1.143   0.592  11.653 -2.5500 -0.2457  0.3783
 6328SOL     OW30616   2.499   2.510  11.642 -0.4045 -0.2678 -0.3938
 6328SOL    HW130617   2.511   2.418  11.620 -0.0420 -0.5276  0.8631
 6328SOL    HW230618   2.541   2.554  11.568 -0.8445  1.4272  0.3526
 6329SOL     OW30619   1.246   4.635   1.887  0.4977 -0.3778 -0.1669
 6329SOL    HW130620   1.159   4.673   1.878  0.2112 -0.6975  1.3069
 6329SOL    HW230621   1.300   4.712   1.868  0.8260 -1.1601 -2.4057
 6330SOL     OW30622   3.072   4.293  13.080 -1.2164  0.1216  0.5576
 6330SOL    HW130623   3.101   4.352  13.010 -1.1098 -0.9917 -0.3428
 6330SOL    HW230624   3.032   4.231  13.018  1.1547  0.5399 -1.4200
 6331SOL     OW30625   4.515   1.911   5.122 -0.2173  0.3609 -0.3808
 6331SOL    HW130626   4.503   1.980   5.188 -0.5846  1.0095 -1.1149
 6331SOL    HW230627   4.604   1.885   5.142 -0.4561 -0.7325 -0.7370
 6332SOL     OW30628   4.179   0.595   2.252 -0.2229 -0.3124 -0.4959
 6332SOL    HW130629   4.151   0.551   2.333 -0.7823 -0.7083 -0.9007
 6332SOL    HW230630   4.126   0.546   2.189  0.1122  1.3098 -2.0355
 6333SOL     OW30631   1.047   4.163   5.044 -0.4152  0.2147  0.6854
 6333SOL    HW130632   1.070   4.088   5.099 -0.8105 -1.8498 -1.9747
 6333SOL    HW230633   0.954   4.148   5.029 -0.1696 -0.1655 -0.4585
 6334SOL     OW30634   1.057   4.049   4.111 -0.1121  0.3021 -0.3295
 6334SOL    HW130635   1.135   4.074   4.062  1.2827  2.1890  2.9211
 6334SOL    HW230636   1.062   3.959   4.141  1.4077  0.4785 -0.1017
 6335SOL     OW30637   3.897   3.728   9.593 -0.4310  0.1497 -0.5021
 6335SOL    HW130638   3.872   3.803   9.647 -0.1713 -1.3768  1.7315
 6335SOL    HW230639   3.805   3.715   9.570  0.1758 -4.7017 -0.2992
 6336SOL     OW30640   2.112   2.987   6.966 -0.1439 -0.1247  0.4499
 6336SOL    HW130641   2.056   2.987   6.888  0.9057 -0.8783 -0.3056
 6336SOL    HW230642   2.138   3.079   6.963  2.1204 -0.7410  1.0248
 6337SOL     OW30643   1.508   0.993   3.357  0.1015  0.0975 -0.3039
 6337SOL    HW130644   1.445   0.928   3.388  0.5329  0.2193  0.8105
 6337SOL    HW230645   1.454   1.040   3.294  1.9375  0.0613 -1.8837
 6338SOL     OW30646   2.593   4.287   9.012 -0.2417  0.6792  0.0099
 6338SOL    HW130647   2.589   4.199   9.051  3.3366 -0.2921 -1.7789
 6338SOL    HW230648   2.626   4.268   8.924 -1.9457 -0.0266 -0.4638
 6339SOL     OW30649   4.579   3.522   7.712  0.3259 -0.0587  0.4031
 6339SOL    HW130650   4.663   3.566   7.700  0.0656  0.5189  0.7395
 6339SOL    HW230651   4.605   3.433   7.686 -3.2354 -1.1399  0.6000
 6340SOL     OW30652   4.375   1.193   1.247 -0.5097  0.7418 -0.1683
 6340SOL    HW130653   4.450   1.253   1.254  1.0473 -1.1024 -0.8645
 6340SOL    HW230654   4.324   1.253   1.193 -2.5874 -1.8620 -1.0755
 6341SOL     OW30655   1.593   3.089  15.726 -0.2712  0.1101  0.0953
 6341SOL    HW130656   1.645   3.018  15.765  0.4947  0.5521 -0.1252
 6341SOL    HW230657   1.530   3.113  15.793  0.8000 -0.4347  1.2903
 6342SOL     OW30658   0.738   2.250   9.942 -0.1501  0.2941  0.1624
 6342SOL    HW130659   0.809   2.274   9.883 -0.6980  0.9789 -0.2261
 6342SOL    HW230660   0.713   2.161   9.915 -0.6108  0.2701  0.6687
 6343SOL     OW30661   2.049   3.109   2.467  0.0468  0.1343  0.5273
 6343SOL    HW130662   1.982   3.091   2.401 -0.6638 -0.4537  1.3941
 6343SOL    HW230663   1.988   3.132   2.538  0.8448 -0.6814  1.4654
 6344SOL     OW30664   4.727   1.166  15.569 -0.4313 -0.3574  0.1536
 6344SOL    HW130665   0.034   1.217  15.499 -0.2939 -0.9021 -0.1681
 6344SOL    HW230666   0.018   1.075  15.556 -1.9355 -0.7195 -0.3283
 6345SOL     OW30667   2.273   0.911   8.501 -0.4142 -1.1794  0.0231
 6345SOL    HW130668   2.229   0.938   8.581 -0.0352  0.3001 -0.2536
 6345SOL    HW230669   2.324   0.838   8.536 -1.0987 -1.0624  1.2622
 6346SOL     OW30670   4.095   2.663   8.748 -0.3603  0.2593 -0.8933
 6346SOL    HW130671   4.151   2.729   8.708  0.2384  2.5485  3.6279
 6346SOL    HW230672   4.026   2.725   8.774  0.7096  1.1462 -0.1421
 6347SOL     OW30673   4.515   3.685  14.341 -0.3083 -0.0837 -1.2989
 6347SOL    HW130674   4.474   3.768  14.317  0.6075  1.4662  2.4449
 6347SOL    HW230675   4.433   3.643  14.366 -0.4810  1.7450  1.1901
 6348SOL     OW30676   3.586   2.136   3.715  0.2684 -0.0496 -0.2996
 6348SOL    HW130677   3.605   2.147   3.622  0.9242 -4.3028 -0.6569
 6348SOL    HW230678   3.547   2.050   3.727  0.0816  0.2719  1.3892
 6349SOL     OW30679   2.091   3.937   5.700 -0.1381 -0.7840  0.2325
 6349SOL    HW130680   2.147   4.014   5.686 -1.9642  0.1244 -1.9694
 6349SOL    HW230681   2.045   3.945   5.784 -0.4106  0.0986 -0.0037
 6350SOL     OW30682   0.491   0.995  17.323 -0.0635  0.1449 -0.0776
 6350SOL    HW130683   0.534   1.067  17.277 -0.7006  0.7127  0.2306
 6350SOL    HW230684   0.404   0.988  17.285 -0.2497  0.3461  0.3104
 6351SOL     OW30685   4.352   2.127   6.568  0.3068  0.6831 -0.1264
 6351SOL    HW130686   4.419   2.081   6.517  0.2789  1.7120 -1.0992
 6351SOL    HW230687   4.394   2.133   6.654 -1.1627  1.2354  0.5574
 6352SOL     OW30688   3.877   0.011   3.022 -0.7848 -0.5862  0.0493
 6352SOL    HW130689   3.909   0.031   3.110 -0.0427  1.0959 -0.6069
 6352SOL    HW230690   3.959   4.715   2.984 -0.6296  0.1833 -0.2287
 6353SOL     OW30691   3.819   3.671   4.341 -0.4819 -0.5754 -0.1209
 6353SOL    HW130692   3.878   3.726   4.392 -1.6978  0.7691 -0.1490
 6353SOL    HW230693   3.757   3.739   4.313  0.8824  0.9565  0.5600
 6354SOL     OW30694   1.095   2.195   5.013  0.1939  0.3197  0.3177
 6354SOL    HW130695   1.087   2.289   4.994 -1.3003  0.2785  0.7774
 6354SOL    HW230696   1.177   2.183   4.966  0.0380 -0.1694  0.1771
 6355SOL     OW30697   4.251   3.637  16.231 -0.2087 -0.1852  0.3294
 6355SOL    HW130698   4.168   3.682  16.222 -0.2809 -0.0810  1.5631
 6355SOL    HW230699   4.236   3.557  16.281  0.7101 -0.7025 -0.2053
 6356SOL     OW30700   2.233   3.874  14.526  0.4106 -0.0419  0.1597
 6356SOL    HW130701   2.153   3.892  14.576  0.1402 -0.7109 -0.0343
 6356SOL    HW230702   2.294   3.921  14.584  1.5454 -0.4230 -0.7276
 6357SOL     OW30703   0.451   3.999   3.435  0.1452 -0.3462 -0.0033
 6357SOL    HW130704   0.509   3.942   3.486  0.2499 -1.9522 -1.9243
 6357SOL    HW230705   0.434   3.937   3.364  0.9013 -1.2087  0.5716
 6358SOL     OW30706   3.982   2.855   2.133 -0.4950  0.6678  0.0683
 6358SOL    HW130707   3.983   2.768   2.092  0.5370  1.0693 -0.7505
 6358SOL    HW230708   4.014   2.843   2.223  1.6643 -2.3828 -1.0946
 6359SOL     OW30709   0.257   1.301   2.575  0.2178  0.3064  0.0023
 6359SOL    HW130710   0.274   1.215   2.537 -2.1009  0.6132 -1.7289
 6359SOL    HW230711   0.166   1.299   2.545  0.2287 -0.5345  0.0229
 6360SOL     OW30712   0.359   4.701  15.262  0.0344  0.1032 -0.4215
 6360SOL    HW130713   0.435   4.714  15.204 -1.2906 -2.6855 -2.8455
 6360SOL    HW230714   0.388   0.015  15.339  0.6577 -0.3787 -0.3482
 6361SOL     OW30715   0.612   1.302   3.016 -0.1052 -0.0661  0.2869
 6361SOL    HW130716   0.698   1.341   3.000 -0.6879 -0.1287 -3.1291
 6361SOL    HW230717   0.618   1.285   3.110  0.0780  1.8015  0.6116
 6362SOL     OW30718   2.655   4.028  14.156 -0.2147 -0.2626 -0.4233
 6362SOL    HW130719   2.714   3.953  14.149  0.8074  0.5741 -0.7919
 6362SOL    HW230720   2.705   4.090  14.103 -1.6747  1.2513 -0.0394
 6363SOL     OW30721   4.464   2.416   2.004  0.4744  0.1779 -0.4104
 6363SOL    HW130722   4.373   2.415   1.975  0.9557  1.6605 -1.9721
 6363SOL    HW230723   4.493   2.327   1.988 -2.3024 -0.7017 -0.4908
 6364SOL     OW30724   2.851   3.094   6.363 -0.3402 -0.1474 -0.3077
 6364SOL    HW130725   2.884   3.062   6.447 -0.9828 -2.4022 -0.9217
 6364SOL    HW230726   2.872   3.019   6.307 -1.1592 -1.6185  1.3745
 6365SOL     OW30727   2.539   1.688  15.937  0.3743  0.7787 -0.4725
 6365SOL    HW130728   2.626   1.698  15.976 -0.2640 -1.6748  1.5404
 6365SOL    HW230729   2.569   1.640  15.859 -1.1852  0.2022 -0.7179
 6366SOL     OW30730   0.776   1.350   5.641  0.0979 -0.1721  0.9775
 6366SOL    HW130731   0.789   1.321   5.550  0.4611 -1.1442  1.3319
 6366SOL    HW230732   0.722   1.279   5.676  2.1894 -0.7818  2.9895
 6367SOL     OW30733   1.747   1.544   4.499 -0.0499  0.3931 -0.0404
 6367SOL    HW130734   1.737   1.520   4.591 -0.6723  1.9861  0.2980
 6367SOL    HW230735   1.658   1.564   4.473 -1.1006 -1.9523  1.7422
 6368SOL     OW30736   0.500   3.276   3.274  0.1120  0.2861 -0.1598
 6368SOL    HW130737   0.468   3.329   3.347  0.8754  0.0263  0.3709
 6368SOL    HW230738   0.453   3.303   3.195  0.4026 -2.8551 -1.3847
 6369SOL     OW30739   0.345   1.692   4.705 -1.1365 -0.0240 -0.8114
 6369SOL    HW130740   0.349   1.735   4.619 -0.1375  3.0047  0.7345
 6369SOL    HW230741   0.272   1.632   4.716 -0.0185 -1.1443  0.5536
 6370SOL     OW30742   1.640   0.015   7.560 -0.1931  0.2618 -0.5113
 6370SOL    HW130743   1.708   0.072   7.524 -1.2764  1.5498 -0.5413
 6370SOL    HW230744   1.590   0.067   7.623  0.3771  2.0202 -1.5023
 6371SOL     OW30745   0.089   0.924   0.430  0.6766  0.0231  0.2248
 6371SOL    HW130746   0.010   0.917   0.482  0.8819 -1.1223  0.3836
 6371SOL    HW230747   0.139   0.860   0.481 -0.7118 -0.3976  1.0306
 6372SOL     OW30748   3.987   1.285   6.014 -0.0691 -0.4801  0.2564
 6372SOL    HW130749   4.069   1.283   5.965  1.0640  2.5178  2.0433
 6372SOL    HW230750   3.998   1.209   6.072  2.0418 -1.6502 -1.7019
 6373SOL     OW30751   4.140   2.286   8.227 -0.3958 -0.1475  0.0064
 6373SOL    HW130752   4.170   2.323   8.310  1.2779  0.4148 -0.8487
 6373SOL    HW230753   4.209   2.225   8.199  0.4827  0.6657  0.4126
 6374SOL     OW30754   4.014   1.442  17.686  0.4194  0.4916 -0.3400
 6374SOL    HW130755   3.984   1.479  17.603  2.7207  0.6041 -1.1173
 6374SOL    HW230756   3.975   1.502   0.012  0.7318 -0.7263  1.0084
 6375SOL     OW30757   3.540   3.644   9.143 -0.0365  0.1615 -0.1621
 6375SOL    HW130758   3.602   3.717   9.149 -0.9285  0.6839  2.4801
 6375SOL    HW230759   3.467   3.670   9.199  1.0261  2.6275  0.1006
 6376SOL     OW30760   2.685   2.693   2.448  0.0512  0.0015 -0.6838
 6376SOL    HW130761   2.592   2.674   2.459  0.5432 -2.9022 -1.4805
 6376SOL    HW230762   2.708   2.682   2.356  2.3531 -0.7278 -0.0270
 6377SOL     OW30763   0.935   1.153   2.154 -0.1287 -0.2255  0.4112
 6377SOL    HW130764   0.932   1.228   2.095 -2.0106  0.3414  1.2458
 6377SOL    HW230765   1.031   1.144   2.151 -0.5338 -3.8057 -1.3366
 6378SOL     OW30766   1.432   1.343   0.650  0.0538  0.5080 -0.0761
 6378SOL    HW130767   1.506   1.319   0.705  0.1833  1.2905  0.0970
 6378SOL    HW230768   1.458   1.298   0.569 -2.5573 -1.1284 -0.0146
 6379SOL     OW30769   3.440   2.617   8.511 -0.0469 -0.2415  0.5160
 6379SOL    HW130770   3.455   2.557   8.438 -2.2023 -0.7419  0.4699
 6379SOL    HW230771   3.349   2.595   8.532 -0.0915  0.2907  0.8960
 6380SOL     OW30772   4.539   3.044   2.583  0.0849  0.0408 -0.1864
 6380SOL    HW130773   4.553   3.137   2.601  1.6447  0.0366 -1.4371
 6380SOL    HW230774   4.516   3.045   2.490 -2.1414  3.2077  0.3989
 6381SOL     OW30775   3.636   2.836   1.046 -0.2735  0.5384 -0.4388
 6381SOL    HW130776   3.607   2.928   1.044 -0.6162  0.4769  1.6518
 6381SOL    HW230777   3.684   2.831   1.128 -1.1700  0.0665  0.0489
 6382SOL     OW30778   4.394   4.119   0.684 -0.5542  0.3214 -0.0711
 6382SOL    HW130779   4.304   4.132   0.712 -1.4342 -1.2366 -2.2194
 6382SOL    HW230780   4.439   4.087   0.762  1.6240 -0.3432 -1.5839
 6383SOL     OW30781   3.922   4.166   7.950 -0.1180 -0.4257 -0.0119
 6383SOL    HW130782   3.953   4.256   7.959  0.9525 -0.7161 -0.7990
 6383SOL    HW230783   3.907   4.158   7.855  2.0382  1.9036 -0.5596
 6384SOL     OW30784   1.636   2.833  14.727  0.2781  0.2850 -0.3409
 6384SOL    HW130785   1.604   2.749  14.692  1.8659 -0.9954  1.3111
 6384SOL    HW230786   1.611   2.823  14.819  1.1011 -0.4461 -0.1930
 6385SOL     OW30787   2.354   4.500   0.323  0.2638  0.1454  0.8860
 6385SOL    HW130788   2.343   4.584   0.278 -1.8420 -1.5768 -1.8159
 6385SOL    HW230789   2.269   4.459   0.336 -0.3888  1.6472  1.3974
 6386SOL     OW30790   0.720   1.280   3.310 -1.3993  0.6883 -0.0090
 6386SOL    HW130791   0.648   1.307   3.367  0.4161  2.6384  1.3472
 6386SOL    HW230792   0.764   1.364   3.298  1.3292 -0.2339  3.5970
 6387SOL     OW30793   0.727   3.905   7.932  0.0472  0.1707 -0.5542
 6387SOL    HW130794   0.808   3.882   7.977 -1.5254 -2.1327  1.0602
 6387SOL    HW230795   0.749   3.935   7.844  0.0553  0.4119 -0.4701
 6388SOL     OW30796   2.717   1.127  16.713 -0.5928  0.2025 -0.0489
 6388SOL    HW130797   2.753   1.103  16.627 -2.5655 -0.2824 -0.7384
 6388SOL    HW230798   2.649   1.186  16.680  1.0308  1.6222 -0.8812
 6389SOL     OW30799   4.452   2.590  16.842  0.3116 -0.6230  0.1598
 6389SOL    HW130800   4.539   2.611  16.807 -0.3090 -0.3473 -1.2194
 6389SOL    HW230801   4.400   2.665  16.812  0.5958 -0.8648 -0.9484
 6390SOL     OW30802   4.599   3.619   4.208  0.1339  0.0125  0.3782
 6390SOL    HW130803   4.617   3.539   4.257 -0.5543 -0.4479 -0.1095
 6390SOL    HW230804   4.514   3.598   4.168  0.9670 -1.2737 -0.7229
 6391SOL     OW30805   1.588   1.559  15.440 -0.0309 -0.4393  0.2164
 6391SOL    HW130806   1.566   1.553  15.347 -2.3825 -0.4296  0.7798
 6391SOL    HW230807   1.515   1.504  15.469  0.3854 -0.7480  0.6762
 6392SOL     OW30808   0.452   4.301  12.660 -0.5557  0.9038  0.1216
 6392SOL    HW130809   0.432   4.315  12.752 -0.8102  1.4915 -0.0237
 6392SOL    HW230810   0.431   4.386  12.621  1.1969  1.4552  0.4034
 6393SOL     OW30811   3.797   2.496  12.939 -0.2707  0.2564  0.7650
 6393SOL    HW130812   3.857   2.501  13.014 -0.2348 -0.4139  0.7807
 6393SOL    HW230813   3.866   2.485  12.874 -1.8716 -0.3571 -0.8355
 6394SOL     OW30814   4.062   1.883   5.833  0.1491  0.6657  0.2041
 6394SOL    HW130815   4.101   1.969   5.817  2.4835 -1.0871 -3.5969
 6394SOL    HW230816   4.043   1.890   5.927  2.6682  2.7932  0.5497
 6395SOL     OW30817   1.689   0.864  15.024  0.0193 -0.0618 -0.0611
 6395SOL    HW130818   1.647   0.928  15.083 -1.0965 -1.3994  0.5817
 6395SOL    HW230819   1.685   0.786  15.079  1.1759  0.4026  0.6870
 6396SOL     OW30820   3.627   4.515  11.038  0.1614 -0.4120  0.2897
 6396SOL    HW130821   3.557   4.458  11.008  1.0353  0.0365 -2.5883
 6396SOL    HW230822   3.698   4.451  11.040  1.0550  0.5257 -1.1116
 6397SOL     OW30823   3.613   0.168  13.008 -0.8118 -0.4441  0.3474
 6397SOL    HW130824   3.545   0.131  12.952 -3.4108  3.0820  1.1881
 6397SOL    HW230825   3.564   0.234  13.057  0.2555  0.0329  0.7904
 6398SOL     OW30826   2.479   2.680   3.087 -0.0325 -0.1055  0.1070
 6398SOL    HW130827   2.491   2.774   3.079 -0.7076  0.0778  1.1492
 6398SOL    HW230828   2.395   2.661   3.045 -1.3749  1.8527  1.8819
 6399SOL     OW30829   2.069   3.473  12.993  0.1949 -0.2728 -0.1582
 6399SOL    HW130830   2.006   3.415  13.035  0.5623 -0.8815 -0.4524
 6399SOL    HW230831   2.084   3.411  12.922 -0.4075  0.0936 -0.6079
 6400SOL     OW30832   0.246   1.623   5.054 -0.3197 -0.6583  0.0329
 6400SOL    HW130833   0.243   1.699   4.995 -1.7447 -1.5150 -0.9671
 6400SOL    HW230834   0.317   1.653   5.111 -1.0749  0.3298  0.4584
 6401SOL     OW30835   0.135   4.300   8.011  0.0459 -0.0519 -0.1194
 6401SOL    HW130836   0.132   4.395   8.000  1.5034  0.0254  0.1351
 6401SOL    HW230837   0.219   4.276   7.973 -1.8800 -0.9897 -3.8414
 6402SOL     OW30838   4.667   3.524   3.710  0.2800  0.4949 -0.5023
 6402SOL    HW130839   4.686   3.501   3.801 -1.3494 -1.1390 -0.5704
 6402SOL    HW230840   4.581   3.566   3.716  1.8252  3.4166  1.5520
 6403SOL     OW30841   0.083   4.161   8.456  0.1247 -0.0862  0.5826
 6403SOL    HW130842   4.724   4.162   8.477  0.4141  0.3207  1.8611
 6403SOL    HW230843   0.120   4.120   8.534  1.6481 -1.0942 -0.6740
 6404SOL     OW30844   1.394   3.648   5.267  0.5591 -0.1857  0.3801
 6404SOL    HW130845   1.390   3.562   5.227  0.1185  0.6743 -1.4421
 6404SOL    HW230846   1.341   3.702   5.208 -0.3058 -0.0323  1.2939
 6405SOL     OW30847   2.376   4.478   9.270  0.0378  0.8085 -0.5019
 6405SOL    HW130848   2.396   4.385   9.273  1.0776  1.0629  0.6119
 6405SOL    HW230849   2.295   4.474   9.322  1.9335 -1.6925  2.2890
 6406SOL     OW30850   1.889   2.921  14.841 -0.0409 -0.4773  0.2805
 6406SOL    HW130851   1.816   2.910  14.780  0.9915  0.6585 -1.1253
 6406SOL    HW230852   1.958   2.861  14.811  1.0702  0.1399  1.6206
 6407SOL     OW30853   3.765   2.836   3.849  0.4257 -0.1943 -0.0994
 6407SOL    HW130854   3.748   2.885   3.929 -0.5842 -0.9776  0.1629
 6407SOL    HW230855   3.754   2.897   3.776 -1.5541  2.5304  2.4803
 6408SOL     OW30856   2.064   3.658   4.716  0.1564  0.0312  0.2841
 6408SOL    HW130857   2.071   3.608   4.635  0.1443  0.1449  0.2126
 6408SOL    HW230858   2.122   3.603   4.768  0.9271 -0.6002 -1.2331
 6409SOL     OW30859   3.837   2.967   7.620 -0.6329  0.0717  0.9151
 6409SOL    HW130860   3.768   2.925   7.671 -1.5282  0.1697 -0.2151
 6409SOL    HW230861   3.794   3.048   7.595  1.6664  1.5538  1.8208
 6410SOL     OW30862   2.155   0.948   2.548 -1.1636  0.4429  0.0201
 6410SOL    HW130863   2.183   0.858   2.531  0.8634  0.5136  3.0558
 6410SOL    HW230864   2.062   0.931   2.563 -0.6614 -1.1579  1.3136
 6411SOL     OW30865   0.786   4.123   7.751 -0.3104  0.6397  0.2860
 6411SOL    HW130866   0.823   4.150   7.836  4.8262 -0.8027 -1.4788
 6411SOL    HW230867   0.721   4.191   7.732  0.2269  1.4459  1.2900
 6412SOL     OW30868   3.554   3.511   9.995  0.7555 -0.0853 -0.1811
 6412SOL    HW130869   3.562   3.415   9.987 -1.8777 -0.2638 -0.8482
 6412SOL    HW230870   3.643   3.546  10.002  0.2088  1.5038 -1.2029
 6413SOL     OW30871   2.404   4.602   8.038 -0.5930  0.4389  0.0617
 6413SOL    HW130872   2.345   4.590   7.964  0.0750  1.4216 -0.6291
 6413SOL    HW230873   2.356   4.553   8.105  1.8609  1.2337  2.4168
 6414SOL     OW30874   0.148   1.612   2.578 -0.9239 -0.9078  0.2113
 6414SOL    HW130875   0.091   1.687   2.560 -1.1126 -1.3431 -1.0182
 6414SOL    HW230876   0.085   1.555   2.534  1.5458 -1.7142 -2.2612
 6415SOL     OW30877   4.077   1.246   2.739  0.1771 -0.3186  0.2927
 6415SOL    HW130878   4.131   1.167   2.747  1.5626  0.4044 -2.0950
 6415SOL    HW230879   4.133   1.305   2.688  0.3020  0.5383  1.4036
 6416SOL     OW30880   0.229   3.037  15.761  0.3535  0.0805 -0.3429
 6416SOL    HW130881   0.164   3.076  15.703 -0.0575 -0.6844 -0.3943
 6416SOL    HW230882   0.239   2.954  15.714  1.3384 -0.1158  0.2193
 6417SOL     OW30883   3.707   0.161   5.234 -0.2382  0.2493  0.0181
 6417SOL    HW130884   3.676   0.236   5.184  0.0173 -0.7756 -1.6968
 6417SOL    HW230885   3.654   0.176   5.312 -0.1670  0.6944 -0.0231
 6418SOL     OW30886   3.530   2.024   4.687 -0.3885  0.0179 -0.2833
 6418SOL    HW130887   3.561   1.956   4.746  1.1338  1.8765  1.0499
 6418SOL    HW230888   3.610   2.037   4.635 -0.0943  2.4732  0.7704
 6419SOL     OW30889   1.127   0.656   3.906 -1.0921  0.1506  0.2899
 6419SOL    HW130890   1.182   0.694   3.837 -3.0693  0.4186 -1.1264
 6419SOL    HW230891   1.108   0.726   3.968  0.3139  1.5155 -0.8164
 6420SOL     OW30892   2.479   2.549   3.652 -0.3761 -0.0221 -0.7401
 6420SOL    HW130893   2.544   2.549   3.582  1.5273 -2.7754  1.0185
 6420SOL    HW230894   2.394   2.562   3.610 -1.3213 -0.5300  1.0326
 6421SOL     OW30895   4.464   3.835  10.480  0.2195  0.4925  0.1348
 6421SOL    HW130896   4.498   3.863  10.395  1.7659 -1.3655  0.1460
 6421SOL    HW230897   4.381   3.881  10.493 -0.1362  0.3069 -1.4957
 6422SOL     OW30898   4.652   2.824   3.021 -0.0038  0.4495  0.5724
 6422SOL    HW130899   4.636   2.918   3.020 -1.9769  0.1225  0.2013
 6422SOL    HW230900   4.583   2.801   2.958  1.3021 -1.0908 -0.3170
 6423SOL     OW30901   2.528   3.100   4.769 -0.1909 -0.7369  0.0784
 6423SOL    HW130902   2.622   3.118   4.773 -0.3211  0.3735 -1.4122
 6423SOL    HW230903   2.516   3.043   4.693  0.3613  0.0853 -0.6311
 6424SOL     OW30904   4.376   2.523   3.672 -0.2880 -0.2238  0.8456
 6424SOL    HW130905   4.303   2.582   3.690  0.5503  1.4902 -1.2836
 6424SOL    HW230906   4.333   2.442   3.646  0.2635  0.1621 -1.2570
 6425SOL     OW30907   4.452   0.574   2.704  0.3814  0.9087  0.0812
 6425SOL    HW130908   4.357   0.586   2.713  0.3473 -0.0770  1.0554
 6425SOL    HW230909   4.482   0.553   2.793 -2.4518 -0.3787  0.7346
 6426SOL     OW30910   0.202   0.957   8.669 -0.3206 -0.2555 -0.0293
 6426SOL    HW130911   0.135   0.933   8.733  0.4952  0.6590  1.1687
 6426SOL    HW230912   0.268   0.999   8.723 -1.3786  1.1539  0.1669
 6427SOL     OW30913   4.349   2.997   9.560 -0.0402 -0.2249 -0.0056
 6427SOL    HW130914   4.415   2.983   9.493 -2.6251  2.1288 -3.0765
 6427SOL    HW230915   4.395   3.067   9.607  0.4553 -0.0731 -0.7249
 6428SOL     OW30916   2.212   2.923   3.589 -0.2571  0.1734 -0.0033
 6428SOL    HW130917   2.191   2.907   3.681 -0.4076 -0.6734 -0.1886
 6428SOL    HW230918   2.135   2.966   3.552 -0.6652 -0.7678 -0.2564
 6429SOL     OW30919   2.947   2.444   5.648  0.1521 -0.1412 -0.3190
 6429SOL    HW130920   2.990   2.368   5.688 -0.5023 -1.1563 -1.5104
 6429SOL    HW230921   2.990   2.457   5.564 -1.2464  1.9287 -0.7036
 6430SOL     OW30922   0.004   0.396   9.249  0.6548  0.5743 -0.0866
 6430SOL    HW130923   4.692   0.319   9.217  2.5648 -0.3648 -0.6253
 6430SOL    HW230924   4.726   0.460   9.179 -0.3001  0.2190 -0.2287
 6431SOL     OW30925   3.682   3.884   8.526 -0.3741 -0.8428  0.1744
 6431SOL    HW130926   3.662   3.977   8.521  2.6779 -0.1371  1.0973
 6431SOL    HW230927   3.777   3.877   8.539 -0.1112  1.9032 -0.3509
 6432SOL     OW30928   0.528   3.633  12.403  0.3934 -0.4745  0.2689
 6432SOL    HW130929   0.576   3.569  12.350 -0.1769  0.2184 -1.0702
 6432SOL    HW230930   0.568   3.712  12.368  0.7942 -0.1619  1.4233
 6433SOL     OW30931   4.265   1.038   4.386  0.0777  0.3320 -0.3394
 6433SOL    HW130932   4.209   1.114   4.405  0.4970 -0.3331  3.5560
 6433SOL    HW230933   4.354   1.073   4.394 -0.8234  2.1692  1.9005
 6434SOL     OW30934   1.898   2.714  13.344 -0.5689 -0.2274  0.3693
 6434SOL    HW130935   1.932   2.752  13.263  1.3153  0.8091  1.6487
 6434SOL    HW230936   1.818   2.673  13.311 -1.4566  0.1649  2.0395
 6435SOL     OW30937   0.738   2.298   4.859 -0.1451 -0.2285 -0.4292
 6435SOL    HW130938   0.648   2.285   4.829 -1.2191  1.5065  2.0186
 6435SOL    HW230939   0.746   2.225   4.920 -2.3458 -1.0496 -1.1246
 6436SOL     OW30940   2.883   3.198  15.892 -0.1822  0.4371  0.6126
 6436SOL    HW130941   2.809   3.157  15.848  0.7965  0.5482 -1.1579
 6436SOL    HW230942   2.899   3.140  15.966  2.6556  2.7532  1.8247
 6437SOL     OW30943   4.432   1.966  10.582 -0.2381 -0.2638  0.1569
 6437SOL    HW130944   4.364   1.981  10.648 -2.1100 -1.3390 -1.5282
 6437SOL    HW230945   4.505   1.944  10.640 -0.4440  1.1750  0.9810
 6438SOL     OW30946   1.795   3.303   8.529  0.0517  0.0026 -0.1236
 6438SOL    HW130947   1.830   3.385   8.565 -0.5090  0.2622 -0.1814
 6438SOL    HW230948   1.732   3.329   8.462 -0.3563 -0.6548 -0.0030
 6439SOL     OW30949   4.567   2.831   8.899 -0.0232 -0.1879 -0.2199
 6439SOL    HW130950   4.528   2.784   8.826  0.0719  1.4756 -1.3362
 6439SOL    HW230951   4.647   2.867   8.861  0.7643  1.1483  2.6886
 6440SOL     OW30952   0.966   2.628   1.598 -0.6779  0.4496 -0.0554
 6440SOL    HW130953   0.968   2.577   1.679  1.4648 -2.4246 -1.9134
 6440SOL    HW230954   1.058   2.630   1.571 -1.3779  0.3756 -2.4569
 6441SOL     OW30955   3.213   0.764   0.510 -0.1097 -0.4428  0.1678
 6441SOL    HW130956   3.242   0.700   0.445 -1.6108  0.5137 -1.4127
 6441SOL    HW230957   3.294   0.813   0.524 -0.1513  0.3066 -2.2830
 6442SOL     OW30958   0.161   4.338   6.635 -0.5021  0.7588 -0.0462
 6442SOL    HW130959   0.181   4.410   6.695  3.3128  1.0119 -1.6507
 6442SOL    HW230960   0.221   4.369   6.568 -0.8841  2.2134  0.2797
 6443SOL     OW30961   1.480   2.408   0.769 -0.3105  0.0298  0.0421
 6443SOL    HW130962   1.471   2.471   0.698 -0.9485 -0.8279 -0.6468
 6443SOL    HW230963   1.535   2.457   0.830  1.4324 -1.0447 -0.6712
 6444SOL     OW30964   2.790   0.912   3.923 -0.1912 -0.1634  0.2255
 6444SOL    HW130965   2.703   0.885   3.895  0.0639  0.7618 -1.5216
 6444SOL    HW230966   2.856   0.899   3.854 -1.1401 -0.3581 -0.6482
 6445SOL     OW30967   3.441   0.321   1.873 -0.6978  0.1979 -0.0816
 6445SOL    HW130968   3.427   0.370   1.954  1.7742  4.3747 -2.1552
 6445SOL    HW230969   3.354   0.312   1.834 -0.9315 -2.6020  1.0827
 6446SOL     OW30970   4.530   4.041   0.908 -0.0573 -0.1485 -0.1724
 6446SOL    HW130971   4.522   4.067   0.999 -0.0375 -1.3059  0.1552
 6446SOL    HW230972   4.625   4.039   0.895  0.0124  1.9561  0.0709
 6447SOL     OW30973   1.710   0.827  15.629 -0.1143  0.4373 -0.9360
 6447SOL    HW130974   1.672   0.787  15.551  2.0942 -3.3696 -0.0617
 6447SOL    HW230975   1.743   0.748  15.673  0.7988 -0.5921 -3.4509
 6448SOL     OW30976   2.873   1.389   3.756 -0.1741 -0.0744  0.3814
 6448SOL    HW130977   2.915   1.306   3.732  1.6811  1.0275 -0.1305
 6448SOL    HW230978   2.796   1.341   3.788 -0.5524  0.2580 -0.0225
 6449SOL     OW30979   2.129   2.006  13.337 -0.4729 -0.1260 -0.2393
 6449SOL    HW130980   2.041   2.011  13.300 -0.3905  0.7511 -0.3156
 6449SOL    HW230981   2.187   2.019  13.263 -1.5071 -0.9410 -1.2002
 6450SOL     OW30982   1.330   3.656  16.910 -0.3961 -0.1002 -0.2801
 6450SOL    HW130983   1.303   3.606  16.832 -1.3921  0.3124 -0.2025
 6450SOL    HW230984   1.412   3.694  16.879  0.2147 -0.4098  1.0144
 6451SOL     OW30985   4.005   2.645   9.839 -0.0108  0.7085 -0.1845
 6451SOL    HW130986   4.022   2.566   9.789 -1.7936  1.3708 -1.8160
 6451SOL    HW230987   4.048   2.631   9.924  0.7883  2.3623 -0.3123
 6452SOL     OW30988   0.154   3.167   5.307  0.0796  0.2687 -0.5763
 6452SOL    HW130989   0.245   3.139   5.318 -0.7758 -2.2934 -0.0124
 6452SOL    HW230990   0.116   3.095   5.257 -1.9206  1.9997 -1.5650
 6453SOL     OW30991   1.432   1.900   7.510  0.2238  0.1647 -0.0582
 6453SOL    HW130992   1.433   1.984   7.556  0.3868 -0.4551  1.0931
 6453SOL    HW230993   1.358   1.918   7.452 -0.6486 -0.9454  0.7037
 6454SOL     OW30994   4.198   3.636   9.135 -0.1101 -0.4867  0.1843
 6454SOL    HW130995   4.122   3.646   9.077 -0.6387  0.9285  1.1296
 6454SOL    HW230996   4.172   3.668   9.221 -0.4526 -0.5533  0.1058
 6455SOL     OW30997   3.574   2.523  17.038  0.3606  0.1013  0.4128
 6455SOL    HW130998   3.569   2.619  17.041  0.2554  0.1044  0.1260
 6455SOL    HW230999   3.633   2.509  16.964  0.4836 -0.0858  0.5490
 6456SOL     OW31000   2.724   1.133   9.752  0.1694 -0.1210 -0.0177
 6456SOL    HW131001   2.739   1.147   9.658  2.4949  3.7548  0.9591
 6456SOL    HW231002   2.638   1.091   9.756  1.2052 -1.9057  2.9798
 6457SOL     OW31003   4.560   0.458  10.587  1.1850 -0.2974  0.1003
 6457SOL    HW131004   4.523   0.538  10.550  0.2137  0.0781  1.9231
 6457SOL    HW231005   4.492   0.399  10.554  1.2297  0.4991 -1.3866
 6458SOL     OW31006   1.222   1.605   7.681  0.8276  0.5935 -0.0657
 6458SOL    HW131007   1.274   1.666   7.733 -1.3273  0.1327  2.6290
 6458SOL    HW231008   1.250   1.642   7.597  2.3061 -2.3027 -0.8641
 6459SOL     OW31009   3.803   0.901   8.776 -0.0500 -0.1561  0.3656
 6459SOL    HW131010   3.797   0.908   8.871 -2.8891  1.8465  0.0257
 6459SOL    HW231011   3.742   0.830   8.756  0.4383 -0.7277  0.9295
 6460SOL     OW31012   4.104   0.920   8.416 -0.3308  0.3340 -0.1885
 6460SOL    HW131013   4.082   0.942   8.326  2.3020  1.5507 -0.5526
 6460SOL    HW231014   4.190   0.881   8.402 -1.7497 -2.1844 -1.7950
 6461SOL     OW31015   1.416   3.974  11.545  0.3030 -0.2271  0.0244
 6461SOL    HW131016   1.384   3.889  11.515  0.8427 -0.2913 -0.3640
 6461SOL    HW231017   1.351   4.004  11.609  0.7283 -1.9706  1.2846
 6462SOL     OW31018   1.784   3.430   4.937  0.4626  0.1186  0.0075
 6462SOL    HW131019   1.839   3.373   4.990 -0.3197  0.1086  0.8142
 6462SOL    HW231020   1.754   3.491   5.005 -2.7766 -0.2064 -1.0879
 6463SOL     OW31021   4.264   2.902  10.421 -0.4498  0.0521 -0.2458
 6463SOL    HW131022   4.199   2.972  10.421 -0.2818  0.2150  0.8559
 6463SOL    HW231023   4.337   2.963  10.406 -0.8845  0.6518  0.0558
 6464SOL     OW31024   2.520   3.753  14.345 -0.6632  0.1311 -0.1468
 6464SOL    HW131025   2.473   3.835  14.330 -0.9598  0.2785  1.5118
 6464SOL    HW231026   2.446   3.697  14.367  1.6514 -2.3290  1.4015
 6465SOL     OW31027   0.226   1.501   4.465  0.5938  0.0442  0.0525
 6465SOL    HW131028   0.159   1.447   4.422  1.0830  0.8563 -1.7505
 6465SOL    HW231029   0.267   1.431   4.516  0.9493  1.2101  1.3595
 6466SOL     OW31030   0.785   1.463   3.778  0.0561 -0.0917  0.4835
 6466SOL    HW131031   0.762   1.531   3.842 -0.8010  0.7723 -0.7398
 6466SOL    HW231032   0.779   1.518   3.700  1.7590  0.4376  0.7294
 6467SOL     OW31033   3.520   4.063   0.220  0.2962  0.3669 -0.6584
 6467SOL    HW131034   3.488   4.148   0.251 -0.2252  0.3420 -1.1434
 6467SOL    HW231035   3.525   4.018   0.304  3.4693  0.7496 -0.6441
 6468SOL     OW31036   3.249   3.337  12.341  0.5372  0.3291 -0.0431
 6468SOL    HW131037   3.218   3.260  12.389 -1.5952  1.8460  1.0388
 6468SOL    HW231038   3.171   3.379  12.304  1.4575 -1.2136 -3.7173
 6469SOL     OW31039   0.764   0.185  14.908  0.1658 -0.1050  0.2269
 6469SOL    HW131040   0.695   0.244  14.877 -1.2112 -2.2772 -0.8473
 6469SOL    HW231041   0.847   0.231  14.900  0.4217 -0.7924 -1.0488
 6470SOL     OW31042   0.294   4.153   4.620  0.2485 -0.7310 -0.5071
 6470SOL    HW131043   0.312   4.218   4.688  3.0004 -0.4120 -1.5422
 6470SOL    HW231044   0.266   4.207   4.546 -0.3022 -0.2076  0.0814
 6471SOL     OW31045   0.827   0.870  16.064  0.3075  0.3947 -0.2823
 6471SOL    HW131046   0.813   0.889  15.972 -1.1349  1.9829  0.2643
 6471SOL    HW231047   0.770   0.793  16.075 -1.4654  1.7417 -0.1151
 6472SOL     OW31048   3.614   2.389   7.544 -0.5314  0.3828  0.0803
 6472SOL    HW131049   3.646   2.462   7.491 -0.0304  0.2285  0.1673
 6472SOL    HW231050   3.668   2.314   7.518 -1.1922 -0.9979  2.6721
 6473SOL     OW31051   1.751   4.683   7.075 -0.0304 -0.0716 -0.4674
 6473SOL    HW131052   1.742   4.730   7.158 -1.6523  0.5375 -0.9941
 6473SOL    HW231053   1.767   4.593   7.102  3.3478 -0.2131 -2.8692
 6474SOL     OW31054   3.877   3.992   6.819 -0.6487  0.1990  0.4430
 6474SOL    HW131055   3.946   3.931   6.793  0.4569  1.8602 -0.5468
 6474SOL    HW231056   3.916   4.069   6.778 -0.1333  0.3025  1.1445
 6475SOL     OW31057   0.538   0.820   1.981  0.2028 -0.4530  0.2028
 6475SOL    HW131058   0.467   0.817   2.045 -0.1361  1.4482 -0.0894
 6475SOL    HW231059   0.606   0.869   2.028 -1.2003  1.4063  0.3160
 6476SOL     OW31060   2.846   1.828   3.258 -0.0062  0.4910 -0.1956
 6476SOL    HW131061   2.780   1.818   3.326 -1.1186  1.8239 -1.0648
 6476SOL    HW231062   2.920   1.863   3.307  0.7948  1.1411 -1.8637
 6477SOL     OW31063   3.690   2.622   8.245  0.5869 -0.3043 -0.3677
 6477SOL    HW131064   3.750   2.647   8.174 -0.2853  1.9871 -0.3072
 6477SOL    HW231065   3.742   2.663   8.315  1.7483 -1.5064 -0.5285
 6478SOL     OW31066   3.398   0.510  14.631 -0.4621  0.1790 -0.2952
 6478SOL    HW131067   3.451   0.442  14.672  0.1335  1.1904  0.6161
 6478SOL    HW231068   3.439   0.521  14.545  0.1263 -2.1145 -0.2862
 6479SOL     OW31069   1.160   0.061   2.134  0.0089  0.5337  0.1265
 6479SOL    HW131070   1.182   0.016   2.216 -0.3472  0.3792  0.1370
 6479SOL    HW231071   1.233   0.037   2.076  0.4599  0.9064  0.5327
 6480SOL     OW31072   2.812   0.991   7.102  0.4462  0.4123  0.3031
 6480SOL    HW131073   2.736   0.955   7.055 -0.5585 -0.9758  3.0011
 6480SOL    HW231074   2.776   1.037   7.178  1.3900 -0.1691  1.1004
 6481SOL     OW31075   3.622   4.016  13.302 -0.2834 -0.3442  0.0092
 6481SOL    HW131076   3.565   4.049  13.372  1.3032  0.9000  0.7176
 6481SOL    HW231077   3.590   4.058  13.222  0.5250 -1.1165 -0.7022
 6482SOL     OW31078   3.758   0.154  10.381 -0.7972 -0.2443  0.5220
 6482SOL    HW131079   3.806   0.141  10.300 -0.1486 -2.1856  1.2146
 6482SOL    HW231080   3.688   0.096  10.350 -1.7972  0.6956  1.0159
 6483SOL     OW31081   3.347   0.747   8.522 -0.1092  0.4721 -0.1412
 6483SOL    HW131082   3.309   0.777   8.440 -0.3097  1.6433  0.3790
 6483SOL    HW231083   3.430   0.795   8.530  0.4539 -0.1618 -2.2507
 6484SOL     OW31084   0.537   3.744   5.048  0.1522 -0.4019 -0.1632
 6484SOL    HW131085   0.564   3.656   5.075 -2.6869 -1.1955  0.1239
 6484SOL    HW231086   0.481   3.728   4.971  1.4545 -0.1170 -1.1616
 6485SOL     OW31087   4.311   0.930   2.983 -0.2326  0.5443 -0.1575
 6485SOL    HW131088   4.279   0.977   3.060  1.9747  1.3782  0.2448
 6485SOL    HW231089   4.356   0.850   3.012 -1.2960 -0.0975 -0.2987
 6486SOL     OW31090   1.191   1.310   8.670 -0.9038  0.3731 -0.1439
 6486SOL    HW131091   1.240   1.234   8.638 -0.9684  0.6296 -0.8591
 6486SOL    HW231092   1.215   1.383   8.614  1.4792 -0.4055 -0.1481
 6487SOL     OW31093   3.222   3.131   4.190  0.0162 -0.3414 -0.3842
 6487SOL    HW131094   3.302   3.134   4.138 -0.9615  0.6920 -1.8067
 6487SOL    HW231095   3.162   3.168   4.125 -0.5932 -1.0305 -0.2214
 6488SOL     OW31096   3.338   1.138   5.917  1.0735 -0.1759  0.0657
 6488SOL    HW131097   3.330   1.215   5.973  0.9764  0.4685 -0.8140
 6488SOL    HW231098   3.431   1.145   5.892  0.4993  1.2545 -1.7291
 6489SOL     OW31099   4.644   1.562   9.736 -0.0996 -0.1224 -0.5327
 6489SOL    HW131100   4.717   1.511   9.770 -0.5944  1.7568  3.3959
 6489SOL    HW231101   4.595   1.486   9.705 -1.3255  0.8463 -0.9787
 6490SOL     OW31102   1.631   3.570   4.424  0.2304  0.4869 -0.2231
 6490SOL    HW131103   1.639   3.554   4.518  1.2505 -0.7878 -0.5244
 6490SOL    HW231104   1.591   3.657   4.420 -1.5868 -0.3998 -1.0825
 6491SOL     OW31105   0.982   0.779   2.801 -0.6615  0.1357  0.0590
 6491SOL    HW131106   0.889   0.761   2.816 -0.6517  0.7760  0.9228
 6491SOL    HW231107   1.010   0.842   2.868 -0.8361 -0.0057  0.2655
 6492SOL     OW31108   4.621   2.305   8.967 -0.1776  0.6019 -0.0942
 6492SOL    HW131109   4.603   2.384   9.017 -2.4488  1.1562 -1.7443
 6492SOL    HW231110   4.695   2.336   8.916  1.0280 -1.9337  0.1235
 6493SOL     OW31111   4.212   1.420   3.459 -0.2544  0.3751 -0.1096
 6493SOL    HW131112   4.305   1.443   3.466 -0.9775  2.7998  1.5163
 6493SOL    HW231113   4.234   1.341   3.410  2.1464  1.0190 -0.0684
 6494SOL     OW31114   2.092   4.457   6.309 -0.5238 -0.1939  0.3987
 6494SOL    HW131115   2.149   4.389   6.345  0.4178 -0.7971 -2.2103
 6494SOL    HW231116   2.082   4.515   6.385 -1.0078  0.4975 -0.2014
 6495SOL     OW31117   0.264   4.054   3.178  0.8089 -0.1646  0.3372
 6495SOL    HW131118   0.212   3.975   3.165 -0.3463  0.8638 -1.2674
 6495SOL    HW231119   0.247   4.082   3.268 -0.5637  3.5654 -1.0957
 6496SOL     OW31120   4.639   4.383   7.604 -0.3637 -0.4876 -0.3035
 6496SOL    HW131121   4.727   4.402   7.636 -0.0761 -0.9516 -0.8039
 6496SOL    HW231122   4.643   4.288   7.614  0.7537 -0.3291  0.7868
 6497SOL     OW31123   3.777   4.401   2.245  0.3699  0.6717 -0.1059
 6497SOL    HW131124   3.775   4.338   2.318  0.3260 -1.2732 -1.7881
 6497SOL    HW231125   3.754   4.483   2.288  2.7938  0.8578  0.8563
 6498SOL     OW31126   1.941   3.836   2.961 -0.4050 -0.2021  0.4332
 6498SOL    HW131127   1.856   3.799   2.986 -0.5732  0.0456  0.2288
 6498SOL    HW231128   1.976   3.901   3.022  1.1242 -0.8612  0.2541
 6499SOL     OW31129   3.940   4.372   1.247  0.7414 -0.2872  0.2048
 6499SOL    HW131130   3.908   4.282   1.259 -1.5407  0.7422  1.7489
 6499SOL    HW231131   3.860   4.419   1.222  1.7875  0.8082 -1.0904
 6500SOL     OW31132   4.710   0.775   2.708 -0.3675  0.0355  0.6030
 6500SOL    HW131133   4.727   0.686   2.739 -0.6183 -0.4908 -0.7850
 6500SOL    HW231134   0.060   0.815   2.725 -0.0105 -0.9275  1.0814
 6501SOL     OW31135   0.625   3.487   8.787 -0.1051 -0.0558  0.1336
 6501SOL    HW131136   0.665   3.400   8.791 -1.0112 -0.4809 -0.1112
 6501SOL    HW231137   0.694   3.530   8.736 -1.2534  2.1970  0.4886
 6502SOL     OW31138   2.400   4.490   9.007  0.0810 -0.5534  0.2250
 6502SOL    HW131139   2.474   4.430   9.005 -0.2894 -1.0464  2.2069
 6502SOL    HW231140   2.382   4.498   9.100  1.1577 -1.0765  0.4738
 6503SOL     OW31141   0.367   2.525   5.683 -0.1838 -0.3077 -0.2848
 6503SOL    HW131142   0.323   2.584   5.621  2.3541  1.1624 -0.6763
 6503SOL    HW231143   0.443   2.506   5.627 -0.0525  2.9563 -1.2036
 6504SOL     OW31144   1.137   3.925   8.579  0.1765 -0.4306 -0.2635
 6504SOL    HW131145   1.085   3.981   8.635  1.8407  1.7057 -0.8372
 6504SOL    HW231146   1.223   3.962   8.599  0.4233 -0.2484 -1.6681
 6505SOL     OW31147   3.424   4.136  13.465  0.0707 -0.3481 -0.6329
 6505SOL    HW131148   3.339   4.178  13.447  0.9395  2.2231  1.2295
 6505SOL    HW231149   3.409   4.095  13.550 -0.9771  1.7778  0.2067
 6506SOL     OW31150   0.161   1.490  11.622  0.2899 -0.0289  0.8407
 6506SOL    HW131151   0.109   1.570  11.630  1.4508  0.7226  0.9470
 6506SOL    HW231152   0.149   1.471  11.529 -0.9198 -1.8549  1.3760
 6507SOL     OW31153   1.494   4.610   4.564 -0.1523  0.3345 -0.1764
 6507SOL    HW131154   1.447   4.691   4.580  1.4284  1.6958 -2.4162
 6507SOL    HW231155   1.438   4.552   4.615  1.9100  0.6117  2.3779
 6508SOL     OW31156   2.479   3.235   8.186 -0.5471 -0.2255  0.0599
 6508SOL    HW131157   2.568   3.220   8.153 -0.2193  0.9780  0.4136
 6508SOL    HW231158   2.500   3.255   8.277  0.2945 -0.7138 -0.0295
 6509SOL     OW31159   3.488   3.035   3.803 -0.4021 -0.0297 -0.4384
 6509SOL    HW131160   3.471   2.945   3.774  0.1890  0.0747 -1.0904
 6509SOL    HW231161   3.552   3.017   3.872 -1.0255 -1.5849 -0.2524
 6510SOL     OW31162   1.740   4.305  11.452  0.3030 -0.2384  0.3954
 6510SOL    HW131163   1.703   4.338  11.534  2.6800  1.2733  0.8507
 6510SOL    HW231164   1.694   4.222  11.439  1.0568 -0.4694 -0.8046
 6511SOL     OW31165   3.858   1.961  17.039  0.0570 -0.6459 -0.2446
 6511SOL    HW131166   3.837   2.017  16.964  0.4121  1.7277  1.4166
 6511SOL    HW231167   3.944   1.992  17.068 -0.4538 -0.9897  1.6336
 6512SOL     OW31168   1.045   1.319   5.243  0.6272 -0.1802 -0.1919
 6512SOL    HW131169   1.017   1.388   5.183 -1.6253 -0.4798  0.5171
 6512SOL    HW231170   1.128   1.290   5.204  0.7440 -0.5638  0.3548
 6513SOL     OW31171   2.195   3.346   6.258  0.3222  0.0921 -0.2820
 6513SOL    HW131172   2.122   3.283   6.262  0.8044 -0.5503 -1.7419
 6513SOL    HW231173   2.272   3.291   6.269  0.6182  0.3693 -0.9936
 6514SOL     OW31174   1.633   2.938   1.588  0.2462  0.4784 -0.0352
 6514SOL    HW131175   1.582   2.872   1.542 -0.7490  0.5144  1.0271
 6514SOL    HW231176   1.702   2.939   1.521  1.2573  2.6482  1.0304
 6515SOL     OW31177   3.136   4.486  17.271 -0.3574 -0.2137 -0.1747
 6515SOL    HW131178   3.218   4.523  17.240  0.9341 -1.0970  2.2309
 6515SOL    HW231179   3.161   4.482  17.363  0.2923 -0.7840 -0.3797
 6516SOL     OW31180   0.500   2.727  12.386 -0.2224  0.7561  0.3955
 6516SOL    HW131181   0.423   2.694  12.339  1.2182  0.2531 -1.5936
 6516SOL    HW231182   0.520   2.655  12.447 -1.3891  0.1865  0.1104
 6517SOL     OW31183   1.933   2.107   5.176 -0.1614 -0.1390  0.0096
 6517SOL    HW131184   1.845   2.115   5.212  0.6585  0.6934  1.8184
 6517SOL    HW231185   1.983   2.065   5.246  0.8581 -1.8152 -1.7217
 6518SOL     OW31186   3.592   3.266  17.618 -0.4994 -0.5020 -0.0915
 6518SOL    HW131187   3.514   3.276  17.673 -0.5814  1.5881 -0.5949
 6518SOL    HW231188   3.553   3.231  17.538  1.4506  1.9203 -2.0937
 6519SOL     OW31189   2.636   4.241   5.239 -0.5718  0.7536 -0.1546
 6519SOL    HW131190   2.651   4.335   5.249  0.1420  0.7736 -1.4122
 6519SOL    HW231191   2.558   4.235   5.183  0.4463 -1.8328 -1.3129
 6520SOL     OW31192   3.096   2.379   2.805 -0.6929 -0.4745  0.1954
 6520SOL    HW131193   3.124   2.297   2.844 -0.3535 -0.5036 -0.1109
 6520SOL    HW231194   3.082   2.368   2.711  1.2787 -1.4494  0.0244
 6521SOL     OW31195   0.113   2.266   3.396 -0.3701  0.4299 -0.1422
 6521SOL    HW131196   0.046   2.309   3.450 -1.0404 -0.1179 -0.5326
 6521SOL    HW231197   0.072   2.186   3.363 -1.1891 -0.5743  3.3483
 6522SOL     OW31198   3.145   4.117   6.737  0.2805 -0.3631 -0.4682
 6522SOL    HW131199   3.223   4.154   6.779  0.9120 -0.3759 -1.6113
 6522SOL    HW231200   3.071   4.108   6.797 -0.3323 -0.3525 -1.2238
 6523SOL     OW31201   3.732   3.096   3.975 -0.1870 -0.0618 -0.2356
 6523SOL    HW131202   3.807   3.102   4.035 -1.6247 -0.3718  1.5792
 6523SOL    HW231203   3.761   3.159   3.909  1.4199  0.5973  1.1060
 6524SOL     OW31204   4.665   4.730   8.659  0.4520  0.0871 -0.2379
 6524SOL    HW131205   4.611   0.061   8.614  0.6776  0.4697  0.0454
 6524SOL    HW231206   4.626   4.651   8.623 -1.3688  1.1849 -0.6809
 6525SOL     OW31207   4.565   1.269  11.374 -0.2922  0.2882  0.0225
 6525SOL    HW131208   4.525   1.318  11.445  1.4924  0.2292  1.0675
 6525SOL    HW231209   4.519   1.185  11.383  0.0272  0.2025  0.8450
 6526SOL     OW31210   1.126   4.303  10.203  0.7302  0.2479 -0.4452
 6526SOL    HW131211   1.105   4.314  10.296  2.3808  2.0137 -0.2939
 6526SOL    HW231212   1.206   4.353  10.213  0.8638  0.1056 -0.8010
 6527SOL     OW31213   1.913   0.610   9.872 -0.6036  0.4273  0.9032
 6527SOL    HW131214   1.915   0.639   9.781 -0.5103 -1.8532  0.2053
 6527SOL    HW231215   1.833   0.557   9.869  0.4425 -1.2112  2.1758
 6528SOL     OW31216   0.839   3.701   1.849 -0.1770  0.3265 -0.0880
 6528SOL    HW131217   0.826   3.786   1.890 -1.2970  1.3876 -2.6336
 6528SOL    HW231218   0.748   3.672   1.845 -0.5319  1.9519 -3.7110
 6529SOL     OW31219   0.413   2.783   8.007 -0.2580 -0.1427  0.1498
 6529SOL    HW131220   0.321   2.799   8.025  0.3636  2.1303  1.3730
 6529SOL    HW231221   0.407   2.744   7.920 -1.0080 -1.3025  0.7321
 6530SOL     OW31222   0.284   1.749  15.161 -0.4089 -0.3519 -0.1850
 6530SOL    HW131223   0.270   1.654  15.169  0.9078 -0.4151  1.2652
 6530SOL    HW231224   0.203   1.759  15.110 -0.4761 -0.7597 -0.1629
 6531SOL     OW31225   0.791   0.869   6.487 -0.4977 -0.2574  0.6861
 6531SOL    HW131226   0.747   0.817   6.555 -0.4722 -0.8324  0.2621
 6531SOL    HW231227   0.816   0.948   6.535  0.1000  0.9184 -1.5871
 6532SOL     OW31228   0.336   0.495   4.752  0.2431 -0.1415  0.5681
 6532SOL    HW131229   0.393   0.423   4.778  1.0305 -0.2747 -1.5908
 6532SOL    HW231230   0.395   0.564   4.781  0.0627  0.9424 -1.6646
 6533SOL     OW31231   0.314   0.244   7.790  0.1737 -0.1651 -0.2921
 6533SOL    HW131232   0.229   0.209   7.764 -0.7970  1.6542  0.3528
 6533SOL    HW231233   0.365   0.214   7.716 -0.0862 -0.4570 -0.3496
 6534SOL     OW31234   3.586   3.979  11.086 -0.6127 -0.1810  0.1910
 6534SOL    HW131235   3.601   3.943  11.174  1.9818  0.3120 -0.0379
 6534SOL    HW231236   3.536   3.907  11.047 -0.8468 -0.1041  0.3478
 6535SOL     OW31237   4.572   4.406   5.970 -0.4796  0.1256  0.3083
 6535SOL    HW131238   4.656   4.422   5.926 -0.2924  0.9215  0.9299
 6535SOL    HW231239   4.518   4.437   5.898  2.5355  2.1025 -1.1267
 6536SOL     OW31240   3.303   3.139   9.190  0.6785 -0.1925 -0.5046
 6536SOL    HW131241   3.364   3.181   9.129  3.0231 -1.1177  1.2289
 6536SOL    HW231242   3.245   3.091   9.131  1.5690 -1.2654 -0.4958
 6537SOL     OW31243   1.596   1.326   6.528  0.3613  0.1146 -0.1958
 6537SOL    HW131244   1.603   1.421   6.531  0.4050 -0.0130  3.5122
 6537SOL    HW231245   1.518   1.317   6.583  2.0471  1.2647  2.3509
 6538SOL     OW31246   1.170   3.907  16.618 -0.2084 -0.1178 -0.2392
 6538SOL    HW131247   1.148   3.828  16.569  1.3267 -1.3255  1.0246
 6538SOL    HW231248   1.096   3.960  16.588  1.3147  2.2327  0.1140
 6539SOL     OW31249   1.068   0.023   1.012  0.1318 -0.3959  0.1133
 6539SOL    HW131250   1.002   4.704   1.056 -0.8511 -0.8238 -1.8548
 6539SOL    HW231251   1.154   4.717   1.025  0.5698 -0.4751 -2.9751
 6540SOL     OW31252   3.834   1.614   4.362 -0.1097 -0.0877  0.1090
 6540SOL    HW131253   3.857   1.685   4.422 -0.3808  0.2328 -0.1650
 6540SOL    HW231254   3.752   1.585   4.403  1.3033  0.0793  3.0171
 6541SOL     OW31255   1.881   1.860   7.684 -0.8517  0.7813 -0.1643
 6541SOL    HW131256   1.855   1.781   7.637 -1.6540 -0.2377  1.9978
 6541SOL    HW231257   1.931   1.911   7.621 -0.1310 -1.2286 -1.2397
 6542SOL     OW31258   4.048   1.783   5.566  0.3197 -0.1582 -0.0476
 6542SOL    HW131259   4.039   1.785   5.661 -0.5115  1.9944 -0.1888
 6542SOL    HW231260   3.988   1.853   5.543  1.1126  1.1277  1.7746
 6543SOL     OW31261   3.092   3.768   9.125  0.0259 -0.2815 -0.3681
 6543SOL    HW131262   3.122   3.857   9.106 -0.3774  0.1654  1.1436
 6543SOL    HW231263   3.009   3.773   9.077 -0.3748  1.2542  0.4743
 6544SOL     OW31264   0.026   2.319   9.308  0.5969 -0.1934 -0.7184
 6544SOL    HW131265   0.023   2.223   9.304 -0.3160 -0.2533  1.4227
 6544SOL    HW231266   4.679   2.349   9.268 -0.1466 -0.4813  0.5795
 6545SOL     OW31267   4.490   1.402   3.850 -0.2902  0.1968  0.1707
 6545SOL    HW131268   4.433   1.414   3.926  2.8286 -0.8420  2.6317
 6545SOL    HW231269   4.423   1.377   3.786 -0.1347 -1.0463  0.4935
 6546SOL     OW31270   3.165   4.606   0.759 -0.7063 -0.3824  0.2275
 6546SOL    HW131271   3.077   4.589   0.791 -0.2616 -0.4212  1.4341
 6546SOL    HW231272   3.209   4.522   0.769 -0.7806 -0.8922 -3.8968
 6547SOL     OW31273   0.390   1.719   2.528  0.1898  0.0526  0.1564
 6547SOL    HW131274   0.372   1.779   2.455 -0.1683  0.5463  0.6565
 6547SOL    HW231275   0.302   1.682   2.535  0.4954 -0.6118  0.4702
 6548SOL     OW31276   0.091   1.435  14.955  0.3473  0.0755 -0.0771
 6548SOL    HW131277   0.059   1.497  14.888  1.8567 -0.5263 -1.3540
 6548SOL    HW231278   0.086   1.349  14.913 -2.4938 -0.1872  0.7954
 6549SOL     OW31279   2.196   0.352   2.371  0.4696  0.0223  0.1894
 6549SOL    HW131280   2.117   0.303   2.349  0.9728 -0.0928 -1.3427
 6549SOL    HW231281   2.261   0.290   2.402  0.4844 -0.3879 -0.6589
 6550SOL     OW31282   0.032   1.683   7.325 -0.3474 -0.7029 -0.4120
 6550SOL    HW131283   0.031   1.716   7.235  1.4119  0.4517 -0.0066
 6550SOL    HW231284   4.721   1.743   7.385  1.5888 -0.2658  0.6236
 6551SOL     OW31285   2.499   3.433   7.027  0.0552 -0.0209  0.1909
 6551SOL    HW131286   2.417   3.440   6.978 -0.7380  1.7774  1.7827
 6551SOL    HW231287   2.550   3.501   6.982  0.6718 -1.8672 -1.9219
 6552SOL     OW31288   3.292   2.601   4.869 -0.5591  0.4025  0.4481
 6552SOL    HW131289   3.202   2.600   4.900 -0.9100  0.1654 -0.5709
 6552SOL    HW231290   3.297   2.556   4.785  0.7590 -0.2957  0.8977
 6553SOL     OW31291   0.919   3.390   5.256 -0.3839 -0.2304  0.6812
 6553SOL    HW131292   0.857   3.412   5.326  0.5652 -0.1820  1.5144
 6553SOL    HW231293   0.988   3.436   5.304  0.9751  1.0711 -2.4891
 6554SOL     OW31294   3.353   0.313   6.845  0.2420  0.0439  0.0093
 6554SOL    HW131295   3.322   0.257   6.916  3.7020 -1.4137  0.3539
 6554SOL    HW231296   3.447   0.303   6.860  0.6318  1.2408 -1.6036
 6555SOL     OW31297   2.427   1.865   2.511  0.1061  0.5254  0.1577
 6555SOL    HW131298   2.414   1.885   2.418  0.8635  0.1482 -0.0372
 6555SOL    HW231299   2.360   1.797   2.518 -1.4538  1.8238 -2.1474
 6556SOL     OW31300   1.901   2.319   1.840 -0.1084  0.1641  0.5083
 6556SOL    HW131301   1.812   2.352   1.829 -0.7194 -0.9021  2.3017
 6556SOL    HW231302   1.893   2.224   1.828  0.0087  0.1413  0.6157
 6557SOL     OW31303   1.465   2.767   3.444 -0.4869 -0.0433 -0.0831
 6557SOL    HW131304   1.443   2.741   3.354  2.6039  0.1033 -0.8879
 6557SOL    HW231305   1.377   2.751   3.479 -1.7842  2.1329 -2.3156
 6558SOL     OW31306   0.595   2.609   7.577 -0.9141 -0.1807  0.3454
 6558SOL    HW131307   0.662   2.575   7.635 -1.5923 -0.1720  1.1357
 6558SOL    HW231308   0.647   2.606   7.497 -1.8298  0.7383 -0.2853
 6559SOL     OW31309   4.426   0.390  17.416 -0.0496 -0.0670 -0.1354
 6559SOL    HW131310   4.426   0.426  17.327 -1.2998 -0.9335 -0.4869
 6559SOL    HW231311   4.476   0.452  17.468  0.5653 -1.9546  1.5168
 6560SOL     OW31312   3.742   3.053   4.473  0.0929  0.1362 -0.3274
 6560SOL    HW131313   3.751   3.120   4.540 -1.1752 -0.1762  0.1479
 6560SOL    HW231314   3.689   3.093   4.404  0.9932  1.3629 -0.3245
 6561SOL     OW31315   2.485   3.678   9.694 -0.3315  0.4202  0.4812
 6561SOL    HW131316   2.492   3.726   9.776 -1.2812  2.9523 -0.8963
 6561SOL    HW231317   2.463   3.588   9.717 -0.9102  1.1486  2.7589
 6562SOL     OW31318   4.616   3.876   8.912 -0.2171 -0.2196 -0.0145
 6562SOL    HW131319   4.610   3.784   8.939  0.4445  0.1277  1.3579
 6562SOL    HW231320   4.698   3.890   8.959 -0.2882  0.4467 -0.0901
 6563SOL     OW31321   2.328   1.852  12.701  0.4123 -0.5740  0.0112
 6563SOL    HW131322   2.307   1.943  12.725 -1.8342 -0.9516 -0.5082
 6563SOL    HW231323   2.239   1.826  12.678  1.9325 -1.1486 -5.0855
 6564SOL     OW31324   3.209   3.171   2.522  0.3085  0.2401  0.1339
 6564SOL    HW131325   3.120   3.138   2.527 -1.1910  3.8156 -2.7558
 6564SOL    HW231326   3.236   3.164   2.430 -0.7209 -1.8864  0.0009
 6565SOL     OW31327   2.524   0.356  16.474 -0.5723  0.0419 -0.1604
 6565SOL    HW131328   2.612   0.372  16.439 -0.6130 -2.8600 -1.6051
 6565SOL    HW231329   2.467   0.362  16.398 -0.2502 -1.7714 -0.5487
 6566SOL     OW31330   4.030   4.043   2.832  0.0657  0.0399  0.3437
 6566SOL    HW131331   4.111   3.995   2.817 -1.6785 -2.4217 -1.2734
 6566SOL    HW231332   4.051   4.134   2.813 -0.4184  0.1736  0.4435
 6567SOL     OW31333   4.541   0.736   3.067 -0.0158  0.0600 -0.4751
 6567SOL    HW131334   4.521   0.649   3.034 -1.5354  0.5511 -0.8356
 6567SOL    HW231335   4.555   0.706   3.157  0.0656 -0.5181 -0.6848
 6568SOL     OW31336   1.287   0.519   8.206 -0.3763  0.1093  0.1227
 6568SOL    HW131337   1.253   0.560   8.284 -0.5392  0.0825  0.0653
 6568SOL    HW231338   1.211   0.497   8.152 -0.7390  2.0247 -0.1161
 6569SOL     OW31339   2.205   2.429   1.875  0.0329 -0.0532  0.1268
 6569SOL    HW131340   2.149   2.463   1.805 -0.2680  0.0804  0.4322
 6569SOL    HW231341   2.225   2.340   1.846  0.1302 -0.1822  0.5858
 6570SOL     OW31342   0.835   0.858  15.768 -0.0045  0.0595 -0.0957
 6570SOL    HW131343   0.817   0.873  15.676  1.3493  0.7210 -0.2602
 6570SOL    HW231344   0.758   0.812  15.801 -0.3592 -1.4401 -2.9817
 6571SOL     OW31345   0.039   3.867   7.422  0.4632  0.5728  0.2352
 6571SOL    HW131346   4.704   3.833   7.477  0.6249 -2.4975 -1.3972
 6571SOL    HW231347   0.068   3.782   7.386 -1.1576  0.3668 -0.5684
 6572SOL     OW31348   1.449   3.068   3.116  0.1131  0.4715  0.0540
 6572SOL    HW131349   1.404   3.133   3.170 -0.9983  0.7963 -1.2475
 6572SOL    HW231350   1.532   3.049   3.159  1.2047  0.3127 -2.1146
 6573SOL     OW31351   0.382   3.599   8.809  0.8911 -0.1884 -0.5037
 6573SOL    HW131352   0.332   3.534   8.858 -0.9273  0.5224 -1.4144
 6573SOL    HW231353   0.458   3.553   8.773  0.5525 -1.2899  0.2165
 6574SOL     OW31354   4.267   1.342   8.553 -0.7029 -0.4689 -0.1612
 6574SOL    HW131355   4.353   1.335   8.596  0.3532  2.8001 -1.7286
 6574SOL    HW231356   4.254   1.435   8.532 -1.9562 -0.2602  1.5177
 6575SOL     OW31357   0.244   2.633   5.057 -0.2812  0.0037 -0.3168
 6575SOL    HW131358   0.302   2.561   5.031  1.2290  0.9867  0.3203
 6575SOL    HW231359   0.242   2.623   5.152  1.1420  1.3071 -0.1638
 6576SOL     OW31360   2.256   3.500  16.951  0.4327  0.0218  0.1244
 6576SOL    HW131361   2.205   3.571  16.912  2.8258  2.4202  1.3041
 6576SOL    HW231362   2.333   3.540  16.992  0.2262  0.7172 -0.1657
 6577SOL     OW31363   2.240   3.869   6.149  0.1966 -0.9665  0.0934
 6577SOL    HW131364   2.234   3.903   6.059 -1.9223  0.0497  0.6229
 6577SOL    HW231365   2.235   3.774   6.147  1.4343 -1.0133 -0.6902
 6578SOL     OW31366   1.533   3.959   2.427  0.1920  0.1968  0.2078
 6578SOL    HW131367   1.482   3.896   2.478 -1.5018  1.8151  0.5090
 6578SOL    HW231368   1.621   3.943   2.462 -0.4338 -1.3650  1.0617
 6579SOL     OW31369   3.910   3.971  15.849 -0.2380 -0.6372  0.2612
 6579SOL    HW131370   3.852   3.898  15.872 -0.5570 -0.0602  1.3041
 6579SOL    HW231371   3.899   4.025  15.927 -1.8816  0.9803 -1.0684
 6580SOL     OW31372   3.326   3.832   6.034  0.3336 -0.0776 -0.3423
 6580SOL    HW131373   3.320   3.738   6.015  0.7751 -0.1296 -0.2212
 6580SOL    HW231374   3.333   3.860   5.943 -0.3223 -0.6748 -0.5769
 6581SOL     OW31375   1.208   4.267   6.071  0.3195  0.4348 -0.0084
 6581SOL    HW131376   1.136   4.312   6.114 -1.1732 -0.0065 -2.0391
 6581SOL    HW231377   1.179   4.176   6.084 -1.1201  0.9519  0.4076
 6582SOL     OW31378   3.956   3.633   6.182 -0.3612 -0.6048  0.0157
 6582SOL    HW131379   3.958   3.710   6.124  2.6626 -1.1789 -0.6361
 6582SOL    HW231380   3.922   3.671   6.262 -0.6632 -1.9947  0.5507
 6583SOL     OW31381   1.339   0.618   3.599 -0.0265  0.4584 -0.2879
 6583SOL    HW131382   1.380   0.533   3.587  2.5644  1.5894  0.4647
 6583SOL    HW231383   1.253   0.586   3.627 -0.3401  0.9616 -0.6789
 6584SOL     OW31384   3.139   2.824   4.169 -0.1469  0.4135 -0.4593
 6584SOL    HW131385   3.064   2.771   4.196  0.7474  0.7535  2.7398
 6584SOL    HW231386   3.112   2.911   4.198 -0.5171 -0.9865  3.4075
 6585SOL     OW31387   3.062   3.783   8.491 -0.0789 -0.6993 -0.1699
 6585SOL    HW131388   3.077   3.871   8.525 -0.6554 -0.8013  0.3340
 6585SOL    HW231389   3.048   3.801   8.398  1.4932  1.5530  0.0055
 6586SOL     OW31390   0.964   1.605   8.684  0.0530 -0.4136 -0.6090
 6586SOL    HW131391   0.980   1.522   8.728  1.5737  0.0231 -0.3329
 6586SOL    HW231392   0.949   1.662   8.759  3.5045 -1.4252  0.8630
 6587SOL     OW31393   1.212   0.647   7.334  0.4387 -0.1886 -0.1110
 6587SOL    HW131394   1.279   0.629   7.399  0.4705  0.2955 -0.0057
 6587SOL    HW231395   1.176   0.731   7.364 -1.3838 -0.8335 -0.4647
 6588SOL     OW31396   2.131   2.459  15.654 -0.2217 -0.2327 -0.1885
 6588SOL    HW131397   2.075   2.382  15.663 -0.6362  0.3609  2.4141
 6588SOL    HW231398   2.098   2.521  15.719 -2.2141 -1.7001  0.1840
 6589SOL     OW31399   2.738   3.566   9.645 -0.2008 -0.2004  0.2565
 6589SOL    HW131400   2.648   3.597   9.652 -0.3281 -1.3451  3.3377
 6589SOL    HW231401   2.738   3.538   9.553  1.1003  1.8219 -0.3761
 6590SOL     OW31402   3.837   1.116   9.828 -0.0357 -0.1004 -0.2755
 6590SOL    HW131403   3.769   1.073   9.777 -0.6493  0.3253  0.1881
 6590SOL    HW231404   3.817   1.208   9.811 -0.5160 -0.2456 -0.4874
 6591SOL     OW31405   3.210   0.640   7.117 -0.5417 -0.6464  0.3849
 6591SOL    HW131406   3.251   0.557   7.144  1.0385  0.4433  1.3394
 6591SOL    HW231407   3.117   0.620   7.111 -0.7319  0.1483  0.8178
 6592SOL     OW31408   1.686   4.532   5.223 -0.3771  0.3667 -0.1382
 6592SOL    HW131409   1.682   4.462   5.158 -2.9231  0.7921 -0.4666
 6592SOL    HW231410   1.645   4.489   5.297 -2.0113 -0.2211 -1.3608
 6593SOL     OW31411   1.715   0.670   5.928 -0.3964  0.2323 -0.5115
 6593SOL    HW131412   1.684   0.642   6.015  1.6024  2.1799  0.8260
 6593SOL    HW231413   1.638   0.716   5.895 -0.4774 -0.3073 -1.0589
 6594SOL     OW31414   1.019   3.895   8.047 -0.0786  0.0374  0.3839
 6594SOL    HW131415   1.092   3.953   8.067  0.3068 -0.5825  0.7312
 6594SOL    HW231416   0.993   3.855   8.129 -0.9135  2.3944  1.2825
 6595SOL     OW31417   4.024   3.295   3.007 -0.4289  0.6300  0.6979
 6595SOL    HW131418   3.951   3.357   3.000 -0.7613  0.2866  1.1051
 6595SOL    HW231419   3.987   3.218   3.050 -1.1028  0.3359 -0.3983
 6596SOL     OW31420   3.713   0.770   4.757  0.3834  0.0928  0.4595
 6596SOL    HW131421   3.662   0.850   4.770 -0.1386 -0.3999  1.5054
 6596SOL    HW231422   3.708   0.757   4.663  2.3851 -0.7680  0.4636
 6597SOL     OW31423   1.819   0.183   4.793  0.6361 -0.0348 -0.2820
 6597SOL    HW131424   1.764   0.211   4.720 -0.2255  0.4299  0.5518
 6597SOL    HW231425   1.782   0.238   4.862  0.8253 -1.2143  0.7518
 6598SOL     OW31426   4.417   0.482  17.177 -0.2635  0.3518 -0.4524
 6598SOL    HW131427   4.360   0.480  17.100  1.3619  0.1266 -1.6516
 6598SOL    HW231428   4.506   0.502  17.147  0.0287  0.4575  0.4837
 6599SOL     OW31429   0.725   3.477  12.310  0.2138  0.1139 -0.4959
 6599SOL    HW131430   0.651   3.417  12.298  0.5454 -0.6804  1.4430
 6599SOL    HW231431   0.786   3.445  12.244  1.0597  0.8384 -0.0672
 6600SOL     OW31432   3.299   3.624   7.188  0.3586 -0.1042  0.0361
 6600SOL    HW131433   3.379   3.661   7.225 -0.7667  2.3638  0.0164
 6600SOL    HW231434   3.340   3.556   7.134  0.9802  0.2926  0.0126
 6601SOL     OW31435   4.228   4.683   3.796  0.1450 -0.1020  0.0813
 6601SOL    HW131436   4.260   0.031   3.759  1.8218 -1.0816 -0.6581
 6601SOL    HW231437   4.298   4.654   3.854  0.0230 -1.7164 -0.5800
 6602SOL     OW31438   1.097   4.031   2.693 -0.3535  0.2046 -0.0747
 6602SOL    HW131439   1.167   3.969   2.711 -0.2434  0.2559 -0.3334
 6602SOL    HW231440   1.104   4.038   2.598  0.0478  1.5368  0.0619
 6603SOL     OW31441   3.584   3.115   1.285 -0.1886 -0.5866  0.0486
 6603SOL    HW131442   3.646   3.161   1.229  1.5285 -2.8975  0.0580
 6603SOL    HW231443   3.556   3.192   1.333  0.6056  0.5418 -1.2991
 6604SOL     OW31444   4.081   3.774   6.518  0.4191  0.4281  0.3367
 6604SOL    HW131445   4.139   3.785   6.443 -1.7199 -0.1205 -1.3973
 6604SOL    HW231446   4.009   3.720   6.486  0.3337  0.6346  0.1790
 6605SOL     OW31447   1.216   4.652   5.764  0.1470 -0.3948  0.0809
 6605SOL    HW131448   1.252   0.006   5.757  1.5150 -1.0605 -1.3274
 6605SOL    HW231449   1.140   4.652   5.705  0.6637 -1.3239 -0.6028
 6606SOL     OW31450   3.900   2.781   3.459  0.1001  0.3913  0.1687
 6606SOL    HW131451   3.968   2.713   3.459 -0.0904  0.1974  2.4765
 6606SOL    HW231452   3.922   2.839   3.386  0.0239 -1.7274 -1.5448
 6607SOL     OW31453   4.357   1.719   2.451 -0.2100 -0.5364 -0.1173
 6607SOL    HW131454   4.348   1.689   2.361  0.4487 -2.0764  0.3217
 6607SOL    HW231455   4.437   1.771   2.445 -0.7006  0.3689  1.1581
 6608SOL     OW31456   1.326   4.468  17.477 -0.5543  0.1679  0.1262
 6608SOL    HW131457   1.333   4.380  17.514  0.2321  0.4922  0.7459
 6608SOL    HW231458   1.292   4.450  17.389  1.7878 -3.3412 -0.0491
 6609SOL     OW31459   3.219   3.246   8.927 -0.6869  0.3399 -0.3616
 6609SOL    HW131460   3.240   3.291   9.009  0.6456  0.0589 -0.5412
 6609SOL    HW231461   3.193   3.320   8.872  1.0083  1.3210  0.1576
 6610SOL     OW31462   2.337   2.615   7.856  0.0421  0.0400  0.2550
 6610SOL    HW131463   2.249   2.588   7.881 -0.2698 -0.0395 -0.9225
 6610SOL    HW231464   2.367   2.528   7.828 -1.0142 -0.4277  0.6128
 6611SOL     OW31465   3.804   3.330   5.487  0.4300  0.1240  0.1563
 6611SOL    HW131466   3.723   3.367   5.453 -0.3314 -0.9861  0.7627
 6611SOL    HW231467   3.839   3.407   5.532 -0.0920  0.1410  0.5349
 6612SOL     OW31468   2.938   3.893   1.790  0.5814 -0.0816  0.3832
 6612SOL    HW131469   3.013   3.852   1.747  1.4570  0.3969  1.4774
 6612SOL    HW231470   2.911   3.820   1.846 -1.3071 -0.7863 -1.4559
 6613SOL     OW31471   3.281   1.349   6.079 -0.6459  0.6893  0.6080
 6613SOL    HW131472   3.305   1.441   6.090 -2.1344  1.0021  1.2205
 6613SOL    HW231473   3.215   1.338   6.147 -1.5466 -0.5106 -0.4532
 6614SOL     OW31474   3.896   1.031   9.265 -0.0224  0.4709  0.1183
 6614SOL    HW131475   3.903   0.945   9.306 -0.4827  0.7824  0.8320
 6614SOL    HW231476   3.912   1.088   9.340  3.3709 -0.2974 -0.0029
 6615SOL     OW31477   3.110   1.548   3.688  0.2148 -0.2753 -0.4090
 6615SOL    HW131478   3.083   1.590   3.606 -2.9945 -1.6860 -0.0868
 6615SOL    HW231479   3.031   1.497   3.706  0.2545 -0.3950 -0.5737
 6616SOL     OW31480   0.436   3.977   0.597 -0.2923  0.4897  0.0572
 6616SOL    HW131481   0.384   4.051   0.630 -0.9373  0.0773 -0.0281
 6616SOL    HW231482   0.467   4.014   0.514 -0.9055  0.4353 -0.1995
 6617SOL     OW31483   4.149   3.530   4.331  0.3068 -0.1864 -0.2116
 6617SOL    HW131484   4.200   3.456   4.366  0.2449 -0.5321 -0.8624
 6617SOL    HW231485   4.205   3.548   4.256  1.2680  3.2437  1.3545
 6618SOL     OW31486   2.905   2.063   7.706 -0.0970  0.1463 -0.5083
 6618SOL    HW131487   2.983   2.116   7.689 -0.1551  0.2452 -0.4688
 6618SOL    HW231488   2.838   2.105   7.652 -0.7366  1.3683  1.2058
 6619SOL     OW31489   3.883   1.875   1.079 -0.2953 -0.0755  0.5973
 6619SOL    HW131490   3.926   1.790   1.082 -0.9238 -0.3565  1.5490
 6619SOL    HW231491   3.934   1.920   1.011  0.7501  0.7037  1.9084
 6620SOL     OW31492   0.866   3.409   4.978 -0.2840 -0.0895  0.0848
 6620SOL    HW131493   0.871   3.414   5.073  1.6787  1.9278 -0.1463
 6620SOL    HW231494   0.774   3.418   4.955 -0.1856 -0.5036 -0.4721
 6621SOL     OW31495   0.954   3.938   5.926  0.1157 -0.7014 -1.0211
 6621SOL    HW131496   1.045   3.966   5.920  0.6995 -2.5603 -0.9771
 6621SOL    HW231497   0.905   4.018   5.907  1.8567  0.0043 -2.4432
 6622SOL     OW31498   0.483   1.438   5.137  0.0513 -0.1114 -0.7709
 6622SOL    HW131499   0.389   1.450   5.127 -0.0303  0.9264  1.2881
 6622SOL    HW231500   0.506   1.526   5.164  2.1581 -1.3278  1.3646
 6623SOL     OW31501   0.709   1.647   8.254  0.6092 -0.2525 -0.5214
 6623SOL    HW131502   0.798   1.630   8.223 -0.2418  1.0640 -3.7488
 6623SOL    HW231503   0.675   1.559   8.238 -0.1143 -0.3980  1.9545
 6624SOL     OW31504   1.579   2.845   6.051 -0.4456  0.2856 -0.4340
 6624SOL    HW131505   1.552   2.890   6.132  2.6979 -2.4633  2.1407
 6624SOL    HW231506   1.671   2.832   6.072 -1.2420 -1.4474  1.9973
 6625SOL     OW31507   4.131   3.790  15.310 -0.3164 -0.0843 -0.2901
 6625SOL    HW131508   4.099   3.751  15.391 -0.6112  2.0574  0.6420
 6625SOL    HW231509   4.093   3.878  15.322  1.9235  0.8345  0.0008
 6626SOL     OW31510   3.031   4.589   8.952 -0.0332  0.1024 -0.6422
 6626SOL    HW131511   3.089   4.513   8.950 -0.4930 -0.2538 -0.3388
 6626SOL    HW231512   2.972   4.567   9.024 -0.4534  1.9959 -0.4164
 6627SOL     OW31513   1.975   1.794   3.695  0.5847 -0.1297 -0.3772
 6627SOL    HW131514   1.948   1.736   3.767  1.2996  0.1960  0.1553
 6627SOL    HW231515   1.991   1.880   3.734 -0.4442 -0.8257  1.6153
 6628SOL     OW31516   4.727   0.628   8.693 -0.4683  0.3274 -0.4644
 6628SOL    HW131517   0.043   0.635   8.612  0.6568 -0.9334  0.1231
 6628SOL    HW231518   0.068   0.652   8.748 -0.4304  1.0108 -0.8162
 6629SOL     OW31519   3.969   3.619  11.863  0.1081 -0.0563 -0.4043
 6629SOL    HW131520   4.005   3.645  11.948 -0.8188  2.6717 -0.8620
 6629SOL    HW231521   3.879   3.649  11.872 -0.0206 -0.7260  0.4832
 6630SOL     OW31522   2.222   1.081   5.369 -0.8970 -0.0502 -0.5129
 6630SOL    HW131523   2.310   1.056   5.397 -0.6342  0.3324 -0.9944
 6630SOL    HW231524   2.240   1.172   5.345  0.7280 -0.1102  0.4615
 6631SOL     OW31525   1.379   3.267   9.527  0.1026 -0.0308 -0.3742
 6631SOL    HW131526   1.340   3.183   9.501  1.8384 -1.3366  1.2620
 6631SOL    HW231527   1.418   3.297   9.445 -0.8311  1.1033 -0.3961
 6632SOL     OW31528   0.282   1.367   6.115 -0.2406  0.3482 -0.1107
 6632SOL    HW131529   0.361   1.321   6.140 -1.1952 -1.4306 -0.3818
 6632SOL    HW231530   0.300   1.449   6.160 -0.0111  1.3797 -2.0472
 6633SOL     OW31531   1.610   3.161   8.204 -0.2183  0.2564  0.2142
 6633SOL    HW131532   1.608   3.232   8.268  2.7819 -0.4332  1.0522
 6633SOL    HW231533   1.679   3.109   8.244 -0.7851 -2.3191 -2.1567
 6634SOL     OW31534   1.365   1.683   7.074 -0.0355  0.0005  0.0859
 6634SOL    HW131535   1.343   1.751   7.010  1.1941  0.2685 -0.0581
 6634SOL    HW231536   1.460   1.696   7.077  0.0899 -1.0929  0.7654
 6635SOL     OW31537   2.251   3.848  16.047 -0.6185 -0.4435  0.3652
 6635SOL    HW131538   2.305   3.822  15.972 -1.4783  1.6866 -0.9947
 6635SOL    HW231539   2.188   3.907  16.005 -0.2857 -1.2207 -1.2397
 6636SOL     OW31540   0.570   1.383   4.514  0.3576  0.1347  0.3797
 6636SOL    HW131541   0.524   1.377   4.598  1.1227 -2.9038  0.5720
 6636SOL    HW231542   0.661   1.376   4.542  1.0847 -3.0883 -2.6710
 6637SOL     OW31543   1.323   1.933  14.205 -0.6635  0.1542 -0.1868
 6637SOL    HW131544   1.268   1.869  14.160 -3.1782  2.3330 -0.1819
 6637SOL    HW231545   1.294   2.009  14.155  0.9485  0.4441 -0.6913
 6638SOL     OW31546   4.136   0.735   1.229 -0.2000  0.2205 -0.3142
 6638SOL    HW131547   4.053   0.689   1.216 -0.2463  0.9753 -2.6264
 6638SOL    HW231548   4.136   0.736   1.325  0.3212 -1.8844 -0.2954
 6639SOL     OW31549   1.268   3.470   6.926 -0.1754  0.0407 -0.2749
 6639SOL    HW131550   1.291   3.457   7.018  1.0525  0.7554 -0.4843
 6639SOL    HW231551   1.290   3.563   6.920 -1.7279  0.4615  0.5012
 6640SOL     OW31552   1.141   3.949   1.599  0.2622 -0.0861 -0.1851
 6640SOL    HW131553   1.236   3.960   1.602  0.4186 -1.1419 -1.0700
 6640SOL    HW231554   1.129   3.875   1.659 -1.8194  1.1018  0.8987
 6641SOL     OW31555   3.524   0.316   4.090  0.1433 -0.4771 -0.3255
 6641SOL    HW131556   3.471   0.255   4.141  1.3791 -0.3748  1.0743
 6641SOL    HW231557   3.459   0.334   4.022 -1.7625  0.5721  1.7929
 6642SOL     OW31558   0.370   2.744   4.781  0.4488 -0.0388  0.4898
 6642SOL    HW131559   0.350   2.658   4.817 -0.0631 -0.2250 -0.2241
 6642SOL    HW231560   0.302   2.754   4.714  2.0615 -1.2477 -1.3248
 6643SOL     OW31561   1.140   4.632   8.719 -0.4223 -0.1702 -0.1846
 6643SOL    HW131562   1.151   4.549   8.765 -1.3138 -1.5847 -2.5662
 6643SOL    HW231563   1.177   4.702   8.773  2.6072 -0.5165 -1.8020
 6644SOL     OW31564   3.843   3.764   3.206 -0.0651 -0.1228 -0.8281
 6644SOL    HW131565   3.855   3.764   3.111 -1.4505 -1.1934 -1.0137
 6644SOL    HW231566   3.747   3.772   3.207 -0.3321 -2.9006 -3.2064
 6645SOL     OW31567   2.608   4.065   2.827 -0.3651 -0.1880  0.0047
 6645SOL    HW131568   2.581   4.155   2.843 -0.9356 -0.0070 -2.0075
 6645SOL    HW231569   2.545   4.020   2.883 -1.4346 -0.6158 -1.5442
 6646SOL     OW31570   2.187   3.490   5.570 -0.2193 -0.0459  0.1053
 6646SOL    HW131571   2.270   3.507   5.525  1.4065 -2.7136  2.0966
 6646SOL    HW231572   2.174   3.570   5.621 -1.8480 -0.4166  0.2543
 6647SOL     OW31573   0.878   0.321   0.451 -0.2768  0.1285 -0.4242
 6647SOL    HW131574   0.959   0.331   0.502 -1.1813  0.0783  1.0091
 6647SOL    HW231575   0.904   0.298   0.362  0.9483 -1.7911  0.4434
 6648SOL     OW31576   0.857   1.989   2.957  0.3964  0.1822  0.1624
 6648SOL    HW131577   0.849   1.949   3.043  0.6282 -1.4648 -0.5785
 6648SOL    HW231578   0.911   2.064   2.979 -0.8850  0.4812  2.3111
 6649SOL     OW31579   3.886   3.432   2.559  0.2847  0.2154  0.4895
 6649SOL    HW131580   3.826   3.448   2.486  0.0898  0.2254  0.6511
 6649SOL    HW231581   3.963   3.387   2.525 -0.9269 -0.6618 -1.0618
 6650SOL     OW31582   1.565   0.735   4.634 -0.3902  0.2930  0.0914
 6650SOL    HW131583   1.506   0.710   4.705  0.4995 -2.7439 -0.2502
 6650SOL    HW231584   1.610   0.653   4.614  0.4896  0.9788 -0.7629
 6651SOL     OW31585   0.711   0.510  17.138 -0.1897  0.5739 -0.5321
 6651SOL    HW131586   0.786   0.476  17.090 -0.8547 -1.4972 -0.1033
 6651SOL    HW231587   0.658   0.437  17.170 -0.9396  1.3358 -0.0450
 6652SOL     OW31588   2.292   2.892   9.787  0.2432 -0.0742  0.1626
 6652SOL    HW131589   2.347   2.893   9.866 -0.2291  0.0310  0.4886
 6652SOL    HW231590   2.204   2.904   9.823  0.9471  1.6767  1.3005
 6653SOL     OW31591   4.520   3.420  12.690 -0.2659  0.2296  0.0252
 6653SOL    HW131592   4.601   3.370  12.703 -0.3029  0.9511  2.9790
 6653SOL    HW231593   4.461   3.366  12.637  0.0498 -0.7713  0.7039
 6654SOL     OW31594   4.210   0.443  12.785  0.1637  0.4231  0.6422
 6654SOL    HW131595   4.183   0.423  12.875 -1.4348  0.0731  0.0859
 6654SOL    HW231596   4.298   0.477  12.800  0.0951  1.5857 -1.6129
 6655SOL     OW31597   2.948   2.716   8.617 -0.4648  0.2598  0.3433
 6655SOL    HW131598   2.884   2.700   8.548  0.3502 -0.5856 -0.2280
 6655SOL    HW231599   2.899   2.689   8.694  0.4766 -0.6172  0.6347
 6656SOL     OW31600   4.083   2.108  14.004 -0.3015  0.1536  0.0644
 6656SOL    HW131601   4.001   2.087  14.048  1.5573 -3.1923  1.9337
 6656SOL    HW231602   4.089   2.203  14.006 -1.3932  0.2352 -0.8021
 6657SOL     OW31603   1.392   3.344   2.774 -0.2429 -0.1048 -0.1950
 6657SOL    HW131604   1.461   3.328   2.710  0.1131  1.9437 -0.3132
 6657SOL    HW231605   1.326   3.376   2.712  0.5744  1.9534  0.0063
 6658SOL     OW31606   3.782   0.838   7.582 -0.3295  0.0645  0.5189
 6658SOL    HW131607   3.822   0.779   7.518 -0.7794  2.3506 -1.8741
 6658SOL    HW231608   3.819   0.807   7.665  0.1910 -1.6183 -0.3444
 6659SOL     OW31609   4.684   2.763  11.954 -0.1088  0.4211  0.2239
 6659SOL    HW131610   4.653   2.817  11.882 -0.1991  3.7625  2.7825
 6659SOL    HW231611   4.641   2.797  12.033 -3.7859 -1.2432 -1.0643
 6660SOL     OW31612   0.674   3.868   0.016  0.2801  0.0343  0.2889
 6660SOL    HW131613   0.769   3.872   0.032  0.0904  1.0309  1.1769
 6660SOL    HW231614   0.653   3.890  17.662  1.9961 -1.7601 -0.5473
 6661SOL     OW31615   0.529   0.058   3.716  0.4260 -0.0654 -0.4134
 6661SOL    HW131616   0.534   0.152   3.729  2.6940 -0.4314  1.2434
 6661SOL    HW231617   0.601   0.043   3.654  1.1912 -0.4329  0.5723
 6662SOL     OW31618   1.532   1.598   5.600 -0.1305  0.1845  0.1383
 6662SOL    HW131619   1.444   1.558   5.596  0.3362 -1.0729  2.4307
 6662SOL    HW231620   1.538   1.613   5.695 -0.0622  0.4259  0.0960
 6663SOL     OW31621   4.109   2.610   3.763  0.2252  0.3840 -0.1882
 6663SOL    HW131622   4.027   2.571   3.794 -0.0018  0.4763 -0.6873
 6663SOL    HW231623   4.100   2.685   3.822 -0.8900 -1.6484  2.2213
 6664SOL     OW31624   2.600   0.367   8.565 -0.4258 -0.2948 -0.2559
 6664SOL    HW131625   2.539   0.416   8.621  1.0235 -0.5541  1.5746
 6664SOL    HW231626   2.563   0.282   8.590  0.7279 -0.7285 -0.0305
 6665SOL     OW31627   3.282   0.278   5.550 -0.4148 -0.0169 -0.0618
 6665SOL    HW131628   3.250   0.339   5.484 -2.4207 -0.0987  0.8545
 6665SOL    HW231629   3.265   0.325   5.631 -0.5863 -0.1291 -0.0324
 6666SOL     OW31630   0.772   0.294   8.278  0.0154 -0.0924 -0.4238
 6666SOL    HW131631   0.705   0.283   8.346 -0.3644 -2.7270 -1.2555
 6666SOL    HW231632   0.723   0.350   8.218  1.8350  2.0008  0.0128
 6667SOL     OW31633   1.433   3.026   7.158  0.4153 -0.4650 -0.2310
 6667SOL    HW131634   1.482   3.073   7.225 -0.4710  1.2830 -0.8183
 6667SOL    HW231635   1.473   2.939   7.169  1.0216 -0.4053 -1.9297
 6668SOL     OW31636   2.132   2.978   6.641  0.0801 -0.1907 -0.1252
 6668SOL    HW131637   2.069   2.906   6.644 -0.6328  0.4018 -0.8848
 6668SOL    HW231638   2.181   2.949   6.565  0.9665  0.0898  0.3442
 6669SOL     OW31639   4.618   2.046   5.950 -0.3553 -0.0148 -0.2615
 6669SOL    HW131640   4.702   2.083   5.924  0.3941 -0.2374  1.8297
 6669SOL    HW231641   4.589   2.097   6.026  0.8734  1.2674 -0.6530
 6670SOL     OW31642   2.546   0.068   8.586  0.3296  0.4931 -0.0545
 6670SOL    HW131643   2.632   0.028   8.596 -1.2321 -2.3834  2.1180
 6670SOL    HW231644   2.508   0.035   8.668  1.5918  0.1890  0.4169
 6671SOL     OW31645   4.459   0.640   2.291 -0.1440  0.2480  0.2151
 6671SOL    HW131646   4.366   0.629   2.270  0.0719 -0.0749 -0.5486
 6671SOL    HW231647   4.457   0.665   2.384  0.2350 -0.3784  0.3936
 6672SOL     OW31648   3.590   4.648   5.135 -0.5608  0.9850 -0.2267
 6672SOL    HW131649   3.507   4.676   5.173 -2.2501 -0.9788 -2.5106
 6672SOL    HW231650   3.631   4.734   5.143  3.1413 -0.9823  2.3994
 6673SOL     OW31651   4.284   4.705  17.610 -0.0575 -0.0305 -0.0126
 6673SOL    HW131652   4.283   0.054  17.656 -1.1064 -0.6711  1.1292
 6673SOL    HW231653   4.371   4.675  17.634  0.8585  3.2049  0.6709
 6674SOL     OW31654   3.530   3.703   7.288 -0.2717  0.4392 -0.2367
 6674SOL    HW131655   3.584   3.782   7.289  1.1074 -0.5086  0.0311
 6674SOL    HW231656   3.535   3.681   7.381  0.6558  2.2351  0.1389
 6675SOL     OW31657   3.835   1.960  14.074  0.1374 -0.1785 -0.4585
 6675SOL    HW131658   3.796   1.908  14.144 -0.3627 -1.6715 -1.8421
 6675SOL    HW231659   3.887   1.894  14.029 -0.9797 -0.5359 -1.2360
 6676SOL     OW31660   2.591   1.004   9.305  0.3011  0.4099  0.1077
 6676SOL    HW131661   2.659   1.048   9.356 -0.0687 -0.6418  1.5246
 6676SOL    HW231662   2.641   0.923   9.291 -0.5088  0.2855 -2.0682
 6677SOL     OW31663   2.041   4.122   7.828  0.5347  0.7670 -0.1750
 6677SOL    HW131664   2.083   4.038   7.847  1.4649  1.3927  0.5023
 6677SOL    HW231665   2.114   4.182   7.840  2.0504 -1.0027 -0.5114
 6678SOL     OW31666   1.052   0.821   7.715  0.1559 -0.1483  0.6478
 6678SOL    HW131667   1.002   0.834   7.634 -0.6533  2.0960  1.5168
 6678SOL    HW231668   0.993   0.766   7.766  0.9744 -2.1666 -0.5923
 6679SOL     OW31669   3.453   2.835   6.735 -0.3628 -0.1561 -0.2621
 6679SOL    HW131670   3.441   2.879   6.651 -0.1188 -0.2158 -0.3283
 6679SOL    HW231671   3.459   2.743   6.709  0.4336 -0.3343  0.5601
 6680SOL     OW31672   0.584   0.237  16.741  0.3793 -0.0176 -0.2762
 6680SOL    HW131673   0.563   0.330  16.755 -1.1980 -0.4172 -0.0832
 6680SOL    HW231674   0.643   0.247  16.666  0.4845 -0.6797 -0.2769
 6681SOL     OW31675   2.001   2.003   8.873  0.2573  0.1162 -0.1699
 6681SOL    HW131676   2.060   2.079   8.870  0.5906 -0.0728  2.0659
 6681SOL    HW231677   1.914   2.041   8.863  0.9689  2.1655  1.3049
 6682SOL     OW31678   3.489   1.315   2.457 -0.1367  0.4171 -0.2160
 6682SOL    HW131679   3.432   1.257   2.406 -0.0532 -0.9493  1.2516
 6682SOL    HW231680   3.495   1.387   2.394 -0.2062 -0.2029 -0.9341
 6683SOL     OW31681   1.460   1.456   5.237 -0.1389 -0.4653 -0.8179
 6683SOL    HW131682   1.403   1.474   5.162  0.5607 -1.1305 -1.5054
 6683SOL    HW231683   1.470   1.539   5.284 -1.5726 -1.0573  0.5209
 6684SOL     OW31684   0.196   1.888   4.162 -0.7183  0.0761 -0.0296
 6684SOL    HW131685   0.152   1.973   4.151  2.9010  2.2152  2.0099
 6684SOL    HW231686   0.139   1.850   4.229  0.3147  0.8391  1.2947
 6685SOL     OW31687   0.567   1.888   6.665 -0.5546 -0.6660  0.2551
 6685SOL    HW131688   0.513   1.907   6.588 -0.1534  0.6892  0.3097
 6685SOL    HW231689   0.582   1.793   6.663 -2.2817 -0.9495  0.4603
 6686SOL     OW31690   1.701   1.586   4.002  0.0510  0.1803  0.1523
 6686SOL    HW131691   1.659   1.539   4.074  1.3748  0.0432  0.8368
 6686SOL    HW231692   1.740   1.510   3.958  2.8713  0.9363  1.3314
 6687SOL     OW31693   3.294   3.793  14.847 -0.1761 -0.2329  0.1331
 6687SOL    HW131694   3.314   3.788  14.754 -1.4680  1.0057 -0.2016
 6687SOL    HW231695   3.357   3.736  14.891  1.5172 -0.3129 -2.4288
 6688SOL     OW31696   0.956   3.787  14.493  0.0727 -0.1302 -0.0906
 6688SOL    HW131697   0.913   3.825  14.570  1.5940 -0.9344  1.1635
 6688SOL    HW231698   0.877   3.751  14.453 -0.5036  1.0388 -0.0099
 6689SOL     OW31699   4.218   4.705   4.348  0.2018 -0.4118  0.2642
 6689SOL    HW131700   4.135   4.730   4.387  0.2402  2.0070 -1.1634
 6689SOL    HW231701   4.274   4.720   4.424 -0.1669 -5.5050  1.4747
 6690SOL     OW31702   3.742   3.831   6.438  0.5879  0.3918 -0.0988
 6690SOL    HW131703   3.793   3.903   6.400  2.7475 -0.1755  1.7242
 6690SOL    HW231704   3.757   3.844   6.532  1.1597  0.8872 -0.2559
 6691SOL     OW31705   2.522   0.070   5.361 -0.5607  0.5098 -0.2742
 6691SOL    HW131706   2.590   0.137   5.351 -0.0460  0.3124  1.8247
 6691SOL    HW231707   2.445   0.125   5.376 -0.8197 -0.0595  0.5140
 6692SOL     OW31708   0.726   0.279   6.330  0.3860 -0.6797 -0.0125
 6692SOL    HW131709   0.688   0.344   6.271 -0.8752 -2.6489 -1.3966
 6692SOL    HW231710   0.819   0.298   6.318  0.1778 -0.4781 -1.3110
 6693SOL     OW31711   2.217   1.183  16.828  0.0613 -0.1595  0.5814
 6693SOL    HW131712   2.164   1.186  16.749  2.5858  2.1011 -1.0169
 6693SOL    HW231713   2.202   1.090  16.849 -0.5602 -0.6062 -1.8198
 6694SOL     OW31714   4.133   2.061   8.934  0.3644  0.0410  0.4241
 6694SOL    HW131715   4.099   2.090   8.849 -1.3429 -1.0181  0.7543
 6694SOL    HW231716   4.155   2.137   8.988  0.7956 -2.3991  3.6765
 6695SOL     OW31717   1.111   3.835  15.457  0.2090 -0.0101 -0.3720
 6695SOL    HW131718   1.038   3.790  15.416  0.9677 -0.2813 -1.4529
 6695SOL    HW231719   1.161   3.759  15.486  0.0909  0.0023 -0.1402
 6696SOL     OW31720   0.062   4.510   4.612 -0.5446  0.2481 -0.0941
 6696SOL    HW131721   0.027   4.591   4.647  2.8285  1.9604 -0.7121
 6696SOL    HW231722   0.062   4.453   4.689 -0.9932  1.9427  1.1502
 6697SOL     OW31723   1.767   1.381  12.977 -0.0298  0.5386  0.2502
 6697SOL    HW131724   1.808   1.359  12.893  0.6201 -0.6565  0.8787
 6697SOL    HW231725   1.730   1.467  12.956  2.2108  0.9130 -2.1562
 6698SOL     OW31726   1.437   0.177   2.734 -0.1995  0.1043 -0.0021
 6698SOL    HW131727   1.425   0.268   2.708  0.4814  0.3766  0.6209
 6698SOL    HW231728   1.362   0.165   2.792 -0.0299  1.0831  0.4136
 6699SOL     OW31729   1.632   1.615  12.967 -1.0797 -0.5185  0.2963
 6699SOL    HW131730   1.538   1.604  12.957 -0.5875 -2.7731 -1.6713
 6699SOL    HW231731   1.650   1.695  12.917 -0.5209 -0.0230  1.2813
 6700SOL     OW31732   3.783   4.158   1.214 -0.3470  0.1750  0.2962
 6700SOL    HW131733   3.689   4.174   1.222 -0.8554 -1.0193 -3.2873
 6700SOL    HW231734   3.798   4.086   1.276 -1.8734 -0.1162  0.3311
 6701SOL     OW31735   0.655   2.816   5.440 -0.3622 -0.5330  0.1219
 6701SOL    HW131736   0.579   2.784   5.391 -1.9105 -1.0879  2.9156
 6701SOL    HW231737   0.605   2.840   5.518  1.7161 -1.2954  1.6827
 6702SOL     OW31738   3.629   4.441  11.779 -0.0579 -0.3507 -0.6855
 6702SOL    HW131739   3.536   4.418  11.780 -1.0624  3.7909 -0.6569
 6702SOL    HW231740   3.614   4.533  11.801 -2.2116 -0.8045 -0.2294
 6703SOL     OW31741   0.789   0.110   2.463  0.2246 -0.0712  0.3275
 6703SOL    HW131742   0.748   0.097   2.378  0.6121 -1.2658  0.3293
 6703SOL    HW231743   0.716   0.158   2.502  0.3053  1.3369 -1.2538
 6704SOL     OW31744   0.007   2.530   3.034  0.1004 -0.6562 -0.5842
 6704SOL    HW131745   4.733   2.526   2.938 -1.0410  1.0163 -0.5642
 6704SOL    HW231746   4.717   2.621   3.050 -2.0600 -1.7185  2.2267
 6705SOL     OW31747   1.876   3.373   3.177  0.3663  0.1481  0.2298
 6705SOL    HW131748   1.877   3.377   3.081 -2.3446  2.0341  0.2839
 6705SOL    HW231749   1.799   3.318   3.188 -1.0803  2.0901 -0.1370
 6706SOL     OW31750   1.701   3.966   7.824 -0.2204  0.0979  0.2731
 6706SOL    HW131751   1.757   3.935   7.754  0.6487  1.8369  0.1817
 6706SOL    HW231752   1.625   3.995   7.774  0.6675  0.2005 -1.0169
 6707SOL     OW31753   0.649   0.151   4.360  0.6141 -0.1866 -0.2408
 6707SOL    HW131754   0.643   0.069   4.310 -0.2522 -0.2963  0.0390
 6707SOL    HW231755   0.710   0.118   4.425  0.4625 -0.8297 -0.4229
 6708SOL     OW31756   1.444   0.871   7.361  0.3558 -0.5281 -0.2940
 6708SOL    HW131757   1.411   0.832   7.442  1.9130 -1.5474 -0.1385
 6708SOL    HW231758   1.522   0.913   7.396 -0.5108 -0.3010  1.3258
 6709SOL     OW31759   3.806   3.078   3.239  0.0524  0.1267 -0.4665
 6709SOL    HW131760   3.748   3.153   3.254  1.1364  0.6800  0.9701
 6709SOL    HW231761   3.881   3.105   3.292  2.3914 -0.0548 -3.6298
 6710SOL     OW31762   1.111   0.151   1.402 -0.2644 -0.5513  0.3041
 6710SOL    HW131763   1.020   0.128   1.418 -0.0747 -3.1123 -2.3701
 6710SOL    HW231764   1.157   0.076   1.441 -0.9956 -0.1154  2.0222
 6711SOL     OW31765   4.595   2.242  13.394  0.3158 -0.1538 -0.8760
 6711SOL    HW131766   4.522   2.266  13.450  0.7379 -2.5685  0.7334
 6711SOL    HW231767   4.673   2.275  13.437  1.6783 -3.1567 -0.9851
 6712SOL     OW31768   2.181   2.785   3.148  0.1883  0.2415  0.0095
 6712SOL    HW131769   2.265   2.797   3.193  0.5837 -2.9295  0.1120
 6712SOL    HW231770   2.128   2.736   3.210  1.4955 -1.8617 -0.5343
 6713SOL     OW31771   3.095   2.550   9.488  0.0474  0.5524  0.3123
 6713SOL    HW131772   3.019   2.607   9.481 -1.1078 -0.9093  1.0780
 6713SOL    HW231773   3.131   2.550   9.399  1.4751  1.4716  0.8878
 6714SOL     OW31774   0.954   0.736   3.485 -0.0311 -0.3454  0.5528
 6714SOL    HW131775   0.962   0.831   3.470 -0.8248 -0.4385 -0.4361
 6714SOL    HW231776   0.864   0.720   3.458 -0.3532  1.5198  0.4808
 6715SOL     OW31777   2.253   3.934   0.724 -0.1105  0.0449  0.7066
 6715SOL    HW131778   2.241   3.848   0.765  1.3032  0.7114  2.5023
 6715SOL    HW231779   2.219   3.924   0.635 -1.1529  1.0406  0.9785
 6716SOL     OW31780   0.485   4.468   9.337 -0.0234  0.5000 -0.3487
 6716SOL    HW131781   0.442   4.390   9.302 -1.3039  0.8149  0.5352
 6716SOL    HW231782   0.441   4.471   9.422  2.0541 -0.7859  0.7534
 6717SOL     OW31783   0.768   0.464   2.623  0.4142 -0.0914  0.1033
 6717SOL    HW131784   0.862   0.447   2.621  0.4903  0.4551 -1.0083
 6717SOL    HW231785   0.739   0.374   2.634 -0.3716 -0.2112 -2.8689
 6718SOL     OW31786   3.292   4.121  13.190 -0.6303  0.4118  0.3862
 6718SOL    HW131787   3.286   4.116  13.286  0.9987  0.6589  0.5083
 6718SOL    HW231788   3.214   4.176  13.183 -0.9883 -0.0827  0.4402
 6719SOL     OW31789   0.821   3.142  14.440  0.3455  0.2304  0.0412
 6719SOL    HW131790   0.884   3.075  14.468  0.9681  0.1957 -1.4124
 6719SOL    HW231791   0.750   3.092  14.481  0.8600  0.2540  0.9698
 6720SOL     OW31792   0.861   2.514   9.134  0.7064  0.2672  0.5869
 6720SOL    HW131793   0.921   2.584   9.161 -0.6242  1.2305  1.0427
 6720SOL    HW231794   0.918   2.446   9.100  0.5745  0.0428  0.8229
 6721SOL     OW31795   2.957   4.405   3.879 -0.3589 -0.4052 -0.1011
 6721SOL    HW131796   3.044   4.434   3.905 -0.7987  0.8238 -0.0380
 6721SOL    HW231797   2.980   4.348   3.805  4.1804 -0.8340  1.6528
 6722SOL     OW31798   2.601   0.362  12.690  0.0042  0.0611  0.4571
 6722SOL    HW131799   2.577   0.411  12.612 -1.3203  0.2860  1.0097
 6722SOL    HW231800   2.645   0.428  12.744 -1.1068  1.2196 -0.0536
 6723SOL     OW31801   1.310   2.326   2.444 -0.4337  0.4443 -0.2959
 6723SOL    HW131802   1.349   2.240   2.427 -1.9336 -0.0597 -1.2266
 6723SOL    HW231803   1.359   2.352   2.522  0.9210 -0.9498 -0.6770
 6724SOL     OW31804   3.513   1.237   8.014 -0.2767  0.3349  0.5769
 6724SOL    HW131805   3.418   1.232   8.015 -0.2998  1.1429  1.7456
 6724SOL    HW231806   3.522   1.142   8.008  1.0788  0.4660  0.4178
 6725SOL     OW31807   2.467   4.141   1.404  0.5672  0.2854  0.3517
 6725SOL    HW131808   2.390   4.197   1.417 -0.6499 -1.2382 -0.2352
 6725SOL    HW231809   2.542   4.197   1.418 -0.2175  1.7709 -1.3534
 6726SOL     OW31810   3.884   2.662   8.039  0.2436 -0.5079 -0.9154
 6726SOL    HW131811   3.865   2.632   7.950  1.0862 -0.3383 -1.1529
 6726SOL    HW231812   3.973   2.636   8.061  0.4259  1.4266  0.6372
 6727SOL     OW31813   3.671   3.908  16.839  0.2332  0.1244  0.0233
 6727SOL    HW131814   3.757   3.920  16.879 -0.3740 -2.1665  1.9931
 6727SOL    HW231815   3.631   3.992  16.864  0.0434  0.7751 -2.4435
 6728SOL     OW31816   2.184   4.092   4.701  0.9224 -0.3731 -0.1592
 6728SOL    HW131817   2.165   4.013   4.650 -0.0590  0.0585 -0.4735
 6728SOL    HW231818   2.097   4.108   4.737  0.3150 -1.5001 -1.1402
 6729SOL     OW31819   0.608   1.299   2.669  0.0059  0.2636  0.1870
 6729SOL    HW131820   0.663   1.330   2.741 -0.4627 -0.7020  0.9671
 6729SOL    HW231821   0.545   1.370   2.661  1.4797  1.6700  1.0542
 6730SOL     OW31822   4.693   0.780   6.235 -0.4662  0.1835 -0.6582
 6730SOL    HW131823   4.637   0.831   6.177  0.3743 -0.8699 -2.3775
 6730SOL    HW231824   0.007   0.738   6.165  1.8081  2.2025 -0.3124
 6731SOL     OW31825   0.663   2.217   3.975 -0.0978 -0.0090 -0.0006
 6731SOL    HW131826   0.631   2.307   3.966  2.1185  0.7570 -0.2574
 6731SOL    HW231827   0.696   2.189   3.889  0.6198  3.3282 -0.8047
 6732SOL     OW31828   1.877   1.999  13.187 -0.7715 -0.1631  0.0406
 6732SOL    HW131829   1.861   1.905  13.194 -0.1454 -0.2252  0.5897
 6732SOL    HW231830   1.797   2.031  13.228 -0.6114  2.1844 -1.4749
 6733SOL     OW31831   1.734   2.080   2.941 -0.5660  0.1589  0.1715
 6733SOL    HW131832   1.639   2.072   2.953 -0.4791  0.1048  0.8352
 6733SOL    HW231833   1.770   1.993   2.957  0.5411  0.5054 -0.4757
 6734SOL     OW31834   3.712   2.017   1.951 -0.0292  0.3330  0.2094
 6734SOL    HW131835   3.790   2.025   1.896 -0.5160  0.7519 -0.4111
 6734SOL    HW231836   3.707   2.099   2.000 -1.8617 -0.3988  1.2238
 6735SOL     OW31837   3.628   3.321   8.410  0.1829  0.5924  0.1879
 6735SOL    HW131838   3.585   3.404   8.432 -2.1892 -0.8681  1.0359
 6735SOL    HW231839   3.556   3.258   8.404 -0.0157  1.0093 -2.0313
 6736SOL     OW31840   2.235   2.090  12.825 -0.5767 -0.4900 -0.0454
 6736SOL    HW131841   2.210   2.174  12.787 -2.4980 -1.5685 -1.1855
 6736SOL    HW231842   2.158   2.075  12.880 -0.6579  1.2290  0.3114
 6737SOL     OW31843   2.899   4.296   4.130  0.3135 -0.4291 -0.0982
 6737SOL    HW131844   2.903   4.345   4.048  1.5635 -0.0041  0.2184
 6737SOL    HW231845   2.984   4.252   4.127  0.8134  0.6732 -2.1504
 6738SOL     OW31846   4.410   1.637   6.788 -0.0131  0.1607 -0.1836
 6738SOL    HW131847   4.354   1.615   6.862  1.2814 -1.0978  0.4257
 6738SOL    HW231848   4.375   1.618   6.701  0.7557  1.9699 -0.9069
 6739SOL     OW31849   2.698   4.288  17.119  0.4691  0.1565  0.2387
 6739SOL    HW131850   2.775   4.300  17.175  0.2064 -1.9632  1.0707
 6739SOL    HW231851   2.629   4.303  17.184 -1.5036 -2.3071 -1.3154
 6740SOL     OW31852   2.973   1.923   7.331  0.2840 -0.9057 -0.0907
 6740SOL    HW131853   2.928   1.998   7.371 -1.9877 -1.7537 -1.0009
 6740SOL    HW231854   3.016   1.881   7.405 -0.7974 -1.4799  0.2222
 6741SOL     OW31855   3.236   3.201   9.570  0.1209  0.1787  0.2065
 6741SOL    HW131856   3.206   3.206   9.661 -0.2564  2.5607 -0.0623
 6741SOL    HW231857   3.307   3.137   9.561  0.5587  0.5706  0.8777
 6742SOL     OW31858   4.638   1.875   1.881  0.0449  0.7832 -0.3401
 6742SOL    HW131859   4.591   1.893   1.800  0.3132  1.3164 -0.3766
 6742SOL    HW231860   4.728   1.904   1.866  0.8686 -2.9526 -2.6461
 6743SOL     OW31861   1.594   2.428   6.324  0.2986  0.0565  0.4020
 6743SOL    HW131862   1.579   2.339   6.358  2.4092 -0.6107 -0.3745
 6743SOL    HW231863   1.540   2.474   6.389 -1.2386 -3.5560  1.7280
 6744SOL     OW31864   4.161   3.155  10.434  0.3524  0.4154 -0.1484
 6744SOL    HW131865   4.192   3.189  10.517  0.4113  1.2094 -0.5011
 6744SOL    HW231866   4.236   3.180  10.379  0.6544  2.2929  1.1128
 6745SOL     OW31867   4.317   3.054   5.685 -0.3189  0.3736 -0.4365
 6745SOL    HW131868   4.356   2.981   5.637  4.3034  1.5240  1.4928
 6745SOL    HW231869   4.275   3.012   5.760 -0.4691  0.2068 -0.6144
 6746SOL     OW31870   2.903   0.793   9.209 -0.3817  0.0547  0.3700
 6746SOL    HW131871   2.846   0.818   9.137  1.2731  1.3496 -0.4775
 6746SOL    HW231872   2.965   0.737   9.162 -2.9361 -0.6196 -2.2242
 6747SOL     OW31873   4.367   2.444   0.881 -0.3632 -0.7536 -0.0573
 6747SOL    HW131874   4.325   2.446   0.967 -3.2545  0.4026 -1.5166
 6747SOL    HW231875   4.313   2.507   0.835  1.8054  0.5186 -0.8729
 6748SOL     OW31876   1.706   0.148   2.670  0.2725  0.2320  0.3698
 6748SOL    HW131877   1.617   0.156   2.704 -0.1240  1.6585 -1.0567
 6748SOL    HW231878   1.704   0.118   2.579  0.3273 -0.0840  0.4718
 6749SOL     OW31879   0.219   2.084   9.052 -0.0270 -0.3396 -0.0517
 6749SOL    HW131880   0.221   2.176   9.078  0.3065 -0.0947 -0.9685
 6749SOL    HW231881   0.127   2.063   9.069  0.1844 -1.6606 -0.5095
 6750SOL     OW31882   4.318   0.284   2.922  0.0861 -0.2875 -0.5743
 6750SOL    HW131883   4.224   0.268   2.921  0.1665 -0.6760 -2.4227
 6750SOL    HW231884   4.351   0.198   2.893 -0.4243  0.2150 -2.6048
 6751SOL     OW31885   2.406   0.400   4.969  0.2484  0.2977  0.2366
 6751SOL    HW131886   2.319   0.397   5.008 -0.3184 -0.7521 -1.0914
 6751SOL    HW231887   2.383   0.464   4.902 -1.4176 -1.5893 -1.0057
 6752SOL     OW31888   4.484   4.605   8.506 -0.3488 -0.1125  0.5018
 6752SOL    HW131889   4.453   4.571   8.589 -0.4734 -0.8827  0.1406
 6752SOL    HW231890   4.471   4.522   8.460  1.5807 -0.4581  0.5630
 6753SOL     OW31891   2.493   1.468   3.792 -0.0637 -0.1598  0.4856
 6753SOL    HW131892   2.526   1.378   3.803 -0.1381  0.1123  2.8460
 6753SOL    HW231893   2.399   1.456   3.789 -0.4412  3.4156 -1.6159
 6754SOL     OW31894   3.281   0.847   3.206  0.4326 -0.3815 -0.3378
 6754SOL    HW131895   3.348   0.900   3.248 -0.6131  0.6824 -0.0031
 6754SOL    HW231896   3.300   0.753   3.208  1.1308 -0.2237  0.4090
 6755SOL     OW31897   4.538   3.332   4.245 -0.1099 -0.3176  0.0543
 6755SOL    HW131898   4.530   3.291   4.159 -0.7918  0.7167 -0.3732
 6755SOL    HW231899   4.623   3.294   4.268  0.1648  0.8308  0.9275
 6756SOL     OW31900   1.004   0.795   4.278  0.3401 -0.4664  0.1264
 6756SOL    HW131901   0.935   0.729   4.271 -1.7604  1.6892  0.2236
 6756SOL    HW231902   1.051   0.766   4.356  0.8348 -1.2631 -0.4718
 6757SOL     OW31903   4.254   2.489   3.992 -0.0019 -0.5201 -0.3007
 6757SOL    HW131904   4.193   2.483   3.919 -0.3181 -2.9658  0.1511
 6757SOL    HW231905   4.340   2.463   3.958  1.0147  2.7195 -0.2338
 6758SOL     OW31906   2.013   3.292  17.002 -0.2686  0.0900 -0.2156
 6758SOL    HW131907   2.078   3.317  17.067 -2.3116 -0.4124  1.9982
 6758SOL    HW231908   1.973   3.377  16.983 -2.1786 -0.9389 -0.8317
 6759SOL     OW31909   3.197   2.144  10.123  0.1003 -0.2606  0.8881
 6759SOL    HW131910   3.276   2.160  10.071 -1.2094  0.5662 -0.8541
 6759SOL    HW231911   3.172   2.234  10.146 -1.8406 -0.4308 -0.5450
 6760SOL     OW31912   1.954   2.993  13.213  0.4805  0.1172 -0.1718
 6760SOL    HW131913   1.968   2.987  13.307  0.3743  0.5494 -0.1311
 6760SOL    HW231914   2.039   3.015  13.175 -0.2061 -0.8997 -2.3221
 6761SOL     OW31915   1.640   4.569  14.757 -0.6614 -0.6087  0.1746
 6761SOL    HW131916   1.597   4.497  14.803  0.9632 -1.1740  0.7982
 6761SOL    HW231917   1.625   4.646  14.812  1.9021 -0.2933  0.4633
 6762SOL     OW31918   4.156   4.691   6.186  0.2288  0.3844 -0.0789
 6762SOL    HW131919   4.087   4.643   6.140  0.3150  0.1399  0.0458
 6762SOL    HW231920   4.217   4.694   6.112 -0.2419  0.1886 -0.4747
 6763SOL     OW31921   0.067   0.692  12.288  0.2697  0.2557 -0.0716
 6763SOL    HW131922   0.035   0.758  12.226  1.5369  1.9238  1.0575
 6763SOL    HW231923   0.071   0.610  12.238  0.4775  0.2919 -0.1174
 6764SOL     OW31924   2.425   0.630   6.332  0.1821  0.2564  0.0879
 6764SOL    HW131925   2.491   0.617   6.400 -0.1876 -0.3515  0.3311
 6764SOL    HW231926   2.394   0.719   6.348  2.0751  0.6472  1.5965
 6765SOL     OW31927   4.465   3.428   6.275  0.7315 -0.2841  0.2123
 6765SOL    HW131928   4.489   3.337   6.294 -0.2097 -0.8369 -1.2154
 6765SOL    HW231929   4.544   3.461   6.232  0.1954  2.0287  0.9858
 6766SOL     OW31930   1.894   1.412   1.236 -0.8183 -0.8396 -0.2987
 6766SOL    HW131931   1.888   1.369   1.151  0.4090 -2.9540  0.6917
 6766SOL    HW231932   1.989   1.417   1.248 -0.7176 -1.1122 -1.0217
 6767SOL     OW31933   1.282   2.891   9.302 -0.5025 -0.2885  0.4888
 6767SOL    HW131934   1.295   2.808   9.349 -0.0494 -1.0959 -1.0676
 6767SOL    HW231935   1.264   2.943   9.381 -2.4466 -0.0323 -0.1404
 6768SOL     OW31936   2.304   1.403   3.240  0.3745 -0.0063 -0.0813
 6768SOL    HW131937   2.296   1.475   3.177 -3.1592 -1.7458 -1.5882
 6768SOL    HW231938   2.310   1.453   3.321 -1.6223 -2.8765  1.8233
 6769SOL     OW31939   1.604   4.270   3.985 -0.4012 -0.0289 -0.3747
 6769SOL    HW131940   1.677   4.279   3.923 -3.8251  0.0833 -4.4071
 6769SOL    HW231941   1.523   4.273   3.934  0.4739 -2.1606 -1.9065
 6770SOL     OW31942   2.933   1.978  16.110 -0.0467 -0.2946 -0.7307
 6770SOL    HW131943   2.906   2.062  16.073 -1.3228  0.1405  1.1562
 6770SOL    HW231944   3.008   2.000  16.166 -2.2380 -0.5391  2.3113
 6771SOL     OW31945   3.960   1.822   4.496 -0.2341 -0.7648 -0.2967
 6771SOL    HW131946   4.034   1.764   4.478  0.5188  0.8624 -2.5208
 6771SOL    HW231947   3.984   1.859   4.581  0.2043 -1.1254 -0.2606
 6772SOL     OW31948   1.717   3.017  13.080  0.7302  0.1764  0.2317
 6772SOL    HW131949   1.685   3.024  13.170  0.4893 -0.0451  0.1654
 6772SOL    HW231950   1.803   2.977  13.093 -0.0768 -1.3731  0.8345
 6773SOL     OW31951   1.639   0.966   4.344 -0.0269 -0.4048 -0.3186
 6773SOL    HW131952   1.661   1.029   4.276 -0.5439 -0.3527 -0.4367
 6773SOL    HW231953   1.655   0.883   4.299 -1.2105 -0.2221 -1.0707
 6774SOL     OW31954   2.526   1.780  11.453  0.8937 -0.4708  0.2077
 6774SOL    HW131955   2.466   1.843  11.413 -0.9218 -0.3382  3.0984
 6774SOL    HW231956   2.503   1.698  11.410  1.0511 -0.5607  0.2959
 6775SOL     OW31957   3.291   2.929   0.887 -0.1840  0.4735 -0.0099
 6775SOL    HW131958   3.200   2.958   0.890  0.0516  1.0396  2.0968
 6775SOL    HW231959   3.319   2.982   0.963 -1.4349 -0.5952  1.1953
 6776SOL     OW31960   0.276   0.418   4.121  0.5491 -0.2889 -0.2971
 6776SOL    HW131961   0.290   0.510   4.142 -2.6664 -0.0720  0.9253
 6776SOL    HW231962   0.303   0.375   4.202 -0.1562 -1.7574 -0.8333
 6777SOL     OW31963   0.367   2.468  14.826  0.5961  0.4709 -0.6289
 6777SOL    HW131964   0.295   2.418  14.863 -0.8952  1.0145 -2.8305
 6777SOL    HW231965   0.438   2.404  14.831  0.5707  0.7707  3.1518
 6778SOL     OW31966   3.999   1.854  10.781  0.8548  0.2083  0.1015
 6778SOL    HW131967   3.909   1.857  10.746  1.1435 -1.1550 -0.7680
 6778SOL    HW231968   4.037   1.777  10.738 -0.8794 -0.1334 -0.8310
 6779SOL     OW31969   1.527   0.783  16.852  0.8437 -0.6087  0.2870
 6779SOL    HW131970   1.492   0.697  16.829  0.4390 -0.7719  1.4619
 6779SOL    HW231971   1.483   0.841  16.789  2.5444  3.0069  2.4139
 6780SOL     OW31972   1.872   1.186   6.553 -0.3652  0.9737 -0.0986
 6780SOL    HW131973   1.808   1.115   6.561  0.2617  0.4006 -0.1507
 6780SOL    HW231974   1.833   1.253   6.497 -0.0167  1.1468 -0.1373
 6781SOL     OW31975   3.637   1.399  12.264 -0.0588  0.6369  0.6291
 6781SOL    HW131976   3.717   1.448  12.282  0.2140  0.0950  0.8784
 6781SOL    HW231977   3.585   1.424  12.341 -1.7122  0.5179 -0.4307
 6782SOL     OW31978   3.224   1.194   8.038  0.3666  0.5119  0.5863
 6782SOL    HW131979   3.155   1.147   7.992 -0.1570  0.6847  1.1863
 6782SOL    HW231980   3.212   1.288   8.024  2.3305  0.6933  0.1508
 6783SOL     OW31981   2.353   1.883   8.111 -0.1309 -0.1420  0.5011
 6783SOL    HW131982   2.292   1.918   8.046  1.8433 -0.3596 -1.4324
 6783SOL    HW231983   2.304   1.900   8.192 -0.0411  2.5929 -0.0180
 6784SOL     OW31984   3.007   4.612  13.457 -0.2564 -0.0149  0.3026
 6784SOL    HW131985   3.025   4.528  13.416 -1.2954  0.1755 -0.5323
 6784SOL    HW231986   3.094   4.632  13.493  0.5941  2.7314 -3.3498
 6785SOL     OW31987   2.433   2.167   5.583  0.0477  0.2890 -0.1965
 6785SOL    HW131988   2.497   2.198   5.519  1.2333 -0.2457  0.7345
 6785SOL    HW231989   2.367   2.235   5.567  0.7721  1.0709  0.1338
 6786SOL     OW31990   0.084   2.045   8.517  0.2801  0.1817 -0.5508
 6786SOL    HW131991   0.102   2.133   8.485  3.4565 -0.3026 -0.1882
 6786SOL    HW231992   0.100   2.056   8.611 -0.7973  0.3052 -0.3851
 6787SOL     OW31993   0.810   1.652  15.435 -0.2549  0.2969 -0.9634
 6787SOL    HW131994   0.871   1.697  15.376 -0.0893  0.8603 -0.3596
 6787SOL    HW231995   0.867   1.616  15.502  1.5463 -1.0679 -3.2203
 6788SOL     OW31996   4.407   1.212   7.608  0.0449  0.3567  0.1282
 6788SOL    HW131997   4.458   1.154   7.664  0.6808  0.3158 -0.5015
 6788SOL    HW231998   4.469   1.255   7.549 -1.0153  2.4146  0.4968
 6789SOL     OW31999   0.241   1.859   4.887  0.0648 -0.1978 -0.0801
 6789SOL    HW132000   0.258   1.824   4.799  2.8853 -2.9920  1.5595
 6789SOL    HW232001   0.192   1.938   4.865  1.0205  0.0213 -1.4315
 6790SOL     OW32002   3.983   2.137   1.558  0.6302 -0.0171 -0.5972
 6790SOL    HW132003   3.987   2.226   1.524  0.9124 -0.0279 -0.5888
 6790SOL    HW232004   3.973   2.096   1.473 -0.9862  1.7471 -1.2543
 6791SOL     OW32005   0.159   3.586  13.625 -0.2267 -1.1584  0.0195
 6791SOL    HW132006   0.085   3.647  13.625  0.1692 -0.6830  0.0670
 6791SOL    HW232007   0.218   3.638  13.571 -0.5238 -0.9625 -0.1156
 6792SOL     OW32008   0.948   4.403   0.216  0.3687 -0.4709  0.6194
 6792SOL    HW132009   0.974   4.374   0.128  0.5872  4.3635 -0.9134
 6792SOL    HW232010   0.931   4.496   0.200  1.1749 -0.3959  0.1776
 6793SOL     OW32011   1.638   2.619   3.614  0.3914 -0.0023 -0.0178
 6793SOL    HW132012   1.577   2.625   3.541  2.2746  1.6788 -1.4178
 6793SOL    HW232013   1.638   2.524   3.625 -1.9096  0.1160  0.9995
 6794SOL     OW32014   2.152   3.151   4.266  0.0651  0.0649  0.4769
 6794SOL    HW132015   2.189   3.202   4.338  1.6874  0.5717 -0.7162
 6794SOL    HW232016   2.109   3.079   4.312  0.4090  0.5409  1.5381
 6795SOL     OW32017   3.871   4.254   3.653  0.1855 -0.7383 -0.1220
 6795SOL    HW132018   3.879   4.223   3.743  0.7262 -2.9365 -0.9376
 6795SOL    HW232019   3.924   4.334   3.659 -0.6682 -0.1703 -0.1193
 6796SOL     OW32020   1.455   4.409   2.754  0.1577  0.4037  0.6216
 6796SOL    HW132021   1.470   4.318   2.780  0.6663  0.4910  0.6445
 6796SOL    HW232022   1.404   4.444   2.826  0.3024 -0.4280  1.1300
 6797SOL     OW32023   3.921   0.477   0.358  0.2314 -0.2169  0.3831
 6797SOL    HW132024   3.903   0.411   0.425  0.6801 -0.7695 -0.0367
 6797SOL    HW232025   3.904   0.557   0.408 -1.1740  1.5040 -2.8240
 6798SOL     OW32026   2.119   3.367   2.082  0.7197  0.7558 -0.3213
 6798SOL    HW132027   2.137   3.286   2.130  1.4597  1.4645  0.6094
 6798SOL    HW232028   2.205   3.410   2.085  0.5157  1.0928  1.0402
 6799SOL     OW32029   1.182   3.600  12.242  0.1490  0.0082  0.1074
 6799SOL    HW132030   1.123   3.603  12.318  1.2130 -3.1226  1.0227
 6799SOL    HW232031   1.228   3.518  12.256 -0.0361 -0.3878 -1.5763
 6800SOL     OW32032   1.554   4.671   1.769  0.4194 -0.1521  0.1055
 6800SOL    HW132033   1.505   4.593   1.742  0.9903  0.7334 -3.4990
 6800SOL    HW232034   1.555   4.707   1.680 -1.0303  0.1646  0.2197
 6801SOL     OW32035   3.852   3.761   2.287 -0.0451  0.1549 -0.2497
 6801SOL    HW132036   3.814   3.831   2.340 -0.6818 -0.0581 -0.4279
 6801SOL    HW232037   3.817   3.683   2.330 -2.5660  1.0015 -0.8186
 6802SOL     OW32038   3.878   0.255  13.037 -0.2438 -0.1499  0.0380
 6802SOL    HW132039   3.789   0.235  13.006  0.9977 -2.5711 -1.9729
 6802SOL    HW232040   3.930   0.211  12.970  0.5303  0.0802  0.4921
 6803SOL     OW32041   3.237   0.694   4.930  0.6044  0.5471  0.6188
 6803SOL    HW132042   3.315   0.639   4.918 -0.8593 -1.2987 -0.4297
 6803SOL    HW232043   3.257   0.756   5.000  0.8541 -0.9155  1.8423
 6804SOL     OW32044   4.725   2.240   6.294  0.2291  0.0246 -0.4245
 6804SOL    HW132045   4.638   2.238   6.254  0.3872  1.0505 -0.8072
 6804SOL    HW232046   0.001   2.149   6.322 -0.8723  0.3152  0.9870
 6805SOL     OW32047   0.019   0.137   9.527  0.1848  0.7988  0.3377
 6805SOL    HW132048   0.111   0.157   9.509  0.6389  0.0351  1.8059
 6805SOL    HW232049   4.730   0.209   9.586 -2.0270  1.5841 -1.4655
 6806SOL     OW32050   0.662   1.389  16.722  0.4836  0.1693 -1.0845
 6806SOL    HW132051   0.642   1.363  16.812 -0.8411  3.7526 -0.3305
 6806SOL    HW232052   0.597   1.458  16.734 -0.0648 -0.5865  0.2749
 6807SOL     OW32053   1.236   3.809   0.305 -0.0860 -0.5767 -0.3565
 6807SOL    HW132054   1.239   3.903   0.324  2.3536 -0.6505 -0.2952
 6807SOL    HW232055   1.194   3.777   0.385 -0.4760  0.2568 -0.2329
 6808SOL     OW32056   0.053   0.660  14.524  0.0665  0.0997  0.2903
 6808SOL    HW132057   0.068   0.647  14.430  2.4009 -1.6988  0.9251
 6808SOL    HW232058   0.017   0.748  14.529 -1.9231 -0.6599 -0.2380
 6809SOL     OW32059   3.719   0.179   7.926  0.3807 -0.4354  0.2141
 6809SOL    HW132060   3.752   0.233   7.997  0.5514 -2.2034  1.4576
 6809SOL    HW232061   3.624   0.191   7.924  0.2308 -1.3153  2.8537
 6810SOL     OW32062   3.880   1.333   2.173  0.0867  0.1520 -0.4627
 6810SOL    HW132063   3.889   1.362   2.264  0.0452  0.1505 -0.4580
 6810SOL    HW232064   3.974   1.333   2.154  0.1766 -0.4686 -0.0355
 6811SOL     OW32065   2.057   3.641   1.279  0.0552  0.3753  0.1559
 6811SOL    HW132066   2.019   3.729   1.284  1.1192  0.8547 -0.2864
 6811SOL    HW232067   2.048   3.623   1.373  0.5634  2.1833  0.5527
 6812SOL     OW32068   1.739   1.617  15.915 -0.2411 -0.6390  0.1678
 6812SOL    HW132069   1.729   1.698  15.864  0.1881 -0.6843  0.0094
 6812SOL    HW232070   1.737   1.551  15.846 -2.9641 -1.0012  0.6053
 6813SOL     OW32071   0.831   0.837   7.536  0.5330  0.3282 -0.2858
 6813SOL    HW132072   0.830   0.837   7.440  1.6083  0.7184 -0.2966
 6813SOL    HW232073   0.745   0.872   7.559  0.2589  0.1612 -1.0650
 6814SOL     OW32074   0.821   1.381   8.173  0.4335 -0.2291  0.9216
 6814SOL    HW132075   0.849   1.305   8.225  0.8312 -1.3174 -0.9103
 6814SOL    HW232076   0.907   1.422   8.176 -0.0785  0.8752  0.0871
 6815SOL     OW32077   3.569   4.518   7.013 -0.0716  0.0918 -0.2527
 6815SOL    HW132078   3.546   4.439   6.965 -2.3357 -0.3503  1.5323
 6815SOL    HW232079   3.647   4.491   7.062  0.5512 -1.8259 -2.3324
 6816SOL     OW32080   1.481   0.999   7.127  0.0704 -0.3357  0.1657
 6816SOL    HW132081   1.418   1.071   7.124  0.4786 -0.0240 -0.9495
 6816SOL    HW232082   1.456   0.955   7.208  0.9830 -1.8968 -0.4018
 6817SOL     OW32083   4.624   2.463  15.197 -0.0454  0.1027 -0.5971
 6817SOL    HW132084   4.533   2.490  15.187  0.3538  2.6426  2.7555
 6817SOL    HW232085   4.675   2.541  15.175  0.2819  0.3104  0.9428
 6818SOL     OW32086   1.945   3.681   5.236 -0.1963 -0.0663  0.2884
 6818SOL    HW132087   2.013   3.686   5.169 -0.7375 -1.0530 -0.3361
 6818SOL    HW232088   1.989   3.711   5.316 -0.8014 -3.2208  1.8174
 6819SOL     OW32089   3.597   0.158   4.931  0.5249 -0.1961 -0.1729
 6819SOL    HW132090   3.515   0.110   4.925  0.3590  0.2619 -1.6415
 6819SOL    HW232091   3.566   0.237   4.974  1.2567 -1.4500  2.6524
 6820SOL     OW32092   0.627   2.654  15.018  0.2451  0.1620 -0.1248
 6820SOL    HW132093   0.541   2.669  14.978  0.1946  0.9138  0.2582
 6820SOL    HW232094   0.657   2.745  15.028 -1.6990  0.7598  0.3177
 6821SOL     OW32095   1.584   4.432   8.619 -0.2673  0.1325  0.4417
 6821SOL    HW132096   1.607   4.425   8.526  1.2115  1.5568  0.7017
 6821SOL    HW232097   1.528   4.510   8.613  0.2612  0.5667  1.3494
 6822SOL     OW32098   4.510   4.731   5.463 -0.8350 -0.1563  0.0336
 6822SOL    HW132099   4.576   4.676   5.422 -0.2591  1.7413 -1.6135
 6822SOL    HW232100   4.548   0.038   5.540  0.7128 -1.6884  0.0786
 6823SOL     OW32101   3.796   0.065   9.265  0.0880  0.3605  0.4778
 6823SOL    HW132102   3.743   0.142   9.285 -1.8158 -0.6594 -0.7280
 6823SOL    HW232103   3.749   0.003   9.320  0.3388  1.0985  1.5323
 6824SOL     OW32104   3.214   3.912  13.398 -0.0009  0.4441 -0.5549
 6824SOL    HW132105   3.205   4.002  13.430  1.9796  0.6371 -0.5137
 6824SOL    HW232106   3.167   3.921  13.315  0.5460  1.1724 -0.7967
 6825SOL     OW32107   2.139   0.802   6.566  0.1371 -0.4668 -0.1704
 6825SOL    HW132108   2.043   0.801   6.562  0.1622  2.5587 -1.1989
 6825SOL    HW232109   2.161   0.894   6.581  2.3050 -1.0527  0.3024
 6826SOL     OW32110   2.387   0.012  13.719 -0.3021  0.2606  0.2646
 6826SOL    HW132111   2.473   0.019  13.760  0.6028  0.9370 -1.7161
 6826SOL    HW232112   2.413   0.009  13.627 -1.2627 -0.0477 -0.0032
 6827SOL     OW32113   4.298   2.431  12.889  0.2526  0.0867 -0.6422
 6827SOL    HW132114   4.341   2.485  12.822 -0.1618 -0.6272 -1.4887
 6827SOL    HW232115   4.312   2.478  12.971  1.1842 -0.1202 -0.6895
 6828SOL     OW32116   4.198   4.485   9.484  0.8568 -0.0839 -0.3417
 6828SOL    HW132117   4.257   4.553   9.518  0.6658  0.4212 -1.0139
 6828SOL    HW232118   4.200   4.496   9.389  0.7865  0.6714 -0.2578
 6829SOL     OW32119   0.462   3.852   2.944 -0.3325  0.0554  0.4240
 6829SOL    HW132120   0.374   3.871   2.911  0.8646  0.1135 -2.6594
 6829SOL    HW232121   0.519   3.928   2.938  0.9679 -0.8829  0.9434
 6830SOL     OW32122   2.952   1.277   9.162 -0.1449 -0.6752 -0.3765
 6830SOL    HW132123   2.970   1.232   9.244  2.1395  0.0642 -0.4679
 6830SOL    HW232124   2.875   1.328   9.186  0.9556  1.3261 -1.1012
 6831SOL     OW32125   3.053   2.480   4.183 -0.3894 -0.1337  0.1975
 6831SOL    HW132126   3.099   2.408   4.225  0.8828  0.5509 -0.0240
 6831SOL    HW232127   2.965   2.448   4.203  0.2363 -1.7770  0.3129
 6832SOL     OW32128   1.471   3.593   6.106  0.3146 -0.0909  0.5740
 6832SOL    HW132129   1.467   3.499   6.122 -0.3534 -0.1892 -0.1502
 6832SOL    HW232130   1.395   3.606   6.049  1.7049  1.1962 -0.9863
 6833SOL     OW32131   2.908   0.762   6.056  0.5258  0.3070 -0.7082
 6833SOL    HW132132   2.989   0.716   6.032  0.6009 -0.6069  1.2740
 6833SOL    HW232133   2.931   0.833   6.116 -0.8519  0.4812 -0.4026
 6834SOL     OW32134   4.202   0.472   3.817 -0.0009 -0.0421  0.5580
 6834SOL    HW132135   4.123   0.525   3.807  0.9298  1.0179 -1.3472
 6834SOL    HW232136   4.168   0.425   3.892  0.0436  0.4841  0.9101
 6835SOL     OW32137   0.728   0.822   4.839  0.5263  0.6964  0.1305
 6835SOL    HW132138   0.752   0.826   4.932  0.4464 -2.4071  0.2848
 6835SOL    HW232139   0.777   0.743   4.816  1.4576  1.7148 -1.3737
 6836SOL     OW32140   0.588   0.069   1.507  0.7694  0.1684  0.6526
 6836SOL    HW132141   0.527   0.118   1.562  1.1296  2.6317 -1.1426
 6836SOL    HW232142   0.556   0.095   1.421 -0.5898  0.8286  1.3517
 6837SOL     OW32143   0.491   3.787  11.909 -0.1192 -0.5252  0.4322
 6837SOL    HW132144   0.547   3.712  11.931  0.9869  0.7829  2.0827
 6837SOL    HW232145   0.554   3.854  11.884 -0.6684  0.1961  0.9569
 6838SOL     OW32146   2.772   0.304  12.424 -0.0638  0.3444  0.0798
 6838SOL    HW132147   2.744   0.395  12.432 -0.2703  0.1741  1.2770
 6838SOL    HW232148   2.836   0.300  12.495 -0.4592  0.1677  0.4251
 6839SOL     OW32149   2.471   4.075   6.002 -0.3505 -0.5482  0.6699
 6839SOL    HW132150   2.546   4.046   5.951  0.1427 -0.3610  1.2895
 6839SOL    HW232151   2.403   4.076   5.934 -0.2052  3.0855  0.5506
 6840SOL     OW32152   2.268   0.259   9.376  0.1313 -0.2044  0.1970
 6840SOL    HW132153   2.323   0.192   9.417 -1.0355  0.4838  2.8687
 6840SOL    HW232154   2.219   0.198   9.320 -0.2424  0.1704  0.1212
 6841SOL     OW32155   2.770   3.608   8.307  0.6355 -0.4368 -0.6051
 6841SOL    HW132156   2.852   3.656   8.298  0.3576  0.0733 -0.4007
 6841SOL    HW232157   2.773   3.552   8.229 -1.9417 -0.1067 -0.9321
 6842SOL     OW32158   2.519   0.635   0.535  0.0301  0.3341 -0.5256
 6842SOL    HW132159   2.475   0.626   0.619 -0.3155  1.4976 -0.5778
 6842SOL    HW232160   2.441   0.668   0.490 -0.6095  0.2307  0.5317
 6843SOL     OW32161   3.993   2.349  15.390 -0.1782 -0.4057 -0.0978
 6843SOL    HW132162   3.949   2.267  15.411 -1.7158  0.3172 -0.5019
 6843SOL    HW232163   3.919   2.401  15.360 -0.2807  1.0696  2.6953
 6844SOL     OW32164   1.108   1.827   8.213 -0.2651 -0.4734 -0.3189
 6844SOL    HW132165   1.104   1.829   8.309 -0.1471  1.4569 -0.3383
 6844SOL    HW232166   1.067   1.908   8.184  0.5191  0.6362  1.6261
 6845SOL     OW32167   4.190   1.253   2.995  0.2454  1.0605 -0.4618
 6845SOL    HW132168   4.121   1.212   3.048  1.0609 -0.4902 -0.6142
 6845SOL    HW232169   4.139   1.252   2.914 -1.5086  0.5722  0.6395
 6846SOL     OW32170   1.611   4.507   7.612 -0.1521 -0.6350 -0.0940
 6846SOL    HW132171   1.638   4.599   7.607 -0.4978 -0.5703 -0.7287
 6846SOL    HW232172   1.643   4.485   7.524 -3.2639 -1.0172 -1.1321
 6847SOL     OW32173   2.776   2.878   2.619  0.3089 -0.2953  0.2080
 6847SOL    HW132174   2.698   2.906   2.666  1.8722  1.1370  1.9576
 6847SOL    HW232175   2.745   2.814   2.555  0.0749  0.9756 -0.9576
 6848SOL     OW32176   2.263   2.615  10.425 -0.3840 -0.8805  0.3798
 6848SOL    HW132177   2.208   2.684  10.462  0.6026  0.7565 -1.2173
 6848SOL    HW232178   2.267   2.549  10.494 -2.7884 -2.1401 -0.6963
 6849SOL     OW32179   3.102   1.039   1.195  0.1601  0.2584  0.2622
 6849SOL    HW132180   3.126   1.017   1.284 -1.8914  0.4648  0.8746
 6849SOL    HW232181   3.160   0.986   1.141 -0.8970 -0.8209  0.2063
 6850SOL     OW32182   3.544   3.245  10.060  0.7455  0.0533  0.6220
 6850SOL    HW132183   3.537   3.177   9.993 -0.3978 -0.7482  1.5640
 6850SOL    HW232184   3.623   3.206  10.098 -0.0846 -2.9174 -0.6592
 6851SOL     OW32185   1.008   2.789  13.827 -0.4612 -0.0584 -0.1635
 6851SOL    HW132186   0.986   2.864  13.883  0.4620  0.5380 -0.5844
 6851SOL    HW232187   0.933   2.732  13.840 -0.6892  0.2754 -0.0046
 6852SOL     OW32188   1.428   4.605   2.194  0.1718 -0.3456 -0.6276
 6852SOL    HW132189   1.389   4.612   2.282  1.5313  2.7784 -0.2886
 6852SOL    HW232190   1.515   4.569   2.212 -0.0358 -0.2472  0.5671
 6853SOL     OW32191   1.310   1.339  12.391 -0.6611 -0.1144  0.2710
 6853SOL    HW132192   1.297   1.311  12.300 -0.0926 -0.0384  0.1687
 6853SOL    HW232193   1.230   1.386  12.414 -1.0251  0.3842 -1.9889
 6854SOL     OW32194   0.341   4.704  14.839  0.1755 -0.5505  0.3760
 6854SOL    HW132195   0.407   4.715  14.771  0.4308 -1.7216  0.4292
 6854SOL    HW232196   0.384   4.650  14.906 -0.5370 -0.6305  0.7704
 6855SOL     OW32197   3.719   0.391   4.807 -0.6489 -0.1203 -0.2388
 6855SOL    HW132198   3.705   0.304   4.844 -3.0286  0.0780 -0.6664
 6855SOL    HW232199   3.659   0.388   4.732 -0.8306 -2.1928  0.0066
 6856SOL     OW32200   4.338   4.387   3.578 -0.0042  0.5384 -0.0757
 6856SOL    HW132201   4.327   4.469   3.626  0.2145 -0.0443  0.9643
 6856SOL    HW232202   4.277   4.329   3.624  1.1927 -3.7334 -3.9067
 6857SOL     OW32203   1.757   2.619   7.487 -0.4193 -0.2399 -0.1076
 6857SOL    HW132204   1.752   2.579   7.400 -1.0497  0.3463 -0.3471
 6857SOL    HW232205   1.820   2.688   7.465 -1.8889  0.8136 -1.0093
 6858SOL     OW32206   2.861   1.256   8.235  0.6046 -0.8543  0.3825
 6858SOL    HW132207   2.810   1.297   8.305 -1.4042  0.3958 -1.7994
 6858SOL    HW232208   2.888   1.331   8.181  1.3839  0.9593  3.2697
 6859SOL     OW32209   4.728   4.418  17.137 -0.0662 -0.2056  0.7596
 6859SOL    HW132210   0.066   4.395  17.079 -0.4644  0.0479  0.1619
 6859SOL    HW232211   4.727   4.512  17.119  0.6632 -0.4146 -0.3474
 6860SOL     OW32212   1.444   0.468   1.122 -0.1770 -0.5119 -0.4103
 6860SOL    HW132213   1.376   0.535   1.122 -0.6381 -0.9706 -1.5281
 6860SOL    HW232214   1.393   0.389   1.138  0.1394 -0.6948 -0.2996
 6861SOL     OW32215   2.977   1.864   9.341  0.1584 -0.4148  0.2285
 6861SOL    HW132216   2.935   1.914   9.411  0.2774  1.9992 -1.4427
 6861SOL    HW232217   2.897   1.818   9.316  0.3406 -0.6632  0.1114
 6862SOL     OW32218   0.850   1.089   4.983 -0.7667  0.3430 -0.5840
 6862SOL    HW132219   0.862   1.156   5.050  0.6552 -2.0846  1.5917
 6862SOL    HW232220   0.856   1.151   4.910  0.7328  1.5085  0.5329
 6863SOL     OW32221   4.592   3.329   2.644  0.7759  0.2954  0.1952
 6863SOL    HW132222   4.569   3.365   2.558  0.9824  2.0630  0.8882
 6863SOL    HW232223   4.552   3.384   2.711  0.4794  2.2329 -1.5491
 6864SOL     OW32224   0.251   1.845   9.659  0.1846 -0.2618  0.3776
 6864SOL    HW132225   0.337   1.870   9.626 -0.4944  1.0020 -0.4414
 6864SOL    HW232226   0.197   1.890   9.594  0.5678 -0.2536  0.0695
 6865SOL     OW32227   0.029   3.991  15.602 -0.0565 -0.4690 -0.3388
 6865SOL    HW132228   4.716   3.921  15.647  1.8513 -0.1598  2.1835
 6865SOL    HW232229   0.098   3.940  15.560 -1.0348 -2.1934  0.1456
 6866SOL     OW32230   3.025   0.251   4.607 -0.0302  0.3303 -0.2032
 6866SOL    HW132231   2.972   0.324   4.577 -2.0374 -1.4202 -0.9256
 6866SOL    HW232232   3.010   0.180   4.545 -2.0482  0.0711  0.5656
 6867SOL     OW32233   0.466   4.055   6.819  0.1240  0.3038 -0.0565
 6867SOL    HW132234   0.543   4.052   6.876 -1.5705 -2.2863  2.1167
 6867SOL    HW232235   0.476   4.139   6.773  0.8708  1.9012  3.0086
 6868SOL     OW32236   3.423   1.730   6.840 -0.1265  0.0341 -0.6914
 6868SOL    HW132237   3.353   1.665   6.842  0.6920 -0.7553  2.2941
 6868SOL    HW232238   3.390   1.805   6.890 -0.6350 -0.4679 -0.2832
 6869SOL     OW32239   3.983   0.369  15.721 -0.3467  0.2339  0.4519
 6869SOL    HW132240   3.899   0.382  15.677  0.2893 -0.3110 -0.9187
 6869SOL    HW232241   4.041   0.354  15.646  1.5313 -2.3079  2.3862
 6870SOL     OW32242   0.765   0.012  17.636 -0.0413 -0.3731 -0.2818
 6870SOL    HW132243   0.705   0.008  17.711 -0.4299 -1.9426 -0.6731
 6870SOL    HW232244   0.783   4.653  17.624  1.1539 -0.1944  0.1515
 6871SOL     OW32245   3.582   4.572   0.283 -0.2485 -0.2277 -0.3076
 6871SOL    HW132246   3.660   4.604   0.327  0.5679 -1.4588 -0.8689
 6871SOL    HW232247   3.607   4.597   0.195 -0.1671  0.4961 -0.0763
 6872SOL     OW32248   0.100   4.285   5.716 -0.3151  0.0521  0.1845
 6872SOL    HW132249   0.057   4.370   5.716  1.4281  0.9220 -1.9647
 6872SOL    HW232250   0.186   4.299   5.678 -0.6830  2.3453  0.2088
 6873SOL     OW32251   3.851   2.011   8.215 -0.1473 -0.2643  0.0819
 6873SOL    HW132252   3.902   2.067   8.157 -1.1424  0.7521  0.1956
 6873SOL    HW232253   3.908   1.939   8.240  0.0243  0.5176  1.9468
 6874SOL     OW32254   0.932   2.092   4.209  0.2568  0.2785 -0.1454
 6874SOL    HW132255   0.952   2.185   4.195  1.8365  0.3676  2.8429
 6874SOL    HW232256   0.838   2.109   4.217 -0.2671 -1.2160 -3.1665
 6875SOL     OW32257   0.206   1.931   2.913 -0.5002  0.1572 -0.7411
 6875SOL    HW132258   0.226   1.976   2.831  1.3936 -0.7521 -0.7734
 6875SOL    HW232259   0.294   1.941   2.948 -0.5549 -0.7462 -0.3447
 6876SOL     OW32260   3.147   1.122   3.414  0.6515  0.4797  0.1058
 6876SOL    HW132261   3.102   1.039   3.397 -0.2594  0.6935  1.5323
 6876SOL    HW232262   3.086   1.185   3.375 -1.9847 -0.9862  1.9005
 6877SOL     OW32263   1.165   0.946  14.124 -0.1112 -0.5985 -0.1281
 6877SOL    HW132264   1.197   1.034  14.144  1.0407 -1.1943  0.6814
 6877SOL    HW232265   1.087   0.946  14.180 -0.4526  0.1938 -0.6035
 6878SOL     OW32266   2.574   4.551  15.969 -0.0351  1.0475  0.3200
 6878SOL    HW132267   2.520   4.538  16.047 -0.9848  2.0602 -0.1779
 6878SOL    HW232268   2.537   4.486  15.909  0.0813 -0.4957  1.9226
 6879SOL     OW32269   3.971   3.999   9.178  0.0681 -0.1842  0.5857
 6879SOL    HW132270   4.054   4.007   9.225 -0.2896  1.3613  0.9830
 6879SOL    HW232271   3.971   3.904   9.170 -2.2256 -0.0805 -0.8495
 6880SOL     OW32272   2.079   4.302  11.874 -0.0415  0.1292  0.0624
 6880SOL    HW132273   2.161   4.348  11.894  0.9158 -0.7923 -1.8056
 6880SOL    HW232274   2.012   4.322  11.939  0.5867  0.7213  0.5276
 6881SOL     OW32275   3.324   0.569   1.241  0.4480  0.4257  0.1102
 6881SOL    HW132276   3.417   0.545   1.246  0.7190  1.5863  0.5837
 6881SOL    HW232277   3.306   0.589   1.149 -0.7290  2.5659  0.8254
 6882SOL     OW32278   2.493   2.113   7.796 -0.0397 -0.3563  0.3468
 6882SOL    HW132279   2.487   2.120   7.701 -1.8625 -1.0089  0.4119
 6882SOL    HW232280   2.490   2.207   7.815 -2.0551 -0.0797 -1.2919
 6883SOL     OW32281   3.755   2.150  17.387  0.3928 -0.0852 -0.1751
 6883SOL    HW132282   3.685   2.103  17.433  0.1497  1.2405  0.7923
 6883SOL    HW232283   3.713   2.235  17.394  1.0770 -0.0809  3.7344
 6884SOL     OW32284   4.206   0.475   6.076 -0.2950 -0.0245  0.3137
 6884SOL    HW132285   4.274   0.482   6.143  1.1157 -0.6048 -1.0819
 6884SOL    HW232286   4.152   0.401   6.104 -1.0944  0.3901 -0.1289
 6885SOL     OW32287   0.525   3.360  17.063 -0.2687  0.4550 -0.0114
 6885SOL    HW132288   0.441   3.346  17.108 -0.2592 -0.6418 -0.3474
 6885SOL    HW232289   0.533   3.273  17.025  0.2477  0.1485  0.7935
 6886SOL     OW32290   0.552   4.001  11.550 -0.0576 -0.0647  0.0836
 6886SOL    HW132291   0.531   3.908  11.536  0.4116 -0.0211 -0.9067
 6886SOL    HW232292   0.618   3.989  11.618 -0.4643  0.0903  0.5016
 6887SOL     OW32293   1.582   0.979   8.139 -0.1629 -0.1024  0.3831
 6887SOL    HW132294   1.571   0.975   8.044 -0.3988  2.9613  0.2833
 6887SOL    HW232295   1.677   0.969   8.137 -0.5444 -3.3465 -1.4175
 6888SOL     OW32296   4.012   0.584  10.075  0.8776  0.0404 -0.2691
 6888SOL    HW132297   4.023   0.652  10.141 -0.9875  0.0418  0.0431
 6888SOL    HW232298   4.072   0.617  10.008  0.8148  1.4219  0.3557
 6889SOL     OW32299   0.157   2.473  13.109  0.5410  0.0067  0.3196
 6889SOL    HW132300   0.237   2.448  13.063 -0.8807 -0.3358 -1.9850
 6889SOL    HW232301   0.094   2.431  13.049 -0.8794 -1.1104  2.6102
 6890SOL     OW32302   3.544   2.612   8.890 -0.0775  0.2989  0.6783
 6890SOL    HW132303   3.531   2.701   8.923 -2.2919  0.1593  0.1610
 6890SOL    HW232304   3.577   2.567   8.968  1.3859 -0.0113 -0.1171
 6891SOL     OW32305   0.443   3.202  15.557 -0.0734 -0.2197 -0.2635
 6891SOL    HW132306   0.389   3.278  15.580  0.9775  0.4812 -0.1019
 6891SOL    HW232307   0.377   3.141  15.523  0.4098 -0.1913 -1.2411
 6892SOL     OW32308   3.340   4.394   9.306  0.2255 -0.0544  0.3683
 6892SOL    HW132309   3.247   4.369   9.302  0.8107 -2.5108  2.5288
 6892SOL    HW232310   3.361   4.381   9.213 -0.0035  1.1100  0.1502
 6893SOL     OW32311   3.313   1.658   6.435 -0.9973  0.6649 -0.0276
 6893SOL    HW132312   3.398   1.630   6.467 -2.3236  0.9959  3.7588
 6893SOL    HW232313   3.270   1.579   6.400  0.6135 -1.3931  2.6296
 6894SOL     OW32314   1.042   3.713   8.745  0.0849 -0.2691  0.3889
 6894SOL    HW132315   1.101   3.740   8.674  0.0456 -2.5716 -0.5348
 6894SOL    HW232316   1.100   3.708   8.820  0.0039 -3.0257  0.2731
 6895SOL     OW32317   2.845   0.959   5.286  0.2555 -0.0782  0.6830
 6895SOL    HW132318   2.844   0.958   5.190  2.8624 -1.5012  0.6646
 6895SOL    HW232319   2.760   0.923   5.310  0.3425 -0.1594  0.8698
 6896SOL     OW32320   3.469   1.811   4.134 -0.0867 -0.2032  0.1538
 6896SOL    HW132321   3.408   1.883   4.151  0.3871  1.0615 -3.5687
 6896SOL    HW232322   3.498   1.839   4.047  0.2209 -2.1884 -0.3704
 6897SOL     OW32323   0.991   2.576   3.436 -0.3268  0.0940  0.1422
 6897SOL    HW132324   0.968   2.597   3.346 -0.9931  2.3505  0.8258
 6897SOL    HW232325   0.937   2.640   3.483 -0.5491 -0.7470  1.0512
 6898SOL     OW32326   2.422   3.080   5.239  0.4865  0.4997 -0.1290
 6898SOL    HW132327   2.357   3.012   5.252 -0.4352  1.3555 -0.2742
 6898SOL    HW232328   2.462   3.047   5.158 -0.0425  1.7094 -0.8806
 6899SOL     OW32329   2.339   1.824  17.526 -0.1240 -0.0209  0.0445
 6899SOL    HW132330   2.304   1.736  17.538 -1.1989  0.7586  2.6697
 6899SOL    HW232331   2.255   1.867  17.540 -0.1961  0.1624 -0.9397
 6900SOL     OW32332   0.110   0.384   8.914 -0.2043  0.4504  0.2345
 6900SOL    HW132333   0.017   0.401   8.895  0.0350 -0.3472 -1.6721
 6900SOL    HW232334   0.152   0.426   8.839 -0.2028  0.6198  0.3299
 6901SOL     OW32335   2.903   1.885   9.976  0.1275 -0.2827  0.2746
 6901SOL    HW132336   2.959   1.860  10.050  0.8486  0.1054 -0.1424
 6901SOL    HW232337   2.943   1.969   9.956 -0.9218  0.0548 -0.3966
 6902SOL     OW32338   0.519   1.620   5.884 -0.6393  0.3660  0.0454
 6902SOL    HW132339   0.553   1.533   5.905 -0.9456  0.5228  1.1670
 6902SOL    HW232340   0.537   1.631   5.791  0.2783 -1.0918  0.0616
 6903SOL     OW32341   3.641   2.234  17.644  0.7787  0.0794  0.3303
 6903SOL    HW132342   3.701   2.308  17.643 -1.9273  2.2756 -0.9785
 6903SOL    HW232343   3.561   2.281  17.669  0.3093 -0.9730  0.8128
 6904SOL     OW32344   2.022   4.343   3.331  0.9242 -0.3900 -0.5027
 6904SOL    HW132345   1.967   4.308   3.261  0.4511  0.5361 -0.5988
 6904SOL    HW232346   2.000   4.437   3.331 -2.5884 -1.2086  0.5711
 6905SOL     OW32347   2.131   0.068   2.538  0.2910 -0.7059  0.0282
 6905SOL    HW132348   2.197   0.027   2.483  0.7145 -0.1362  0.1153
 6905SOL    HW232349   2.072   0.112   2.477  1.1202  0.9478  0.4354
 6906SOL     OW32350   3.135   1.518  14.154  0.4706  0.6287  0.0688
 6906SOL    HW132351   3.080   1.595  14.166  1.1952  1.0657  0.5731
 6906SOL    HW232352   3.160   1.504  14.245  1.3178 -1.7790 -0.5215
 6907SOL     OW32353   2.990   1.535   5.072  0.1149 -0.4628 -0.2697
 6907SOL    HW132354   2.899   1.522   5.044  0.1009  1.1559 -1.0178
 6907SOL    HW232355   3.024   1.447   5.061 -0.9693 -0.9403  0.1669
 6908SOL     OW32356   1.313   0.248   6.141  0.8272 -0.4072 -0.1833
 6908SOL    HW132357   1.307   0.157   6.171 -1.1667  0.2075  1.2946
 6908SOL    HW232358   1.381   0.274   6.203  0.2893  0.3925  0.0775
 6909SOL     OW32359   0.212   2.056   2.652 -0.1320 -0.1908 -1.0136
 6909SOL    HW132360   0.187   2.135   2.605 -0.5721 -1.3978 -2.8325
 6909SOL    HW232361   0.307   2.053   2.641  0.1679 -2.7310  2.3141
 6910SOL     OW32362   2.701   1.526  12.115 -0.3496 -0.2840 -0.4969
 6910SOL    HW132363   2.684   1.555  12.204 -1.9035 -1.8914 -0.2703
 6910SOL    HW232364   2.643   1.585  12.068  1.2607  2.3718  0.8936
 6911SOL     OW32365   1.672   4.651  17.440  0.1441  0.1435 -0.3626
 6911SOL    HW132366   1.764   4.662  17.463 -0.2453 -0.2736  1.4153
 6911SOL    HW232367   1.685   4.564  17.402 -1.4796  0.6314 -2.0127
 6912SOL     OW32368   2.744   1.589   5.702 -0.5439  0.4460  0.3904
 6912SOL    HW132369   2.680   1.520   5.683 -0.8464  0.9302 -0.3694
 6912SOL    HW232370   2.692   1.637   5.766 -1.8519 -1.9458  1.1328
 6913SOL     OW32371   1.223   1.751   6.747 -0.1591 -0.0440  0.1751
 6913SOL    HW132372   1.248   1.798   6.827 -1.6925  1.4198 -0.2208
 6913SOL    HW232373   1.231   1.823   6.686 -0.0366 -1.0335 -0.9763
 6914SOL     OW32374   3.564   2.011  17.538 -0.3187  0.7243 -0.4242
 6914SOL    HW132375   3.473   2.014  17.568 -0.1784 -1.5018  0.2044
 6914SOL    HW232376   3.601   2.092  17.574 -1.8094  1.5131 -0.6724
 6915SOL     OW32377   0.148   3.703   2.191 -0.1696  0.2125  0.1413
 6915SOL    HW132378   0.210   3.775   2.205 -1.1221  1.3518 -1.4840
 6915SOL    HW232379   0.120   3.723   2.102 -0.9890 -1.0146  0.1227
 6916SOL     OW32380   3.282   0.508  13.710 -0.2691 -0.4144  0.2883
 6916SOL    HW132381   3.266   0.550  13.795  0.0178 -1.9811  1.1307
 6916SOL    HW232382   3.353   0.451  13.742  0.6615  0.9117  0.5886
 6917SOL     OW32383   4.731   2.738  16.192 -0.0322  0.1253  0.0188
 6917SOL    HW132384   0.030   2.818  16.151 -0.0427  0.6199  0.9748
 6917SOL    HW232385   4.689   2.776  16.269  1.4519  0.4037  0.6899
 6918SOL     OW32386   0.367   2.718   9.964  0.1666  0.0525 -0.6107
 6918SOL    HW132387   0.401   2.630   9.978  4.2157  2.1608  2.7014
 6918SOL    HW232388   0.328   2.738  10.050  1.3550  0.1341 -0.0935
 6919SOL     OW32389   3.515   2.314   4.199 -0.1414  0.2999  0.4552
 6919SOL    HW132390   3.595   2.342   4.242 -1.0147  0.0906  2.2358
 6919SOL    HW232391   3.545   2.295   4.110  0.4311 -0.2669  0.7676
 6920SOL     OW32392   0.843   2.800   8.936  0.1994 -0.2604 -0.1024
 6920SOL    HW132393   0.835   2.716   8.890 -1.0121  0.2779 -0.8852
 6920SOL    HW232394   0.801   2.785   9.020  0.1012  1.0890  0.0967
 6921SOL     OW32395   0.704   4.181   8.205  0.2743  0.1670  0.5713
 6921SOL    HW132396   0.724   4.210   8.294 -0.9510 -0.2441  0.9831
 6921SOL    HW232397   0.626   4.234   8.186  1.7058  1.3022 -2.0337
 6922SOL     OW32398   2.001   1.433   8.822 -0.2803 -0.6232 -0.2505
 6922SOL    HW132399   2.081   1.478   8.850 -0.1710 -0.7115 -0.4190
 6922SOL    HW232400   2.036   1.345   8.806  0.1626 -0.4131 -0.4333
 6923SOL     OW32401   3.108   0.624   2.758  0.4083 -0.1352 -0.0531
 6923SOL    HW132402   3.028   0.585   2.792  0.2731 -0.8715 -1.2100
 6923SOL    HW232403   3.174   0.559   2.782  1.4504  0.6433 -0.8089
 6924SOL     OW32404   2.656   1.344   4.434 -0.1332 -0.5337 -1.1345
 6924SOL    HW132405   2.675   1.408   4.365  2.0015 -0.1942 -0.2390
 6924SOL    HW232406   2.741   1.305   4.452 -0.4993 -1.0216 -0.4713
 6925SOL     OW32407   3.267   3.956   3.110 -0.8904  0.4654  0.1002
 6925SOL    HW132408   3.172   3.967   3.113 -0.8873  0.5611 -0.1396
 6925SOL    HW232409   3.285   4.034   3.057 -2.1567  1.1216  0.6616
 6926SOL     OW32410   0.958   0.195  17.666  0.0849  0.1519  0.4525
 6926SOL    HW132411   0.890   0.133  17.641 -0.8402  0.9471  0.9817
 6926SOL    HW232412   1.001   0.205  17.581  0.4660  1.5345  0.8153
 6927SOL     OW32413   1.932   0.799   4.900  0.1203 -0.3158  0.3553
 6927SOL    HW132414   1.879   0.720   4.887  1.8293 -1.1831 -1.4436
 6927SOL    HW232415   1.972   0.786   4.986 -2.2918 -0.7707  1.4021
 6928SOL     OW32416   1.488   2.074   3.063 -0.2241 -0.0505  0.0769
 6928SOL    HW132417   1.463   2.049   2.974 -0.6669  3.1662 -0.7044
 6928SOL    HW232418   1.403   2.068   3.107 -0.3836  0.9759 -0.0839
 6929SOL     OW32419   0.134   3.967   9.352 -0.0733 -0.1056 -0.9547
 6929SOL    HW132420   0.047   3.992   9.382  0.0752 -0.9272  0.1432
 6929SOL    HW232421   0.126   3.876   9.323  1.8423  0.7971 -4.3518
 6930SOL     OW32422   3.894   0.210  14.160 -0.1180 -0.1865 -0.4186
 6930SOL    HW132423   3.976   0.255  14.139 -0.4319  0.5882  0.0146
 6930SOL    HW232424   3.884   0.230  14.253 -2.1399 -0.1437 -0.6495
 6931SOL     OW32425   1.141   1.789   2.161  0.0982  0.2462  0.4182
 6931SOL    HW132426   1.077   1.769   2.092 -0.9416  0.0209  1.4400
 6931SOL    HW232427   1.148   1.699   2.194  0.2867  0.8178  1.9466
 6932SOL     OW32428   1.245   3.456   0.592 -0.0480 -0.2460  0.6595
 6932SOL    HW132429   1.236   3.546   0.561 -0.5891 -0.8358 -0.8724
 6932SOL    HW232430   1.339   3.438   0.596 -0.1424 -0.6705  0.9895
 6933SOL     OW32431   1.559   1.877  13.129 -0.3347  0.2982  0.3421
 6933SOL    HW132432   1.494   1.808  13.146  0.5017 -0.4133  0.6775
 6933SOL    HW232433   1.635   1.822  13.149  0.5891  1.2633 -0.5056
 6934SOL     OW32434   0.870   0.004   8.241 -0.4723 -0.0088  0.2075
 6934SOL    HW132435   0.831   0.089   8.261 -0.3089  0.2146 -0.4033
 6934SOL    HW232436   0.815   4.685   8.297 -0.8184 -0.5652 -0.6561
 6935SOL     OW32437   1.494   2.538   0.528  0.2067 -0.2644  0.1791
 6935SOL    HW132438   1.464   2.628   0.519  0.4147 -0.3179 -1.1951
 6935SOL    HW232439   1.509   2.524   0.434 -2.7762  0.1180 -0.3555
 6936SOL     OW32440   2.006   3.395   5.391  0.0538  0.3100 -0.4568
 6936SOL    HW132441   2.028   3.454   5.318 -1.7744  1.3038 -0.2022
 6936SOL    HW232442   2.047   3.443   5.463 -2.1025 -0.3227  1.1827
 6937SOL     OW32443   3.636   1.921   6.873 -0.3626  0.0503 -0.4546
 6937SOL    HW132444   3.587   1.903   6.793 -0.4663  0.7233 -0.5448
 6937SOL    HW232445   3.566   1.898   6.935  0.5095 -1.4335 -0.0300
 6938SOL     OW32446   2.476   0.574   7.836  0.5102 -0.6061 -0.3161
 6938SOL    HW132447   2.484   0.517   7.913  0.2612  1.0177  0.8980
 6938SOL    HW232448   2.498   0.663   7.863  0.0223 -0.4634 -0.3850
 6939SOL     OW32449   2.218   0.688   6.862 -0.3154  0.1419  0.1721
 6939SOL    HW132450   2.163   0.612   6.843 -0.4405  0.2133  0.2440
 6939SOL    HW232451   2.168   0.766   6.839 -1.0824 -0.0629  1.1245
 6940SOL     OW32452   2.987   3.892   0.612  0.4584  0.4711 -0.3361
 6940SOL    HW132453   2.915   3.954   0.620  0.4918  0.5361 -0.5377
 6940SOL    HW232454   3.018   3.902   0.702  0.2898 -2.1229  0.0106
 6941SOL     OW32455   4.063   4.002  15.618 -0.0847 -0.5836 -0.1517
 6941SOL    HW132456   4.025   3.978  15.702 -0.4551 -0.9106 -0.4103
 6941SOL    HW232457   4.154   3.975  15.626  0.0020 -1.0746 -2.8028
 6942SOL     OW32458   1.104   4.522  17.051  0.2869 -0.7272  0.2051
 6942SOL    HW132459   1.027   4.513  16.994 -1.3578  0.9565  2.1508
 6942SOL    HW232460   1.053   4.536  17.131 -0.2023  0.6635 -0.3396
 6943SOL     OW32461   1.872   4.633   0.365  0.4748 -0.3235  0.0651
 6943SOL    HW132462   1.788   4.588   0.361 -0.3367  1.4619 -3.1325
 6943SOL    HW232463   1.886   4.667   0.276  2.1111 -0.7930  0.1446
 6944SOL     OW32464   3.681   2.562   0.345  0.4455  0.5551  0.1781
 6944SOL    HW132465   3.590   2.567   0.373 -0.1987 -2.4964 -1.3889
 6944SOL    HW232466   3.672   2.498   0.275 -3.2782  1.3350 -0.0236
 6945SOL     OW32467   0.215   0.644  13.360  0.1983 -0.3233  0.1572
 6945SOL    HW132468   0.224   0.582  13.287  1.7886 -0.6959  0.6566
 6945SOL    HW232469   0.299   0.683  13.336  0.1913 -1.2757 -1.4542
 6946SOL     OW32470   0.809   0.699   6.716  0.2998 -0.6720  0.2869
 6946SOL    HW132471   0.787   0.646   6.792  0.7218 -1.4816 -0.1522
 6946SOL    HW232472   0.795   0.785   6.756  0.1119 -0.5143 -0.1227
 6947SOL     OW32473   0.907   1.678   6.496 -0.0278  0.4420  0.1558
 6947SOL    HW132474   0.934   1.770   6.497 -1.3528  0.8314  0.7319
 6947SOL    HW232475   0.935   1.648   6.582 -0.0733 -0.6609 -0.2175
 6948SOL     OW32476   3.299   1.675  14.928  0.0323 -0.2413  0.3190
 6948SOL    HW132477   3.248   1.689  15.007  2.8382  0.9459  1.9099
 6948SOL    HW232478   3.273   1.758  14.888 -0.0695 -0.8137 -0.8280
 6949SOL     OW32479   2.186   0.287   3.862  0.4444 -0.1031  0.8221
 6949SOL    HW132480   2.096   0.294   3.893  0.1501  2.3020 -0.5997
 6949SOL    HW232481   2.234   0.335   3.929  2.0140  1.0396 -1.1256
 6950SOL     OW32482   3.031   0.032   7.281  0.0036  0.3015  0.0415
 6950SOL    HW132483   2.983   0.064   7.357 -2.5210 -3.1547 -0.0908
 6950SOL    HW232484   3.114   0.018   7.326 -0.0753  3.5327  1.1644
 6951SOL     OW32485   3.251   4.711   8.602 -0.2605 -0.1477  0.5610
 6951SOL    HW132486   3.266   0.021   8.685 -1.6335  1.4473 -0.0380
 6951SOL    HW232487   3.225   0.054   8.551 -1.8670 -0.6900  0.5439
 6952SOL     OW32488   4.176   0.994   7.832  0.4280  0.3318 -0.0390
 6952SOL    HW132489   4.096   0.975   7.881  1.0021 -0.5836  0.5389
 6952SOL    HW232490   4.198   1.080   7.870 -1.9836  0.6003  0.7418
 6953SOL     OW32491   1.414   0.235   0.012 -0.2812  0.0616 -0.2740
 6953SOL    HW132492   1.452   0.235   0.100  2.9779  0.3403 -1.7027
 6953SOL    HW232493   1.475   0.190  17.691 -0.1963 -2.9040  2.1118
 6954SOL     OW32494   0.812   1.918  16.590 -0.6423  0.3904  0.0759
 6954SOL    HW132495   0.890   1.932  16.536 -0.2566  2.1688  1.1006
 6954SOL    HW232496   0.809   1.998  16.642 -0.2214  0.1610  0.4465
 6955SOL     OW32497   3.726   1.929   8.922  0.7376  0.1628 -0.0553
 6955SOL    HW132498   3.651   1.887   8.879  1.6270 -0.9564 -0.5147
 6955SOL    HW232499   3.735   1.884   9.006 -2.2457 -0.0804  0.1232
 6956SOL     OW32500   0.328   1.002  12.399  0.0995  0.3327  0.1678
 6956SOL    HW132501   0.378   1.081  12.420  0.1765  0.4670 -0.5372
 6956SOL    HW232502   0.356   0.939  12.465 -2.5790  1.6214  2.5444
 6957SOL     OW32503   2.525   0.904  12.741  0.1131 -0.1702  0.1325
 6957SOL    HW132504   2.524   0.992  12.779  0.1518  0.2757 -0.8936
 6957SOL    HW232505   2.606   0.875  12.780 -0.1179  0.3859  1.0336
 6958SOL     OW32506   4.601   2.506  15.910  0.1397 -0.3116 -0.2630
 6958SOL    HW132507   4.644   2.472  15.831  2.1070  2.9832 -0.5836
 6958SOL    HW232508   4.673   2.505  15.973 -0.5134 -1.0125  0.4701
 6959SOL     OW32509   3.108   3.359   5.246  0.5428 -0.2752  0.3845
 6959SOL    HW132510   3.023   3.399   5.225  2.0392  2.0097 -1.3402
 6959SOL    HW232511   3.136   3.314   5.166 -2.3122  0.4495 -1.0258
 6960SOL     OW32512   1.109   0.108   7.964  0.3569 -0.0251  0.0174
 6960SOL    HW132513   1.072   0.180   8.015  1.1490  0.6868 -0.4155
 6960SOL    HW232514   1.139   0.148   7.882 -1.4973  0.4479 -0.4459
 6961SOL     OW32515   2.573   0.995   8.239 -0.1785  0.0349  0.9355
 6961SOL    HW132516   2.496   0.946   8.212 -0.4044 -0.3126  2.1946
 6961SOL    HW232517   2.549   1.083   8.209  0.0484 -1.1438 -2.7181
 6962SOL     OW32518   1.593   3.486   1.816  0.2436 -0.8068  0.0878
 6962SOL    HW132519   1.580   3.566   1.868  0.2965 -0.3860 -0.5543
 6962SOL    HW232520   1.681   3.496   1.780 -0.2497  1.2479 -0.5323
 6963SOL     OW32521   3.782   4.110   2.884 -0.3521 -0.5330  0.5245
 6963SOL    HW132522   3.866   4.071   2.857 -0.3520 -0.0481 -0.2056
 6963SOL    HW232523   3.793   4.106   2.979  0.1658 -0.2394  0.4802
 6964SOL     OW32524   0.950   1.996  14.611 -0.5152  0.1838  0.9362
 6964SOL    HW132525   0.895   1.930  14.652  0.6026 -0.4383  1.4297
 6964SOL    HW232526   0.891   2.041  14.550 -1.0559  0.1157  1.4155
 6965SOL     OW32527   3.658   1.779   9.140  0.0938  0.0416 -0.3841
 6965SOL    HW132528   3.574   1.773   9.187 -0.7078 -1.1045 -1.9636
 6965SOL    HW232529   3.706   1.699   9.163 -0.1677 -0.3290 -1.0971
 6966SOL     OW32530   1.550   2.846  17.259 -0.2072 -0.1228  0.1123
 6966SOL    HW132531   1.628   2.855  17.205 -0.2576 -3.0937 -0.4234
 6966SOL    HW232532   1.506   2.775  17.212 -2.9551  1.9900 -0.5629
 6967SOL     OW32533   3.587   1.774   3.874  0.1660  0.1915 -0.0025
 6967SOL    HW132534   3.585   1.678   3.879 -0.0941  0.2384  0.7739
 6967SOL    HW232535   3.516   1.776   3.809  1.3019 -0.5124 -1.2527
 6968SOL     OW32536   4.662   0.787  17.071  0.0001  1.1657  0.1615
 6968SOL    HW132537   4.566   0.786  17.076 -0.0384  0.9156 -0.6601
 6968SOL    HW232538   4.682   0.743  17.154 -0.1112  0.1494 -0.3514
 6969SOL     OW32539   0.648   4.398   0.157 -0.0111  0.4415 -0.0177
 6969SOL    HW132540   0.692   4.342   0.221 -1.8049 -0.6055  0.2764
 6969SOL    HW232541   0.647   4.356   0.072 -0.0590  0.5903 -0.0912
 6970SOL     OW32542   1.991   1.491  17.422 -0.1652 -0.1049  1.0264
 6970SOL    HW132543   2.022   1.400  17.420 -0.1028 -0.0716  0.5297
 6970SOL    HW232544   1.898   1.479  17.439 -1.0728  2.6420 -2.0617
 6971SOL     OW32545   0.185   4.662   7.150  0.1754  0.2995 -0.0186
 6971SOL    HW132546   0.185   4.567   7.136 -0.4573  0.1926  0.6830
 6971SOL    HW232547   0.113   4.693   7.095 -0.1743  0.9650  0.8181
 6972SOL     OW32548   3.133   2.784  10.813  0.5221  0.1513  0.2054
 6972SOL    HW132549   3.163   2.722  10.747 -1.1800  0.3852 -0.7971
 6972SOL    HW232550   3.074   2.833  10.757 -1.0836 -1.9410  0.0530
 6973SOL     OW32551   1.257   3.429   6.306 -0.0740  0.6586 -0.0631
 6973SOL    HW132552   1.190   3.489   6.275  0.1529 -0.0997 -2.0174
 6973SOL    HW232553   1.206   3.365   6.355  0.1717  1.3811  1.1439
 6974SOL     OW32554   2.966   4.230  12.748 -0.5351 -0.0592 -0.1581
 6974SOL    HW132555   2.871   4.226  12.761 -0.2489  0.4864  2.1863
 6974SOL    HW232556   2.994   4.140  12.762 -2.1436 -0.7783 -1.6270
 6975SOL     OW32557   3.573   1.469   8.368 -0.5366 -0.7358  0.2109
 6975SOL    HW132558   3.661   1.476   8.404  0.5539 -3.9051 -1.8400
 6975SOL    HW232559   3.596   1.455   8.276  1.3076 -1.0977  0.7226
 6976SOL     OW32560   2.108   0.535   8.674 -0.2483  0.5242 -0.6671
 6976SOL    HW132561   2.144   0.568   8.756 -1.1234 -0.8176  0.2551
 6976SOL    HW232562   2.122   0.443   8.694 -0.2925  0.1590 -2.2789
 6977SOL     OW32563   2.458   1.441   2.534 -0.3006  0.3719  0.8382
 6977SOL    HW132564   2.368   1.441   2.566  0.0837 -0.1661  1.9058
 6977SOL    HW232565   2.438   1.485   2.451  0.2860 -4.6136 -1.9336
 6978SOL     OW32566   0.100   4.171   4.897 -0.2010  0.9671  0.5015
 6978SOL    HW132567   0.014   4.177   4.855 -0.2601 -2.3412  0.1502
 6978SOL    HW232568   0.143   4.237   4.842  0.8146  1.6737  2.1316
 6979SOL     OW32569   3.770   2.185   8.934  0.4019  0.2909 -0.6432
 6979SOL    HW132570   3.742   2.094   8.942  1.8014 -0.0712  0.1167
 6979SOL    HW232571   3.775   2.193   8.839  1.0830  1.9983 -0.4664
 6980SOL     OW32572   4.093   0.386   8.667  0.7339  0.1521  0.2840
 6980SOL    HW132573   4.176   0.369   8.622  0.1115 -1.8633 -0.0977
 6980SOL    HW232574   4.126   0.387   8.756  0.1595 -0.1208  0.5020
 6981SOL     OW32575   1.292   4.576   1.003  0.3672 -0.0874 -0.2707
 6981SOL    HW132576   1.371   4.603   0.956  0.7332 -1.0892 -0.2500
 6981SOL    HW232577   1.337   4.537   1.078  2.3411 -2.2995 -2.5941
 6982SOL     OW32578   3.150   1.456   2.271 -0.4124 -0.0956  0.1242
 6982SOL    HW132579   3.179   1.547   2.280 -0.2387 -0.5217  3.8243
 6982SOL    HW232580   3.056   1.477   2.274 -0.0866  1.4599 -0.7071
 6983SOL     OW32581   0.979   2.497   1.847  0.0553 -0.3809  0.2057
 6983SOL    HW132582   0.942   2.580   1.875 -0.7848 -0.5990 -0.2651
 6983SOL    HW232583   0.897   2.449   1.857  0.4535 -0.8782  1.1413
 6984SOL     OW32584   3.633   4.397   1.053 -0.5724  0.5162  0.1306
 6984SOL    HW132585   3.633   4.476   0.999  1.6235 -0.2670 -0.9749
 6984SOL    HW232586   3.690   4.339   1.003  0.4692  0.2459  1.6446
 6985SOL     OW32587   2.028   3.897  10.199 -0.0141 -0.0294 -0.4825
 6985SOL    HW132588   2.029   3.902  10.295 -2.0573 -1.5795 -0.3724
 6985SOL    HW232589   2.122   3.893  10.181  0.4536  2.0826  1.4084
 6986SOL     OW32590   3.808   2.200   9.855  0.4832  0.1837  0.3189
 6986SOL    HW132591   3.759   2.270   9.897 -0.3324 -0.1356 -0.1091
 6986SOL    HW232592   3.894   2.230   9.887  0.4563  0.0915  0.4764
 6987SOL     OW32593   0.119   0.673  11.240 -0.2614 -0.2468  0.0310
 6987SOL    HW132594   0.130   0.615  11.165  0.2467  0.8828 -0.7679
 6987SOL    HW232595   0.075   0.613  11.300 -0.0830 -0.5076 -0.1013
 6988SOL     OW32596   1.367   3.327   5.381 -0.1201  0.0426 -0.1769
 6988SOL    HW132597   1.405   3.239   5.376 -0.6319 -0.0920 -1.9245
 6988SOL    HW232598   1.385   3.357   5.292  0.6658 -0.7782 -0.2983
 6989SOL     OW32599   3.322   0.678   5.471 -0.1416 -0.2739 -0.3101
 6989SOL    HW132600   3.276   0.758   5.445 -0.3127 -0.5660 -0.8937
 6989SOL    HW232601   3.405   0.709   5.506 -1.8284  1.4078  2.2005
 6990SOL     OW32602   3.532   1.069   8.267  0.6144 -0.0664  0.6044
 6990SOL    HW132603   3.450   1.118   8.271  0.3635 -0.2212 -2.8715
 6990SOL    HW232604   3.550   1.037   8.179  0.4975 -2.2549  1.3851
 6991SOL     OW32605   2.663   3.878   3.937 -0.5228  0.1059 -0.4261
 6991SOL    HW132606   2.590   3.848   3.991 -0.9799  1.8483 -0.0771
 6991SOL    HW232607   2.658   3.969   3.966 -0.2024  0.4626 -1.4656
 6992SOL     OW32608   2.071   4.423   0.333 -0.1550  0.0593 -1.1995
 6992SOL    HW132609   2.015   4.372   0.274 -0.1080 -1.2895 -0.0570
 6992SOL    HW232610   2.013   4.496   0.353  1.8025  1.2831  0.0112
 6993SOL     OW32611   0.419   0.640   7.501 -0.2326 -0.8667 -0.1756
 6993SOL    HW132612   0.485   0.599   7.558  0.2455  0.0483 -0.0692
 6993SOL    HW232613   0.373   0.696   7.564  1.6865  1.1034 -0.5189
 6994SOL     OW32614   2.005   1.730  16.596 -0.5180  0.4056  0.3803
 6994SOL    HW132615   2.071   1.800  16.594  1.1462 -1.2193 -0.7729
 6994SOL    HW232616   1.956   1.752  16.517  2.1027  1.7315 -0.8821
 6995SOL     OW32617   0.127   4.489   0.044  0.1591 -0.8228  0.0854
 6995SOL    HW132618   0.102   4.398   0.024 -0.5609 -0.8286  1.0394
 6995SOL    HW232619   0.208   4.476   0.094 -0.9506 -1.4896  1.6914
 6996SOL     OW32620   4.224   1.813   2.688  0.5414 -0.1881  0.0599
 6996SOL    HW132621   4.251   1.799   2.598  1.3559  2.7370 -0.1368
 6996SOL    HW232622   4.288   1.877   2.720 -1.1734  1.8180 -0.5474
 6997SOL     OW32623   3.366   1.616   6.080  0.9694  0.0634  0.2450
 6997SOL    HW132624   3.436   1.634   6.016  2.6477  1.2451  2.4053
 6997SOL    HW232625   3.354   1.702   6.121 -3.4670 -0.8817  0.8482
 6998SOL     OW32626   0.703   4.147   2.692  0.3135  0.4703 -0.2942
 6998SOL    HW132627   0.747   4.064   2.711  2.5597  1.3003 -1.8225
 6998SOL    HW232628   0.630   4.146   2.754 -0.4273 -1.9581 -1.2255
 6999SOL     OW32629   3.756   2.549   3.545 -0.5686 -0.3071 -0.5849
 6999SOL    HW132630   3.749   2.555   3.449  4.0918  0.7746 -0.8464
 6999SOL    HW232631   3.777   2.641   3.561 -2.8762 -0.0332  0.8230
 7000SOL     OW32632   3.075   3.693   3.503  0.1238  0.1348 -0.1526
 7000SOL    HW132633   3.045   3.675   3.414 -2.5538 -0.0937  0.7949
 7000SOL    HW232634   3.085   3.607   3.543  0.0172  0.2688  0.1632
 7001SOL     OW32635   3.162   0.246   7.155 -0.2044  0.1406 -0.0099
 7001SOL    HW132636   3.095   0.290   7.206 -0.7023 -0.8088  0.1522
 7001SOL    HW232637   3.142   0.160   7.190  1.4318 -0.4287 -0.4820
 7002SOL     OW32638   3.028   3.904   0.875 -0.2616  0.1972  0.3234
 7002SOL    HW132639   2.948   3.855   0.894  0.1835 -0.8707 -0.5031
 7002SOL    HW232640   3.011   3.995   0.900 -1.5932 -0.3878  1.5240
 7003SOL     OW32641   3.933   3.720   9.135  0.1608  0.2252  0.1336
 7003SOL    HW132642   3.868   3.733   9.066  0.1578 -1.0753 -0.1177
 7003SOL    HW232643   3.890   3.650   9.184  1.4316 -1.0590 -0.5856
 7004SOL     OW32644   4.663   1.394   9.365  0.5876 -0.4727  0.5667
 7004SOL    HW132645   0.007   1.342   9.347  2.3143  1.8540  1.4067
 7004SOL    HW232646   4.682   1.473   9.314  0.5425 -2.3081 -2.3303
 7005SOL     OW32647   0.663   3.459  14.169 -0.0724 -0.1937 -0.0802
 7005SOL    HW132648   0.727   3.426  14.233 -1.1786 -1.7022  0.2508
 7005SOL    HW232649   0.581   3.420  14.200  0.4398 -1.2363 -0.0295
 7006SOL     OW32650   4.161   3.355   7.149 -0.2577  0.0326  0.4376
 7006SOL    HW132651   4.229   3.327   7.211  1.9526  4.6969  0.1755
 7006SOL    HW232652   4.153   3.446   7.179  1.3984 -0.0073  1.0385
 7007SOL     OW32653   2.364   4.273   2.016  0.5250 -0.1103 -0.7916
 7007SOL    HW132654   2.289   4.221   2.046  0.1552 -0.0311 -1.5761
 7007SOL    HW232655   2.418   4.266   2.094 -1.3344  1.1344  0.5954
 7008SOL     OW32656   2.462   0.598   6.044 -0.5391  0.1009 -0.6003
 7008SOL    HW132657   2.524   0.533   6.010 -1.3845 -1.0383  0.0545
 7008SOL    HW232658   2.455   0.578   6.138  0.6797 -0.3525 -0.5945
 7009SOL     OW32659   3.400   3.547   1.969 -0.3028  0.1734  0.2568
 7009SOL    HW132660   3.484   3.575   1.934  0.2812 -0.7375  0.9542
 7009SOL    HW232661   3.429   3.510   2.052 -0.0929  1.0264  0.5658
 7010SOL     OW32662   0.025   3.504   5.801 -0.3402  0.3233  0.7345
 7010SOL    HW132663   0.114   3.483   5.774 -0.7928 -1.4185  0.6205
 7010SOL    HW232664   4.710   3.507   5.720  3.9651  1.1462 -1.8707
 7011SOL     OW32665   1.890   1.349  12.370  0.3190 -0.1982  0.6943
 7011SOL    HW132666   1.930   1.276  12.417 -0.5024  0.0421  1.7667
 7011SOL    HW232667   1.879   1.307  12.285 -0.4604  2.0045 -0.2828
 7012SOL     OW32668   2.412   3.646  17.310 -0.1157 -0.1100 -0.0428
 7012SOL    HW132669   2.473   3.596  17.364 -1.1946 -2.8670 -1.3709
 7012SOL    HW232670   2.443   3.630  17.221 -0.9154 -1.3628 -0.1010
 7013SOL     OW32671   3.795   0.095  10.100 -0.6472  0.4533  0.8364
 7013SOL    HW132672   3.810   0.040  10.023 -0.6038 -0.5950  1.5907
 7013SOL    HW232673   3.801   0.179  10.055  1.4707  0.4933  1.2129
 7014SOL     OW32674   4.309   0.945   9.469  0.1584 -0.3071  0.4996
 7014SOL    HW132675   4.311   1.041   9.462  0.7557 -0.3543  0.0253
 7014SOL    HW232676   4.255   0.937   9.548  2.7683  0.5291  2.3923
 7015SOL     OW32677   1.282   0.936   0.205 -0.3724 -0.0583  0.2361
 7015SOL    HW132678   1.226   0.864   0.174  1.3431 -1.4756  0.4600
 7015SOL    HW232679   1.248   0.958   0.292 -1.9956 -0.9162 -0.1823
 7016SOL     OW32680   3.780   3.487   5.895 -0.2555  0.0127 -0.2726
 7016SOL    HW132681   3.872   3.490   5.867 -0.0939 -0.8343  0.1728
 7016SOL    HW232682   3.738   3.417   5.846  1.9067 -0.2210 -1.7941
 7017SOL     OW32683   3.016   0.745  13.450 -0.0823  0.3747 -0.2860
 7017SOL    HW132684   2.988   0.748  13.541 -0.3849  0.6485 -0.3877
 7017SOL    HW232685   2.949   0.698  13.400  0.3467 -1.4684  0.8780
 7018SOL     OW32686   1.820   1.858   2.181 -0.1274 -0.0339  0.6259
 7018SOL    HW132687   1.732   1.829   2.205  0.5471 -0.9606  1.9906
 7018SOL    HW232688   1.846   1.792   2.117 -0.4487  0.2522  0.2020
 7019SOL     OW32689   3.786   3.168   2.446 -0.5079 -0.0448 -0.0769
 7019SOL    HW132690   3.797   3.094   2.385 -2.6445  0.1006 -0.6466
 7019SOL    HW232691   3.776   3.232   2.376 -0.4934  0.6852  0.5945
 7020SOL     OW32692   0.525   3.432   4.296 -0.4369  0.0878  0.2047
 7020SOL    HW132693   0.441   3.408   4.257 -0.8175  0.6635  0.6707
 7020SOL    HW232694   0.505   3.511   4.346 -1.5573 -0.2789  0.3433
 7021SOL     OW32695   0.735   3.848   7.633 -0.0487  0.6586 -0.5734
 7021SOL    HW132696   0.767   3.937   7.649  0.1440  0.7495 -1.4337
 7021SOL    HW232697   0.706   3.849   7.542  0.3396  0.5957 -0.7014
 7022SOL     OW32698   0.957   3.493   8.422  0.6150  0.4969  0.1909
 7022SOL    HW132699   1.024   3.438   8.462 -0.1420 -1.3005 -1.0414
 7022SOL    HW232700   1.009   3.572   8.406  0.7812  0.3195 -0.1521
 7023SOL     OW32701   2.774   1.136   4.068  0.1126  1.1196 -0.5122
 7023SOL    HW132702   2.796   1.105   4.156 -2.0861  0.3615 -0.2334
 7023SOL    HW232703   2.779   1.050   4.027  2.3017  1.4114 -0.8364
 7024SOL     OW32704   4.545   0.032  12.191  0.2944  0.1707 -0.6756
 7024SOL    HW132705   4.610   0.043  12.121 -0.7624 -0.0388 -1.6807
 7024SOL    HW232706   4.504   0.119  12.195 -1.9588 -0.7475 -4.0692
 7025SOL     OW32707   3.712   2.910   1.572  0.4525 -0.1764 -0.1051
 7025SOL    HW132708   3.704   2.861   1.490  1.1252 -1.7283  0.7636
 7025SOL    HW232709   3.718   2.837   1.633 -1.5228  0.4667  0.8755
 7026SOL     OW32710   1.503   1.628   3.018 -0.0789  0.1760  0.4678
 7026SOL    HW132711   1.461   1.596   3.098  0.5874 -2.5267 -0.2628
 7026SOL    HW232712   1.453   1.708   2.999 -1.4165 -0.8988 -0.5126
 7027SOL     OW32713   4.128   3.556   3.770  0.4525  0.0590 -0.2775
 7027SOL    HW132714   4.074   3.560   3.691  0.8672  2.4413 -0.4417
 7027SOL    HW232715   4.058   3.573   3.833 -0.8019  0.6539 -1.8361
 7028SOL     OW32716   2.999   4.371   7.546  0.6016  0.2069  0.2622
 7028SOL    HW132717   2.929   4.353   7.609 -0.1287 -0.8963 -0.8620
 7028SOL    HW232718   2.991   4.288   7.500  1.7825 -0.0853  0.5986
 7029SOL     OW32719   2.075   4.596   5.335  0.1842 -0.7005  0.2007
 7029SOL    HW132720   2.005   4.588   5.400  0.9967 -3.7649  0.7374
 7029SOL    HW232721   2.148   4.633   5.385 -0.0730  1.6581 -1.1882
 7030SOL     OW32722   4.099   1.542  13.724 -0.1371  0.0465  0.0594
 7030SOL    HW132723   4.128   1.581  13.642  0.1481 -1.0825 -0.3729
 7030SOL    HW232724   4.077   1.452  13.699  0.8081 -0.8560  2.5444
 7031SOL     OW32725   3.891   0.968   7.953  0.2852 -0.2930  0.2794
 7031SOL    HW132726   3.874   1.010   8.037 -1.6476 -2.6612  1.0747
 7031SOL    HW232727   3.881   1.042   7.894 -0.1606 -1.0792 -0.6283
 7032SOL     OW32728   3.876   0.473   9.024  0.3731 -0.1797 -0.2831
 7032SOL    HW132729   3.933   0.545   8.997 -1.1965  0.6701 -1.3806
 7032SOL    HW232730   3.875   0.492   9.118 -1.7776 -0.7520 -0.1808
 7033SOL     OW32731   3.060   0.172  14.568 -0.2005 -0.4197 -0.1458
 7033SOL    HW132732   3.111   0.215  14.637 -0.9938  0.9291 -0.4131
 7033SOL    HW232733   3.093   0.083  14.584  0.3814 -0.0757  0.5704
 7034SOL     OW32734   1.974   3.186   6.265  0.5300 -1.0295 -0.3941
 7034SOL    HW132735   1.935   3.244   6.199  1.4700 -2.2779 -2.0597
 7034SOL    HW232736   1.893   3.171   6.313  0.2320 -0.6143 -0.7655
 7035SOL     OW32737   2.809   1.632   8.872 -0.2127 -0.3211 -0.2804
 7035SOL    HW132738   2.756   1.638   8.792 -0.3405  0.2828 -0.1492
 7035SOL    HW232739   2.743   1.633   8.940  0.4464  1.8462  0.3446
 7036SOL     OW32740   1.724   0.404   5.572  0.3660  0.5123 -0.2709
 7036SOL    HW132741   1.786   0.333   5.556  0.4293  1.0081 -2.2085
 7036SOL    HW232742   1.753   0.457   5.498  2.6349  0.0087  0.2646
 7037SOL     OW32743   0.285   1.939   6.217 -0.1699 -0.2030 -1.2089
 7037SOL    HW132744   0.298   1.999   6.291  0.5681  0.3596 -1.7953
 7037SOL    HW232745   0.354   1.970   6.159  1.0726  1.1884  0.9910
 7038SOL     OW32746   1.168   0.075   2.901  0.2780 -0.2733 -0.3100
 7038SOL    HW132747   1.141   0.161   2.935 -0.5938 -0.1164 -1.4078
 7038SOL    HW232748   1.124   0.017   2.963 -1.6293 -0.8744 -2.2294
 7039SOL     OW32749   2.738   3.618   2.387  0.0433 -0.7232 -0.2481
 7039SOL    HW132750   2.798   3.691   2.368 -2.0133  0.7281 -1.2662
 7039SOL    HW232751   2.794   3.556   2.432 -0.1367 -2.3224 -2.2261
 7040SOL     OW32752   4.411   1.146  11.964  0.0515 -0.0155  0.5052
 7040SOL    HW132753   4.433   1.058  11.992  1.2115  0.4788  1.1542
 7040SOL    HW232754   4.327   1.155  12.010  0.1547  1.6557  0.3761
 7041SOL     OW32755   3.042   0.046   4.468 -0.1748  1.3857  0.0782
 7041SOL    HW132756   3.006   0.069   4.383  0.4863  1.7715 -0.0933
 7041SOL    HW232757   3.086   4.698   4.446 -0.1814  1.4704 -0.2475
 7042SOL     OW32758   0.045   1.118   7.893 -0.5184 -0.0207  0.0316
 7042SOL    HW132759   0.102   1.057   7.939 -0.5100 -0.4875 -0.5942
 7042SOL    HW232760   0.064   1.113   7.799  0.8901  1.3230  0.2392
 7043SOL     OW32761   2.140   4.089   8.706 -0.1678  0.1395 -0.1264
 7043SOL    HW132762   2.054   4.110   8.669 -0.9134  0.3088  1.6990
 7043SOL    HW232763   2.153   4.173   8.751  2.0811  0.2226 -0.9321
 7044SOL     OW32764   0.738   1.493   5.356  0.1715 -0.5829 -0.2245
 7044SOL    HW132765   0.833   1.481   5.360  0.3479  1.4816  1.5285
 7044SOL    HW232766   0.726   1.468   5.264  0.0423  0.8456 -0.6014
 7045SOL     OW32767   3.017   1.679   5.545  0.0124  0.6926  0.6723
 7045SOL    HW132768   2.922   1.692   5.534  0.0945  0.1176 -0.7041
 7045SOL    HW232769   3.027   1.741   5.618 -1.6720  1.1695  0.5079
 7046SOL     OW32770   1.445   1.848   4.184 -0.1681  0.8221  0.6178
 7046SOL    HW132771   1.387   1.775   4.205  0.8498 -0.1101  0.2286
 7046SOL    HW232772   1.390   1.908   4.134  3.0438  1.1703 -2.5007
 7047SOL     OW32773   4.332   2.840   6.848 -0.3008 -0.9096 -0.6482
 7047SOL    HW132774   4.320   2.752   6.886 -0.1795 -0.5456  0.2431
 7047SOL    HW232775   4.242   2.853   6.816 -1.2498  1.4034  2.8957
 7048SOL     OW32776   2.930   2.536   7.401 -0.2315  0.4890  0.4737
 7048SOL    HW132777   3.025   2.524   7.400  0.0780  3.0352 -2.0780
 7048SOL    HW232778   2.918   2.630   7.391 -0.4292  0.4737  0.5607
 7049SOL     OW32779   3.152   1.268   2.473  0.5352 -0.1489 -0.1649
 7049SOL    HW132780   3.152   1.319   2.393  1.2901  3.6094  2.2494
 7049SOL    HW232781   3.141   1.178   2.441 -1.0737  0.6195 -1.7556
 7050SOL     OW32782   0.284   1.637   7.392  0.3147  0.3116 -0.4542
 7050SOL    HW132783   0.190   1.642   7.381  0.3169  1.0868 -0.0742
 7050SOL    HW232784   0.319   1.726   7.391  1.4836 -0.1294  0.6356
 7051SOL     OW32785   4.129   1.418   6.663  0.2032  0.1104 -0.3662
 7051SOL    HW132786   4.165   1.334   6.692  1.2057  0.1033 -1.6284
 7051SOL    HW232787   4.101   1.402   6.573  1.5749  0.0794 -0.7792
 7052SOL     OW32788   2.542   1.084   4.201  0.1617 -0.1882 -0.2542
 7052SOL    HW132789   2.544   1.083   4.105 -0.0733  1.7497 -0.2774
 7052SOL    HW232790   2.503   1.170   4.216 -0.3171 -0.8528  2.2561
 7053SOL     OW32791   1.058   2.512   9.914 -0.1514 -0.2094 -0.3122
 7053SOL    HW132792   0.993   2.519   9.983 -0.1799  0.3355 -0.3983
 7053SOL    HW232793   1.037   2.426   9.878 -2.1774  1.1647 -2.4010
 7054SOL     OW32794   3.426   1.710  14.307 -0.2236  0.0805  0.3685
 7054SOL    HW132795   3.502   1.697  14.251 -1.1812 -0.7058 -0.7467
 7054SOL    HW232796   3.379   1.781  14.261 -1.7906  1.5760  4.2798
 7055SOL     OW32797   0.914   1.547  13.750  0.0338  0.0008 -0.5056
 7055SOL    HW132798   0.897   1.464  13.707 -1.3146 -0.8473  1.6944
 7055SOL    HW232799   0.823   1.577  13.752 -0.5393 -1.7459 -0.4055
 7056SOL     OW32800   1.385   4.150  14.987 -0.1038  0.9140 -0.2445
 7056SOL    HW132801   1.468   4.106  15.004 -0.0541  0.4228 -1.7204
 7056SOL    HW232802   1.325   4.075  14.997 -0.6216  1.4120  0.3621
 7057SOL     OW32803   2.972   1.468   7.998 -0.2862  0.4935  0.2100
 7057SOL    HW132804   2.964   1.407   7.925  1.3626  1.1527 -0.5178
 7057SOL    HW232805   3.067   1.460   8.008  0.0003  1.2967 -1.9909
 7058SOL     OW32806   0.022   3.527   3.981  0.7823 -0.1635  0.5651
 7058SOL    HW132807   4.703   3.565   4.050  1.7690 -0.8443  1.6982
 7058SOL    HW232808   0.048   3.443   4.018  1.2968 -0.7516 -1.1126
 7059SOL     OW32809   2.476   0.814  10.890  0.7683 -0.0166 -0.5673
 7059SOL    HW132810   2.570   0.795  10.899  0.7235  0.6410  1.3265
 7059SOL    HW232811   2.470   0.816  10.795  1.2040  0.7775 -0.5816
 7060SOL     OW32812   3.626   4.611   4.438  0.1145  0.2063  0.0433
 7060SOL    HW132813   3.628   4.515   4.438  0.9933  0.2346  1.3419
 7060SOL    HW232814   3.684   4.635   4.510  0.1372 -0.5177  0.2604
 7061SOL     OW32815   1.724   0.458   1.138 -0.2583  0.6053 -0.3529
 7061SOL    HW132816   1.717   0.553   1.149 -1.2872  0.6940 -1.7128
 7061SOL    HW232817   1.633   0.431   1.126  1.2315 -4.6028  0.1411
 7062SOL     OW32818   1.440   4.641   3.286  0.3379 -0.1809  0.1772
 7062SOL    HW132819   1.403   4.642   3.198 -0.2482  0.6867  0.4277
 7062SOL    HW232820   1.365   4.637   3.346  2.1957 -0.0137  2.5202
 7063SOL     OW32821   1.182   1.520   2.195  0.0834 -0.1597  0.2578
 7063SOL    HW132822   1.137   1.467   2.129  0.2748  0.7846 -0.6290
 7063SOL    HW232823   1.268   1.523   2.152 -0.1806  0.3259 -0.2166
 7064SOL     OW32824   3.422   4.184   7.285 -0.4405 -0.1888 -0.2982
 7064SOL    HW132825   3.510   4.196   7.249 -0.2977  1.8856  0.7350
 7064SOL    HW232826   3.394   4.276   7.289 -1.3343 -0.4820  0.0431
 7065SOL     OW32827   4.721   4.325   1.612  0.2464  0.2592  0.3236
 7065SOL    HW132828   4.670   4.302   1.534  0.2416 -1.8575  0.9496
 7065SOL    HW232829   0.049   4.378   1.563  0.4502  2.4540  2.9076
 7066SOL     OW32830   4.238   2.511   7.858  0.0676 -0.1668 -0.2644
 7066SOL    HW132831   4.162   2.529   7.803  0.1316  1.0679  0.0596
 7066SOL    HW232832   4.259   2.593   7.902 -0.3359 -0.4256  0.4057
 7067SOL     OW32833   0.880   3.853  12.215  0.1214  0.2863  0.1449
 7067SOL    HW132834   0.961   3.860  12.165  0.6230 -1.0532  0.7727
 7067SOL    HW232835   0.902   3.776  12.267 -1.2331  0.1473  0.5249
 7068SOL     OW32836   1.028   1.652   1.947  0.6016  0.5170  0.1171
 7068SOL    HW132837   1.051   1.560   1.935 -3.3352 -0.5230  0.5806
 7068SOL    HW232838   1.059   1.681   1.861 -0.0764  1.8800  0.3363
 7069SOL     OW32839   1.045   1.153   4.054  0.1678  0.5062  0.2518
 7069SOL    HW132840   0.952   1.150   4.076  0.8185 -1.5532  2.6551
 7069SOL    HW232841   1.051   1.214   3.981 -0.8027  0.9010  0.4939
 7070SOL     OW32842   3.125   3.536   8.107  0.1073  0.4602  0.3992
 7070SOL    HW132843   3.166   3.539   8.194  2.9400 -0.3503 -0.9064
 7070SOL    HW232844   3.141   3.624   8.074 -0.3251  0.5030  0.3158
 7071SOL     OW32845   2.671   0.328   1.337  0.1350  0.0464  0.0428
 7071SOL    HW132846   2.612   0.299   1.268 -0.5324 -1.0946  1.0781
 7071SOL    HW232847   2.608   0.383   1.383 -0.0273  1.8819 -2.4018
 7072SOL     OW32848   4.096   3.822   8.328  0.8609 -0.0113  0.7252
 7072SOL    HW132849   4.146   3.863   8.399 -0.2940  1.0775  0.9201
 7072SOL    HW232850   4.147   3.820   8.247  0.6873 -1.1832  0.6427
 7073SOL     OW32851   2.870   3.433   5.677  0.0352  0.1883 -0.2662
 7073SOL    HW132852   2.835   3.345   5.673 -2.5106  1.3041 -2.3620
 7073SOL    HW232853   2.835   3.478   5.600 -0.6213  0.7858  0.3852
 7074SOL     OW32854   3.092   3.832  12.173 -0.1565 -0.1234  0.2570
 7074SOL    HW132855   3.133   3.746  12.164 -1.6937 -0.7224 -1.1035
 7074SOL    HW232856   3.159   3.888  12.135 -1.0401  1.1839  0.6381
 7075SOL     OW32857   3.837   2.666   4.554  0.1531 -0.5529  0.7040
 7075SOL    HW132858   3.876   2.677   4.467 -1.1206 -0.8229  0.1004
 7075SOL    HW232859   3.755   2.714   4.543  0.6757  0.0564 -0.4413
 7076SOL     OW32860   0.987   0.322   8.106  0.2092  0.0285 -0.6132
 7076SOL    HW132861   0.941   0.384   8.049 -0.6832  0.2376  0.3467
 7076SOL    HW232862   0.945   0.333   8.191  1.7511  1.1219  0.0272
 7077SOL     OW32863   0.670   0.772   2.633  0.2181 -0.6092 -0.2668
 7077SOL    HW132864   0.613   0.795   2.560 -2.5529 -0.5424  1.9124
 7077SOL    HW232865   0.697   0.681   2.619 -0.1691 -0.8131  0.2973
 7078SOL     OW32866   0.303   1.681   3.236  0.0397  0.4353  0.1002
 7078SOL    HW132867   0.391   1.674   3.199  0.7616  2.0389  1.5094
 7078SOL    HW232868   0.317   1.715   3.325 -0.5306  1.8495 -0.3418
 7079SOL     OW32869   1.508   4.293   7.891 -0.0081 -0.1533  0.2676
 7079SOL    HW132870   1.488   4.204   7.863  1.4624  0.1944 -1.8928
 7079SOL    HW232871   1.427   4.343   7.878  0.4873  0.3753 -0.7818
 7080SOL     OW32872   1.415   4.093   2.041  0.1713 -0.0992 -0.0871
 7080SOL    HW132873   1.347   4.036   2.077 -0.1779 -0.2636 -1.0283
 7080SOL    HW232874   1.424   4.145   2.121  0.9752 -0.6311  0.1679
 7081SOL     OW32875   3.855   0.691   0.495 -0.0648 -0.3803 -0.5338
 7081SOL    HW132876   3.859   0.758   0.563  1.5363  0.5073 -1.5042
 7081SOL    HW232877   3.778   0.720   0.446 -0.1300  0.4421  0.0673
 7082SOL     OW32878   0.278   1.034   7.426  0.2567 -0.3450 -0.4041
 7082SOL    HW132879   0.234   1.112   7.393 -0.2513 -0.7044 -0.5735
 7082SOL    HW232880   0.276   0.978   7.348 -0.3277 -1.2418  0.2555
 7083SOL     OW32881   2.347   2.668  16.843  0.1971 -0.1373  0.7474
 7083SOL    HW132882   2.288   2.741  16.860 -1.1131 -0.7048 -1.3317
 7083SOL    HW232883   2.420   2.697  16.897 -0.1298 -0.2117  1.2342
 7084SOL     OW32884   3.617   2.184   6.813 -0.2140 -0.3432  0.5114
 7084SOL    HW132885   3.606   2.216   6.903 -0.2245 -1.7230  1.0027
 7084SOL    HW232886   3.630   2.089   6.824 -2.5787 -0.5959  1.1880
 7085SOL     OW32887   1.582   3.666   8.336 -0.1071 -0.1870  0.0466
 7085SOL    HW132888   1.644   3.705   8.399 -0.6203  0.7882 -0.0472
 7085SOL    HW232889   1.624   3.685   8.252 -3.5647 -0.4285 -1.7156
 7086SOL     OW32890   3.264   0.117   5.938 -0.8759 -0.0580  0.1171
 7086SOL    HW132891   3.198   0.063   5.893  0.2846 -0.3244 -1.2612
 7086SOL    HW232892   3.274   0.058   6.013  0.0652 -1.5632 -1.2065
 7087SOL     OW32893   3.649   2.254   3.957  0.1254  0.0766 -0.3257
 7087SOL    HW132894   3.608   2.202   3.888 -0.2920 -0.2314  0.1544
 7087SOL    HW232895   3.670   2.334   3.908  0.8276  0.4032  0.5074
 7088SOL     OW32896   4.569   4.513  12.244 -0.3367 -0.0649 -0.0154
 7088SOL    HW132897   4.575   4.605  12.219  1.2441  0.0283  0.6972
 7088SOL    HW232898   4.634   4.521  12.314 -0.8672  4.5114 -0.0147
 7089SOL     OW32899   4.103   1.926   6.597 -0.9009  0.1639 -0.0185
 7089SOL    HW132900   4.048   2.004   6.593 -1.3918 -0.1840 -0.0547
 7089SOL    HW232901   4.187   1.972   6.601 -1.3362  0.9289  0.1567
 7090SOL     OW32902   3.748   2.921   4.780 -0.0169  0.1450  0.2926
 7090SOL    HW132903   3.789   2.836   4.797 -2.0200 -0.3366  2.7902
 7090SOL    HW232904   3.779   2.945   4.693 -0.9840 -1.8170 -0.6013
 7091SOL     OW32905   0.900   3.800   4.389 -0.0660  0.2618 -0.4996
 7091SOL    HW132906   0.993   3.784   4.375 -0.0448  0.8454 -0.9949
 7091SOL    HW232907   0.853   3.722   4.361  2.4410 -1.7399  0.8279
 7092SOL     OW32908   1.866   3.970  16.226  0.2622  0.3960  0.1644
 7092SOL    HW132909   1.795   4.023  16.189 -0.0311 -0.9693 -1.2265
 7092SOL    HW232910   1.829   3.886  16.199  2.7744 -1.1093  1.4535
 7093SOL     OW32911   1.214   0.125   0.735 -0.3394 -0.2906 -0.2019
 7093SOL    HW132912   1.188   0.053   0.678 -0.9527 -0.0012 -0.2885
 7093SOL    HW232913   1.138   0.184   0.735 -1.9340 -2.3310 -0.0877
 7094SOL     OW32914   4.185   1.542   8.856  0.0118  0.3528 -0.0358
 7094SOL    HW132915   4.223   1.629   8.872  0.8440  0.1806 -1.0871
 7094SOL    HW232916   4.264   1.488   8.868 -0.3851 -0.3623 -0.7017
 7095SOL     OW32917   3.326   3.274  17.030  0.1194 -0.1453 -0.0070
 7095SOL    HW132918   3.279   3.233  17.103  0.9069 -2.7488 -0.9651
 7095SOL    HW232919   3.270   3.351  17.026  2.0445  1.1447 -1.6841
 7096SOL     OW32920   1.881   3.489   9.083 -0.2893  0.2904  0.1672
 7096SOL    HW132921   1.836   3.564   9.044  0.0941  0.1524 -0.5526
 7096SOL    HW232922   1.914   3.545   9.153 -0.1216  0.0687  0.2647
 7097SOL     OW32923   1.534   0.985  11.177 -0.2449  0.4420 -0.7382
 7097SOL    HW132924   1.505   0.907  11.224  1.5858 -0.0617 -0.4294
 7097SOL    HW232925   1.622   0.961  11.146  0.6953  1.2731  1.2731
 7098SOL     OW32926   1.036   2.117   6.042  0.3247  0.7484  0.6454
 7098SOL    HW132927   1.047   2.076   5.956  1.0267 -0.2298  1.1972
 7098SOL    HW232928   1.128   2.123   6.067  0.9442 -1.2698 -1.1677
 7099SOL     OW32929   2.177   4.415   9.484 -0.4987  0.2452 -0.1511
 7099SOL    HW132930   2.225   4.466   9.550  0.1941  0.7032 -1.0093
 7099SOL    HW232931   2.086   4.433   9.508 -0.3769  0.5652  0.0766
 7100SOL     OW32932   2.234   0.034   6.331 -0.1566  0.3754 -0.3783
 7100SOL    HW132933   2.266   4.678   6.333  1.5055  0.9908  2.3715
 7100SOL    HW232934   2.307   0.066   6.385 -1.8836  1.5391  1.3017
 7101SOL     OW32935   2.845   1.391   4.726  0.1390 -0.4082  0.5783
 7101SOL    HW132936   2.828   1.485   4.732 -0.7894 -0.4401 -1.5090
 7101SOL    HW232937   2.782   1.350   4.786 -1.0236 -0.4366 -0.6606
 7102SOL     OW32938   3.095   0.999  13.378  0.3647 -0.1048  0.9563
 7102SOL    HW132939   3.024   1.049  13.417  0.8636 -1.0967  3.1136
 7102SOL    HW232940   3.063   0.911  13.399  0.2868 -0.5686 -1.1113
 7103SOL     OW32941   0.073   1.383   8.599  0.5513  0.0221  0.7291
 7103SOL    HW132942   0.081   1.302   8.549  0.0040 -0.3069  1.1812
 7103SOL    HW232943   0.038   1.427   8.522  1.8629 -1.4394 -0.6969
 7104SOL     OW32944   1.978   4.649   7.893 -0.4946 -0.3978  0.4919
 7104SOL    HW132945   1.996   4.559   7.866 -1.2852 -0.5606  0.5191
 7104SOL    HW232946   1.885   4.650   7.869 -0.0446  0.7330 -1.1834
 7105SOL     OW32947   4.265   2.527   6.143  0.2820  0.6364 -0.3305
 7105SOL    HW132948   4.234   2.465   6.209  1.4731  0.3428 -0.0456
 7105SOL    HW232949   4.353   2.532   6.182  0.9128  0.4234 -1.7306
 7106SOL     OW32950   4.630   0.621   8.063 -0.2105  0.3752  0.0344
 7106SOL    HW132951   4.575   0.664   7.997 -1.1742 -2.2893 -0.8867
 7106SOL    HW232952   4.588   0.650   8.144 -1.2947 -1.7399  0.2255
 7107SOL     OW32953   0.960   0.235   3.419  0.5191  0.4909  0.0284
 7107SOL    HW132954   0.911   0.267   3.495  1.2992  0.5085  0.5203
 7107SOL    HW232955   1.046   0.226   3.461  1.0227  1.3064 -0.8250
 7108SOL     OW32956   1.127   3.835   7.248  0.2813  0.6168  0.0285
 7108SOL    HW132957   1.093   3.784   7.322  0.4074  1.5629  0.7376
 7108SOL    HW232958   1.058   3.899   7.235 -0.1295  0.2807  0.5536
 7109SOL     OW32959   3.978   3.348   6.948  0.1768  0.1699  0.7177
 7109SOL    HW132960   4.032   3.353   7.027 -0.0522  3.5289  0.6874
 7109SOL    HW232961   3.982   3.441   6.924 -4.2814 -0.4138 -2.2995
 7110SOL     OW32962   3.541   3.476   5.632  0.4891 -0.1091 -0.6269
 7110SOL    HW132963   3.516   3.461   5.541  0.1528 -0.2295 -0.5156
 7110SOL    HW232964   3.590   3.558   5.623 -3.6085  2.4294  0.0597
 7111SOL     OW32965   1.149   0.232  16.250 -0.0288 -0.1192 -0.0493
 7111SOL    HW132966   1.198   0.157  16.216  0.8699  0.0717  0.8236
 7111SOL    HW232967   1.212   0.299  16.279  1.1337 -0.3053 -2.1611
 7112SOL     OW32968   3.853   4.520  11.539 -0.2646  0.7206 -0.0214
 7112SOL    HW132969   3.815   4.469  11.611  1.0386 -0.6702 -0.3154
 7112SOL    HW232970   3.822   4.607  11.564 -1.6776  0.5852 -1.2778
 7113SOL     OW32971   0.836   2.167   7.127  0.1221 -0.2854 -0.0621
 7113SOL    HW132972   0.837   2.122   7.042 -1.8154 -1.3950  0.5002
 7113SOL    HW232973   0.768   2.232   7.112 -0.2601 -0.7901 -0.5003
 7114SOL     OW32974   3.890   0.132   2.344 -0.3062  0.1055  0.3859
 7114SOL    HW132975   3.940   0.154   2.423 -1.1241  0.7403  0.7198
 7114SOL    HW232976   3.825   0.071   2.378  1.6665 -1.4815  1.3532
 7115SOL     OW32977   2.732   2.739   2.159  0.8361  0.3854 -0.6495
 7115SOL    HW132978   2.815   2.780   2.184  0.6631  0.0380  0.5449
 7115SOL    HW232979   2.757   2.665   2.104  2.0035  0.4513 -0.2048
 7116SOL     OW32980   1.312   4.030   3.547 -0.2903 -0.1663 -0.6292
 7116SOL    HW132981   1.269   4.051   3.465 -1.8480  0.4737  0.3401
 7116SOL    HW232982   1.243   4.032   3.614 -0.2991  2.7208 -0.7058
 7117SOL     OW32983   2.686   4.621   3.070  0.3683  0.6211 -0.0233
 7117SOL    HW132984   2.723   4.679   3.003 -2.4751 -0.2457 -2.3648
 7117SOL    HW232985   2.597   4.621   3.035 -0.2314 -1.1102  1.4859
 7118SOL     OW32986   4.254   0.597   9.257  0.1971  0.8187  0.4888
 7118SOL    HW132987   4.272   0.612   9.350  1.7558 -0.9142  0.4591
 7118SOL    HW232988   4.297   0.512   9.245  1.3637  1.1037  2.6708
 7119SOL     OW32989   2.270   1.122   5.658  0.2711  0.2121  0.0417
 7119SOL    HW132990   2.244   1.029   5.656  1.1346 -0.0467  1.0140
 7119SOL    HW232991   2.195   1.155   5.608 -1.2101 -2.1451  0.7195
 7120SOL     OW32992   1.156   3.269   5.996 -0.4560 -0.2566  0.0903
 7120SOL    HW132993   1.181   3.234   6.082 -0.1829 -1.0978 -0.3317
 7120SOL    HW232994   1.090   3.207   5.966 -1.0455 -0.7303  2.3694
 7121SOL     OW32995   3.878   3.995   5.122  0.2554 -0.4492 -0.2670
 7121SOL    HW132996   3.950   4.056   5.104  0.0397 -0.5078 -1.2989
 7121SOL    HW232997   3.920   3.917   5.159  0.2675 -0.8270 -1.0926
 7122SOL     OW32998   0.436   3.912   1.383  0.4572 -0.1546  0.1856
 7122SOL    HW132999   0.481   3.836   1.346  1.0282  0.8889 -1.1989
 7122SOL    HW233000   0.425   3.889   1.476  0.6217  1.1749  0.5332
 7123SOL     OW33001   1.197   1.573  15.230  0.1546 -0.6718 -0.3296
 7123SOL    HW133002   1.151   1.650  15.264  0.6363  0.3467 -1.9617
 7123SOL    HW233003   1.126   1.546  15.172 -0.5315 -0.5696  0.4589
 7124SOL     OW33004   0.598   4.013   3.868  0.1944  0.0062 -0.0542
 7124SOL    HW133005   0.534   3.967   3.922  1.0526 -1.3748 -0.2257
 7124SOL    HW233006   0.668   3.948   3.864  0.6456  0.3860  1.8806
 7125SOL     OW33007   1.060   4.290  10.463  0.1406  0.6126  0.4136
 7125SOL    HW133008   1.006   4.293  10.541 -1.7839  1.2869 -0.9401
 7125SOL    HW233009   1.129   4.240  10.507 -0.6493 -1.8907 -1.2022
 7126SOL     OW33010   3.165   0.622   6.039 -0.1097  0.2770  0.1370
 7126SOL    HW133011   3.229   0.620   6.110  0.2772 -0.6401 -0.2445
 7126SOL    HW233012   3.214   0.663   5.967  0.0964 -0.0419  0.0953
 7127SOL     OW33013   3.033   1.164   6.282 -0.1175  0.3412  0.3108
 7127SOL    HW133014   2.997   1.168   6.370  1.6017 -1.9033  1.1183
 7127SOL    HW233015   2.967   1.108   6.242 -1.7484  0.5979  2.6741
 7128SOL     OW33016   2.719   1.795   7.281 -0.3000  0.4330  0.1079
 7128SOL    HW133017   2.800   1.846   7.282 -1.4245  2.2543 -0.6726
 7128SOL    HW233018   2.739   1.746   7.361 -1.6272 -1.7956 -0.9142
 7129SOL     OW33019   4.097   0.491   2.484  0.7383 -0.0462 -0.2328
 7129SOL    HW133020   4.126   0.552   2.553 -0.6950  0.8015 -0.3624
 7129SOL    HW233021   4.004   0.472   2.494  0.3199  2.2586  0.3500
 7130SOL     OW33022   3.573   0.970   8.003  0.0092 -0.4185 -0.2553
 7130SOL    HW133023   3.630   0.901   8.037  0.5874 -0.0406 -0.4413
 7130SOL    HW233024   3.522   0.926   7.935 -0.3791  1.5517 -1.2178
 7131SOL     OW33025   4.281   0.690   8.050  0.6597 -0.2399  0.3882
 7131SOL    HW133026   4.323   0.770   8.082 -0.2459  1.6735 -3.1991
 7131SOL    HW233027   4.306   0.680   7.958  3.2206  2.3632  0.8021
 7132SOL     OW33028   2.709   1.796  16.308 -0.1601 -0.0980 -0.0223
 7132SOL    HW133029   2.727   1.795  16.215  0.9760 -0.7560  0.2091
 7132SOL    HW233030   2.620   1.760  16.313 -0.6560  1.0603 -0.3102
 7133SOL     OW33031   4.400   4.686   2.983  0.6700 -0.1932  0.3819
 7133SOL    HW133032   4.391   4.695   3.078 -0.0106  0.7513  0.2258
 7133SOL    HW233033   4.476   4.628   2.976  2.1224  1.4286  2.6715
 7134SOL     OW33034   4.599   4.603  16.774 -0.2429 -0.5428 -0.0166
 7134SOL    HW133035   4.629   4.674  16.717 -0.7948 -1.2608 -1.2072
 7134SOL    HW233036   4.684   4.589  16.815  0.9597 -0.1001 -2.3657
 7135SOL     OW33037   3.145   0.460   3.252 -0.1237 -0.1910 -0.2510
 7135SOL    HW133038   3.207   0.446   3.323 -0.6717 -4.5493 -0.6077
 7135SOL    HW233039   3.107   0.372   3.252 -0.9137  0.1483 -1.2587
 7136SOL     OW33040   2.108   0.784  17.618  0.8673  0.5107 -0.1769
 7136SOL    HW133041   2.199   0.804  17.597  0.5777  1.1840 -0.7891
 7136SOL    HW233042   2.102   0.695  17.581 -0.9155  0.9975 -1.0814
 7137SOL     OW33043   0.768   1.782   5.294  0.3488 -0.2136  0.1187
 7137SOL    HW133044   0.733   1.756   5.209 -0.5196  0.7967  0.1702
 7137SOL    HW233045   0.786   1.699   5.339  1.1166 -1.8518 -3.2543
 7138SOL     OW33046   0.036   0.106   3.425  0.2537 -0.4558  0.4045
 7138SOL    HW133047   4.723   0.082   3.505  0.7786 -0.8355  0.6046
 7138SOL    HW233048   4.708   0.167   3.387  1.2850 -0.0604 -0.6358
 7139SOL     OW33049   3.374   0.427   7.139  0.1995  0.1450 -0.6057
 7139SOL    HW133050   3.303   0.362   7.140  1.5216 -1.2866  0.2870
 7139SOL    HW233051   3.451   0.376   7.114 -0.3788 -1.0541  0.0435
 7140SOL     OW33052   0.933   3.035   2.134  0.2549 -0.0999  0.1528
 7140SOL    HW133053   0.980   3.066   2.056  0.1923 -0.4048 -0.0084
 7140SOL    HW233054   0.842   3.032   2.102 -0.1224 -4.1543  1.5765
 7141SOL     OW33055   1.078   1.348   1.984 -0.1177  0.3963 -0.3040
 7141SOL    HW133056   1.132   1.296   1.926 -0.2665 -0.5068  0.3602
 7141SOL    HW233057   0.995   1.339   1.937  0.9357 -2.0734 -1.6717
 7142SOL     OW33058   2.161   1.672   8.631 -0.0992  0.3107  0.3363
 7142SOL    HW133059   2.126   1.697   8.716 -1.3457  0.0107 -0.0768
 7142SOL    HW233060   2.223   1.609   8.669 -1.1214  0.5079  2.3112
 7143SOL     OW33061   0.304   0.911   2.223 -0.0444  0.0039  0.2985
 7143SOL    HW133062   0.211   0.927   2.235 -0.0397 -0.9342  1.6043
 7143SOL    HW233063   0.286   0.837   2.165 -2.4425  2.4349 -2.0597
 7144SOL     OW33064   1.631   3.366  16.902 -0.3780 -0.6289 -0.1617
 7144SOL    HW133065   1.614   3.284  16.855  0.5271  0.5869 -2.6318
 7144SOL    HW233066   1.550   3.374  16.952 -0.5365 -2.1287 -0.1610
 7145SOL     OW33067   3.885   4.209   4.420  0.6498  0.0654 -0.3350
 7145SOL    HW133068   3.907   4.146   4.489 -0.3786  0.3733  0.2832
 7145SOL    HW233069   3.929   4.285   4.459  1.1452  0.1627 -1.0842
 7146SOL     OW33070   2.309   3.317   1.404  0.3675 -0.6233 -0.1414
 7146SOL    HW133071   2.316   3.373   1.327 -0.3170 -0.5223 -0.1308
 7146SOL    HW233072   2.319   3.381   1.474  1.3724 -0.7790 -0.1493
 7147SOL     OW33073   0.801   0.113   3.681  0.0323 -0.2329 -0.3029
 7147SOL    HW133074   0.863   0.046   3.650  0.8362  0.2181  0.3447
 7147SOL    HW233075   0.819   0.091   3.772 -0.0965 -1.4376 -0.5609
 7148SOL     OW33076   3.713   1.574   5.077 -1.0311 -0.3053 -0.3448
 7148SOL    HW133077   3.649   1.506   5.055  0.0604 -1.3064 -0.3958
 7148SOL    HW233078   3.660   1.630   5.134  2.7556  1.5682  1.3123
 7149SOL     OW33079   2.076   1.961   0.706 -0.0721 -0.1469 -0.5745
 7149SOL    HW133080   2.024   1.881   0.697  0.8780 -0.6422 -1.7293
 7149SOL    HW233081   2.072   1.963   0.801  2.0864 -5.0549 -0.3722
 7150SOL     OW33082   1.422   2.801   0.532 -0.7834  0.0887  0.3408
 7150SOL    HW133083   1.482   2.858   0.483 -0.8231  1.1156  1.4935
 7150SOL    HW233084   1.349   2.863   0.528 -0.2645  0.5439 -2.4563
 7151SOL     OW33085   2.065   1.560   9.154 -0.2248  0.4872  0.2197
 7151SOL    HW133086   2.153   1.537   9.125 -0.1457  1.5193 -0.3409
 7151SOL    HW233087   2.052   1.633   9.094 -1.3390  0.2698  0.1889
 7152SOL     OW33088   4.567   2.638  17.203 -0.1801  0.1637  0.1861
 7152SOL    HW133089   4.545   2.631  17.110  2.8516 -1.9127 -0.3872
 7152SOL    HW233090   4.620   2.719  17.205 -0.8971  0.6085  0.9933
 7153SOL     OW33091   1.991   0.174   1.272  0.1564  0.3107  0.7336
 7153SOL    HW133092   1.983   0.104   1.337  0.0806 -0.3382  0.0220
 7153SOL    HW233093   2.084   0.181   1.251 -0.1611 -0.3164 -0.8825
 7154SOL     OW33094   2.797   1.152   9.462  0.5356 -0.8050  0.0483
 7154SOL    HW133095   2.892   1.151   9.476  0.6802  1.9408 -0.6055
 7154SOL    HW233096   2.774   1.245   9.464  0.0838 -0.9195  0.1233
 7155SOL     OW33097   3.845   3.001  12.855 -0.8187  0.1675 -0.7245
 7155SOL    HW133098   3.905   2.927  12.864 -2.4095 -0.9771  0.4933
 7155SOL    HW233099   3.772   2.961  12.903  2.0019 -0.8386  2.7204
 7156SOL     OW33100   0.256   3.199   3.484 -0.3653 -0.3997 -0.2737
 7156SOL    HW133101   0.233   3.228   3.396  1.7598  3.6248  0.5088
 7156SOL    HW233102   0.237   3.278   3.535 -2.2978  0.2148 -1.9618
 7157SOL     OW33103   1.058   3.276   6.414  0.0471 -0.0048  0.6006
 7157SOL    HW133104   0.979   3.267   6.360  1.0036 -0.4635 -0.7181
 7157SOL    HW233105   1.025   3.306   6.499 -2.2991 -1.4961  0.2490
 7158SOL     OW33106   3.243   2.813  14.543 -0.7295  0.1126 -0.6862
 7158SOL    HW133107   3.319   2.852  14.501  0.1042  0.3005  0.9913
 7158SOL    HW233108   3.179   2.884  14.544 -0.4699  0.3367  0.1603
 7159SOL     OW33109   2.210   2.704   2.329  0.1303 -0.1132  0.0987
 7159SOL    HW133110   2.160   2.651   2.267 -2.4460  0.4368  1.6854
 7159SOL    HW233111   2.295   2.699   2.285  0.2328 -0.2719  0.3144
 7160SOL     OW33112   4.110   1.770   0.489  0.0112 -0.3005 -0.0768
 7160SOL    HW133113   4.097   1.822   0.409 -0.5389 -0.3175  0.0038
 7160SOL    HW233114   4.178   1.818   0.536  0.2035  0.4667 -1.1273
 7161SOL     OW33115   2.436   2.545   1.973  0.3157 -0.2950  0.1339
 7161SOL    HW133116   2.521   2.502   1.987  0.9720  0.9413 -0.0526
 7161SOL    HW233117   2.368   2.478   1.964 -0.5399  0.4094  1.2907
 7162SOL     OW33118   0.936   3.306   6.678 -0.1777  0.5078 -0.2143
 7162SOL    HW133119   1.025   3.326   6.706 -0.0528 -1.5206  0.8747
 7162SOL    HW233120   0.916   3.219   6.712  1.5937  0.5454  0.9066
 7163SOL     OW33121   3.454   3.141   2.875  0.4631 -0.3829  0.6010
 7163SOL    HW133122   3.515   3.143   2.800  0.8297  0.4666  0.9316
 7163SOL    HW233123   3.378   3.107   2.828  0.1092  1.4100 -0.0878
 7164SOL     OW33124   1.591   1.536   6.939  0.4713 -0.1771  0.3091
 7164SOL    HW133125   1.668   1.481   6.926  0.4286 -0.8490  2.9043
 7164SOL    HW233126   1.626   1.588   7.012 -0.5986 -0.4655  1.0424
 7165SOL     OW33127   2.380   2.991   2.276  0.1063 -0.0906  0.1325
 7165SOL    HW133128   2.421   2.904   2.273 -1.5839 -0.9030  0.5182
 7165SOL    HW233129   2.403   3.042   2.353 -0.9001  1.4291 -0.5876
 7166SOL     OW33130   1.136   0.047   0.203  0.3498  0.7851  0.4117
 7166SOL    HW133131   1.212   0.074   0.255 -1.3322  4.3612  1.0091
 7166SOL    HW233132   1.106   0.133   0.175 -0.9435  0.2543  0.1883
 7167SOL     OW33133   4.626   3.960   7.062 -0.3945 -0.3869  0.2035
 7167SOL    HW133134   4.671   4.033   7.104 -2.9649  0.7998  0.9366
 7167SOL    HW233135   4.539   4.001   7.059 -0.4835 -0.4600  1.6101
 7168SOL     OW33136   1.446   1.905   5.702  0.2634  0.0790 -0.4952
 7168SOL    HW133137   1.540   1.888   5.712  0.2533  0.3441  0.0700
 7168SOL    HW233138   1.412   1.820   5.675  0.3560  0.0798 -0.6167
 7169SOL     OW33139   3.858   1.989   4.964 -0.6425  0.2703  0.0300
 7169SOL    HW133140   3.904   2.059   4.917  0.1213 -0.9623 -1.0647
 7169SOL    HW233141   3.920   1.971   5.035  0.6222  0.7392 -0.9486
 7170SOL     OW33142   4.714   0.682  16.721 -0.0824 -0.0929  0.1230
 7170SOL    HW133143   0.033   0.712  16.795 -0.2168  0.3951  0.0231
 7170SOL    HW233144   0.034   0.699  16.645 -0.3875  1.2017  0.1939
 7171SOL     OW33145   4.521   1.350   0.190  0.2695  0.5866  0.0854
 7171SOL    HW133146   4.519   1.307   0.275  1.3700 -0.5296 -0.4566
 7171SOL    HW233147   4.500   1.275   0.135 -5.1424  2.3872 -0.3253
 7172SOL     OW33148   0.689   4.008  11.777 -0.1329 -0.3122 -0.0410
 7172SOL    HW133149   0.780   3.980  11.769 -0.3794 -1.0871 -0.0763
 7172SOL    HW233150   0.691   4.036  11.868 -0.5086 -0.2709 -0.0454
 7173SOL     OW33151   3.549   0.019   6.862  0.1163  0.0599 -0.0957
 7173SOL    HW133152   3.456   0.008   6.846 -0.0223 -1.8298  2.1294
 7173SOL    HW233153   3.562   4.675   6.915  0.2356  0.2772  0.1980
 7174SOL     OW33154   3.246   2.867   4.682  0.2803 -0.3110 -0.2672
 7174SOL    HW133155   3.292   2.838   4.603 -0.4433 -0.4988 -0.6220
 7174SOL    HW233156   3.264   2.960   4.675 -1.2518 -0.0256 -0.2806
 7175SOL     OW33157   2.201   2.793   7.722  0.4134 -0.2751 -0.0529
 7175SOL    HW133158   2.122   2.761   7.767  0.8073 -0.0878  0.7590
 7175SOL    HW233159   2.254   2.722   7.759  3.1438  2.4103  1.1164
 7176SOL     OW33160   1.495   4.400   7.037 -0.6942  0.4994  0.1912
 7176SOL    HW133161   1.492   4.429   7.129  2.2307  0.0948  0.4231
 7176SOL    HW233162   1.578   4.352   7.038 -1.7078 -1.2469 -0.9111
 7177SOL     OW33163   3.937   0.101  11.382  0.1587 -0.5155  0.6198
 7177SOL    HW133164   3.978   0.114  11.467  1.1402 -1.0251  0.2221
 7177SOL    HW233165   3.867   0.039  11.401  0.5828 -1.5910 -1.2571
 7178SOL     OW33166   0.800   0.175  14.564 -0.0177  0.1042  0.0445
 7178SOL    HW133167   0.706   0.186  14.573 -0.1751 -0.3007 -1.0950
 7178SOL    HW233168   0.813   0.161  14.658 -1.1653 -3.2252 -0.2835
 7179SOL     OW33169   1.907   2.416   5.336 -0.4085 -0.4979  0.2831
 7179SOL    HW133170   1.833   2.388   5.281  0.8906 -0.4544 -1.4774
 7179SOL    HW233171   1.896   2.362   5.414  2.1610  1.1866  1.8171
 7180SOL     OW33172   0.913   0.711   6.234  0.6332 -0.9859  0.0333
 7180SOL    HW133173   0.889   0.665   6.314  0.4716 -0.9748 -0.0106
 7180SOL    HW233174   0.877   0.655   6.166  0.3900  0.0010 -0.6538
 7181SOL     OW33175   0.439   3.550   8.362 -0.3329  0.1928 -0.0596
 7181SOL    HW133176   0.471   3.608   8.431  2.1071 -1.3808  0.1405
 7181SOL    HW233177   0.405   3.615   8.301 -1.7522 -0.1363  0.3981
 7182SOL     OW33178   1.953   3.884   6.836  0.4682  0.4715 -0.2956
 7182SOL    HW133179   1.886   3.831   6.793 -1.3591  2.5776 -0.0432
 7182SOL    HW233180   2.030   3.887   6.778 -1.8743  0.1088 -3.4194
 7183SOL     OW33181   3.446   2.109   7.736  0.8734 -0.3840  0.0171
 7183SOL    HW133182   3.525   2.064   7.767 -0.1160 -1.9518  0.2609
 7183SOL    HW233183   3.447   2.110   7.640 -0.9853 -0.9655 -0.0029
 7184SOL     OW33184   3.198   4.250   7.926  0.6670  0.4036  0.2595
 7184SOL    HW133185   3.293   4.247   7.941  0.9558 -0.2603 -1.7043
 7184SOL    HW233186   3.204   4.330   7.875  2.6221  0.7878  1.0605
 7185SOL     OW33187   4.711   3.423   0.749 -0.2299  0.4504  0.5258
 7185SOL    HW133188   0.026   3.441   0.829  1.3640 -2.4706  0.1588
 7185SOL    HW233189   4.625   3.404   0.787  0.4908 -0.8216  1.5128
 7186SOL     OW33190   4.486   0.296  12.203  0.2554  0.2725 -0.0068
 7186SOL    HW133191   4.547   0.356  12.247  1.4793 -0.9878  0.0070
 7186SOL    HW233192   4.403   0.327  12.240 -0.4867 -0.7836 -0.8052
 7187SOL     OW33193   4.317   2.560  13.116 -0.5240 -0.0310  0.2828
 7187SOL    HW133194   4.268   2.639  13.094 -1.5177 -0.2995  1.5277
 7187SOL    HW233195   4.344   2.578  13.206 -1.6831  1.3099  0.3605
 7188SOL     OW33196   3.949   3.777   3.447 -0.1138  0.2801  0.8193
 7188SOL    HW133197   3.958   3.686   3.476 -1.4018  0.0805  0.5914
 7188SOL    HW233198   3.936   3.765   3.353  1.9452  4.0329  0.0563
 7189SOL     OW33199   2.697   0.839   0.492 -0.4143 -0.2995  0.3295
 7189SOL    HW133200   2.770   0.796   0.449 -1.3016 -0.5211 -0.9458
 7189SOL    HW233201   2.633   0.768   0.486  0.2967 -1.0782  1.8992
 7190SOL     OW33202   1.968   3.143   5.854  0.2104  0.7685 -0.0692
 7190SOL    HW133203   1.993   3.235   5.845  0.8728  0.5398 -0.5131
 7190SOL    HW233204   2.055   3.116   5.827  0.9502  2.1865  0.8984
 7191SOL     OW33205   0.624   1.590  11.297 -0.1918 -0.4646  0.0140
 7191SOL    HW133206   0.593   1.501  11.279 -0.2433 -0.4732  0.1492
 7191SOL    HW233207   0.649   1.581  11.388 -0.4183  1.1998  0.2410
 7192SOL     OW33208   1.082   2.821   6.131  0.3194  0.5069 -0.0554
 7192SOL    HW133209   1.129   2.901   6.108 -1.3363  1.2263 -0.9351
 7192SOL    HW233210   1.037   2.806   6.048 -2.5277 -0.8234  1.7114
 7193SOL     OW33211   0.013   2.826   5.378 -0.4448 -0.2183 -0.0849
 7193SOL    HW133212   0.060   2.859   5.301 -1.4495  1.9682  0.2360
 7193SOL    HW233213   4.714   2.742   5.344 -1.0151 -0.5090  1.1926
 7194SOL     OW33214   1.661   0.791   9.051 -0.0381 -0.0883  0.3482
 7194SOL    HW133215   1.684   0.803   9.144  0.4915 -0.8374  0.3178
 7194SOL    HW233216   1.659   0.696   9.040 -2.3318  0.2198 -1.7017
 7195SOL     OW33217   2.635   3.722   2.054  0.2644 -0.7151  0.0678
 7195SOL    HW133218   2.714   3.672   2.077  0.5345 -0.0740  0.5090
 7195SOL    HW233219   2.577   3.646   2.061 -0.3856 -0.3271 -1.0899
 7196SOL     OW33220   0.016   2.636   4.335 -0.1776  0.1871  0.0592
 7196SOL    HW133221   0.014   2.607   4.244  0.2076 -1.5185  0.5904
 7196SOL    HW233222   4.698   2.572   4.382  1.2195 -0.0596  1.2588
 7197SOL     OW33223   0.009   3.129   7.935 -0.0669 -0.5576  0.3458
 7197SOL    HW133224   0.053   3.064   7.881 -0.4350  1.2036 -2.1171
 7197SOL    HW233225   4.660   3.086   7.949  0.6833 -2.6557 -1.5740
 7198SOL     OW33226   1.667   3.154   1.993  0.4621  0.3560  0.1678
 7198SOL    HW133227   1.719   3.233   1.991  1.3586 -0.1975  2.2515
 7198SOL    HW233228   1.646   3.141   1.900  4.9278 -1.5686 -0.5892
 7199SOL     OW33229   4.388   2.491   1.154 -0.3858  0.2780 -0.1501
 7199SOL    HW133230   4.412   2.572   1.199 -2.5829 -0.0367  1.5960
 7199SOL    HW233231   4.436   2.426   1.205  0.0091  0.2776 -0.5245
 7200SOL     OW33232   2.342   0.924   7.011 -0.2374  0.1547  0.6990
 7200SOL    HW133233   2.308   0.841   6.978 -0.4950  1.0901 -1.3771
 7200SOL    HW233234   2.306   0.987   6.949 -2.7647 -0.9170  1.0893
 7201SOL     OW33235   0.722   0.470   3.374  0.4426 -0.3060  0.3582
 7201SOL    HW133236   0.632   0.440   3.384 -0.1742  2.3422  2.7708
 7201SOL    HW233237   0.775   0.440   3.448  0.7205  0.0780  0.3155
 7202SOL     OW33238   0.619   4.607   6.418  0.3995 -0.0880  0.1430
 7202SOL    HW133239   0.646   4.567   6.336 -0.6637 -0.5274  0.0029
 7202SOL    HW233240   0.678   4.561   6.478  0.2978 -1.7062 -1.0112
 7203SOL     OW33241   0.906   3.996   7.166 -0.1320 -0.8568  0.4806
 7203SOL    HW133242   0.824   4.046   7.176  0.2607  0.1630 -1.3005
 7203SOL    HW233243   0.939   4.032   7.084 -2.4570 -3.5377 -1.6457
 7204SOL     OW33244   1.820   2.864   8.975 -0.9082  0.0045  0.4609
 7204SOL    HW133245   1.875   2.925   9.024 -1.2945  0.3789  0.4281
 7204SOL    HW233246   1.750   2.846   9.037 -1.4003 -1.7508 -0.6134
 7205SOL     OW33247   0.542   1.932  14.601  0.0750  0.1983  0.0665
 7205SOL    HW133248   0.622   1.901  14.645 -0.1661  0.6740  0.8431
 7205SOL    HW233249   0.500   1.962  14.682  0.0362 -1.3791  0.6309
 7206SOL     OW33250   0.793   2.397   9.413 -0.3363 -0.1448 -0.1884
 7206SOL    HW133251   0.741   2.453   9.356 -0.5212 -1.5098 -1.3682
 7206SOL    HW233252   0.837   2.339   9.351 -0.2893  0.7225 -0.9622
 7207SOL     OW33253   1.439   0.176   3.383  0.2300 -0.0651 -0.1609
 7207SOL    HW133254   1.477   0.220   3.307  0.0427  2.4629  1.2326
 7207SOL    HW233255   1.464   0.085   3.365  0.2835 -0.5171  2.1964
 7208SOL     OW33256   1.132   2.130  10.862 -0.1376 -0.1226 -0.0754
 7208SOL    HW133257   1.134   2.124  10.957 -1.0877  1.9825  0.0739
 7208SOL    HW233258   1.144   2.040  10.831 -0.8463 -0.1672 -0.2044
 7209SOL     OW33259   1.949   2.282   6.787 -0.2419 -0.4041 -0.5822
 7209SOL    HW133260   2.019   2.223   6.761 -0.7689 -1.7652  1.0612
 7209SOL    HW233261   1.988   2.352   6.840 -1.8749  1.0579 -1.2963
 7210SOL     OW33262   0.648   0.983   7.069  0.0337  0.0095 -0.2320
 7210SOL    HW133263   0.722   0.942   7.114 -0.8765 -0.6999  0.6341
 7210SOL    HW233264   0.576   0.967   7.130  2.0709  0.1654  2.2358
 7211SOL     OW33265   2.046   2.117   1.615 -0.2545  0.1969  0.0842
 7211SOL    HW133266   2.033   2.097   1.522 -2.9148 -1.5589  0.8231
 7211SOL    HW233267   1.999   2.036   1.637  0.4085 -0.3002 -0.3055
 7212SOL     OW33268   2.817   3.283   2.381  0.0052 -0.2439 -0.1505
 7212SOL    HW133269   2.847   3.276   2.290  1.2442 -2.6597  0.4380
 7212SOL    HW233270   2.733   3.329   2.385  0.8893  1.4964 -1.4605
 7213SOL     OW33271   4.217   2.758   6.324 -0.3414 -0.6751  0.6175
 7213SOL    HW133272   4.165   2.706   6.385 -0.3353  0.0447  1.2325
 7213SOL    HW233273   4.222   2.695   6.252  0.4747  0.3150 -0.1872
 7214SOL     OW33274   4.058   4.682   6.476  0.4162 -0.0746 -0.0551
 7214SOL    HW133275   4.063   0.042   6.469 -1.6177  0.1522  1.5059
 7214SOL    HW233276   4.101   4.649   6.397 -0.3008  0.2892 -0.5949
 7215SOL     OW33277   1.173   0.449   0.053  0.3219 -0.0339 -0.5164
 7215SOL    HW133278   1.138   0.504  17.720  1.5856  0.8713 -0.4402
 7215SOL    HW233279   1.238   0.398   0.004  1.5517  0.0756  1.0232
 7216SOL     OW33280   3.090   2.907   6.597 -0.4361 -0.6740  0.0660
 7216SOL    HW133281   3.105   2.994   6.561 -0.4296 -1.5586 -2.0722
 7216SOL    HW233282   3.019   2.873   6.543 -0.3406  0.1096 -0.5476
 7217SOL     OW33283   1.856   1.863   8.673 -0.0500 -0.3218 -0.0829
 7217SOL    HW133284   1.853   1.848   8.767 -1.2051 -0.1763 -0.1007
 7217SOL    HW233285   1.908   1.788   8.642 -0.4150 -1.6295  2.4532
 7218SOL     OW33286   4.417   4.432  11.898  0.2486 -0.1853  0.4380
 7218SOL    HW133287   4.446   4.523  11.909 -2.3864  0.3158  3.3898
 7218SOL    HW233288   4.330   4.441  11.860  1.4118 -0.7875 -2.3206
 7219SOL     OW33289   1.898   1.412   8.155 -0.8253 -0.0334  0.4194
 7219SOL    HW133290   1.812   1.374   8.173 -1.3741  1.1920  0.4032
 7219SOL    HW233291   1.932   1.438   8.241 -1.6296 -0.8054  0.9710
 7220SOL     OW33292   1.571   2.602   9.115  0.2219  0.1483  0.8323
 7220SOL    HW133293   1.535   2.625   9.029 -0.9251  0.4312  1.3956
 7220SOL    HW233294   1.555   2.678   9.170  4.1457  0.1565  1.9455
 7221SOL     OW33295   3.472   3.651   6.420  0.2010 -0.2101 -0.7480
 7221SOL    HW133296   3.556   3.696   6.410 -1.2068  2.9630  1.3801
 7221SOL    HW233297   3.441   3.686   6.504 -1.6457 -3.8055  0.0296
 7222SOL     OW33298   1.370   3.782  17.703 -0.3771 -0.2759 -0.5899
 7222SOL    HW133299   1.431   3.713  17.676 -0.5606 -0.7560  0.2387
 7222SOL    HW233300   1.348   3.761   0.057  0.5020  1.4269  0.0266
 7223SOL     OW33301   0.867   1.314  13.608  0.0883 -0.2919 -0.5450
 7223SOL    HW133302   0.809   1.279  13.675  1.2974  2.0126  1.7059
 7223SOL    HW233303   0.920   1.236  13.590 -1.3846 -1.7560  1.4911
 7224SOL     OW33304   1.987   2.569   4.430 -0.5869  0.4164 -0.0200
 7224SOL    HW133305   2.042   2.507   4.382 -1.0017  0.2787 -0.3206
 7224SOL    HW233306   2.045   2.638   4.460  1.3044  0.0881 -2.8856
 7225SOL     OW33307   2.776   1.243   2.607  0.2319  0.3102  0.4663
 7225SOL    HW133308   2.836   1.176   2.637  1.4218  0.9655 -0.4462
 7225SOL    HW233309   2.735   1.206   2.529  0.6868  1.5517 -0.3611
 7226SOL     OW33310   1.706   4.024   9.822  0.4438 -0.0226  0.3138
 7226SOL    HW133311   1.613   4.018   9.843  0.7849  0.4145  1.9344
 7226SOL    HW233312   1.751   3.951   9.865 -0.1819 -0.7798 -0.3095
 7227SOL     OW33313   3.585   1.821   1.689  0.5658 -0.0085  0.7882
 7227SOL    HW133314   3.591   1.877   1.611 -1.9765 -0.5187  0.2362
 7227SOL    HW233315   3.573   1.891   1.753  1.9762  1.7991 -0.8894
 7228SOL     OW33316   1.526   1.283   3.924 -0.2704  0.2029  0.6504
 7228SOL    HW133317   1.555   1.303   4.013 -0.8994 -0.1942  0.9442
 7228SOL    HW233318   1.552   1.191   3.925 -0.4543  0.1408 -0.8234
 7229SOL     OW33319   1.771   4.609   5.854 -0.6063  0.5942  0.0739
 7229SOL    HW133320   1.778   4.701   5.877 -1.4276  0.2682  1.6405
 7229SOL    HW233321   1.843   4.602   5.791 -0.5119 -0.1395  0.2621
 7230SOL     OW33322   3.602   4.171   8.527 -0.0860 -0.3112  0.3889
 7230SOL    HW133323   3.661   4.207   8.594  0.8527 -1.5355  0.2107
 7230SOL    HW233324   3.600   4.239   8.460 -1.3454  0.3623  1.0896
 7231SOL     OW33325   0.025   1.428   7.611  0.0728  0.3531 -0.7114
 7231SOL    HW133326   4.683   1.422   7.668 -0.1661  0.1318 -1.0601
 7231SOL    HW233327   0.065   1.499   7.662  0.7698 -1.4271  1.2389
 7232SOL     OW33328   2.852   0.664   0.683  0.8298 -0.4954  0.4111
 7232SOL    HW133329   2.797   0.739   0.706  1.3744 -0.0581  0.2747
 7232SOL    HW233330   2.893   0.703   0.606  1.5710 -0.8612  0.6260
 7233SOL     OW33331   0.339   4.712   3.478 -0.3203  0.0716 -0.3601
 7233SOL    HW133332   0.389   0.018   3.549  0.2307  0.2549 -0.8543
 7233SOL    HW233333   0.248   0.002   3.497  0.4835 -0.4172  3.9974
 7234SOL     OW33334   2.267   2.471  14.262  0.1598  0.3567  0.0249
 7234SOL    HW133335   2.232   2.494  14.176  0.2067  2.0784  0.4548
 7234SOL    HW233336   2.360   2.457  14.243 -0.0864  0.0214 -0.9210
 7235SOL     OW33337   3.231   1.164  10.674 -0.0136 -0.3778  0.2021
 7235SOL    HW133338   3.207   1.197  10.588 -0.5448  0.1375  0.5538
 7235SOL    HW233339   3.310   1.112  10.654  0.0789 -1.2002  2.6670
 7236SOL     OW33340   0.819   3.247   7.043 -0.2508  0.0518 -0.3492
 7236SOL    HW133341   0.782   3.274   7.128 -1.0111  0.7694 -0.9123
 7236SOL    HW233342   0.888   3.313   7.035 -1.2306  1.1372  0.1878
 7237SOL     OW33343   3.588   4.684   7.253 -0.0221  0.3089  0.2004
 7237SOL    HW133344   3.659   4.647   7.200  0.2220 -0.7049  1.2265
 7237SOL    HW233345   3.515   4.646   7.205  0.3846  2.2075 -1.8947
 7238SOL     OW33346   2.440   4.133  12.121  0.4772 -0.0262  0.1089
 7238SOL    HW133347   2.437   4.164  12.031 -2.9424 -1.1512 -0.1357
 7238SOL    HW233348   2.511   4.068  12.125  1.9351  1.5089 -0.7049
 7239SOL     OW33349   0.329   3.807  11.006 -0.6364  0.0426 -0.5638
 7239SOL    HW133350   0.314   3.857  10.926 -4.1062  0.7083  0.5044
 7239SOL    HW233351   0.408   3.763  10.976 -0.5155 -0.3308  0.2843
 7240SOL     OW33352   2.135   1.610   5.539  0.3528  0.2007  0.2519
 7240SOL    HW133353   2.198   1.543   5.516  2.0197  1.2665  1.7147
 7240SOL    HW233354   2.053   1.563   5.553  1.1094 -1.5874 -1.4574
 7241SOL     OW33355   3.581   4.565   9.194 -0.0920  0.3589  0.4769
 7241SOL    HW133356   3.544   4.505   9.128  0.8461 -0.6335  0.8556
 7241SOL    HW233357   3.504   4.604   9.235 -0.2960  1.3530 -0.8443
 7242SOL     OW33358   0.258   2.705   9.246 -0.5429  0.4545  0.2958
 7242SOL    HW133359   0.354   2.710   9.248 -0.5882  1.5138 -0.1272
 7242SOL    HW233360   0.230   2.748   9.326 -1.9820  0.8515 -0.4277
 7243SOL     OW33361   1.092   2.926   4.583  0.0711 -0.4060 -0.0019
 7243SOL    HW133362   1.036   2.864   4.630 -1.4770  0.0379 -1.2398
 7243SOL    HW233363   1.176   2.891   4.614  2.1530  3.0287 -1.8177
 7244SOL     OW33364   0.028   1.437   4.273  0.6411 -0.1754  0.0894
 7244SOL    HW133365   4.685   1.486   4.298  0.6625  2.2369 -4.5201
 7244SOL    HW233366   0.053   1.468   4.186  3.0026  1.7000  1.4193
 7245SOL     OW33367   2.238   3.257   2.317 -0.5052  0.4075  0.0132
 7245SOL    HW133368   2.162   3.217   2.358 -1.3933  0.5894 -1.4824
 7245SOL    HW233369   2.261   3.321   2.384  1.1560  1.2769 -1.3768
 7246SOL     OW33370   2.094   2.763  12.626  0.2887  0.0865 -0.0169
 7246SOL    HW133371   2.015   2.711  12.642  1.1010 -0.8760  0.8634
 7246SOL    HW233372   2.146   2.733  12.700 -0.1316  0.9028  0.6082
 7247SOL     OW33373   0.454   1.394   7.572  0.5375  0.1158 -0.0206
 7247SOL    HW133374   0.483   1.448   7.645 -0.9565  1.4045 -0.3982
 7247SOL    HW233375   0.471   1.307   7.609  0.7660  0.1586 -0.0284
 7248SOL     OW33376   3.109   1.882   5.985  0.2629 -0.3181 -0.1858
 7248SOL    HW133377   3.092   1.793   6.018 -1.9775  0.4230  0.6697
 7248SOL    HW233378   3.199   1.891   6.016 -0.4152  1.2755  1.3553
 7249SOL     OW33379   3.010   2.121   8.769  0.0724  0.5233 -0.0908
 7249SOL    HW133380   3.073   2.128   8.841 -0.1759  2.7881 -0.0810
 7249SOL    HW233381   2.989   2.028   8.769  0.3951  0.4534 -0.1779
 7250SOL     OW33382   2.116   3.881  17.378  0.4283  0.1809 -0.0560
 7250SOL    HW133383   2.102   3.855  17.287 -0.4749  3.3473 -0.8370
 7250SOL    HW233384   2.028   3.873  17.414  0.1814 -0.4631 -0.7947
 7251SOL     OW33385   2.422   3.213   6.373  0.2184  0.2278  0.1784
 7251SOL    HW133386   2.506   3.256   6.384  0.1555  0.1184  1.0331
 7251SOL    HW233387   2.369   3.235   6.450  0.8735 -1.7539  1.1725
 7252SOL     OW33388   4.156   0.037   9.747 -0.1297  0.6052 -0.6486
 7252SOL    HW133389   4.158   4.685   9.788  0.6116  0.4699 -0.9766
 7252SOL    HW233390   4.124   0.013   9.661  1.6213  1.1861 -1.4578
 7253SOL     OW33391   2.870   2.068   5.571 -0.0254  0.4370  0.4067
 7253SOL    HW133392   2.838   2.059   5.660 -3.0546  0.7846 -0.6239
 7253SOL    HW233393   2.934   1.997   5.576  0.1654  0.5125 -0.8416
 7254SOL     OW33394   4.375   4.673   6.820  0.2040  0.1463 -0.1014
 7254SOL    HW133395   4.404   0.029   6.833  1.6008 -0.5185  1.4825
 7254SOL    HW233396   4.414   4.653   6.735 -1.3150 -1.2615 -0.4815
 7255SOL     OW33397   4.299   4.664  12.449 -0.8023  0.5490 -0.0883
 7255SOL    HW133398   4.354   4.611  12.391  0.5450 -0.1515  1.8348
 7255SOL    HW233399   4.230   4.599  12.465 -0.5154  0.2052 -0.2416
 7256SOL     OW33400   3.495   1.698  12.700  0.0370 -0.3990  0.1779
 7256SOL    HW133401   3.409   1.692  12.741  0.0298 -0.2111  0.1913
 7256SOL    HW233402   3.506   1.608  12.669 -0.8296  0.0013 -1.2925
 7257SOL     OW33403   3.528   4.521   3.887  0.2843  0.2072 -0.1590
 7257SOL    HW133404   3.584   4.513   3.964  2.7454  1.1683 -1.8416
 7257SOL    HW233405   3.499   4.611   3.901 -1.7256 -0.3031 -1.0140
 7258SOL     OW33406   0.417   3.928   8.362  0.0323  0.0521  0.0828
 7258SOL    HW133407   0.388   3.868   8.293  1.8444  1.5256 -1.9759
 7258SOL    HW233408   0.375   4.005   8.323  0.6322 -0.0880 -0.8606
 7259SOL     OW33409   0.833   3.254   8.270  0.3503  0.0622 -0.2999
 7259SOL    HW133410   0.862   3.344   8.284  1.3588 -0.4878  1.0279
 7259SOL    HW233411   0.744   3.264   8.304  0.7468  1.1657  0.3839
 7260SOL     OW33412   2.564   3.643  17.726  0.4763  0.5802  0.8194
 7260SOL    HW133413   2.616   3.702  17.671 -0.0024 -1.0074 -1.3234
 7260SOL    HW233414   2.550   3.685   0.074  3.2798 -0.7920  1.9710
 7261SOL     OW33415   4.262   1.378   1.096  0.1839  0.0256 -0.0699
 7261SOL    HW133416   4.167   1.385   1.102  0.5100  1.3135  3.4588
 7261SOL    HW233417   4.273   1.325   1.017  2.4466  0.9902 -0.4002
 7262SOL     OW33418   0.807   4.399  12.701 -0.2850 -0.3703  0.0129
 7262SOL    HW133419   0.762   4.425  12.781 -1.1529 -1.1276 -0.2341
 7262SOL    HW233420   0.896   4.399  12.736  0.4155  0.7617 -1.7615
 7263SOL     OW33421   2.127   3.877   7.844 -0.7318  0.0046  0.0546
 7263SOL    HW133422   2.210   3.853   7.804 -1.6022 -0.2759 -1.5728
 7263SOL    HW233423   2.160   3.919   7.924  0.1209 -0.3948 -0.0873
 7264SOL     OW33424   1.702   1.767   2.813  0.2220 -0.2857 -0.4644
 7264SOL    HW133425   1.628   1.815   2.850  1.6249  0.3663  1.4611
 7264SOL    HW233426   1.730   1.708   2.883 -0.2188  1.1387  0.9171
 7265SOL     OW33427   1.665   1.265   2.325 -0.2317 -0.0847 -0.3790
 7265SOL    HW133428   1.733   1.328   2.350 -1.8150  1.2760  0.4849
 7265SOL    HW233429   1.614   1.248   2.404  0.0997  1.8458  0.2411
 7266SOL     OW33430   3.517   2.167   5.147 -0.0929  0.4505  0.1944
 7266SOL    HW133431   3.587   2.216   5.104 -0.1847  0.1237 -0.3239
 7266SOL    HW233432   3.485   2.113   5.075 -1.8938  0.1238  1.2338
 7267SOL     OW33433   1.612   4.531   4.319 -0.9435 -1.0304  0.3689
 7267SOL    HW133434   1.590   4.447   4.279 -0.4818 -0.9826  0.0157
 7267SOL    HW233435   1.543   4.533   4.386  0.0202  1.7135  1.3253
 7268SOL     OW33436   2.263   1.895   9.124  0.4540 -0.2141  0.2372
 7268SOL    HW133437   2.337   1.853   9.168 -0.6552 -1.4561  0.9306
 7268SOL    HW233438   2.317   1.949   9.067 -0.0135  0.4588  0.4398
 7269SOL     OW33439   4.021   3.172   3.393 -0.1883  0.2719  0.1640
 7269SOL    HW133440   4.061   3.085   3.391  0.0136  0.3922 -1.5295
 7269SOL    HW233441   4.103   3.221   3.389  0.2170 -0.3550  0.7037
 7270SOL     OW33442   4.129   3.041   6.782 -0.6671  0.1698  0.2800
 7270SOL    HW133443   4.066   3.108   6.758 -1.3817 -0.3924  0.5757
 7270SOL    HW233444   4.183   3.095   6.841  0.9122 -0.8827 -0.1916
 7271SOL     OW33445   2.736   2.814   3.965 -0.2386 -0.3195  0.5099
 7271SOL    HW133446   2.664   2.836   3.906  0.7929 -0.1732 -0.6932
 7271SOL    HW233447   2.764   2.732   3.923 -0.7944 -0.9695  1.3903
 7272SOL     OW33448   3.056   0.509  12.848  0.1361  0.1104  0.1043
 7272SOL    HW133449   3.005   0.512  12.929  0.7050  0.9052  0.4363
 7272SOL    HW233450   3.072   0.603  12.836 -1.7121  0.3560 -0.4825
 7273SOL     OW33451   0.235   2.595  10.578 -0.0854 -0.1062  0.4566
 7273SOL    HW133452   0.303   2.660  10.561  1.0212 -1.7505 -1.2941
 7273SOL    HW233453   0.220   2.615  10.671  0.2021  0.9062  0.2829
 7274SOL     OW33454   1.797   2.975   7.835  0.0410 -0.2996  0.0909
 7274SOL    HW133455   1.753   3.058   7.855  1.2103 -0.0771  1.7418
 7274SOL    HW233456   1.880   3.002   7.797  0.4793 -2.2885 -0.3865
 7275SOL     OW33457   3.576   0.054   2.006 -0.4534 -0.3169 -0.0595
 7275SOL    HW133458   3.576   0.096   1.920  2.4488 -1.1740 -0.4795
 7275SOL    HW233459   3.608   0.123   2.064 -0.8935 -2.1935  2.4064
 7276SOL     OW33460   1.068   2.560  12.238  0.2877 -0.6483  0.0763
 7276SOL    HW133461   1.046   2.468  12.251 -0.6054 -0.2762  1.2641
 7276SOL    HW233462   0.982   2.603  12.235  0.5188 -0.0777  1.3176
 7277SOL     OW33463   1.822   2.247  16.474 -0.5832 -0.4163 -0.0049
 7277SOL    HW133464   1.748   2.246  16.414 -0.4901 -0.5597 -0.1145
 7277SOL    HW233465   1.878   2.313  16.434  1.1207 -2.2281 -0.5969
 7278SOL     OW33466   4.177   3.287   9.720 -0.2381  0.0824 -0.1189
 7278SOL    HW133467   4.176   3.275   9.625  0.7653 -0.3167 -0.0852
 7278SOL    HW233468   4.116   3.360   9.730 -0.2337  0.7303 -4.8533
 7279SOL     OW33469   3.857   2.045   4.397  0.1780  0.3087 -1.1403
 7279SOL    HW133470   3.773   2.011   4.365 -0.8414  1.4247  0.3875
 7279SOL    HW233471   3.896   1.962   4.425 -1.2594  0.0522  0.1074
 7280SOL     OW33472   4.098   2.371   3.146  0.3552  0.1364 -0.1791
 7280SOL    HW133473   4.080   2.446   3.088 -0.0983  1.2218  1.3559
 7280SOL    HW233474   4.191   2.357   3.131  0.4044  0.8411 -0.5520
 7281SOL     OW33475   1.971   1.886  15.036 -0.4510  0.1983  0.1339
 7281SOL    HW133476   2.057   1.910  15.072 -0.3550  0.7504 -0.4777
 7281SOL    HW233477   1.981   1.798  15.000  0.9554  1.1891 -1.9303
 7282SOL     OW33478   3.233   4.346   8.335  0.2761 -0.0929 -0.4187
 7282SOL    HW133479   3.203   4.265   8.294  3.1780 -0.5748 -1.5840
 7282SOL    HW233480   3.324   4.351   8.306  0.4927 -1.9724 -0.0949
 7283SOL     OW33481   1.261   2.164   8.179 -0.5085  0.2711 -0.0474
 7283SOL    HW133482   1.229   2.122   8.099  0.3796  0.5078 -0.5301
 7283SOL    HW233483   1.233   2.252   8.156  0.5932  0.9500  1.2343
 7284SOL     OW33484   0.219   4.429  17.476  0.4429 -0.2120  0.7078
 7284SOL    HW133485   0.188   4.459  17.391 -1.8883  0.5148  1.8054
 7284SOL    HW233486   0.154   4.369  17.514 -0.5632 -0.8988 -2.1135
 7285SOL     OW33487   0.397   2.259   2.376 -0.6757 -0.8979  0.1865
 7285SOL    HW133488   0.467   2.281   2.437 -2.8173  0.1151  2.3014
 7285SOL    HW233489   0.440   2.204   2.311  1.2439  0.5990  0.2094
 7286SOL     OW33490   4.363   1.138   5.406  0.1803 -0.1745  0.3362
 7286SOL    HW133491   4.324   1.223   5.425  0.0990  0.4982 -2.9068
 7286SOL    HW233492   4.454   1.155   5.428  0.1143 -1.3584  1.5377
 7287SOL     OW33493   3.453   0.047   4.612 -0.3066  0.0890 -0.2789
 7287SOL    HW133494   3.472   0.012   4.525  0.9016 -2.7126  1.1074
 7287SOL    HW233495   3.419   0.134   4.591  1.2062  0.6758 -0.3135
 7288SOL     OW33496   1.373   3.751   7.207  0.1354 -0.0626 -0.2891
 7288SOL    HW133497   1.284   3.783   7.219  0.5459  1.2141 -0.6037
 7288SOL    HW233498   1.390   3.725   7.298  0.7957 -3.5549 -1.3974
 7289SOL     OW33499   4.241   3.950  10.550  0.4191  0.2253  0.1865
 7289SOL    HW133500   4.167   3.899  10.516 -0.0358  0.3370  1.0123
 7289SOL    HW233501   4.201   4.037  10.549  2.7473  1.2958  0.8955
 7290SOL     OW33502   3.500   3.967   0.478 -0.1858 -0.1873 -0.1843
 7290SOL    HW133503   3.516   4.025   0.553  1.7686 -2.9121  1.5234
 7290SOL    HW233504   3.405   3.961   0.489 -0.0049 -2.2992  0.2340
 7291SOL     OW33505   1.292   0.821  14.981  0.3330 -0.1271  0.2194
 7291SOL    HW133506   1.237   0.743  14.981  1.3745 -0.8634 -0.4275
 7291SOL    HW233507   1.344   0.806  15.059  0.1972 -1.4468  0.0699
 7292SOL     OW33508   3.370   3.405   7.042  0.0708 -0.0183  0.6756
 7292SOL    HW133509   3.298   3.351   7.076 -1.7093  1.9864  0.0846
 7292SOL    HW233510   3.418   3.344   6.985 -0.5564  0.0203  0.1091
 7293SOL     OW33511   3.387   2.564   0.348 -0.2701 -0.4192  0.7754
 7293SOL    HW133512   3.379   2.585   0.441 -0.8037  0.3899  0.5450
 7293SOL    HW233513   3.304   2.523   0.326  0.7979 -1.5631 -1.1946
 7294SOL     OW33514   3.946   1.172   6.738 -0.1663 -0.0603 -0.5361
 7294SOL    HW133515   3.962   1.107   6.806  1.6494  1.5166  0.5734
 7294SOL    HW233516   3.856   1.189   6.765  0.9866  1.5766  2.3830
 7295SOL     OW33517   2.951   2.229   6.667  0.0997 -0.0410 -0.2442
 7295SOL    HW133518   2.974   2.320   6.690 -1.2039  0.4862 -1.0628
 7295SOL    HW233519   2.954   2.253   6.574 -0.0859 -0.7136 -0.4245
 7296SOL     OW33520   0.364   1.611   4.272 -0.1956 -0.2112 -0.4569
 7296SOL    HW133521   0.424   1.537   4.270  1.0845  0.8063  1.3637
 7296SOL    HW233522   0.304   1.584   4.342 -1.2103  1.8988 -0.5048
 7297SOL     OW33523   2.284   0.307   4.428 -0.0305  0.6304  0.2847
 7297SOL    HW133524   2.271   0.227   4.378  1.1365  0.6521 -0.0482
 7297SOL    HW233525   2.247   0.372   4.368 -2.7110 -1.5641 -0.4357
 7298SOL     OW33526   4.697   3.524   5.030 -0.3064  0.2486  0.0121
 7298SOL    HW133527   4.711   3.467   5.105 -1.3427 -1.5722 -1.1905
 7298SOL    HW233528   4.679   3.609   5.070  3.4721  2.1551 -2.2855
 7299SOL     OW33529   3.707   3.316   8.856  0.4036  0.0144 -0.1107
 7299SOL    HW133530   3.764   3.321   8.933  1.1823 -0.9233 -0.6308
 7299SOL    HW233531   3.706   3.406   8.822  1.0427  0.1123  0.1106
 7300SOL     OW33532   3.899   0.560   6.919  0.0975  0.9332  0.2774
 7300SOL    HW133533   3.952   0.581   6.842 -1.0652  2.6232 -0.0699
 7300SOL    HW233534   3.883   0.467   6.903 -2.2076  1.2472  0.7787
 7301SOL     OW33535   3.235   1.474   8.051  0.3192  0.6894  0.3218
 7301SOL    HW133536   3.304   1.483   7.985  0.8568 -1.2988  0.6270
 7301SOL    HW233537   3.276   1.541   8.105  0.2741 -0.5673  1.8795
 7302SOL     OW33538   4.501   2.782   6.623  0.4925  0.6778  0.5092
 7302SOL    HW133539   4.455   2.795   6.706 -2.7055 -1.8613 -0.8810
 7302SOL    HW233540   4.466   2.703   6.582  1.9992  0.7503 -0.9655
 7303SOL     OW33541   3.889   0.551   3.080  0.4761 -0.0948 -0.1093
 7303SOL    HW133542   3.903   0.567   3.173 -1.9455 -1.7323  0.5314
 7303SOL    HW233543   3.939   0.470   3.073 -1.0490 -0.8357 -2.7654
 7304SOL     OW33544   4.548   2.172   6.787 -0.0343  0.1957 -0.0677
 7304SOL    HW133545   4.594   2.143   6.865 -1.2697 -0.3641  0.4590
 7304SOL    HW233546   4.619   2.169   6.723  0.1369  0.1202  0.1288
 7305SOL     OW33547   1.976   1.924   5.797  0.3927 -0.1098  0.1901
 7305SOL    HW133548   2.041   1.899   5.731  1.1364  1.4762  0.3274
 7305SOL    HW233549   1.990   2.018   5.806  0.2303 -0.0468 -0.2035
 7306SOL     OW33550   3.692   3.181  10.905  0.7033 -0.3303  0.3833
 7306SOL    HW133551   3.624   3.115  10.919 -1.1930  1.8791  1.3180
 7306SOL    HW233552   3.661   3.233  10.831 -2.2596 -1.9509  0.4789
 7307SOL     OW33553   1.605   3.112  17.530  0.5078 -0.1563 -0.3101
 7307SOL    HW133554   1.530   3.096  17.587  1.0996 -0.3550  0.4193
 7307SOL    HW233555   1.560   3.159  17.461  2.0555  1.7018 -0.0563
 7308SOL     OW33556   0.669   2.128   4.244 -0.6690 -0.1248 -0.2526
 7308SOL    HW133557   0.629   2.041   4.253 -3.3561  0.9559 -1.6756
 7308SOL    HW233558   0.653   2.149   4.152 -1.2124 -1.2128 -0.4145
 7309SOL     OW33559   2.688   3.480   4.705 -0.2162  0.6524  0.2932
 7309SOL    HW133560   2.740   3.539   4.759  0.2891  1.0357 -0.6162
 7309SOL    HW233561   2.672   3.525   4.621 -0.1725 -2.5575 -1.4449
 7310SOL     OW33562   4.533   4.605   8.145 -0.2203  0.5401 -0.4572
 7310SOL    HW133563   4.490   4.625   8.228  2.6328 -1.4971  1.5181
 7310SOL    HW233564   4.624   4.619   8.171 -0.6321 -2.2831  2.5590
 7311SOL     OW33565   2.742   4.288   7.674  0.5595 -0.2250  0.7011
 7311SOL    HW133566   2.706   4.205   7.644 -0.8347 -0.0559  1.9101
 7311SOL    HW233567   2.655   4.327   7.673  0.3864 -0.6797 -1.0337
 7312SOL     OW33568   2.398   2.035   6.977  0.3111  0.2013  0.0704
 7312SOL    HW133569   2.362   1.949   6.956  0.1748  0.0504  0.9447
 7312SOL    HW233570   2.447   2.008   7.055  0.0556 -0.3997  0.0220
 7313SOL     OW33571   1.634   2.036  12.257 -0.3103 -0.0547 -0.0576
 7313SOL    HW133572   1.623   1.973  12.328 -0.3056  0.7623  0.6700
 7313SOL    HW233573   1.674   1.999  12.179  1.8730 -1.0740  1.5669
 7314SOL     OW33574   0.049   3.947   1.170  0.1350 -0.0323  0.6902
 7314SOL    HW133575   0.004   4.012   1.116  0.6478 -0.6228 -0.4530
 7314SOL    HW233576   0.130   3.993   1.191  0.4017 -0.0047 -0.3841
 7315SOL     OW33577   3.475   2.671   5.811 -0.2736  0.0856 -0.2228
 7315SOL    HW133578   3.558   2.660   5.765 -0.0917 -0.2753  0.1949
 7315SOL    HW233579   3.414   2.603   5.781 -2.0325  0.9978  1.2908
 7316SOL     OW33580   1.511   2.310  10.566  0.2181 -0.0649 -0.0568
 7316SOL    HW133581   1.499   2.263  10.483 -1.0692  0.8954 -0.4150
 7316SOL    HW233582   1.423   2.307  10.603  0.9347 -1.0675  1.5202
 7317SOL     OW33583   4.032   0.402   8.330  0.0165  0.2089  0.4382
 7317SOL    HW133584   4.073   0.385   8.415  1.4097 -0.4866 -0.3685
 7317SOL    HW233585   4.045   0.320   8.283  1.2661 -0.6037  2.2342
 7318SOL     OW33586   3.972   0.391   7.830  0.7566 -0.0947  0.0861
 7318SOL    HW133587   3.927   0.375   7.913  1.0743 -0.6274  0.1591
 7318SOL    HW233588   3.904   0.414   7.766 -0.2810 -0.5266  1.0282
 7319SOL     OW33589   1.551   3.416  13.335 -0.5494  0.4323  0.5322
 7319SOL    HW133590   1.595   3.439  13.253 -2.1952  2.7057  0.2881
 7319SOL    HW233591   1.461   3.434  13.310 -0.7608  1.5900  2.1759
 7320SOL     OW33592   0.095   2.429   8.836  0.3898  0.0210 -0.6774
 7320SOL    HW133593   0.116   2.494   8.770 -1.2729 -0.4345 -1.6410
 7320SOL    HW233594   0.151   2.461   8.907  0.7721  0.1576 -1.0428
 7321SOL     OW33595   0.460   3.027   3.207 -0.0335 -0.5554 -0.6851
 7321SOL    HW133596   0.365   3.035   3.206  0.1354  2.1332  3.1990
 7321SOL    HW233597   0.486   3.113   3.241 -0.1354 -1.2510  1.1489
 7322SOL     OW33598   1.425   4.213   7.535  0.0328 -0.2889 -0.1048
 7322SOL    HW133599   1.389   4.301   7.524  0.0839 -0.0133  1.9305
 7322SOL    HW233600   1.387   4.167   7.459  0.6396 -0.6963 -0.1574
 7323SOL     OW33601   1.819   4.257   7.918 -0.3081  0.1487 -0.1743
 7323SOL    HW133602   1.893   4.208   7.884 -1.7594 -2.2332  0.0828
 7323SOL    HW233603   1.798   4.202   7.994 -2.7238 -0.1135 -1.0143
 7324SOL     OW33604   4.411   1.006  16.930 -0.2610 -0.6494  0.3223
 7324SOL    HW133605   4.420   1.072  16.999 -0.5722  2.6230 -2.7617
 7324SOL    HW233606   4.363   0.938  16.976  0.4905 -1.1977  0.2939
 7325SOL     OW33607   2.150   4.360   7.007  0.1209  0.3418  0.1465
 7325SOL    HW133608   2.172   4.271   6.978 -0.2690  0.4284 -0.4202
 7325SOL    HW233609   2.204   4.358   7.086  1.1105 -1.9049 -0.5881
 7326SOL     OW33610   2.120   2.586   2.085 -0.4818 -0.2748  0.3371
 7326SOL    HW133611   2.150   2.546   2.004 -0.2545  1.0132 -0.2190
 7326SOL    HW233612   2.041   2.623   2.046 -0.0570  0.3371  0.0662
 7327SOL     OW33613   2.884   3.146   8.648  0.5515 -0.3815 -0.6257
 7327SOL    HW133614   2.817   3.095   8.603  0.7642 -1.8397  0.7127
 7327SOL    HW233615   2.956   3.083   8.655 -0.0054 -1.1638 -2.0073
 7328SOL     OW33616   0.221   1.443   7.172  0.1162 -0.1737 -0.1194
 7328SOL    HW133617   0.268   1.525   7.185  2.1027 -1.7886  3.0829
 7328SOL    HW233618   0.220   1.441   7.077  1.0512 -0.1876 -0.1320
 7329SOL     OW33619   4.082   0.716  13.485  0.4115 -0.1793 -0.1305
 7329SOL    HW133620   4.006   0.665  13.457  1.2467 -1.6369  0.2064
 7329SOL    HW233621   4.113   0.764  13.408 -1.3762  0.8710 -0.1823
 7330SOL     OW33622   3.041   4.569   8.654  0.3232  0.6315 -0.1758
 7330SOL    HW133623   3.116   4.626   8.636  0.1941  0.5845 -0.8521
 7330SOL    HW233624   3.035   4.581   8.749 -0.3504  0.2573 -0.1713
 7331SOL     OW33625   3.465   3.745  13.481 -0.5261  0.1492 -0.5554
 7331SOL    HW133626   3.395   3.810  13.480 -1.3625 -0.7677 -1.5638
 7331SOL    HW233627   3.536   3.778  13.425  0.9452 -1.1920  0.5189
 7332SOL     OW33628   1.747   3.942   3.813  0.6746  0.7373 -0.3684
 7332SOL    HW133629   1.671   3.883   3.813 -0.1379  1.7684 -2.4424
 7332SOL    HW233630   1.768   3.956   3.721  0.7415 -0.2661 -0.5082
 7333SOL     OW33631   1.487   3.872   4.875 -0.0782 -0.0863 -0.2389
 7333SOL    HW133632   1.491   3.780   4.901  0.4563  0.0782  0.2758
 7333SOL    HW233633   1.393   3.888   4.869 -0.0933 -0.2976 -0.5670
 7334SOL     OW33634   3.461   0.913   5.278  0.0356 -0.0367  0.2430
 7334SOL    HW133635   3.411   0.994   5.284  0.5762  0.2145  1.4223
 7334SOL    HW233636   3.480   0.892   5.369  1.2679  0.8247  0.1799
 7335SOL     OW33637   0.914   2.047   2.234 -0.2495 -0.3145  0.0626
 7335SOL    HW133638   0.870   2.124   2.200  2.7700  0.7140 -1.4765
 7335SOL    HW233639   0.841   1.985   2.237  0.6611 -1.3354  1.4081
 7336SOL     OW33640   4.618   4.610   7.432 -0.4670  0.1559 -0.0969
 7336SOL    HW133641   4.630   4.531   7.486 -0.9659  0.3252  0.2556
 7336SOL    HW233642   4.619   4.562   7.349  0.9196  1.3507 -0.7627
 7337SOL     OW33643   2.678   3.406   8.009  0.0463 -0.1853  0.3458
 7337SOL    HW133644   2.659   3.316   8.034  0.8440 -0.4037  0.1795
 7337SOL    HW233645   2.768   3.402   7.976 -0.1376 -0.4932 -0.0991
 7338SOL     OW33646   1.310   3.284  14.123  0.0266  0.6120  0.2218
 7338SOL    HW133647   1.322   3.313  14.214  2.0379 -0.6006  0.3295
 7338SOL    HW233648   1.220   3.307  14.100  0.2567  0.4559 -0.8176
 7339SOL     OW33649   3.355   2.405   8.771  0.0542 -0.3836  0.1950
 7339SOL    HW133650   3.433   2.450   8.802  0.4029 -1.2906  0.6429
 7339SOL    HW233651   3.392   2.339   8.713 -0.0002 -1.4447  1.3716
 7340SOL     OW33652   3.536   3.720   0.574  0.3872 -0.2307 -0.0746
 7340SOL    HW133653   3.631   3.716   0.572  0.3773 -0.9989  1.4374
 7340SOL    HW233654   3.516   3.805   0.535 -2.1798 -0.7161  0.1826
 7341SOL     OW33655   2.836   1.521  14.271  0.0604 -0.3731 -0.3872
 7341SOL    HW133656   2.849   1.465  14.348  1.4277 -1.5417 -1.4756
 7341SOL    HW233657   2.770   1.476  14.219  1.1199 -2.5781  0.1926
 7342SOL     OW33658   1.459   0.490  15.083  0.4469 -0.3334  0.2247
 7342SOL    HW133659   1.529   0.445  15.036 -0.0136 -1.3101  0.4776
 7342SOL    HW233660   1.435   0.416  15.138 -1.2674 -0.1344 -0.2581
 7343SOL     OW33661   3.559   4.468   8.748  0.3501  0.0770 -0.5106
 7343SOL    HW133662   3.605   4.385   8.737 -2.3454 -1.4762 -0.1377
 7343SOL    HW233663   3.476   4.419   8.743  0.3398  0.1538 -1.0590
 7344SOL     OW33664   2.177   3.972   0.458  0.1050  0.0026 -0.1031
 7344SOL    HW133665   2.173   3.972   0.362 -0.2101  0.6989 -0.0884
 7344SOL    HW233666   2.189   4.066   0.470  1.3376 -0.1379 -0.1952
 7345SOL     OW33667   2.951   0.090   4.219 -0.8799 -0.0860  0.4355
 7345SOL    HW133668   2.997   0.168   4.190 -0.9487 -0.1470  0.1651
 7345SOL    HW233669   2.946   0.034   4.141 -1.0916  0.6435 -0.0785
 7346SOL     OW33670   1.582   0.729  11.304 -0.1912  0.1057  0.3056
 7346SOL    HW133671   1.502   0.691  11.341  0.0967  0.1998  1.0259
 7346SOL    HW233672   1.617   0.758  11.388  0.3284  1.1180 -0.2507
 7347SOL     OW33673   1.046   3.006   3.534  0.1425 -0.1572 -0.1977
 7347SOL    HW133674   0.991   3.083   3.517  2.1057  0.8881 -1.8402
 7347SOL    HW233675   0.979   2.949   3.572 -0.3403  0.3131 -0.3393
 7348SOL     OW33676   1.927   1.997   2.369  0.2043 -0.0187  0.5660
 7348SOL    HW133677   1.907   1.954   2.451 -0.3561 -0.3689  0.2430
 7348SOL    HW233678   1.875   1.947   2.306  0.3784  0.4154  0.0720
 7349SOL     OW33679   2.333   1.765   6.015  0.1545 -0.1452  0.1510
 7349SOL    HW133680   2.283   1.816   6.079  0.4204 -0.7649  0.8401
 7349SOL    HW233681   2.270   1.698   5.988  2.4966 -1.9559 -0.8238
 7350SOL     OW33682   3.335   1.158   5.327 -0.0601  0.6830 -0.0936
 7350SOL    HW133683   3.396   1.189   5.393 -0.1963 -0.1997  0.4399
 7350SOL    HW233684   3.297   1.243   5.304  2.0109  1.2652 -1.3016
 7351SOL     OW33685   2.127   3.805   5.411  0.5482  0.4726  0.4453
 7351SOL    HW133686   2.178   3.862   5.355 -0.9199 -0.8555 -2.2571
 7351SOL    HW233687   2.155   3.833   5.498  2.1826 -1.2550  0.4680
 7352SOL     OW33688   4.720   3.145   4.277 -0.4843 -0.1035  0.4499
 7352SOL    HW133689   0.034   3.145   4.359 -2.4344  1.0635  1.5858
 7352SOL    HW233690   4.681   3.058   4.276  1.5499 -0.9796 -2.9333
 7353SOL     OW33691   0.879   3.245   4.524  0.1296  0.1877 -0.1551
 7353SOL    HW133692   0.863   3.332   4.562  1.5413  1.0182 -1.4806
 7353SOL    HW233693   0.902   3.201   4.607  2.3051  0.2825 -0.7167
 7354SOL     OW33694   4.107   0.226   6.133 -0.7506  0.3069 -0.2555
 7354SOL    HW133695   4.130   0.137   6.160  2.5216  0.8380 -1.2690
 7354SOL    HW233696   4.062   0.209   6.051 -1.0841  1.2130 -0.2657
 7355SOL     OW33697   1.424   3.158   4.253  0.3785 -0.8170 -0.1341
 7355SOL    HW133698   1.439   3.069   4.283  0.4121 -0.9252 -0.4764
 7355SOL    HW233699   1.331   3.162   4.234  0.1578  2.1785  1.4660
 7356SOL     OW33700   2.427   1.236   7.457  0.0283 -0.3748 -0.8340
 7356SOL    HW133701   2.355   1.222   7.395 -1.8238 -1.4856  1.5991
 7356SOL    HW233702   2.373   1.256   7.534  1.0245  1.9234 -0.7385
 7357SOL     OW33703   1.992   1.803  15.362  0.2095  0.5429 -0.2597
 7357SOL    HW133704   2.008   1.841  15.276  1.5673 -0.2720 -0.3734
 7357SOL    HW233705   1.905   1.837  15.381  0.4738  0.7542  0.5622
 7358SOL     OW33706   3.226   0.608   1.985 -0.4058 -0.0113 -0.1561
 7358SOL    HW133707   3.238   0.677   1.920  0.5460 -0.1940 -0.1741
 7358SOL    HW233708   3.131   0.602   1.979 -0.3224 -1.2777 -0.2552
 7359SOL     OW33709   4.559   2.684  14.647  0.3293 -0.1311  0.2970
 7359SOL    HW133710   4.486   2.715  14.594  1.4976 -0.1440 -1.3287
 7359SOL    HW233711   4.610   2.642  14.577  1.7508  0.1974  1.1461
 7360SOL     OW33712   0.343   3.290   4.528 -0.2244 -0.6556 -0.1162
 7360SOL    HW133713   0.260   3.308   4.571  0.2873 -1.8075  1.3496
 7360SOL    HW233714   0.384   3.376   4.519  0.0628 -0.6830  0.9705
 7361SOL     OW33715   0.427   3.355   7.724  0.1644  0.2281 -0.3807
 7361SOL    HW133716   0.339   3.385   7.704  0.6932  0.2400 -2.6483
 7361SOL    HW233717   0.480   3.418   7.675  2.6110 -1.4961  0.0005
 7362SOL     OW33718   1.507   0.817   8.785 -0.1677  0.2640  0.1133
 7362SOL    HW133719   1.496   0.730   8.825 -0.1034  0.4294  0.4862
 7362SOL    HW233720   1.528   0.872   8.860  1.6677 -1.1908  0.6626
 7363SOL     OW33721   3.718   4.520   5.317  0.7978 -0.1356  0.2717
 7363SOL    HW133722   3.791   4.485   5.266 -1.9055 -1.8283 -2.4257
 7363SOL    HW233723   3.688   4.585   5.253 -1.2938 -1.0393  0.3319
 7364SOL     OW33724   4.313   2.284   5.113  0.4476 -0.4007  1.2740
 7364SOL    HW133725   4.348   2.207   5.159  0.7028 -1.5919 -0.9319
 7364SOL    HW233726   4.223   2.260   5.092  1.2169 -1.7054 -0.4798
 7365SOL     OW33727   4.353   0.655   4.302  0.1162 -0.4993 -0.1810
 7365SOL    HW133728   4.295   0.718   4.258 -1.6458 -0.5769  1.9965
 7365SOL    HW233729   4.318   0.572   4.269  2.0641 -0.1018 -3.1535
 7366SOL     OW33730   3.951   2.583  11.476 -0.3690  0.0276  0.0122
 7366SOL    HW133731   4.044   2.599  11.463  0.1490 -2.5023  0.6789
 7366SOL    HW233732   3.950   2.495  11.438 -0.1514 -0.5053  1.2276
 7367SOL     OW33733   3.656   1.605   4.144 -0.3178  0.5819  0.4479
 7367SOL    HW133734   3.722   1.667   4.174  1.3253 -1.0632  0.2190
 7367SOL    HW233735   3.580   1.661   4.128 -1.2260 -0.7899 -0.1264
 7368SOL     OW33736   1.242   2.628   7.134  0.3055 -0.1365 -0.1674
 7368SOL    HW133737   1.162   2.587   7.166 -0.0565  2.1878  1.8620
 7368SOL    HW233738   1.261   2.564   7.065 -1.0153  2.0351 -2.6037
 7369SOL     OW33739   3.508   2.239   7.071 -0.3697 -0.5308  0.2583
 7369SOL    HW133740   3.493   2.327   7.036  0.3208 -0.9457 -1.0791
 7369SOL    HW233741   3.422   2.197   7.068 -0.8117  0.3730  0.4496
 7370SOL     OW33742   0.630   0.742   4.068 -0.1725  0.6062  0.4664
 7370SOL    HW133743   0.625   0.725   3.974  0.1037  0.5646  0.4604
 7370SOL    HW233744   0.546   0.714   4.107  0.5844 -1.0958  0.8820
 7371SOL     OW33745   0.550   2.678   6.899  0.2248  0.4610  0.0728
 7371SOL    HW133746   0.526   2.624   6.825  1.7058  2.2767 -1.7563
 7371SOL    HW233747   0.577   2.762   6.860  1.7631 -0.8615 -1.6999
 7372SOL     OW33748   4.153   2.385   1.103  0.2561  0.2751  0.3988
 7372SOL    HW133749   4.231   2.437   1.118 -0.5318  1.4575  0.3825
 7372SOL    HW233750   4.185   2.305   1.146 -0.1119 -1.1235 -1.9332
 7373SOL     OW33751   1.957   3.035   5.509  0.1206 -0.5655  0.0415
 7373SOL    HW133752   1.903   3.088   5.568  0.6126 -0.2467  0.2075
 7373SOL    HW233753   1.895   2.981   5.461 -1.6880  1.6034 -0.0791
 7374SOL     OW33754   1.351   0.026  12.333 -0.6000  0.2714  0.5492
 7374SOL    HW133755   1.329   0.104  12.384 -1.5116  1.0574 -1.0139
 7374SOL    HW233756   1.275   4.707  12.356  0.4678 -2.0120 -1.2412
 7375SOL     OW33757   3.405   4.032   4.203  0.5700  0.5383  0.0570
 7375SOL    HW133758   3.316   4.050   4.173  0.4103 -1.1246 -0.5070
 7375SOL    HW233759   3.455   4.093   4.149 -1.5535  1.7839 -0.4913
 7376SOL     OW33760   3.907   1.503   3.040 -0.1530 -0.1193  0.0264
 7376SOL    HW133761   3.867   1.585   3.010  0.1461  0.1540  0.3785
 7376SOL    HW233762   3.990   1.548   3.054  0.2481  0.1015 -3.1427
 7377SOL     OW33763   1.590   3.666   7.040 -0.8032  0.7162  0.4870
 7377SOL    HW133764   1.498   3.672   7.066 -0.4984  0.2111  1.6852
 7377SOL    HW233765   1.627   3.742   7.084  2.2894 -1.8688  2.2959
 7378SOL     OW33766   3.950   3.350   9.084 -0.5255  0.1727  0.2177
 7378SOL    HW133767   3.932   3.423   9.143  0.8593 -1.2896  2.4660
 7378SOL    HW233768   4.002   3.296   9.144  3.2962  1.7319 -1.6729
 7379SOL     OW33769   1.674   4.166   5.314 -0.7900 -0.4712 -0.0498
 7379SOL    HW133770   1.634   4.196   5.396  0.1146 -0.1496  0.2792
 7379SOL    HW233771   1.729   4.098   5.352 -1.5242 -1.2876 -0.4655
 7380SOL     OW33772   3.182   1.643   5.225  0.2033 -0.3682 -0.2833
 7380SOL    HW133773   3.109   1.609   5.173  0.0141 -0.9307  0.3400
 7380SOL    HW233774   3.144   1.666   5.310  0.7838 -2.7543  0.6389
 7381SOL     OW33775   2.870   2.653   5.794  0.2547  0.7010  0.0627
 7381SOL    HW133776   2.919   2.597   5.733  0.5037  2.4046 -1.2902
 7381SOL    HW233777   2.930   2.728   5.795  0.5375  0.4432  1.5368
 7382SOL     OW33778   3.720   1.191   2.583 -0.2751  0.0119  0.1550
 7382SOL    HW133779   3.641   1.245   2.577 -1.0841 -1.0674  1.1687
 7382SOL    HW233780   3.684   1.104   2.564  0.1738  0.2298 -1.7308
 7383SOL     OW33781   4.513   1.095   2.226  0.5704  0.4839 -0.7238
 7383SOL    HW133782   4.436   1.055   2.185 -0.6056  1.7675  0.2334
 7383SOL    HW233783   4.517   1.038   2.303  1.2894  1.0774 -0.3307
 7384SOL     OW33784   4.409   2.273  11.837  0.3866  0.1143  0.0232
 7384SOL    HW133785   4.505   2.272  11.838  0.3646  0.5861  1.9102
 7384SOL    HW233786   4.386   2.339  11.770 -1.0686  1.0865  1.4834
 7385SOL     OW33787   1.914   4.341   0.113  0.1587  0.2097 -0.0881
 7385SOL    HW133788   1.935   4.248   0.117 -0.9081 -0.0776 -1.1876
 7385SOL    HW233789   1.927   4.363   0.021 -0.0624  1.2347  0.1253
 7386SOL     OW33790   3.689   0.265  10.896  0.2672  0.4536  0.2492
 7386SOL    HW133791   3.634   0.290  10.822  0.5101 -2.1103 -0.7837
 7386SOL    HW233792   3.618   0.261  10.961  0.0153 -0.7034 -0.0942
 7387SOL     OW33793   2.786   4.318   2.538 -0.3223  0.1758  0.0067
 7387SOL    HW133794   2.694   4.307   2.564 -0.1160  1.9839  1.4983
 7387SOL    HW233795   2.823   4.340   2.624  1.7923  0.6615 -1.0291
 7388SOL     OW33796   4.662   1.559   0.305 -0.1341 -0.1920  0.1190
 7388SOL    HW133797   4.604   1.494   0.264  0.8607 -0.4523 -0.8921
 7388SOL    HW233798   4.671   1.623   0.235 -0.0148  0.6856  0.9436
 7389SOL     OW33799   0.814   3.045  13.950  0.1587 -0.0486 -0.7216
 7389SOL    HW133800   0.840   3.069  14.039 -2.9397 -1.4279  0.5386
 7389SOL    HW233801   0.751   2.977  13.972 -0.5980  0.2268 -2.0160
 7390SOL     OW33802   0.718   2.639   2.599 -0.0093  0.3738  0.0088
 7390SOL    HW133803   0.802   2.655   2.555 -0.2330  0.7429 -0.2859
 7390SOL    HW233804   0.670   2.587   2.534 -0.0853  0.2159  0.1927
 7391SOL     OW33805   1.981   2.877   8.745 -0.3225 -0.4596 -0.8347
 7391SOL    HW133806   1.935   2.926   8.678  1.6199 -0.2449 -2.0071
 7391SOL    HW233807   1.919   2.894   8.816  1.0694 -2.0357  0.7817
 7392SOL     OW33808   2.432   0.005   2.962 -0.3105  0.0647  0.1349
 7392SOL    HW133809   2.370   0.011   2.888 -2.3400 -0.7879  1.7679
 7392SOL    HW233810   2.395   0.071   3.020  0.4379  1.3480 -0.8510
 7393SOL     OW33811   4.300   0.537  10.287  0.9695 -0.5510  0.1319
 7393SOL    HW133812   4.343   0.584  10.358  1.7999 -1.6973  0.3826
 7393SOL    HW233813   4.225   0.596  10.277  0.3472 -1.4079 -0.2917
 7394SOL     OW33814   1.326   0.304   5.239 -0.1943 -0.1485 -0.0889
 7394SOL    HW133815   1.271   0.288   5.315  1.0456 -2.6011  0.2833
 7394SOL    HW233816   1.400   0.253   5.272  0.1940  0.9706  0.7676
 7395SOL     OW33817   2.516   2.972   5.006  0.2891  0.2381  0.6176
 7395SOL    HW133818   2.484   2.890   4.970  0.2344  0.5465 -0.0533
 7395SOL    HW233819   2.525   3.022   4.924  0.1329 -1.5527 -0.4990
 7396SOL     OW33820   0.589   3.818   3.624 -0.0933  0.0888 -0.1565
 7396SOL    HW133821   0.499   3.787   3.611  0.0265  0.1309 -1.0730
 7396SOL    HW233822   0.646   3.751   3.660 -2.2636 -1.1171  1.0540
 7397SOL     OW33823   2.854   0.248   2.423 -0.2099 -0.0303 -0.3274
 7397SOL    HW133824   2.805   0.246   2.341 -0.2654  1.2690 -0.3313
 7397SOL    HW233825   2.864   0.342   2.437  2.7628 -0.2275 -1.0391
 7398SOL     OW33826   4.563   3.055   3.828 -0.0319  0.1125 -0.0761
 7398SOL    HW133827   4.590   3.068   3.737 -0.5258  1.7486  0.0160
 7398SOL    HW233828   4.497   2.987   3.814  0.9667 -0.5466 -1.5600
 7399SOL     OW33829   4.266   3.440   6.453 -0.2395 -0.1142  0.0157
 7399SOL    HW133830   4.352   3.431   6.411 -0.3574  0.7069 -0.4005
 7399SOL    HW233831   4.208   3.431   6.377 -0.5947 -1.9151  0.4963
 7400SOL     OW33832   4.472   3.568   3.115 -0.1465 -0.4516  0.0582
 7400SOL    HW133833   4.427   3.513   3.179 -1.6847  1.8925  0.9923
 7400SOL    HW233834   4.557   3.579   3.158  0.0206  1.8636 -0.8806
 7401SOL     OW33835   4.139   2.689   8.398  0.0619  0.6045 -0.3386
 7401SOL    HW133836   4.127   2.766   8.453  1.4454  0.1409  0.5953
 7401SOL    HW233837   4.050   2.652   8.397 -0.6916  2.4492 -1.6227
 7402SOL     OW33838   2.550   2.043   6.237  0.7221  0.0755  0.3119
 7402SOL    HW133839   2.561   1.949   6.251 -0.4920 -0.0233  0.6794
 7402SOL    HW233840   2.526   2.049   6.145 -2.9250  0.5270  1.2600
 7403SOL     OW33841   3.576   3.780  10.127  1.0052 -0.0132 -0.6572
 7403SOL    HW133842   3.569   3.851  10.064  0.7648  0.1461 -0.4541
 7403SOL    HW233843   3.488   3.744  10.119  0.7315  0.8731 -1.4706
 7404SOL     OW33844   4.103   4.186  10.579 -0.2225 -0.0406  0.0050
 7404SOL    HW133845   4.022   4.229  10.552 -0.1098  0.2310  0.1059
 7404SOL    HW233846   4.112   4.223  10.666  0.2076  2.3232 -1.0497
 7405SOL     OW33847   3.308   1.486   9.530  0.0669  0.0293  0.2113
 7405SOL    HW133848   3.268   1.458   9.612 -0.2559 -0.5871 -0.1620
 7405SOL    HW233849   3.269   1.572   9.511  0.9324  0.5226  0.6373
 7406SOL     OW33850   4.646   4.172   9.353 -0.2466 -0.5756  0.0184
 7406SOL    HW133851   4.720   4.232   9.363  0.6627 -1.2383 -2.5335
 7406SOL    HW233852   4.639   4.152   9.259 -4.0765  2.0573 -0.2109
 7407SOL     OW33853   0.102   0.088   7.654  0.3743 -0.1086 -0.0235
 7407SOL    HW133854   0.015   0.054   7.674  0.3581  0.4470  0.8819
 7407SOL    HW233855   0.096   0.094   7.559  0.4774 -0.4169 -0.0503
 7408SOL     OW33856   4.331   3.256   9.283 -0.2899  0.1920 -0.8251
 7408SOL    HW133857   4.245   3.221   9.262 -1.0080  1.3860  0.1743
 7408SOL    HW233858   4.316   3.338   9.329  2.0585 -0.6269  1.4311
 7409SOL     OW33859   4.483   3.440   2.874  0.2325  0.4707 -0.1751
 7409SOL    HW133860   4.478   3.495   2.952 -0.2428 -0.3898  0.3992
 7409SOL    HW233861   4.413   3.375   2.882  1.2995 -0.7828 -1.0477
 7410SOL     OW33862   4.028   0.429  12.091  0.7590  0.8064  0.2621
 7410SOL    HW133863   3.976   0.475  12.158 -0.4616 -1.5644  0.9451
 7410SOL    HW233864   4.116   0.425  12.129  0.4783 -0.3834  0.8083
 7411SOL     OW33865   3.477   3.470  15.249 -0.1920 -0.2961 -0.0986
 7411SOL    HW133866   3.539   3.466  15.322 -0.5093 -1.3925  0.1134
 7411SOL    HW233867   3.460   3.377  15.241  1.6850 -0.4385 -2.3534
 7412SOL     OW33868   0.004   0.588   5.082 -0.1955  0.3661  0.0631
 7412SOL    HW133869   0.091   0.605   5.116 -0.8435  1.6093  1.0938
 7412SOL    HW233870   4.698   0.671   5.106 -0.4633 -0.4578  2.4857
 7413SOL     OW33871   1.898   1.055   3.835  0.6696  0.1873  0.1226
 7413SOL    HW133872   1.869   1.006   3.757  1.4159 -0.0150 -0.0286
 7413SOL    HW233873   1.826   1.050   3.898  0.3700 -1.2082 -0.3238
 7414SOL     OW33874   2.342   3.548   8.644  0.6414  0.1597 -0.4785
 7414SOL    HW133875   2.431   3.532   8.675  1.1868  0.3470 -1.9423
 7414SOL    HW233876   2.306   3.460   8.651  1.1682  0.0420  0.7887
 7415SOL     OW33877   2.725   4.016   4.370  0.2719 -0.0466 -0.0880
 7415SOL    HW133878   2.669   3.985   4.441  0.5463 -2.2463 -0.8299
 7415SOL    HW233879   2.775   3.935   4.357  3.4826  1.6854  1.4852
 7416SOL     OW33880   1.694   2.460   7.007 -0.1315 -0.1461 -0.0292
 7416SOL    HW133881   1.653   2.523   6.947  1.7939  1.2374  0.1265
 7416SOL    HW233882   1.763   2.510   7.051  1.7107 -2.7413  0.0411
 7417SOL     OW33883   4.226   0.723   0.980  0.4210  0.2115 -0.0417
 7417SOL    HW133884   4.151   0.665   0.968 -0.1461  0.9085  0.1797
 7417SOL    HW233885   4.221   0.726   1.076  1.6944 -0.3796  0.0447
 7418SOL     OW33886   4.202   4.054   9.965 -0.1597 -0.1162 -0.5747
 7418SOL    HW133887   4.119   4.043  10.013  1.5840  1.2640  2.6980
 7418SOL    HW233888   4.251   4.113  10.021 -1.0428 -0.3528  0.4449
 7419SOL     OW33889   2.407   1.278  13.381  0.0881  0.5129 -0.4039
 7419SOL    HW133890   2.336   1.313  13.327 -1.5721 -0.9969  0.8021
 7419SOL    HW233891   2.407   1.183  13.366  0.4420  0.4811 -0.1870
 7420SOL     OW33892   3.500   2.935   6.972  0.0936  0.0609 -0.4204
 7420SOL    HW133893   3.476   2.915   6.882 -1.2854  0.8137 -0.2216
 7420SOL    HW233894   3.422   2.900   7.016  0.1527 -0.2475 -0.5650
 7421SOL     OW33895   3.764   2.891   6.962  0.3142  0.8160 -0.3058
 7421SOL    HW133896   3.739   2.800   6.951 -1.2081  1.1667  0.2325
 7421SOL    HW233897   3.673   2.915   6.980 -0.0358  0.7858 -2.0522
 7422SOL     OW33898   1.190   4.072   6.323 -0.4560  0.0005 -0.4650
 7422SOL    HW133899   1.102   4.104   6.301 -0.5712 -0.2604 -0.3841
 7422SOL    HW233900   1.167   4.030   6.406  0.9352 -0.0939 -0.1279
 7423SOL     OW33901   1.240   3.688   3.657  0.1344  0.0655  0.1084
 7423SOL    HW133902   1.187   3.760   3.690  2.9494  1.7616  0.8508
 7423SOL    HW233903   1.205   3.615   3.708  0.3329 -2.0375 -2.7359
 7424SOL     OW33904   1.191   3.704  10.661 -0.1402  0.3707 -0.2929
 7424SOL    HW133905   1.247   3.629  10.642  0.2788  0.2987  1.2305
 7424SOL    HW233906   1.251   3.742  10.726 -0.8300  2.7748 -1.0567
 7425SOL     OW33907   1.197   1.157   2.260  0.1838  0.1128  0.5752
 7425SOL    HW133908   1.254   1.093   2.301  0.5927  1.1686  1.6537
 7425SOL    HW233909   1.221   1.234   2.312 -1.2268  1.2684 -0.4790
 7426SOL     OW33910   1.403   0.832   6.717  0.2241  0.5600 -0.3891
 7426SOL    HW133911   1.455   0.849   6.796 -1.9655  0.3842  1.1050
 7426SOL    HW233912   1.419   0.737   6.716 -1.0274  0.3116  2.1321
 7427SOL     OW33913   4.451   1.069   4.128 -0.5479  0.6831 -0.0005
 7427SOL    HW133914   4.380   1.109   4.078  0.7416 -0.0242 -2.3737
 7427SOL    HW233915   4.451   1.117   4.212  0.0812 -0.2386  0.5206
 7428SOL     OW33916   0.365   1.072  14.790  0.3989  0.3415 -0.0148
 7428SOL    HW133917   0.444   1.023  14.814  0.0494  0.4188  1.2540
 7428SOL    HW233918   0.372   1.068  14.694  0.0282 -0.8132  0.0102
 7429SOL     OW33919   3.122   0.904   2.867  1.0300  0.3101 -0.1963
 7429SOL    HW133920   3.162   0.844   2.803 -0.2339  0.5781 -1.2409
 7429SOL    HW233921   3.078   0.837   2.920  3.5546 -1.0373  0.2100
 7430SOL     OW33922   1.743   3.323   1.428  0.4191  0.1978 -0.4424
 7430SOL    HW133923   1.825   3.312   1.381  1.1684  0.2143  0.8657
 7430SOL    HW233924   1.693   3.251   1.388 -2.5534 -0.1946  3.9711
 7431SOL     OW33925   1.265   0.102   8.834  0.2444  0.2047 -0.0956
 7431SOL    HW133926   1.287   0.172   8.773  1.1859 -0.6900 -0.7875
 7431SOL    HW233927   1.266   0.156   8.912 -3.4823 -0.9491  0.7363
 7432SOL     OW33928   3.151   2.202   0.199 -0.0586 -0.2946 -0.3149
 7432SOL    HW133929   3.220   2.160   0.148 -0.3250  0.4169 -1.2592
 7432SOL    HW233930   3.098   2.250   0.135 -1.8396  0.2628  1.5932
 7433SOL     OW33931   1.074   1.859   4.235  0.2442  0.7604  0.6328
 7433SOL    HW133932   1.021   1.938   4.224  0.3234  0.4636 -1.7115
 7433SOL    HW233933   1.138   1.871   4.165 -0.6124 -1.4431 -0.5317
 7434SOL     OW33934   3.294   3.505   5.398 -0.0087  0.1035  0.6146
 7434SOL    HW133935   3.260   3.442   5.334  2.3512  0.6142 -1.1208
 7434SOL    HW233936   3.385   3.477   5.401  0.6641  2.0441 -1.9322
 7435SOL     OW33937   3.419   0.181   0.593 -0.6009  0.2793 -0.2644
 7435SOL    HW133938   3.483   0.142   0.533 -1.3282 -2.4925  0.7561
 7435SOL    HW233939   3.463   0.253   0.638 -0.2363  1.1279 -1.9819
 7436SOL     OW33940   2.009   1.122   3.068 -0.3768  0.5262 -0.0275
 7436SOL    HW133941   2.012   1.101   2.975  0.8377  1.7032 -0.2567
 7436SOL    HW233942   1.917   1.102   3.085 -0.3080 -0.1657 -0.4501
 7437SOL     OW33943   2.992   2.270  12.622 -0.5623  0.3167  0.5763
 7437SOL    HW133944   2.978   2.300  12.532 -2.8258  2.9535  1.8067
 7437SOL    HW233945   3.000   2.353  12.668 -0.3687  0.7078 -0.1730
 7438SOL     OW33946   1.991   1.448   1.609  0.4613  0.5812 -0.4399
 7438SOL    HW133947   1.942   1.529   1.618 -0.2262  0.0222  0.7697
 7438SOL    HW233948   2.039   1.463   1.527  0.9405 -0.1839 -0.2986
 7439SOL     OW33949   3.893   3.660  13.099 -0.1626 -0.2761 -0.0368
 7439SOL    HW133950   3.897   3.598  13.026 -0.2059 -0.8890  0.4887
 7439SOL    HW233951   3.949   3.728  13.060  1.6150 -1.9772 -0.4609
 7440SOL     OW33952   2.575   2.885  12.120 -0.0054  0.0996 -0.1867
 7440SOL    HW133953   2.514   2.814  12.140  0.3442 -0.2394 -0.3222
 7440SOL    HW233954   2.518   2.961  12.131  3.0413  2.6172 -1.9928
 7441SOL     OW33955   2.261   2.749   6.871  0.1981 -0.2400 -0.3841
 7441SOL    HW133956   2.270   2.764   6.777 -0.6459 -1.6631 -0.6921
 7441SOL    HW233957   2.208   2.824   6.900  1.0913  0.2657 -0.0609
 7442SOL     OW33958   4.574   2.525  15.458  0.9749 -0.0664 -1.0670
 7442SOL    HW133959   4.660   2.528  15.499  0.9917  0.5486 -1.1394
 7442SOL    HW233960   4.592   2.460  15.391  2.7817 -2.0471  1.3668
 7443SOL     OW33961   0.074   2.154   4.414  0.2799  0.6957 -0.3773
 7443SOL    HW133962   0.028   2.134   4.332 -1.2996  0.2414  0.6176
 7443SOL    HW233963   0.004   2.211   4.446  1.8751  2.2482  0.3057
 7444SOL     OW33964   4.211   1.958   8.525 -0.3279  0.2219 -0.4311
 7444SOL    HW133965   4.250   2.035   8.567  0.7186 -0.0668 -0.8816
 7444SOL    HW233966   4.228   1.971   8.432 -2.3041 -1.0307 -0.9699
 7445SOL     OW33967   4.170   2.134   9.389 -0.6241  0.6752  0.2860
 7445SOL    HW133968   4.230   2.202   9.420 -0.2803 -0.3260  1.8362
 7445SOL    HW233969   4.107   2.136   9.462 -0.5970 -0.6053  0.3311
 7446SOL     OW33970   3.140   1.443  16.153 -0.3167  0.4901 -0.0667
 7446SOL    HW133971   3.130   1.463  16.060 -1.7340 -0.6358 -0.1586
 7446SOL    HW233972   3.102   1.522  16.190  1.1123  2.3918 -2.6544
 7447SOL     OW33973   1.395   2.646   5.059 -0.0422 -0.2870 -0.0288
 7447SOL    HW133974   1.413   2.712   5.125  0.2398 -1.0917  0.7049
 7447SOL    HW233975   1.308   2.615   5.084 -0.7842  2.7988  1.0835
 7448SOL     OW33976   2.802   4.558   3.409  0.0266 -0.6712  0.3254
 7448SOL    HW133977   2.743   4.555   3.485 -1.2230 -1.4834 -0.6665
 7448SOL    HW233978   2.764   4.489   3.355 -1.0605  0.3316 -0.1808
 7449SOL     OW33979   0.068   0.701   8.418 -0.6759 -0.2612 -0.0281
 7449SOL    HW133980   0.004   0.765   8.388 -2.4128 -1.9764 -0.0242
 7449SOL    HW233981   0.019   0.624   8.391 -0.0722  0.2219 -2.5112
 7450SOL     OW33982   1.657   3.185  15.320 -0.2364  0.2675  0.0020
 7450SOL    HW133983   1.588   3.145  15.266 -0.0807 -0.1895  0.1395
 7450SOL    HW233984   1.721   3.119  15.292  0.1420  0.4316  0.4877
 7451SOL     OW33985   2.472   2.316   3.281 -0.0688 -0.0386  0.0887
 7451SOL    HW133986   2.380   2.318   3.307  0.3444 -2.5145  1.6913
 7451SOL    HW233987   2.474   2.250   3.212  0.1383 -1.2976  1.3232
 7452SOL     OW33988   2.163   1.740  12.973  0.0459 -0.0880  0.0678
 7452SOL    HW133989   2.110   1.707  13.045  2.3207 -1.9286  0.8788
 7452SOL    HW233990   2.105   1.735  12.896  1.1357 -0.1720 -0.7532
 7453SOL     OW33991   0.238   4.527   6.804 -0.6315 -0.1139 -0.1482
 7453SOL    HW133992   0.216   4.486   6.888 -2.8823  0.6739 -0.3491
 7453SOL    HW233993   0.305   4.586   6.839 -0.6782  0.9254 -1.8241
 7454SOL     OW33994   0.010   4.305   1.212 -0.1133  0.8141 -0.4080
 7454SOL    HW133995   4.658   4.346   1.209 -0.0544  0.9912  0.2335
 7454SOL    HW233996   0.062   4.367   1.263  2.0410 -0.3250 -1.1819
 7455SOL     OW33997   1.920   2.374  13.254  0.1602  0.1637  0.0004
 7455SOL    HW133998   1.850   2.308  13.257 -2.6393  3.2214  0.9488
 7455SOL    HW233999   1.873   2.441  13.303  0.2650  0.4744 -0.3277
 7456SOL     OW34000   3.060   3.250   6.920  0.4120 -0.7318 -0.0771
 7456SOL    HW134001   3.094   3.255   7.010  1.7893  0.5984 -0.6725
 7456SOL    HW234002   3.092   3.166   6.889  1.4432 -1.2288  2.3266
 7457SOL     OW34003   1.729   0.860   5.397  0.1297 -0.4263 -0.1507
 7457SOL    HW134004   1.793   0.932   5.395  1.3119 -1.5097 -1.4632
 7457SOL    HW234005   1.677   0.897   5.326  0.5801  2.4983  1.0135
 7458SOL     OW34006   3.301   3.900   1.913 -0.0708  0.3572 -0.5162
 7458SOL    HW134007   3.334   3.835   1.850  0.4613 -0.3136  0.4555
 7458SOL    HW234008   3.382   3.928   1.955  1.2053 -0.1118 -2.6912
 7459SOL     OW34009   2.958   3.608  15.674  0.0281 -0.2324  0.7194
 7459SOL    HW134010   2.987   3.693  15.643 -0.4758  0.1331  1.2383
 7459SOL    HW234011   2.862   3.611  15.670 -0.0275 -1.4316  1.0650
 7460SOL     OW34012   1.157   0.662   7.962  0.1658  0.0143 -0.2622
 7460SOL    HW134013   1.148   0.679   8.056  0.4902 -0.9750 -0.0559
 7460SOL    HW234014   1.069   0.686   7.934  1.0267  3.7694  0.1684
 7461SOL     OW34015   3.771   1.252   8.473 -0.3367  0.4262 -0.2945
 7461SOL    HW134016   3.689   1.218   8.436 -0.9379 -0.4565  1.8269
 7461SOL    HW234017   3.814   1.166   8.479  0.6876  1.0813  1.8788
 7462SOL     OW34018   4.103   0.420   9.737 -0.2577 -0.2297  0.5517
 7462SOL    HW134019   4.040   0.450   9.802 -0.5461 -0.7406  0.5048
 7462SOL    HW234020   4.184   0.464   9.762 -2.0147  1.6343  2.9700
 7463SOL     OW34021   3.367   4.469   1.938 -0.1423 -0.1970 -0.1653
 7463SOL    HW134022   3.413   4.401   1.987 -1.4945 -2.3453 -1.8660
 7463SOL    HW234023   3.301   4.405   1.911 -0.6420  0.3281 -0.1877
 7464SOL     OW34024   2.600   4.062   6.952  0.1082 -0.1600  0.5391
 7464SOL    HW134025   2.527   4.009   6.921 -2.2806  2.5016  1.5426
 7464SOL    HW234026   2.586   4.079   7.045  0.1820  2.3455  0.1009
 7465SOL     OW34027   4.062   4.671  10.184  0.4917  0.1919  0.1867
 7465SOL    HW134028   4.058   0.017  10.132 -1.9641 -1.2785 -1.9163
 7465SOL    HW234029   4.120   4.702  10.254  0.7938 -2.5776  1.1506
 7466SOL     OW34030   4.007   1.161   6.475  0.5018  0.0335 -0.3379
 7466SOL    HW134031   3.965   1.241   6.445  0.1524 -0.5903 -1.4840
 7466SOL    HW234032   3.996   1.171   6.570 -1.8302  1.6374 -0.7863
 7467SOL     OW34033   1.234   2.465  11.183  0.0401 -0.3128 -0.5699
 7467SOL    HW134034   1.240   2.503  11.271 -1.4233  1.6542 -1.3085
 7467SOL    HW234035   1.212   2.375  11.206 -1.0283  0.1548  0.2365
 7468SOL     OW34036   2.574   2.320   5.934 -0.0030  0.6294  0.1108
 7468SOL    HW134037   2.609   2.318   5.845  0.4002 -0.7082  0.3048
 7468SOL    HW234038   2.642   2.282   5.991 -0.1200  1.2597  0.6734
 7469SOL     OW34039   1.184   0.847   2.603  0.2725 -0.4908 -0.2696
 7469SOL    HW134040   1.156   0.916   2.542 -0.2366 -0.8374 -0.4219
 7469SOL    HW234041   1.116   0.835   2.669  2.2793 -2.0027  1.5398
 7470SOL     OW34042   3.854   4.639   5.579 -0.0126 -0.3447 -0.3141
 7470SOL    HW134043   3.901   4.717   5.550 -1.2108  0.7830  0.7368
 7470SOL    HW234044   3.763   4.661   5.557  0.3655  0.9541 -0.5839
 7471SOL     OW34045   2.784   2.581  11.725  0.1376  0.1848  0.1311
 7471SOL    HW134046   2.720   2.579  11.653  0.5096  0.1133 -0.1985
 7471SOL    HW234047   2.865   2.609  11.681 -0.4569  0.8244 -0.5671
 7472SOL     OW34048   0.206   3.165   4.877 -0.2744 -0.1063  0.0261
 7472SOL    HW134049   0.247   3.091   4.922  0.7356  1.2314  1.2972
 7472SOL    HW234050   0.115   3.147   4.904  0.3533 -0.2279  2.0409
 7473SOL     OW34051   3.516   0.525   0.771 -0.1046  0.2827  0.6467
 7473SOL    HW134052   3.584   0.481   0.721  0.7646  1.2313  0.9772
 7473SOL    HW234053   3.439   0.493   0.725  0.7711  1.0449 -1.3544
 7474SOL     OW34054   0.720   1.568   3.537  0.1026 -0.1842  0.0951
 7474SOL    HW134055   0.739   1.656   3.570 -1.9695  0.2118  0.2324
 7474SOL    HW234056   0.769   1.580   3.455  0.5063  0.1876  0.3936
 7475SOL     OW34057   1.109   1.299   6.639 -0.0820  0.0289  0.2988
 7475SOL    HW134058   1.021   1.277   6.608  0.1221 -1.9521  1.1339
 7475SOL    HW234059   1.166   1.264   6.570  1.0428 -0.7380  1.6206
 7476SOL     OW34060   3.985   1.574   6.068  0.2683 -0.7148 -0.4741
 7476SOL    HW134061   3.993   1.480   6.083  1.9247 -0.5257 -0.1460
 7476SOL    HW234062   4.072   1.594   6.034  0.5704 -1.3554 -0.0876
 7477SOL     OW34063   1.827   3.316   4.572  0.1195  0.4550 -0.7594
 7477SOL    HW134064   1.864   3.238   4.530 -0.4411  0.0912 -0.5775
 7477SOL    HW234065   1.904   3.370   4.555 -1.4761  2.5935 -1.0413
 7478SOL     OW34066   1.290   0.033   6.868  0.0325  0.0791 -0.3171
 7478SOL    HW134067   1.375   0.006   6.833  0.8499  0.6252  1.2444
 7478SOL    HW234068   1.319   0.087   6.941  1.2670  2.4741 -2.5289
 7479SOL     OW34069   3.802   4.092   5.840  0.5214 -0.3083  0.0907
 7479SOL    HW134070   3.862   4.108   5.767 -0.9415  4.1785 -0.0910
 7479SOL    HW234071   3.834   4.003   5.859  1.7015  0.5477  2.0668
 7480SOL     OW34072   3.876   2.273   4.880 -0.2383 -0.3155 -0.7142
 7480SOL    HW134073   3.828   2.221   4.945  0.1139  0.3040  0.0364
 7480SOL    HW234074   3.824   2.352   4.866 -1.2318 -0.9643 -0.7507
 7481SOL     OW34075   4.620   1.975  13.357  0.1498 -0.5353  0.2277
 7481SOL    HW134076   4.612   2.071  13.358 -1.7040 -0.6853 -0.4424
 7481SOL    HW234077   4.584   1.959  13.444 -4.0993  2.9690 -0.8778
 7482SOL     OW34078   4.245   3.886   3.806 -0.0613 -0.3686 -0.3652
 7482SOL    HW134079   4.154   3.916   3.804  0.6748  1.8849 -0.6587
 7482SOL    HW234080   4.258   3.851   3.718  0.7912  0.0913 -0.4198
 7483SOL     OW34081   2.882   4.533   4.515 -0.1597 -0.4596  0.4137
 7483SOL    HW134082   2.961   4.543   4.462  0.7901  0.1978  1.9668
 7483SOL    HW234083   2.864   4.441   4.500  1.0888 -0.2353 -2.5376
 7484SOL     OW34084   1.063   0.654   5.878 -0.3627  0.7155 -0.1668
 7484SOL    HW134085   1.061   0.609   5.962 -0.9282  1.5208  0.2465
 7484SOL    HW234086   1.112   0.734   5.900  1.8261 -1.1068  1.6371
 7485SOL     OW34087   1.690   4.242  16.742  0.2951 -0.1662 -0.4248
 7485SOL    HW134088   1.655   4.311  16.686  1.4777 -0.0741 -1.0447
 7485SOL    HW234089   1.657   4.161  16.703  0.3882  0.1785 -1.2141
 7486SOL     OW34090   1.511   2.290   8.657  0.4555 -0.1388  0.7457
 7486SOL    HW134091   1.503   2.217   8.719  0.2134  1.2905  2.3823
 7486SOL    HW234092   1.420   2.308   8.637  0.5119  0.7613  1.2886
 7487SOL     OW34093   2.854   1.002   4.288  0.0736 -0.6233  0.0928
 7487SOL    HW134094   2.936   1.010   4.338 -0.5644  2.9424  0.5245
 7487SOL    HW234095   2.790   1.007   4.359  0.5000  0.6174  0.3887
 7488SOL     OW34096   4.573   0.359   3.200  0.5630  0.5197  0.0087
 7488SOL    HW134097   4.603   0.386   3.286  2.8337 -3.7458  0.5538
 7488SOL    HW234098   4.500   0.302   3.222  0.8254  0.6109  1.0893
 7489SOL     OW34099   1.322   3.760   6.905 -0.0193  0.2747 -0.5070
 7489SOL    HW134100   1.408   3.758   6.862 -0.0761  0.0919 -0.6136
 7489SOL    HW234101   1.347   3.796   6.990 -0.9367  0.3219 -0.2570
 7490SOL     OW34102   4.364   0.343  10.865 -0.1777  0.1611 -0.4237
 7490SOL    HW134103   4.421   0.272  10.836 -0.2610  0.4557 -1.3175
 7490SOL    HW234104   4.279   0.319  10.829 -1.0867  1.5342  0.8259
 7491SOL     OW34105   2.807   3.359  12.101  0.2740 -0.5065  0.2453
 7491SOL    HW134106   2.719   3.395  12.087  0.8273  0.9105  0.4753
 7491SOL    HW234107   2.837   3.354  12.010  0.1394 -2.1700  0.2856
 7492SOL     OW34108   1.326   0.148   5.712  0.0300  0.1778 -0.5305
 7492SOL    HW134109   1.419   0.166   5.698  0.7361 -2.0048  1.3292
 7492SOL    HW234110   1.317   0.227   5.765 -1.9031  1.0052 -2.1093
 7493SOL     OW34111   2.795   1.746  11.073  0.0834 -0.2428 -0.3726
 7493SOL    HW134112   2.756   1.659  11.086 -1.9977  1.0050  1.6403
 7493SOL    HW234113   2.825   1.753  11.164 -0.5847 -1.8184 -0.0144
 7494SOL     OW34114   1.546   3.711   1.930  0.3398  0.3712  0.2319
 7494SOL    HW134115   1.590   3.796   1.932  1.8167 -0.4249  2.0379
 7494SOL    HW234116   1.527   3.693   2.022 -1.0969  0.1280 -0.1035
 7495SOL     OW34117   3.000   3.724   9.583  0.1372  0.4919 -0.1411
 7495SOL    HW134118   2.923   3.688   9.627  0.0889 -0.7728 -1.2783
 7495SOL    HW234119   2.995   3.675   9.501 -0.2481  0.9907 -0.4235
 7496SOL     OW34120   0.585   2.853  12.147 -0.1308  0.0728 -0.3791
 7496SOL    HW134121   0.590   2.874  12.240 -0.5669  0.8198 -0.5205
 7496SOL    HW234122   0.501   2.888  12.116  0.0643  2.4646  1.7648
 7497SOL     OW34123   2.227   3.307  12.828  0.5841 -0.3102 -0.0673
 7497SOL    HW134124   2.289   3.260  12.882  0.0572 -0.4316  0.4344
 7497SOL    HW234125   2.219   3.255  12.748 -0.6075 -0.6988  0.3077
 7498SOL     OW34126   2.489   0.627   4.265  0.3401  0.0342  0.3136
 7498SOL    HW134127   2.553   0.628   4.194 -0.9747 -3.2907 -0.9085
 7498SOL    HW234128   2.415   0.626   4.204  1.3847  0.3089 -0.9664
 7499SOL     OW34129   3.468   0.226   7.849  0.2384  0.6473 -0.1568
 7499SOL    HW134130   3.422   0.224   7.932  0.2097 -1.3428 -0.2319
 7499SOL    HW234131   3.478   0.318   7.826  0.0004  0.9551  0.9818
 7500SOL     OW34132   3.521   2.441   9.806 -0.2730  0.0398  0.1296
 7500SOL    HW134133   3.461   2.503   9.764  0.6037  1.2947  0.7218
 7500SOL    HW234134   3.551   2.374   9.745 -0.0644  0.9013 -0.7081
 7501SOL     OW34135   2.858   0.457   6.542  0.1405 -0.4410 -0.1138
 7501SOL    HW134136   2.865   0.396   6.616 -0.4868  0.4678  0.6842
 7501SOL    HW234137   2.951   0.473   6.525  0.2458 -0.1281  0.7434
 7502SOL     OW34138   2.850   3.963   2.905  0.0908  0.9540 -0.0099
 7502SOL    HW134139   2.827   3.896   2.841  0.7597  0.2953  0.4472
 7502SOL    HW234140   2.768   4.013   2.899 -0.0348  1.0048  1.8646
 7503SOL     OW34141   3.319   0.099   8.829 -0.1381 -0.1938  0.3713
 7503SOL    HW134142   3.297   0.185   8.794  0.8861 -0.6182 -1.2741
 7503SOL    HW234143   3.401   0.112   8.876  0.7541 -1.3493 -0.8708
 7504SOL     OW34144   1.802   4.201  12.928  0.3904  0.0851 -0.3739
 7504SOL    HW134145   1.870   4.256  12.967 -1.0750  0.7829  1.1934
 7504SOL    HW234146   1.725   4.227  12.978  1.9076  1.9010  0.9956
 7505SOL     OW34147   4.502   2.993  17.411 -0.3863  0.3839  0.3398
 7505SOL    HW134148   4.458   2.994  17.496 -1.1361  0.0144 -0.0458
 7505SOL    HW234149   4.457   3.062  17.362  0.6072 -1.0441 -2.5141
 7506SOL     OW34150   4.223   4.077   8.172 -0.7227 -0.1572 -0.0778
 7506SOL    HW134151   4.318   4.083   8.163 -0.7500 -0.7181 -0.7116
 7506SOL    HW234152   4.206   4.016   8.100  1.0881 -0.2954 -0.3832
 7507SOL     OW34153   0.083   0.166   9.073  0.5946  0.5340  0.6546
 7507SOL    HW134154   0.116   0.245   9.029  1.7573  0.9829  2.3467
 7507SOL    HW234155   4.725   0.188   9.062  1.0103  1.4117 -1.1429
 7508SOL     OW34156   3.177   1.922   2.555 -0.5179 -0.1233  0.3258
 7508SOL    HW134157   3.140   1.836   2.570 -4.2234  1.6714  1.3349
 7508SOL    HW234158   3.202   1.944   2.645 -1.7368  1.9692  0.1539
 7509SOL     OW34159   0.630   1.351   5.956  0.4827 -0.2145 -0.0773
 7509SOL    HW134160   0.584   1.310   6.029 -0.3702  0.0144 -0.4823
 7509SOL    HW234161   0.609   1.276   5.900 -3.0317 -0.4274  1.5394
 7510SOL     OW34162   4.509   2.672   2.086  0.4011 -0.3714 -0.1562
 7510SOL    HW134163   4.597   2.698   2.057  0.0966 -1.4504 -2.0467
 7510SOL    HW234164   4.518   2.585   2.047 -0.8655 -0.6930  0.2772
 7511SOL     OW34165   4.173   4.379   8.066 -0.9268 -0.3849 -0.4520
 7511SOL    HW134166   4.254   4.358   8.018 -0.6349  0.9857 -0.5632
 7511SOL    HW234167   4.108   4.390   7.996 -2.6204 -3.0873  0.6806
 7512SOL     OW34168   1.493   2.185   3.720  0.4696  0.0152  0.2370
 7512SOL    HW134169   1.469   2.097   3.689 -1.1027  0.9546 -1.2216
 7512SOL    HW234170   1.565   2.172   3.782  0.0889 -0.9111  0.4976
 7513SOL     OW34171   1.162   2.802   1.878  0.1530  0.1368 -0.0303
 7513SOL    HW134172   1.108   2.882   1.879 -1.6594 -1.0877  1.1792
 7513SOL    HW234173   1.127   2.751   1.805  0.3523  1.2221 -0.8792
 7514SOL     OW34174   4.322   1.951  14.047  0.7000 -0.0684  0.7566
 7514SOL    HW134175   4.320   1.861  14.079 -0.8164 -0.5566 -0.7205
 7514SOL    HW234176   4.230   1.978  14.040  0.2227 -1.2002  2.6829
 7515SOL     OW34177   3.977   3.588   4.715  0.1809 -0.0776 -0.1054
 7515SOL    HW134178   3.913   3.561   4.649 -2.1544 -0.6585  2.3854
 7515SOL    HW234179   4.024   3.506   4.730 -1.2753 -1.2503 -1.8919
 7516SOL     OW34180   3.103   0.668   4.246 -0.3810 -0.6247 -0.1190
 7516SOL    HW134181   3.157   0.707   4.176 -2.2678  0.9249 -0.7141
 7516SOL    HW234182   3.011   0.672   4.220 -0.8987  0.3523  1.8704
 7517SOL     OW34183   4.467   4.674   9.240 -1.0630  0.0602 -0.0916
 7517SOL    HW134184   4.441   4.582   9.238  0.3301 -0.3856  2.4200
 7517SOL    HW234185   4.536   4.679   9.175 -1.6760  0.8143 -0.6812
 7518SOL     OW34186   3.502   1.943   8.511 -0.0464  0.0918 -0.2737
 7518SOL    HW134187   3.569   1.898   8.562  1.8880  0.1410 -2.7908
 7518SOL    HW234188   3.431   1.880   8.524  0.2781  0.0402  1.2345
 7519SOL     OW34189   1.854   1.289   4.453 -0.2715 -0.0155 -0.4373
 7519SOL    HW134190   1.818   1.377   4.463  1.1817  0.4710  0.4814
 7519SOL    HW234191   1.934   1.304   4.504 -0.8580  1.0361  0.1669
 7520SOL     OW34192   2.596   0.785  14.094 -0.2570 -0.3645 -0.0790
 7520SOL    HW134193   2.674   0.777  14.149  0.9858 -1.6556 -2.0211
 7520SOL    HW234194   2.527   0.734  14.138  1.7860 -2.3960  0.7681
 7521SOL     OW34195   0.778   1.842   3.584 -0.0187  0.3131 -0.6947
 7521SOL    HW134196   0.718   1.903   3.541  0.5895  1.2386 -0.2379
 7521SOL    HW234197   0.859   1.893   3.592 -0.8252  1.1495  2.1847
 7522SOL     OW34198   0.120   4.445   8.389  0.2166 -0.1469  0.3971
 7522SOL    HW134199   0.125   4.481   8.477 -0.5408 -0.9006  0.7410
 7522SOL    HW234200   0.104   4.354   8.412 -0.1215  0.7025  3.4937
 7523SOL     OW34201   1.927   3.072  10.872  0.0307 -0.2476 -0.0128
 7523SOL    HW134202   1.954   3.077  10.781 -0.9492  0.4227 -0.2644
 7523SOL    HW234203   1.832   3.080  10.861  0.1231  2.4835  1.1779
 7524SOL     OW34204   2.271   3.476   3.507  0.3434  0.2509  0.0914
 7524SOL    HW134205   2.196   3.458   3.564  2.3615  0.1351  2.7536
 7524SOL    HW234206   2.234   3.458   3.421  1.2240  1.3487 -0.5276
 7525SOL     OW34207   4.522   3.091   9.116  0.2976  0.2018  0.4383
 7525SOL    HW134208   4.466   3.157   9.158 -0.7273 -0.2873 -0.1718
 7525SOL    HW234209   4.601   3.098   9.169 -0.2308 -0.8069  1.3825
 7526SOL     OW34210   0.468   0.151  10.354  0.2673 -0.2979  0.1404
 7526SOL    HW134211   0.431   0.065  10.331 -2.1223  0.3260  1.6881
 7526SOL    HW234212   0.398   0.198  10.398 -0.5643 -1.5448  0.1574
 7527SOL     OW34213   1.329   3.825  17.142 -0.8275 -0.1728 -0.7015
 7527SOL    HW134214   1.334   3.895  17.077 -0.0042  0.9209  0.5536
 7527SOL    HW234215   1.347   3.744  17.094  1.6291 -0.2942  0.4300
 7528SOL     OW34216   2.628   1.570   6.618 -0.3305 -0.2427  0.4513
 7528SOL    HW134217   2.544   1.545   6.580  0.9342  0.6665 -2.8910
 7528SOL    HW234218   2.677   1.613   6.548  0.2244 -0.4772  0.6951
 7529SOL     OW34219   2.277   1.640   3.097  0.0395  0.5073  0.7324
 7529SOL    HW134220   2.227   1.688   3.032 -1.7347 -2.3024  0.0310
 7529SOL    HW234221   2.352   1.699   3.105  0.7272 -0.2546 -0.0892
 7530SOL     OW34222   1.978   4.603  10.630  0.5849 -0.1477 -1.1217
 7530SOL    HW134223   2.066   4.600  10.592  2.2703  3.7747  2.4823
 7530SOL    HW234224   1.948   4.679  10.579  0.3126 -2.4791 -4.4859
 7531SOL     OW34225   2.820   2.809   9.237  0.0210 -0.0151 -0.0978
 7531SOL    HW134226   2.867   2.871   9.181  1.7929 -0.8649  0.4446
 7531SOL    HW234227   2.729   2.826   9.211 -0.5216 -1.9876  0.4668
 7532SOL     OW34228   4.475   2.018   7.536  0.5980 -0.3314  0.3230
 7532SOL    HW134229   4.542   2.052   7.595 -2.8307  1.5096  3.1472
 7532SOL    HW234230   4.531   1.993   7.463 -0.4861 -0.9604 -0.2894
 7533SOL     OW34231   1.653   0.572  11.111  0.0633  0.7053  0.3400
 7533SOL    HW134232   1.744   0.548  11.132  0.2153  0.0967 -0.9581
 7533SOL    HW234233   1.643   0.651  11.164  0.8273 -0.2043  1.8481
 7534SOL     OW34234   3.613   0.992   9.673  0.0473 -0.8710 -0.0749
 7534SOL    HW134235   3.535   0.969   9.723 -2.0975  0.4604 -2.8525
 7534SOL    HW234236   3.596   1.075   9.629  3.2134 -0.1741 -0.0057
 7535SOL     OW34237   1.954   1.878   1.710  0.4496 -0.3571 -0.1973
 7535SOL    HW134238   2.027   1.845   1.763 -2.7702 -1.1432  3.7909
 7535SOL    HW234239   1.920   1.798   1.671  1.0830  1.2452 -4.0236
 7536SOL     OW34240   4.233   2.550   6.831 -0.1615  0.2615 -0.2119
 7536SOL    HW134241   4.148   2.527   6.868 -0.6376  3.0327  0.4258
 7536SOL    HW234242   4.232   2.501   6.749  1.8408 -0.4567  0.1992
 7537SOL     OW34243   0.094   3.107   4.531 -0.2642  0.0709  0.3696
 7537SOL    HW134244   0.188   3.092   4.542 -0.1262  0.7764  0.1196
 7537SOL    HW234245   0.080   3.190   4.577 -0.5665  0.5530 -0.5929
 7538SOL     OW34246   4.012   1.605  12.551 -0.6643  0.3423  0.5282
 7538SOL    HW134247   3.983   1.696  12.554 -0.5150  0.3967  0.3069
 7538SOL    HW234248   3.982   1.565  12.633  2.6760  0.5347  1.8519
 7539SOL     OW34249   1.160   0.977   6.327 -0.5637  0.3178  0.2232
 7539SOL    HW134250   1.119   0.953   6.411 -0.7402 -0.6000 -0.1272
 7539SOL    HW234251   1.196   1.058   6.361 -0.3087  0.5387 -0.5764
 7540SOL     OW34252   2.036   2.901   2.231 -0.2828 -0.0430  0.0350
 7540SOL    HW134253   2.103   2.846   2.272  1.4105  1.0834 -1.2137
 7540SOL    HW234254   1.958   2.869   2.277  0.7368 -0.8945  1.1842
 7541SOL     OW34255   3.513   3.308   9.687  0.5581  0.2571 -0.2647
 7541SOL    HW134256   3.455   3.278   9.756  1.7018  1.4577  1.2151
 7541SOL    HW234257   3.453   3.301   9.613 -3.9479 -0.5972  3.4684
 7542SOL     OW34258   0.278   1.909   9.246  0.0943 -0.0572  0.4469
 7542SOL    HW134259   0.358   1.870   9.211 -1.2212 -2.3572  0.0010
 7542SOL    HW234260   0.272   1.987   9.192 -0.9004 -1.5024 -1.5394
 7543SOL     OW34261   1.501   3.810   4.318  0.4955  0.3941 -0.4876
 7543SOL    HW134262   1.518   3.876   4.251  1.1789 -0.9358 -1.6322
 7543SOL    HW234263   1.477   3.739   4.258  0.5558 -0.0816  0.0462
 7544SOL     OW34264   1.751   0.071   0.846  0.5811 -0.4759  0.3880
 7544SOL    HW134265   1.779   0.144   0.792  1.2051  0.3649  1.8456
 7544SOL    HW234266   1.757   0.120   0.928  0.3179  2.3809 -1.3279
 7545SOL     OW34267   2.723   1.185   3.469 -0.1790 -0.4777  0.7616
 7545SOL    HW134268   2.645   1.220   3.511  1.3835  1.4775  2.0566
 7545SOL    HW234269   2.684   1.109   3.426 -0.6220  1.2302 -1.8669
 7546SOL     OW34270   3.794   3.883   2.033 -0.8297  0.0195  0.1227
 7546SOL    HW134271   3.838   3.964   2.056 -0.8361 -0.1411  0.6982
 7546SOL    HW234272   3.820   3.828   2.106 -2.1137  0.2991  0.7912
 7547SOL     OW34273   2.547   1.241   8.069  0.1310  0.1199  0.4452
 7547SOL    HW134274   2.574   1.274   7.983  0.3363  1.4732  1.0253
 7547SOL    HW234275   2.579   1.308   8.129 -1.0322  0.2404  0.9244
 7548SOL     OW34276   1.459   2.654   8.882  0.1155  0.5142 -0.0217
 7548SOL    HW134277   1.417   2.608   8.810 -0.1449  0.8866 -0.1057
 7548SOL    HW234278   1.463   2.741   8.842  0.0795 -0.0858 -1.3257
 7549SOL     OW34279   4.014   4.446  10.368 -0.5377  0.2220  0.4352
 7549SOL    HW134280   4.013   4.517  10.304 -0.2331 -0.0416  0.1373
 7549SOL    HW234281   4.087   4.476  10.422 -1.9267  1.0788  1.8395
 7550SOL     OW34282   0.265   2.257   1.594 -0.9171 -0.4656  0.0759
 7550SOL    HW134283   0.304   2.328   1.543 -2.3514 -0.9253 -1.6496
 7550SOL    HW234284   0.321   2.182   1.577 -1.2716 -1.1760  2.0058
 7551SOL     OW34285   0.807   2.647   5.317 -0.5696  0.3686  0.0467
 7551SOL    HW134286   0.808   2.695   5.235 -1.5698 -0.7748 -0.6395
 7551SOL    HW234287   0.760   2.711   5.369  1.8027  2.4685 -0.4042
 7552SOL     OW34288   0.190   2.656  15.997  0.1081  0.1345 -0.6059
 7552SOL    HW134289   0.251   2.609  16.054 -0.6947 -1.9408 -1.4507
 7552SOL    HW234290   0.130   2.689  16.063 -0.5030 -0.4152 -0.8924
 7553SOL     OW34291   3.238   4.228   1.898 -0.7339 -0.1784  0.1214
 7553SOL    HW134292   3.272   4.156   1.952 -2.5754 -1.0186  0.1337
 7553SOL    HW234293   3.191   4.182   1.829 -1.5654  0.7227  0.0880
 7554SOL     OW34294   1.985   3.265  11.055  0.2796  0.7196  0.9616
 7554SOL    HW134295   2.009   3.188  11.004 -1.8816  1.4080 -1.0690
 7554SOL    HW234296   2.066   3.295  11.097  1.4077 -1.0240  0.0689
 7555SOL     OW34297   2.186   0.638   3.302 -0.1173  0.2956 -0.4656
 7555SOL    HW134298   2.190   0.729   3.272 -0.3436  0.7622  0.9014
 7555SOL    HW234299   2.266   0.603   3.264 -0.0361  0.7116 -0.6811
 7556SOL     OW34300   4.091   0.595  11.783 -0.4274  0.0552  0.0759
 7556SOL    HW134301   3.996   0.608  11.784  0.1342  4.5724 -1.9465
 7556SOL    HW234302   4.115   0.630  11.869 -3.3563  3.2524 -0.4020
 7557SOL     OW34303   1.215   3.337   7.226  0.4960  0.7098  0.4688
 7557SOL    HW134304   1.183   3.251   7.252 -2.2529  0.4905 -3.6350
 7557SOL    HW234305   1.307   3.341   7.254  0.9933 -0.6137 -0.9804
 7558SOL     OW34306   2.877   2.348   8.734  0.2219  0.4080  0.1119
 7558SOL    HW134307   2.917   2.262   8.745  1.6017  0.8131 -1.6582
 7558SOL    HW234308   2.805   2.344   8.797  0.1513  0.1402  0.0146
 7559SOL     OW34309   0.236   0.505   6.555 -0.6215 -0.2668 -0.8034
 7559SOL    HW134310   0.284   0.587   6.565 -0.3860 -0.7636  2.2573
 7559SOL    HW234311   0.301   0.451   6.601 -0.6640  0.0099 -0.4250
 7560SOL     OW34312   1.802   0.079   3.227 -0.2071 -0.5017  0.2288
 7560SOL    HW134313   1.750   0.063   3.148 -0.4833  1.8870 -0.0833
 7560SOL    HW234314   1.767   0.166   3.246  1.2200 -0.6818  3.5988
 7561SOL     OW34315   2.952   2.323  15.386  0.5156 -0.7704  0.2840
 7561SOL    HW134316   3.017   2.296  15.320 -0.2631 -1.0885 -0.3538
 7561SOL    HW234317   3.002   2.392  15.429  0.3392  0.3530 -1.3320
 7562SOL     OW34318   2.135   2.631   8.503 -0.2628 -0.1756  0.1104
 7562SOL    HW134319   2.197   2.696   8.471  0.9848 -1.5519 -0.2602
 7562SOL    HW234320   2.111   2.592   8.419  1.9495 -0.1728 -0.5139
 7563SOL     OW34321   2.637   3.199   5.614  0.9351  0.0606 -0.4124
 7563SOL    HW134322   2.627   3.124   5.672  1.7977 -0.1448 -0.5338
 7563SOL    HW234323   2.547   3.226   5.595  0.3484 -2.0943 -0.7273
 7564SOL     OW34324   0.726   4.608   8.923 -0.0356 -0.2599 -0.4052
 7564SOL    HW134325   0.644   4.587   8.968 -0.6887 -0.7623 -1.8329
 7564SOL    HW234326   0.778   4.536   8.959  1.2211 -0.6927 -3.1171
 7565SOL     OW34327   3.349   4.344   0.512  0.3297  0.1054  0.0708
 7565SOL    HW134328   3.391   4.304   0.436 -0.3650 -0.5732  0.0398
 7565SOL    HW234329   3.297   4.266   0.533 -0.6481  0.9204  0.7058
 7566SOL     OW34330   0.204   0.043   5.864  0.4824  0.4205  0.3744
 7566SOL    HW134331   0.292   0.060   5.833  0.3311  2.2755  0.9588
 7566SOL    HW234332   0.153   0.116   5.829  2.7708  1.2269 -1.2702
 7567SOL     OW34333   1.509   0.542   5.250  0.3006  0.3370 -0.7428
 7567SOL    HW134334   1.474   0.459   5.216  0.2383 -0.3896  1.0678
 7567SOL    HW234335   1.588   0.530   5.198  1.1826  1.1281  0.4387
 7568SOL     OW34336   1.003   4.365   4.361  0.7876 -0.1201 -0.2798
 7568SOL    HW134337   1.000   4.338   4.453  1.5189  1.7200  0.2983
 7568SOL    HW234338   1.096   4.384   4.355  1.1633 -2.6120 -2.0735
 7569SOL     OW34339   2.267   1.625   4.776 -0.1964  0.4751 -0.0098
 7569SOL    HW134340   2.279   1.548   4.721  0.3506  0.9255 -0.5124
 7569SOL    HW234341   2.283   1.701   4.721 -0.7292 -0.5825 -1.6470
 7570SOL     OW34342   4.185   4.376   1.098  0.6216 -0.1604 -0.0532
 7570SOL    HW134343   4.194   4.457   1.049 -0.4659  0.0155  0.0295
 7570SOL    HW234344   4.100   4.390   1.141  1.3166 -2.9756  2.2503
 7571SOL     OW34345   1.909   3.257  13.020  0.7687  0.0549  0.1160
 7571SOL    HW134346   1.915   3.223  12.930 -3.2958 -3.5697  1.1902
 7571SOL    HW234347   1.873   3.178  13.061  2.8253  0.0064  1.7978
 7572SOL     OW34348   0.562   2.313   3.614  0.0402  0.1679  0.3778
 7572SOL    HW134349   0.483   2.333   3.664 -0.7895 -0.1785 -0.7954
 7572SOL    HW234350   0.517   2.281   3.536 -1.2625 -0.9686  1.5936
 7573SOL     OW34351   4.260   0.090   5.060 -0.3177 -0.4594 -0.2164
 7573SOL    HW134352   4.274   0.176   5.099  1.4917 -0.5845 -0.5911
 7573SOL    HW234353   4.166   0.069   5.060 -0.7492  1.4510  2.7467
 7574SOL     OW34354   0.072   4.604   5.134 -0.1733  0.2722 -0.2036
 7574SOL    HW134355   0.007   4.538   5.112  0.6586 -1.1028  1.4720
 7574SOL    HW234356   0.112   4.568   5.213 -1.1590  2.1502  1.1418
 7575SOL     OW34357   0.298   1.392   3.647 -0.6878 -0.1507  0.7627
 7575SOL    HW134358   0.277   1.299   3.653 -2.8608  0.2866  0.0041
 7575SOL    HW234359   0.358   1.383   3.722 -0.8931 -1.7855  0.7445
 7576SOL     OW34360   1.344   2.186  13.011 -0.1900 -0.4305  0.4024
 7576SOL    HW134361   1.424   2.238  13.012  0.1522 -0.9436 -0.4234
 7576SOL    HW234362   1.344   2.141  12.927  0.0090 -0.4870  0.4311
 7577SOL     OW34363   3.481   1.495   5.712  0.1399  0.3483 -0.1242
 7577SOL    HW134364   3.475   1.568   5.773  1.6318  0.5777 -0.2637
 7577SOL    HW234365   3.388   1.475   5.725  0.0166  0.7371 -0.4228
 7578SOL     OW34366   1.770   1.569   2.984  0.2582 -0.3240 -0.4581
 7578SOL    HW134367   1.803   1.560   3.074  0.5218  2.8617 -0.2448
 7578SOL    HW234368   1.676   1.566   2.998  0.5946 -0.2003  1.8680
 7579SOL     OW34369   2.803   2.905  11.633  0.1826 -0.6438 -0.1186
 7579SOL    HW134370   2.872   2.844  11.607  0.1158 -1.0066  0.5525
 7579SOL    HW234371   2.792   2.895  11.727 -2.7204  0.0276 -0.3977
 7580SOL     OW34372   1.945   4.160   9.015  0.2885 -0.3049  0.2589
 7580SOL    HW134373   1.936   4.072   9.053 -1.9963  0.9512  2.5715
 7580SOL    HW234374   2.040   4.169   9.016  0.5007 -2.1559 -2.3765
 7581SOL     OW34375   4.011   1.722   1.622 -0.0100  0.2631  0.7177
 7581SOL    HW134376   3.923   1.690   1.643 -0.0042  1.7122  2.9737
 7581SOL    HW234377   4.013   1.692   1.532 -1.6022  0.2420  0.6868
 7582SOL     OW34378   4.541   1.765   6.499  0.4859 -0.0571  0.2030
 7582SOL    HW134379   4.533   1.851   6.457 -0.0281  0.0809  0.5870
 7582SOL    HW234380   4.460   1.754   6.548  0.9477  0.1609  1.0074
 7583SOL     OW34381   0.478   2.201  10.336  0.3784  0.0884  0.3458
 7583SOL    HW134382   0.545   2.224  10.400 -0.5285 -1.4365  1.8525
 7583SOL    HW234383   0.520   2.244  10.261  0.9133  0.4111  0.8297
 7584SOL     OW34384   2.818   2.126   5.312  0.7561  0.2181 -0.0756
 7584SOL    HW134385   2.739   2.179   5.302 -0.6340 -2.0163 -0.8979
 7584SOL    HW234386   2.825   2.121   5.407  0.5822  0.3861 -0.0523
 7585SOL     OW34387   2.736   2.642   4.983  0.4384  0.3377  0.1220
 7585SOL    HW134388   2.742   2.728   5.025  3.0627  0.0510  0.3239
 7585SOL    HW234389   2.664   2.612   5.038  0.7410 -2.9460 -1.2749
 7586SOL     OW34390   3.518   1.637   3.531 -0.2160  0.7519  0.2778
 7586SOL    HW134391   3.510   1.543   3.516  0.2228  0.5630  1.2232
 7586SOL    HW234392   3.583   1.666   3.467  0.9004 -2.1517  0.0945
 7587SOL     OW34393   4.714   2.959   1.509 -0.0825  0.5802 -0.0706
 7587SOL    HW134394   4.680   3.020   1.444  0.2700  1.9113  0.9874
 7587SOL    HW234395   0.069   2.993   1.520 -0.1984 -0.0575  2.9221
 7588SOL     OW34396   1.276   1.292   7.809  0.0225  0.2913  0.7976
 7588SOL    HW134397   1.309   1.274   7.897  0.7497 -1.7100  0.1163
 7588SOL    HW234398   1.195   1.337   7.832 -0.8360 -1.7546  1.7825
 7589SOL     OW34399   0.419   2.035   8.662 -0.3226  0.2171 -0.0254
 7589SOL    HW134400   0.406   2.122   8.701  1.4105  0.4488  0.0165
 7589SOL    HW234401   0.390   2.047   8.571  3.0478 -0.2797 -1.1707
 7590SOL     OW34402   0.978   3.703   2.433  0.0114 -0.2472  0.0248
 7590SOL    HW134403   0.968   3.617   2.392  0.2018  0.6013 -1.7671
 7590SOL    HW234404   0.918   3.691   2.507 -0.9201 -0.3763 -0.7672
 7591SOL     OW34405   1.645   0.219   9.020 -0.3602  0.3361 -1.0138
 7591SOL    HW134406   1.580   0.167   8.973 -1.5618 -0.6813  1.7980
 7591SOL    HW234407   1.714   0.228   8.953  1.3420 -0.9930  0.5658
 7592SOL     OW34408   1.904   3.640  16.704  0.2310  0.0860  0.4897
 7592SOL    HW134409   1.970   3.690  16.657  0.1012 -0.5133 -0.3162
 7592SOL    HW234410   1.939   3.552  16.697  0.8567  0.4455 -0.8773
 7593SOL     OW34411   2.688   2.121  15.126  0.0145 -0.0057  0.8979
 7593SOL    HW134412   2.686   2.215  15.141 -0.0650  0.1781 -0.2298
 7593SOL    HW234413   2.756   2.106  15.061 -0.4047 -0.2063  0.4984
 7594SOL     OW34414   1.761   2.962   8.294 -0.0401  0.4582  0.2086
 7594SOL    HW134415   1.829   2.946   8.229 -0.5242  2.2830 -0.7424
 7594SOL    HW234416   1.732   2.873   8.315  0.4471 -0.1254 -1.6257
 7595SOL     OW34417   2.927   2.812   7.516  0.0201  0.0108 -0.3099
 7595SOL    HW134418   2.855   2.795   7.577  2.1985  1.2723  2.6043
 7595SOL    HW234419   2.913   2.897   7.474 -1.4271  0.0750  0.3120
 7596SOL     OW34420   0.993   0.317   6.308  0.1654 -0.3837  1.1195
 7596SOL    HW134421   1.080   0.353   6.289  0.5316 -2.0534 -0.3474
 7596SOL    HW234422   0.980   0.339   6.400 -1.7166  2.1570  0.2678
 7597SOL     OW34423   2.212   2.944  16.990 -0.6561  0.0501 -0.6548
 7597SOL    HW134424   2.170   2.959  17.075 -0.4402 -1.4537 -0.2804
 7597SOL    HW234425   2.281   3.010  16.995 -0.8071  0.1534  0.0986
 7598SOL     OW34426   0.149   2.186   5.947 -0.2066  0.3070  0.2699
 7598SOL    HW134427   0.124   2.189   6.040  1.1999  1.9196  0.5881
 7598SOL    HW234428   0.206   2.263   5.939  1.9781 -1.3560 -0.1091
 7599SOL     OW34429   4.340   3.916  14.609  0.1102 -0.0581  0.1793
 7599SOL    HW134430   4.272   3.880  14.665  0.3577 -1.0770 -0.1628
 7599SOL    HW234431   4.417   3.912  14.665  0.4501 -1.6696 -0.3984
 7600SOL     OW34432   2.600   3.017   6.895  0.4012 -0.1689  0.3023
 7600SOL    HW134433   2.527   3.077   6.878 -1.0625 -1.2019  2.9674
 7600SOL    HW234434   2.667   3.075   6.933  0.7518 -0.3656 -0.0153
 7601SOL     OW34435   1.456   2.864   5.817  0.4885  0.5004 -0.1350
 7601SOL    HW134436   1.374   2.913   5.825  2.2630  2.9286  3.3882
 7601SOL    HW234437   1.501   2.880   5.900 -2.2456  1.0818  1.2353
 7602SOL     OW34438   2.243   3.167   1.081 -0.2553 -0.3512 -0.3939
 7602SOL    HW134439   2.208   3.128   1.161 -1.7335  0.8873 -0.4314
 7602SOL    HW234440   2.246   3.256   1.117  0.4175 -1.1542  1.5550
 7603SOL     OW34441   0.078   0.895  15.524 -0.1392  0.2600  0.1963
 7603SOL    HW134442   0.103   0.924  15.436  1.0053  3.1603  1.4691
 7603SOL    HW234443   0.126   0.812  15.524 -1.6036 -0.5892 -0.4880
 7604SOL     OW34444   1.955   3.758  13.876 -0.3082  0.2684 -0.0751
 7604SOL    HW134445   1.987   3.704  13.948  0.2087  0.9917  0.2446
 7604SOL    HW234446   1.860   3.756  13.892 -0.2878 -0.6809 -0.0821
 7605SOL     OW34447   3.047   4.425   1.030 -0.0937 -0.1886 -0.3991
 7605SOL    HW134448   3.125   4.418   0.975 -0.2135 -0.9632 -0.4646
 7605SOL    HW234449   3.079   4.476   1.105 -0.4673 -1.3607  0.5682
 7606SOL     OW34450   2.189   2.965  13.046 -0.0687 -0.7557 -0.1790
 7606SOL    HW134451   2.249   2.902  13.087 -1.1516 -2.1304 -0.7077
 7606SOL    HW234452   2.246   2.998  12.977  2.1198 -1.7230  1.1577
 7607SOL     OW34453   3.236   3.233   7.790 -0.4285 -0.2251 -0.6747
 7607SOL    HW134454   3.275   3.304   7.739 -1.2994 -0.0606 -1.1189
 7607SOL    HW234455   3.268   3.155   7.746  0.8958 -0.5936  0.9562
 7608SOL     OW34456   1.070   2.886   3.222 -0.4911 -0.1123 -0.1613
 7608SOL    HW134457   1.042   2.967   3.263 -3.4259 -0.8088 -0.8132
 7608SOL    HW234458   1.107   2.849   3.302 -1.7694  0.8090  0.8426
 7609SOL     OW34459   2.916   0.331  13.275 -0.3055 -0.5040 -0.4734
 7609SOL    HW134460   2.843   0.275  13.301  0.2112 -1.6271 -1.4635
 7609SOL    HW234461   2.913   0.378  13.359 -0.6754 -1.9842  0.3365
 7610SOL     OW34462   1.511   2.442   3.822  0.3378  0.5833  0.1130
 7610SOL    HW134463   1.499   2.352   3.792 -2.2047  1.4296 -1.3579
 7610SOL    HW234464   1.598   2.443   3.862 -1.1166 -1.8451  3.3347
 7611SOL     OW34465   2.158   2.421  14.024  0.8696 -0.3841 -0.2622
 7611SOL    HW134466   2.093   2.351  14.033 -0.0502  0.5337  0.2817
 7611SOL    HW234467   2.173   2.436  13.931  0.0732 -0.3309 -0.3841
 7612SOL     OW34468   4.276   1.869   5.432  0.3869 -0.1369  0.1992
 7612SOL    HW134469   4.182   1.882   5.420  0.5916  0.8917 -0.2950
 7612SOL    HW234470   4.276   1.796   5.370  2.3993 -0.3510  0.4532
 7613SOL     OW34471   2.276   2.136  10.439 -0.4902  0.3142  0.0547
 7613SOL    HW134472   2.261   2.117  10.532 -0.1609 -4.0791 -0.8131
 7613SOL    HW234473   2.217   2.068  10.405  0.3694 -0.9206  1.0213
 7614SOL     OW34474   2.429   2.901   5.963 -0.1834  0.2091 -0.0896
 7614SOL    HW134475   2.406   2.934   6.050  3.0217  1.0636  0.4382
 7614SOL    HW234476   2.345   2.868   5.932 -0.5854  1.9906 -0.8596
 7615SOL     OW34477   4.304   3.281   4.399 -1.0006  0.2580  0.0093
 7615SOL    HW134478   4.338   3.300   4.487 -1.8116 -1.3653  0.6680
 7615SOL    HW234479   4.383   3.311   4.353 -0.2961  1.2351  1.8279
 7616SOL     OW34480   2.016   1.628   2.855 -0.2126  0.1612 -0.2132
 7616SOL    HW134481   2.024   1.723   2.859  0.3630  0.0785  0.5032
 7616SOL    HW234482   1.931   1.616   2.896 -0.5269  1.0773 -0.5974
 7617SOL     OW34483   3.304   1.141   3.190 -0.2603  0.8483 -0.7618
 7617SOL    HW134484   3.229   1.085   3.168  1.4489 -1.5575 -0.5304
 7617SOL    HW234485   3.284   1.147   3.284 -0.7322  2.3812 -0.9722
 7618SOL     OW34486   2.422   0.301   0.353 -0.2124  0.0154 -0.3285
 7618SOL    HW134487   2.335   0.339   0.339 -0.1559 -0.4852 -2.1015
 7618SOL    HW234488   2.413   0.252   0.434  0.4052 -1.3355 -1.0711
 7619SOL     OW34489   2.261   2.699   8.145  0.3460 -0.0582 -0.0478
 7619SOL    HW134490   2.260   2.683   8.050  2.5444  0.5099 -0.1522
 7619SOL    HW234491   2.343   2.660   8.176 -0.8542 -0.7390  2.2783
 7620SOL     OW34492   1.303   1.597   7.323 -0.0161  0.4532  0.2566
 7620SOL    HW134493   1.290   1.627   7.233  1.7661  0.5185  0.0258
 7620SOL    HW234494   1.223   1.632   7.362  0.2187  3.0368 -1.5947
 7621SOL     OW34495   2.119   3.514   8.358  0.0487  0.2792  0.2676
 7621SOL    HW134496   2.061   3.483   8.289  0.0751  0.8965 -0.0260
 7621SOL    HW234497   2.055   3.519   8.429 -1.2955  0.1869 -0.9349
 7622SOL     OW34498   2.785   1.866   4.239  0.4467 -0.4149 -0.6954
 7622SOL    HW134499   2.862   1.867   4.183  1.8213 -0.8503  1.1686
 7622SOL    HW234500   2.714   1.879   4.177 -0.5908  1.8674  0.9438
 7623SOL     OW34501   3.565   4.236   6.530 -0.3640 -0.1356  0.0410
 7623SOL    HW134502   3.651   4.213   6.564  0.3900  1.4988 -0.7631
 7623SOL    HW234503   3.543   4.150   6.493 -0.2525  0.7766 -2.1514
 7624SOL     OW34504   3.006   2.215   3.610 -0.0708  0.2015 -0.2449
 7624SOL    HW134505   3.094   2.181   3.622 -0.4537 -0.8790 -0.5560
 7624SOL    HW234506   3.023   2.261   3.528 -1.8868 -0.7660 -1.1550
 7625SOL     OW34507   1.326   0.510   7.834  0.2448 -0.3091 -0.1189
 7625SOL    HW134508   1.257   0.542   7.892  0.0673 -1.6008  0.3904
 7625SOL    HW234509   1.280   0.473   7.759 -1.3863  2.0667 -0.2683
 7626SOL     OW34510   0.488   3.818   6.684 -0.2339 -0.0207  0.8962
 7626SOL    HW134511   0.540   3.859   6.615 -1.6598  1.9604  1.0013
 7626SOL    HW234512   0.472   3.896   6.737 -0.6755  0.1199  0.5523
 7627SOL     OW34513   2.825   1.186   8.697  0.2405 -0.4746  0.4499
 7627SOL    HW134514   2.768   1.196   8.773  0.6805 -0.1135  0.7367
 7627SOL    HW234515   2.770   1.237   8.638 -0.4552 -2.2439 -0.4109
 7628SOL     OW34516   1.981   3.540   8.579 -0.8542 -0.0328  0.0381
 7628SOL    HW134517   2.052   3.494   8.622 -1.7847 -0.5641  1.0077
 7628SOL    HW234518   2.000   3.629   8.607 -2.8467  0.4063  0.0099
 7629SOL     OW34519   3.597   1.934   4.962 -0.3571  0.2799  0.3913
 7629SOL    HW134520   3.566   1.935   5.052  0.0605  2.4643  0.5041
 7629SOL    HW234521   3.691   1.952   4.960  0.1306 -2.0755  2.4509
 7630SOL     OW34522   3.853   0.394   3.582 -0.4368  0.8822 -0.2471
 7630SOL    HW134523   3.796   0.442   3.641 -0.4091 -0.7409  1.0873
 7630SOL    HW234524   3.928   0.383   3.639 -0.2184  0.5662 -0.5893
 7631SOL     OW34525   3.509   0.172   8.612  0.2056 -0.1176 -0.0006
 7631SOL    HW134526   3.487   0.081   8.632 -1.1468  0.0601 -0.7163
 7631SOL    HW234527   3.605   0.166   8.611  0.2185  0.1524 -0.2214
 7632SOL     OW34528   3.480   3.979   8.001  0.0269  0.4865 -0.3298
 7632SOL    HW134529   3.522   3.935   8.075 -1.3636  0.4407  0.4387
 7632SOL    HW234530   3.478   4.067   8.037  1.1343 -0.1602  1.2940
 7633SOL     OW34531   0.063   0.059   7.365  0.2535  0.3873  0.1011
 7633SOL    HW134532   0.116   4.732   7.315 -0.6261 -0.8828  0.7112
 7633SOL    HW234533   0.002   4.729   7.403  0.3122  1.6130  2.2683
 7634SOL     OW34534   0.589   1.312  16.975 -0.2670  0.5905  0.2648
 7634SOL    HW134535   0.547   1.353  17.051 -0.0257 -2.5613  2.1093
 7634SOL    HW234536   0.519   1.266  16.928  0.0299  1.9629 -1.5170
 7635SOL     OW34537   1.240   3.392   8.078  0.3628 -0.5512  0.4727
 7635SOL    HW134538   1.313   3.453   8.068  0.3823 -0.7977 -0.8339
 7635SOL    HW234539   1.231   3.390   8.174  1.1179 -0.8004  0.5436
 7636SOL     OW34540   1.236   4.010  11.766  0.3148 -0.1849 -0.1404
 7636SOL    HW134541   1.253   3.917  11.778 -1.0893 -0.3685  0.4141
 7636SOL    HW234542   1.260   4.053  11.848 -2.2774  0.7555  0.1284
 7637SOL     OW34543   1.563   1.615   3.594  0.2967  0.0072  0.0521
 7637SOL    HW134544   1.601   1.528   3.587  0.8197  0.1947  0.5564
 7637SOL    HW234545   1.632   1.672   3.560  1.7434 -0.6260  1.8862
 7638SOL     OW34546   4.353   0.397   5.855 -0.5963 -0.5572 -0.1848
 7638SOL    HW134547   4.354   0.482   5.810  1.4761 -1.2398 -1.4073
 7638SOL    HW234548   4.276   0.408   5.910  1.0361  0.6060  1.8558
 7639SOL     OW34549   3.469   0.156  12.124 -0.2099  0.1476 -0.2208
 7639SOL    HW134550   3.501   0.131  12.210  0.1654  0.3973 -0.2873
 7639SOL    HW234551   3.374   0.171  12.128 -0.1223  0.3709  0.9090
 7640SOL     OW34552   2.709   1.790   8.636  0.2173  0.4331  0.0245
 7640SOL    HW134553   2.618   1.818   8.646 -0.1696 -1.5848  2.2871
 7640SOL    HW234554   2.715   1.804   8.541  2.4197  1.4755  0.3271
 7641SOL     OW34555   4.387   1.424   8.182  0.0723  0.0743 -0.3724
 7641SOL    HW134556   4.354   1.471   8.258 -0.0201 -1.2202  0.3890
 7641SOL    HW234557   4.340   1.463   8.108  0.1494  4.9680  2.2112
 7642SOL     OW34558   3.296   3.468   4.986 -0.1225 -0.0077  0.4010
 7642SOL    HW134559   3.297   3.427   5.072 -3.1285  1.0018  0.9223
 7642SOL    HW234560   3.331   3.550   5.021  1.2276 -1.2760  2.0455
 7643SOL     OW34561   2.621   2.084   3.160  0.3100 -0.3463  0.5127
 7643SOL    HW134562   2.690   2.148   3.174 -1.0316  0.9622  1.1914
 7643SOL    HW234563   2.644   2.053   3.072 -0.3821  0.5393  0.0211
 7644SOL     OW34564   0.391   3.097   6.538  0.1321  0.2385  0.3130
 7644SOL    HW134565   0.401   3.010   6.576 -3.1750 -0.0384  0.4693
 7644SOL    HW234566   0.297   3.112   6.545  0.0774  0.8850 -1.6450
 7645SOL     OW34567   4.421   1.003   7.282  0.4949  0.5075  0.1963
 7645SOL    HW134568   4.406   0.936   7.349  1.6700 -0.1219 -0.1734
 7645SOL    HW234569   4.328   1.027   7.280  0.6772  1.2068  0.0789
 7646SOL     OW34570   3.546   4.231   1.249  0.2510  0.1507  0.5785
 7646SOL    HW134571   3.509   4.248   1.336 -0.2774  0.5797  0.2740
 7646SOL    HW234572   3.568   4.316   1.210 -0.3644  0.4529  0.8751
 7647SOL     OW34573   2.566   4.602  11.146  0.3611  0.3652 -0.2901
 7647SOL    HW134574   2.506   4.676  11.158 -0.2523 -0.4942  1.9522
 7647SOL    HW234575   2.594   4.591  11.237  1.4344  0.4828 -0.6122
 7648SOL     OW34576   2.541   1.749   3.614  0.0841 -0.1014  0.3599
 7648SOL    HW134577   2.591   1.667   3.612  1.2044  0.6090 -1.3779
 7648SOL    HW234578   2.489   1.737   3.693 -0.0756  0.0651  0.2797
 7649SOL     OW34579   0.213   0.778   4.716  0.1878 -0.5950 -0.0309
 7649SOL    HW134580   0.305   0.787   4.740  0.1628 -0.8750  0.1701
 7649SOL    HW234581   0.208   0.683   4.703  1.2386 -0.4690 -1.3166
 7650SOL     OW34582   3.271   0.925   1.040 -0.1596  0.4043 -0.0246
 7650SOL    HW134583   3.277   0.963   0.952 -1.4253 -0.0109 -0.2872
 7650SOL    HW234584   3.294   0.834   1.022  0.3567  0.7761 -1.2702
 7651SOL     OW34585   1.247   2.473   6.085  0.2633  0.3078  0.0858
 7651SOL    HW134586   1.321   2.533   6.091 -0.6439  1.1219  2.9445
 7651SOL    HW234587   1.177   2.520   6.130  0.4014  0.9533 -0.3867
 7652SOL     OW34588   3.477   4.041   6.837 -0.1906  0.3555  0.3730
 7652SOL    HW134589   3.554   3.999   6.800  0.4692  0.9143  1.1198
 7652SOL    HW234590   3.423   3.965   6.857  0.9589 -0.2133  1.2706
 7653SOL     OW34591   3.817   1.476   1.420 -1.2029 -0.0904 -0.3569
 7653SOL    HW134592   3.827   1.385   1.449 -2.5907  0.2697  1.2544
 7653SOL    HW234593   3.762   1.518   1.486 -0.8991 -0.3394  0.0539
 7654SOL     OW34594   2.264   2.552   4.755 -0.0461  0.3404  0.1327
 7654SOL    HW134595   2.186   2.554   4.811 -0.2700  1.5777 -0.2234
 7654SOL    HW234596   2.266   2.460   4.731  0.2146  0.9992 -2.3157
 7655SOL     OW34597   0.163   2.495   2.040  0.0863  0.0730  0.2518
 7655SOL    HW134598   0.107   2.553   2.091  2.0349  0.4187  1.9902
 7655SOL    HW234599   0.149   2.537   1.955  2.5831 -1.3898 -0.9093
 7656SOL     OW34600   3.060   0.869   1.442 -0.6407  0.0391  0.3170
 7656SOL    HW134601   2.984   0.812   1.444 -0.3639 -0.4229 -2.3744
 7656SOL    HW234602   3.133   0.807   1.450 -1.3367 -0.9507 -1.0900
 7657SOL     OW34603   4.211   3.809   6.269  0.3403 -0.1947 -0.3185
 7657SOL    HW134604   4.289   3.759   6.243  0.0300 -0.6857 -0.3154
 7657SOL    HW234605   4.183   3.850   6.187 -1.5616 -1.4833 -0.3285
 7658SOL     OW34606   3.360   2.642   2.474  0.1294 -0.0548  0.0567
 7658SOL    HW134607   3.268   2.617   2.476  0.0376  0.2562 -0.2935
 7658SOL    HW234608   3.377   2.634   2.380 -1.0602  3.2826 -0.4326
 7659SOL     OW34609   1.912   0.388  17.524  0.1377  0.0477 -0.5637
 7659SOL    HW134610   1.868   0.329  17.463 -0.6530 -0.3048  0.3457
 7659SOL    HW234611   1.837   0.423  17.573  1.3746  0.0199  1.3710
 7660SOL     OW34612   1.502   1.088  16.427 -0.4469  0.3877 -0.0557
 7660SOL    HW134613   1.592   1.117  16.418  0.3082 -1.9535 -0.0475
 7660SOL    HW234614   1.504   1.020  16.359  0.5419  0.5721 -0.2117
 7661SOL     OW34615   0.691   3.306   7.401 -0.3594  0.4573  0.6345
 7661SOL    HW134616   0.657   3.305   7.491  0.3232 -1.0766  0.8735
 7661SOL    HW234617   0.782   3.328   7.419  0.2063 -0.8685 -0.6382
 7662SOL     OW34618   4.676   0.122  12.898 -0.4061  0.1757  0.0729
 7662SOL    HW134619   4.725   0.104  12.978 -0.1898  0.2650 -0.0427
 7662SOL    HW234620   4.628   0.199  12.928 -1.6289  1.0164 -4.1645
 7663SOL     OW34621   2.029   2.545   9.840 -0.5662  0.0252 -0.2052
 7663SOL    HW134622   2.102   2.579   9.788 -1.2462  0.2263 -1.0362
 7663SOL    HW234623   2.078   2.521   9.918 -1.5521 -0.5398  0.2359
 7664SOL     OW34624   0.915   0.383  11.443 -0.2949 -0.1589  0.2235
 7664SOL    HW134625   0.877   0.425  11.366 -1.3698 -0.1370  0.7725
 7664SOL    HW234626   0.840   0.327  11.462 -0.6898  0.2495 -0.1459
 7665SOL     OW34627   1.555   3.297   4.490 -0.3407  0.7535 -0.0761
 7665SOL    HW134628   1.624   3.350   4.530  1.1361 -1.5394  0.3727
 7665SOL    HW234629   1.592   3.265   4.408  0.3521  0.0614  0.5132
 7666SOL     OW34630   3.579   0.811  15.532  0.0785 -0.5179  0.0003
 7666SOL    HW134631   3.645   0.765  15.584 -0.3563 -2.5386 -1.2481
 7666SOL    HW234632   3.504   0.754  15.540 -0.6239  0.5322  0.9257
 7667SOL     OW34633   1.105   3.198   4.712  0.0210 -0.2409  0.8446
 7667SOL    HW134634   1.199   3.201   4.693 -0.5081 -0.1881 -1.7337
 7667SOL    HW234635   1.073   3.128   4.656 -0.1416  0.7124 -0.2575
 7668SOL     OW34636   3.959   2.411  15.688 -0.1177 -0.3826 -0.6541
 7668SOL    HW134637   3.985   2.447  15.603 -0.7186  1.6824  0.0330
 7668SOL    HW234638   3.963   2.487  15.746 -0.7581  0.4776 -1.7500
 7669SOL     OW34639   0.836   0.447   7.897  0.2196 -0.4898 -1.0388
 7669SOL    HW134640   0.758   0.465   7.950  1.2488  0.1401  0.2564
 7669SOL    HW234641   0.804   0.368   7.853 -1.6852  0.2056 -0.8790
 7670SOL     OW34642   1.017   2.245  11.457 -0.2800  0.3691 -0.1216
 7670SOL    HW134643   0.944   2.306  11.443 -0.0864  0.7907  0.7081
 7670SOL    HW234644   0.980   2.177  11.401  0.7887 -0.0317 -0.3443
 7671SOL     OW34645   4.408   4.368  11.124  0.0950  0.0622 -0.0228
 7671SOL    HW134646   4.470   4.425  11.170 -0.4993 -0.0235  0.8944
 7671SOL    HW234647   4.363   4.430  11.067 -0.8558  0.9957  1.7362
 7672SOL     OW34648   4.322   0.454  11.786 -0.3452 -0.2592 -0.1207
 7672SOL    HW134649   4.250   0.515  11.768 -0.5439 -0.8769 -1.4684
 7672SOL    HW234650   4.387   0.523  11.793 -0.4810 -0.1352 -0.0787
 7673SOL     OW34651   0.915   0.965   8.501  0.0514 -0.3361 -0.2121
 7673SOL    HW134652   0.921   1.057   8.527  0.4024 -0.4442  0.0875
 7673SOL    HW234653   0.996   0.932   8.540 -1.1106  0.0029  2.5364
 7674SOL     OW34654   2.800   2.636   8.839  0.3101 -0.4854  0.0086
 7674SOL    HW134655   2.728   2.577   8.862 -0.3126 -0.0431 -0.8135
 7674SOL    HW234656   2.753   2.717   8.860 -0.1485 -0.2870 -1.8137
 7675SOL     OW34657   3.323   0.638   9.219  0.8319 -0.7923 -0.3290
 7675SOL    HW134658   3.405   0.627   9.172  0.3270 -2.0547 -0.9123
 7675SOL    HW234659   3.304   0.729   9.198 -2.5898 -1.3764  0.2827
 7676SOL     OW34660   2.699   0.198   9.626  0.3965 -0.3059 -0.5582
 7676SOL    HW134661   2.611   0.232   9.643  0.2992 -0.0278 -1.6174
 7676SOL    HW234662   2.739   0.265   9.571 -1.5793 -1.0693 -2.9688
 7677SOL     OW34663   3.012   0.594   2.307  0.1293  0.3565  0.8347
 7677SOL    HW134664   3.098   0.562   2.335 -0.2875  0.0327  1.7237
 7677SOL    HW234665   2.960   0.586   2.387 -0.2815  2.2050  0.7686
 7678SOL     OW34666   0.146   2.996   2.111  0.6470 -0.3532 -0.3407
 7678SOL    HW134667   0.160   3.066   2.175  0.5080 -1.2635  0.6927
 7678SOL    HW234668   0.233   2.994   2.070  0.6681 -2.0763 -0.2137
 7679SOL     OW34669   0.242   4.688   4.329 -1.2052 -0.0456 -0.2385
 7679SOL    HW134670   0.300   4.683   4.254 -1.7051 -4.8291 -0.3015
 7679SOL    HW234671   0.306   4.671   4.398 -0.3486 -0.0552 -1.0495
 7680SOL     OW34672   2.759   2.028  14.873  0.8829 -1.1498  0.0124
 7680SOL    HW134673   2.718   1.995  14.793  0.9283 -0.8228 -0.1444
 7680SOL    HW234674   2.818   1.958  14.900  0.4036 -2.1697 -1.6135
 7681SOL     OW34675   1.516   2.927   6.308  0.5632 -0.2514 -0.2671
 7681SOL    HW134676   1.474   3.013   6.315  1.2195 -0.0531  1.1998
 7681SOL    HW234677   1.455   2.868   6.354  0.8166 -0.2017  0.1380
 7682SOL     OW34678   4.491   4.377   2.383 -0.0600  0.1895  0.1406
 7682SOL    HW134679   4.487   4.471   2.366  0.1247 -0.1116 -1.5474
 7682SOL    HW234680   4.492   4.379   2.479  0.7044 -0.7564  0.1531
 7683SOL     OW34681   2.981   4.375   8.477 -0.8343 -0.2619  0.1294
 7683SOL    HW134682   3.057   4.368   8.419  0.2814 -0.7086  1.6524
 7683SOL    HW234683   3.002   4.420   8.558 -0.1402 -1.5988  0.6780
 7684SOL     OW34684   1.136   3.227   2.628 -0.3906  0.0441 -0.2669
 7684SOL    HW134685   1.178   3.266   2.552  1.2559  1.1199  1.1946
 7684SOL    HW234686   1.115   3.138   2.598  0.2748 -0.5520  1.0133
 7685SOL     OW34687   4.356   3.547   4.079  0.1772 -0.3072 -0.5842
 7685SOL    HW134688   4.347   3.460   4.041 -0.3285 -1.3112  1.8850
 7685SOL    HW234689   4.390   3.587   3.998 -0.0528 -0.5093 -0.7818
 7686SOL     OW34690   3.814   3.791  10.556  0.1574 -0.2636 -0.0970
 7686SOL    HW134691   3.819   3.834  10.641 -0.2831 -1.7412  0.6656
 7686SOL    HW234692   3.768   3.713  10.585 -0.1137 -0.5116 -1.1829
 7687SOL     OW34693   4.719   0.712   9.451  0.6032 -0.0185 -0.1715
 7687SOL    HW134694   4.682   0.801   9.455 -0.5356 -0.4921 -0.1809
 7687SOL    HW234695   4.639   0.662   9.468 -0.2777  1.4503  0.0963
 7688SOL     OW34696   2.431   0.827   7.324  0.3621  0.4270 -0.3594
 7688SOL    HW134697   2.372   0.770   7.275 -1.5686  0.8164  1.4884
 7688SOL    HW234698   2.508   0.770   7.320  0.0197 -0.0863  0.3976
 7689SOL     OW34699   3.701   1.998   1.499  0.1008  0.2967 -0.2144
 7689SOL    HW134700   3.680   2.086   1.530  2.7609  1.1800 -0.9064
 7689SOL    HW234701   3.764   2.012   1.428  2.1108  0.9482  1.6675
 7690SOL     OW34702   2.903   1.732   3.019 -0.4447 -0.0578  0.2098
 7690SOL    HW134703   2.939   1.646   3.040  1.0110  0.4346 -0.2918
 7690SOL    HW234704   2.896   1.772   3.106  1.8917  0.2562  0.2453
 7691SOL     OW34705   2.073   3.771   7.038  0.0733  0.0501  0.1543
 7691SOL    HW134706   2.014   3.795   6.967  0.6627  0.3101 -0.2418
 7691SOL    HW234707   2.144   3.835   7.041 -0.3213  0.3815  3.2257
 7692SOL     OW34708   1.206   1.903   6.960  0.2522  0.2613 -0.4196
 7692SOL    HW134709   1.174   1.993   6.957 -0.1420  0.1004 -1.1027
 7692SOL    HW234710   1.130   1.850   6.936 -0.6621 -0.4264  4.0580
 7693SOL     OW34711   4.272   4.545  10.986 -0.0782  0.1677  0.1358
 7693SOL    HW134712   4.291   4.591  10.904  0.6179 -1.8033 -0.8141
 7693SOL    HW234713   4.203   4.481  10.970  0.3071 -0.1992 -0.0575
 7694SOL     OW34714   3.138   3.163  17.227 -0.1325  0.1548 -0.1154
 7694SOL    HW134715   3.044   3.180  17.227 -0.3717 -1.1873 -0.0044
 7694SOL    HW234716   3.124   3.074  17.194 -1.9766 -0.1902  1.6108
 7695SOL     OW34717   2.463   1.334   1.940 -0.3751  0.4368 -0.1355
 7695SOL    HW134718   2.403   1.298   1.875 -0.2080 -0.8905  0.4483
 7695SOL    HW234719   2.540   1.276   1.938  0.4111  1.4535  0.4807
 7696SOL     OW34720   1.135   4.707  10.455  0.3320 -0.0896  0.2831
 7696SOL    HW134721   1.051   4.720  10.499 -0.2475  0.6342 -1.0323
 7696SOL    HW234722   1.183   0.051  10.482  1.9281 -1.4161  1.3556
 7697SOL     OW34723   1.349   1.184   0.906  0.7790  0.4187 -0.1722
 7697SOL    HW134724   1.319   1.273   0.926  2.0551  1.2774 -2.0317
 7697SOL    HW234725   1.423   1.188   0.966 -2.3842 -2.8093  3.8506
 7698SOL     OW34726   3.703   2.050   7.904  0.0392  0.3591 -0.0258
 7698SOL    HW134727   3.632   2.092   7.953  1.3452  0.7199  1.5968
 7698SOL    HW234728   3.777   2.089   7.951  0.6306 -0.2320 -0.4631
 7699SOL     OW34729   3.792   4.731   0.680  0.3891 -0.7719 -0.3229
 7699SOL    HW134730   3.870   0.004   0.625 -0.7139  2.0270 -1.4792
 7699SOL    HW234731   3.802   0.081   0.723  0.6428  0.1119 -2.1210
 7700SOL     OW34732   3.858   0.005   8.333 -0.2949  0.0604  0.1448
 7700SOL    HW134733   3.850   0.042   8.421  1.0798  0.9156 -0.0894
 7700SOL    HW234734   3.773   4.705   8.307  0.4533 -2.1303  0.6092
 7701SOL     OW34735   0.017   4.558   4.032 -0.0092  0.1373 -0.2086
 7701SOL    HW134736   0.040   4.611   4.108  0.4066  1.7901 -1.4761
 7701SOL    HW234737   0.097   4.509   4.014  2.0581  2.8741  1.5555
 7702SOL     OW34738   1.772   0.565   8.101 -0.3661 -0.1194  0.6788
 7702SOL    HW134739   1.690   0.543   8.056  0.4412 -1.0232 -0.3397
 7702SOL    HW234740   1.747   0.569   8.194  1.5284 -0.6139  1.2006
 7703SOL     OW34741   2.779   1.426   7.563  0.0252 -0.3185 -0.7170
 7703SOL    HW134742   2.731   1.402   7.484 -0.7648  0.6640 -0.5401
 7703SOL    HW234743   2.807   1.340   7.592  0.2028 -0.1215 -0.2975
 7704SOL     OW34744   4.369   3.374   3.291  0.1316 -0.3957  0.0559
 7704SOL    HW134745   4.437   3.361   3.356  0.6189 -0.3997 -0.4515
 7704SOL    HW234746   4.384   3.292   3.244  2.5535  0.7429 -1.1496
 7705SOL     OW34747   1.086   2.137   6.873 -0.1757  0.5595 -0.7331
 7705SOL    HW134748   1.104   2.206   6.937 -1.4222  1.3575 -1.2403
 7705SOL    HW234749   1.123   2.174   6.793 -1.5514  1.0798 -1.1452
 7706SOL     OW34750   4.096   3.738   9.396 -0.6419  0.2775  0.7664
 7706SOL    HW134751   4.003   3.739   9.419 -0.6093 -2.5503  1.0987
 7706SOL    HW234752   4.143   3.789   9.462 -0.6279 -0.8370  1.6258
 7707SOL     OW34753   0.242   1.070  17.141 -0.5407 -0.3277 -0.1790
 7707SOL    HW134754   0.204   1.092  17.056 -0.7589  0.1365  0.0423
 7707SOL    HW234755   0.243   1.156  17.181 -0.3724  1.0095 -3.0560
 7708SOL     OW34756   3.457   4.319   0.272 -0.0080  0.2400  0.0778
 7708SOL    HW134757   3.399   4.340   0.200  0.9127  0.2514 -0.6628
 7708SOL    HW234758   3.486   4.409   0.283  1.7609 -0.2636 -0.4838
 7709SOL     OW34759   1.203   0.140  15.333 -0.5872  0.0323 -0.5393
 7709SOL    HW134760   1.118   0.165  15.370  0.4746  0.1672  1.7974
 7709SOL    HW234761   1.194   0.047  15.310  1.2936 -0.5539  1.1348
 7710SOL     OW34762   1.662   2.152   3.382 -0.5103 -0.1105  0.0054
 7710SOL    HW134763   1.572   2.119   3.386  0.4372 -2.4570  2.0402
 7710SOL    HW234764   1.659   2.200   3.299 -1.1946 -1.9492 -1.0507
 7711SOL     OW34765   3.023   1.881   5.716 -0.3236  0.1234 -0.2279
 7711SOL    HW134766   3.119   1.870   5.719 -0.4456 -0.9152 -0.1604
 7711SOL    HW234767   3.015   1.868   5.810  1.4611 -0.7023 -0.1916
 7712SOL     OW34768   0.820   1.292   9.895  0.1344 -0.9611  0.5881
 7712SOL    HW134769   0.903   1.322   9.931  0.8679 -1.3469 -0.7873
 7712SOL    HW234770   0.823   1.199   9.916  0.6659 -0.5871  2.1594
 7713SOL     OW34771   3.273   0.954   5.728  0.4294  0.3919 -0.3047
 7713SOL    HW134772   3.285   1.025   5.792  1.8319 -1.9731  2.0878
 7713SOL    HW234773   3.185   0.929   5.754 -0.1833  1.0545 -1.7906
 7714SOL     OW34774   4.648   2.317   3.168  0.5579 -0.0473  0.3839
 7714SOL    HW134775   0.003   2.285   3.164  0.0368 -1.4807  0.3910
 7714SOL    HW234776   4.667   2.400   3.124 -2.2262  0.4753  0.1353
 7715SOL     OW34777   2.976   0.930   7.697 -0.1860  0.1131 -0.3916
 7715SOL    HW134778   3.010   0.942   7.786  2.8116 -0.4738 -1.4775
 7715SOL    HW234779   3.058   0.909   7.652 -0.0298  1.4703 -0.7287
 7716SOL     OW34780   0.105   2.448  15.535 -0.3227  0.2915 -0.0736
 7716SOL    HW134781   0.168   2.381  15.509  0.3714 -0.1487  2.8030
 7716SOL    HW234782   0.150   2.481  15.613 -1.6364  2.8968 -0.4150
 7717SOL     OW34783   0.355   4.259   1.127 -0.2816  0.3775  0.1380
 7717SOL    HW134784   0.310   4.343   1.123 -1.1292 -0.1367 -1.3526
 7717SOL    HW234785   0.447   4.283   1.117 -0.0698 -0.6891 -0.4947
 7718SOL     OW34786   4.717   0.012   2.227  0.8198 -0.3771  0.2028
 7718SOL    HW134787   0.065   4.731   2.182  0.5176  1.4250 -0.9982
 7718SOL    HW234788   0.016   0.062   2.302  3.0294 -0.1846 -0.9099
 7719SOL     OW34789   3.562   0.970   8.528  0.3722  0.2682 -0.0921
 7719SOL    HW134790   3.582   0.998   8.439  1.2688 -2.3781 -0.7308
 7719SOL    HW234791   3.646   0.926   8.541 -1.2064 -2.3463  1.4331
 7720SOL     OW34792   3.044   1.146  16.688  0.8498  0.6107  0.2333
 7720SOL    HW134793   3.086   1.083  16.629 -0.6863  1.1011 -1.3650
 7720SOL    HW234794   3.067   1.104  16.771 -1.9855 -1.4969 -0.0238
 7721SOL     OW34795   0.082   1.112   5.697 -0.0145  0.4100 -0.2333
 7721SOL    HW134796   0.016   1.044   5.705 -1.7926  2.2718  0.7125
 7721SOL    HW234797   0.026   1.178   5.656 -0.4856  0.6798  0.8625
 7722SOL     OW34798   1.318   3.644   7.726 -0.5023 -0.0181  0.4986
 7722SOL    HW134799   1.343   3.713   7.787 -0.0991  0.7958 -0.5905
 7722SOL    HW234800   1.225   3.665   7.717 -0.5284 -0.8003 -0.9832
 7723SOL     OW34801   2.359   1.488   7.865 -0.4593  0.2457  0.0817
 7723SOL    HW134802   2.360   1.561   7.803  0.3919 -0.9972 -1.3649
 7723SOL    HW234803   2.437   1.439   7.840 -0.2303  1.0499 -0.7719
 7724SOL     OW34804   0.838   0.530   6.025  0.3753 -0.5290 -0.2909
 7724SOL    HW134805   0.811   0.441   6.048 -2.3043 -0.3621 -2.8269
 7724SOL    HW234806   0.803   0.531   5.936 -1.1657  1.5243  0.3318
 7725SOL     OW34807   4.103   3.214   7.489 -0.7785  1.0064  0.2814
 7725SOL    HW134808   4.053   3.199   7.409  0.1956  0.5192 -0.2346
 7725SOL    HW234809   4.194   3.220   7.461 -0.7190  0.4355  0.3385
 7726SOL     OW34810   0.992   4.365   4.651 -0.0276  0.1163  0.4941
 7726SOL    HW134811   1.083   4.344   4.632  0.0000  0.1432  0.5952
 7726SOL    HW234812   1.010   4.426   4.723  3.0294 -2.5898  2.0371
 7727SOL     OW34813   3.062   1.969   8.145 -0.0001  0.6094  0.0280
 7727SOL    HW134814   2.991   1.948   8.085  0.1455  1.0119 -0.2822
 7727SOL    HW234815   3.102   2.038   8.092  0.1943 -1.7987 -2.9840
 7728SOL     OW34816   0.015   3.533   6.240  0.7850  0.3643  0.8621
 7728SOL    HW134817   0.095   3.543   6.291  0.8497 -1.6276  1.1551
 7728SOL    HW234818   0.010   3.439   6.222  0.4268  0.3531  1.0242
 7729SOL     OW34819   4.204   4.518  11.735  0.3414 -0.0819  0.5267
 7729SOL    HW134820   4.118   4.552  11.760  0.5711  0.3954  0.6593
 7729SOL    HW234821   4.212   4.574  11.657  1.9008 -2.1238 -0.7832
 7730SOL     OW34822   4.070   3.156  14.402  0.1240 -0.2313  0.2840
 7730SOL    HW134823   4.137   3.138  14.469 -0.7634 -2.2398  0.6327
 7730SOL    HW234824   4.020   3.074  14.397 -0.6606  0.2064  0.9559
 7731SOL     OW34825   0.650   1.652  13.778  0.4288 -0.1292  0.1039
 7731SOL    HW134826   0.592   1.726  13.799  1.3875  0.5531  0.3444
 7731SOL    HW234827   0.582   1.587  13.791 -2.0165  2.5536  0.7591
 7732SOL     OW34828   2.194   0.830  11.349 -0.4230 -0.4083 -0.6096
 7732SOL    HW134829   2.230   0.879  11.275 -0.2666  3.5729  2.0792
 7732SOL    HW234830   2.112   0.795  11.314 -0.7676  0.7836 -0.9952
 7733SOL     OW34831   4.372   3.061   7.638  0.0714 -0.0049  0.2249
 7733SOL    HW134832   4.386   3.010   7.558 -1.5698 -0.5958  0.2980
 7733SOL    HW234833   4.434   3.133   7.635 -1.0259  0.9542  0.7315
 7734SOL     OW34834   1.067   1.459   2.595  0.1268 -0.3020  0.2096
 7734SOL    HW134835   1.130   1.497   2.656  0.8997  1.4052 -1.6618
 7734SOL    HW234836   1.005   1.531   2.591  0.4723  0.2620  5.0098
 7735SOL     OW34837   0.633   4.461   8.176  0.0202  0.1875 -0.1654
 7735SOL    HW134838   0.689   4.459   8.254  0.4102  0.6707 -0.4376
 7735SOL    HW234839   0.545   4.484   8.207  0.3426  2.4649 -0.9125
 7736SOL     OW34840   2.496   1.153  12.847  0.5210  0.2072 -0.3782
 7736SOL    HW134841   2.418   1.177  12.896 -0.8917 -1.6179 -1.7150
 7736SOL    HW234842   2.541   1.237  12.837  2.4873 -0.6456  1.1007
 7737SOL     OW34843   2.458   0.326   2.172 -0.3816  0.1486  0.1112
 7737SOL    HW134844   2.468   0.417   2.202  2.8954  0.7741 -2.7916
 7737SOL    HW234845   2.427   0.279   2.249  0.4522 -1.0664 -0.2912
 7738SOL     OW34846   1.166   1.064   9.026 -0.3782  0.2101  0.0606
 7738SOL    HW134847   1.222   1.121   9.078 -0.4327 -0.4660  0.8555
 7738SOL    HW234848   1.117   1.136   8.985  0.0092  0.0340 -0.7050
 7739SOL     OW34849   1.097   3.948   6.553  0.0479  0.0629  0.3156
 7739SOL    HW134850   1.070   3.867   6.511 -2.1138  0.4956  0.8658
 7739SOL    HW234851   1.122   3.918   6.640  1.6487  0.3759 -0.0412
 7740SOL     OW34852   1.362   2.095  10.419 -0.6866  0.3352 -0.3280
 7740SOL    HW134853   1.338   2.049  10.501 -0.4090  0.5044 -0.1525
 7740SOL    HW234854   1.274   2.123  10.394 -0.6610  0.5931 -0.1232
 7741SOL     OW34855   1.190   2.282   6.639 -0.2064  0.1643  0.0416
 7741SOL    HW134856   1.206   2.314   6.550 -0.2072 -1.4036 -0.5305
 7741SOL    HW234857   1.115   2.334   6.665 -0.2713 -0.0204  0.2261
 7742SOL     OW34858   0.051   2.840  16.868  0.5847 -0.1959  0.2157
 7742SOL    HW134859   0.091   2.753  16.864 -2.3325 -1.6089  2.7942
 7742SOL    HW234860   0.133   2.891  16.869  0.8870 -0.6885  0.3423
 7743SOL     OW34861   1.354   2.417   4.648  0.1782 -0.5574  0.0986
 7743SOL    HW134862   1.289   2.348   4.639  0.8054 -1.1354 -0.0408
 7743SOL    HW234863   1.295   2.487   4.675  1.1327  0.4442 -0.3737
 7744SOL     OW34864   1.723   3.513   7.634 -0.3390  0.4255  0.3588
 7744SOL    HW134865   1.704   3.593   7.683 -1.2375 -0.2190  1.0533
 7744SOL    HW234866   1.644   3.465   7.658  0.2724 -0.2165  1.0941
 7745SOL     OW34867   3.286   0.694  13.500  0.6378  0.0285  0.2931
 7745SOL    HW134868   3.191   0.709  13.498  0.7811  0.7810 -0.7591
 7745SOL    HW234869   3.296   0.614  13.552 -3.7916  1.0731  2.7137
 7746SOL     OW34870   1.751   1.429  17.514  0.3751 -0.4971  0.2067
 7746SOL    HW134871   1.764   1.413  17.608  1.9159  1.4140  0.3329
 7746SOL    HW234872   1.695   1.356  17.487  0.6498 -1.1378  1.3594
 7747SOL     OW34873   2.751   3.186   4.359 -0.0924  0.0173 -0.2024
 7747SOL    HW134874   2.741   3.091   4.365  1.6742 -0.1561  0.0738
 7747SOL    HW234875   2.813   3.200   4.287  1.8109  0.8841  1.5806
 7748SOL     OW34876   2.507   1.633   4.458  0.5122 -0.0091 -0.1058
 7748SOL    HW134877   2.603   1.629   4.457  0.4612 -1.3153  2.6936
 7748SOL    HW234878   2.500   1.708   4.398  1.5619 -0.5927 -0.9720
 7749SOL     OW34879   0.895   0.712   7.904 -0.1787 -0.3327 -0.4780
 7749SOL    HW134880   0.874   0.620   7.886  1.0098 -0.4846 -1.0958
 7749SOL    HW234881   0.809   0.754   7.906 -0.3296 -0.6308 -0.7006
 7750SOL     OW34882   3.421   1.745  11.828  1.0550 -0.4354 -0.1649
 7750SOL    HW134883   3.395   1.662  11.869  1.6833 -0.0059  1.1049
 7750SOL    HW234884   3.406   1.795  11.908 -0.2496  0.9675 -1.3013
 7751SOL     OW34885   0.175   4.727   6.126 -0.1953 -0.2183  0.5220
 7751SOL    HW134886   0.153   0.082   6.149 -1.7180 -0.1098 -1.3561
 7751SOL    HW234887   0.181   4.733   6.031  0.9675  1.5736  0.7205
 7752SOL     OW34888   0.842   1.418   4.259 -0.3031 -0.2550  0.3252
 7752SOL    HW134889   0.762   1.405   4.309  0.2146  0.0035  1.2294
 7752SOL    HW234890   0.854   1.334   4.215  0.4993  0.6242 -1.1806
 7753SOL     OW34891   1.281   3.213   2.407  0.3355 -0.1692  0.0050
 7753SOL    HW134892   1.257   3.147   2.342  0.4074  0.3403 -0.5429
 7753SOL    HW234893   1.331   3.168   2.476  2.3727  2.0001 -0.0525
 7754SOL     OW34894   1.442   2.078   8.819  0.0730  0.1701 -0.1152
 7754SOL    HW134895   1.478   1.992   8.794 -2.0647 -1.1285  1.2860
 7754SOL    HW234896   1.374   2.045   8.878  1.0754  0.5018  1.2555
 7755SOL     OW34897   0.810   1.652  16.691  0.4968  0.2031  0.4151
 7755SOL    HW134898   0.731   1.640  16.745  1.1105 -2.0453  0.8144
 7755SOL    HW234899   0.799   1.742  16.661  0.4464 -0.0793 -0.3871
 7756SOL     OW34900   0.156   3.384   5.501  0.3993  0.5356 -0.5884
 7756SOL    HW134901   0.204   3.404   5.581 -3.3092  1.6937  1.3483
 7756SOL    HW234902   0.152   3.289   5.493 -1.9167  0.4126  1.8384
 7757SOL     OW34903   1.331   0.703   4.785 -0.1076  0.1449  0.2060
 7757SOL    HW134904   1.257   0.764   4.790 -2.3125 -2.5516  0.0738
 7757SOL    HW234905   1.363   0.692   4.874  1.5665  1.3104 -0.2484
 7758SOL     OW34906   3.547   0.240   5.457 -0.3929 -0.0573 -0.1387
 7758SOL    HW134907   3.455   0.259   5.475 -0.6482 -1.9291  0.4680
 7758SOL    HW234908   3.553   0.151   5.489 -3.1858 -0.7606 -1.6336
 7759SOL     OW34909   0.639   2.784   3.279 -0.0985  0.6329  0.6389
 7759SOL    HW134910   0.553   2.823   3.262  0.2302  1.2233  0.3010
 7759SOL    HW234911   0.607   2.723   3.345 -1.2609  1.5134  0.8897
 7760SOL     OW34912   0.185   2.008   7.639 -0.4698 -0.3055 -1.4166
 7760SOL    HW134913   0.207   2.100   7.650 -0.5014 -0.5118  0.3320
 7760SOL    HW234914   0.268   1.972   7.607  0.1905 -1.1270  1.2249
 7761SOL     OW34915   2.456   0.501   8.766  0.1184  0.2383 -0.0187
 7761SOL    HW134916   2.512   0.514   8.843 -0.0149 -1.7083  0.4297
 7761SOL    HW234917   2.377   0.542   8.801  0.9363  1.4022  0.4760
 7762SOL     OW34918   4.146   1.071   6.144  0.2117 -0.5109  0.4753
 7762SOL    HW134919   4.239   1.093   6.151  0.1569 -0.9725  2.6231
 7762SOL    HW234920   4.133   0.990   6.193  0.2300 -0.8685 -0.1091
 7763SOL     OW34921   3.821   4.281   9.744  0.1632 -0.4205  0.1083
 7763SOL    HW134922   3.820   4.230   9.825 -0.6390 -0.2558  0.2020
 7763SOL    HW234923   3.912   4.266   9.720 -0.0126 -1.2330 -0.0662
 7764SOL     OW34924   2.470   4.562  12.187 -0.0461 -0.2516  0.2161
 7764SOL    HW134925   2.508   4.645  12.157  1.4557 -0.9032  0.3510
 7764SOL    HW234926   2.542   4.513  12.225  0.1767  0.6760  1.0028
 7765SOL     OW34927   3.030   3.415   4.922 -0.7262 -0.3724 -0.1292
 7765SOL    HW134928   3.002   3.507   4.916 -2.4141 -0.8965 -0.3077
 7765SOL    HW234929   3.125   3.422   4.931 -0.9683 -0.0696  2.1584
 7766SOL     OW34930   1.639   2.472   3.328 -0.2427 -0.5243  0.1665
 7766SOL    HW134931   1.624   2.420   3.249  2.0599 -1.2573  0.2049
 7766SOL    HW234932   1.561   2.442   3.375 -0.7207  1.5153  0.6503
 7767SOL     OW34933   4.630   4.234   9.050 -0.2338 -0.1285 -0.0147
 7767SOL    HW134934   4.659   4.147   9.022 -0.2336 -0.1465  0.0419
 7767SOL    HW234935   4.646   4.275   8.965 -1.0257  1.5108  0.6298
 7768SOL     OW34936   3.058   1.949   3.779  0.1712  0.2890  0.2303
 7768SOL    HW134937   3.091   2.038   3.786  1.2343  0.0498 -1.9652
 7768SOL    HW234938   3.142   1.903   3.783 -1.2255 -2.4040 -1.7079
 7769SOL     OW34939   2.648   4.640   7.303 -0.3219 -0.0499  0.1356
 7769SOL    HW134940   2.604   4.721   7.330 -1.1050 -0.5177  0.2794
 7769SOL    HW234941   2.646   4.590   7.384  1.7031 -0.1789  0.1011
 7770SOL     OW34942   1.238   1.510   4.753 -0.7261  0.0194  0.5254
 7770SOL    HW134943   1.182   1.533   4.828 -1.7002  0.9364 -0.4849
 7770SOL    HW234944   1.279   1.594   4.734 -0.8807  0.0417  0.2892
 7771SOL     OW34945   0.664   4.216   4.318 -0.4509 -0.3087  0.6966
 7771SOL    HW134946   0.735   4.178   4.371  0.0247 -0.0882  0.2188
 7771SOL    HW234947   0.719   4.268   4.259  0.9804 -1.2874  1.1736
 7772SOL     OW34948   3.214   3.014  10.552  0.0793  0.1111 -0.1548
 7772SOL    HW134949   3.237   3.049  10.639  0.0529  1.6895 -0.7780
 7772SOL    HW234950   3.126   2.978  10.563 -0.3579  1.0745 -0.4842
 7773SOL     OW34951   1.187   2.271   4.172 -0.5950 -0.1776  0.6355
 7773SOL    HW134952   1.202   2.296   4.081 -0.7656 -3.0698 -0.1974
 7773SOL    HW234953   1.258   2.317   4.217  0.4442 -2.6908  1.5608
 7774SOL     OW34954   3.949   3.653  14.144 -0.1106 -0.1834  0.4484
 7774SOL    HW134955   3.929   3.693  14.060 -1.5556 -2.0539 -0.0976
 7774SOL    HW234956   3.921   3.562  14.133 -0.4098  0.0885 -1.0030
 7775SOL     OW34957   2.768   1.763   9.234 -0.2552  0.1613 -0.1500
 7775SOL    HW134958   2.705   1.752   9.305  0.3990 -1.6042  0.1603
 7775SOL    HW234959   2.777   1.672   9.204  0.4528  0.3854 -0.5964
 7776SOL     OW34960   4.008   3.759  16.220  0.2280  0.1456  0.2952
 7776SOL    HW134961   3.924   3.776  16.263  1.1574  1.2962  1.6661
 7776SOL    HW234962   3.984   3.761  16.127  1.7375 -2.6143 -0.1529
 7777SOL     OW34963   0.619   0.819   7.909  0.1918  0.0598  0.2689
 7777SOL    HW134964   0.587   0.789   7.823 -1.1091 -1.6949  1.3746
 7777SOL    HW234965   0.637   0.913   7.902  2.6930 -0.3821  0.6727
 7778SOL     OW34966   4.191   1.553   2.801 -0.0162  1.1167 -0.9730
 7778SOL    HW134967   4.147   1.509   2.729 -1.1747  0.6550  0.0126
 7778SOL    HW234968   4.199   1.644   2.771  1.8362  0.5937 -2.0462
 7779SOL     OW34969   0.320   4.103   9.504  0.5398 -0.0028  0.5055
 7779SOL    HW134970   0.403   4.060   9.485  0.2603  0.5608 -1.9913
 7779SOL    HW234971   0.265   4.046   9.450  2.5609 -1.1272 -0.3821
 7780SOL     OW34972   3.597   3.850   3.432 -0.1638  0.7831  0.1191
 7780SOL    HW134973   3.671   3.869   3.375  0.3480  0.4416  0.6727
 7780SOL    HW234974   3.640   3.880   3.512  1.1690 -0.7343 -0.0187
 7781SOL     OW34975   2.247   1.083   4.693  0.0186 -0.3758  0.0398
 7781SOL    HW134976   2.323   1.059   4.746 -0.0216  1.6799  1.0174
 7781SOL    HW234977   2.201   0.999   4.688 -0.1438 -0.3238  0.7060
 7782SOL     OW34978   1.477   3.948   5.480 -0.3514 -0.3755 -0.0509
 7782SOL    HW134979   1.463   3.952   5.385 -0.6303  1.9051  0.0867
 7782SOL    HW234980   1.519   3.863   5.492 -0.1906 -0.2255  0.4552
 7783SOL     OW34981   3.916   2.778  13.395 -0.7537 -0.0232 -0.0466
 7783SOL    HW134982   3.880   2.731  13.321  0.1954  0.0966 -0.5862
 7783SOL    HW234983   4.006   2.799  13.370 -1.5077  0.8228 -1.9957
 7784SOL     OW34984   3.484   1.895   6.621 -0.2016  0.2216  0.1389
 7784SOL    HW134985   3.449   1.887   6.533  0.9640 -0.9127 -0.2093
 7784SOL    HW234986   3.463   1.810   6.660 -2.3891  0.9883  0.6335
 7785SOL     OW34987   0.912   3.367   4.191  0.0647  0.5480 -0.2227
 7785SOL    HW134988   0.999   3.405   4.193 -0.4154  1.5764  0.9781
 7785SOL    HW234989   0.906   3.319   4.108  0.6538  0.4367 -0.1963
 7786SOL     OW34990   3.024   2.518   6.831  0.7154 -0.6033  0.2319
 7786SOL    HW134991   3.087   2.577   6.789 -0.3786  0.6999  0.4077
 7786SOL    HW234992   2.941   2.561   6.809  1.0053 -1.3456 -2.3596
 7787SOL     OW34993   1.259   0.598   0.276 -0.3408 -0.6909  0.2140
 7787SOL    HW134994   1.185   0.657   0.262 -0.2018 -0.7300 -0.7431
 7787SOL    HW234995   1.240   0.535   0.206  1.4059 -0.6984 -0.2694
 7788SOL     OW34996   4.097   1.793   0.222  0.7026 -0.2638  0.0023
 7788SOL    HW134997   4.173   1.773   0.167  0.7601  0.3132 -0.1293
 7788SOL    HW234998   4.105   1.888   0.213 -0.4052 -0.3856 -2.3132
 7789SOL     OW34999   1.598   2.838   6.894  0.3540 -0.3827 -0.9618
 7789SOL    HW135000   1.570   2.840   6.985  1.1852  0.6762 -0.7331
 7789SOL    HW235001   1.556   2.758   6.862 -1.0843  0.1361 -0.3780
 7790SOL     OW35002   3.703   3.606   3.710  0.3049 -0.3203 -0.2870
 7790SOL    HW135003   3.737   3.557   3.785  0.5985  1.6788  0.9080
 7790SOL    HW235004   3.690   3.696   3.742  2.3605  0.2401 -0.9893
 7791SOL     OW35005   0.299   2.065   0.916 -0.3813  0.6764 -0.2505
 7791SOL    HW135006   0.345   2.067   1.000 -0.7970  0.4062 -0.0141
 7791SOL    HW235007   0.333   2.147   0.878 -1.5972  1.9538  1.4238
 7792SOL     OW35008   1.453   3.053   2.525 -0.5767  0.3961 -0.7973
 7792SOL    HW135009   1.456   2.966   2.484  0.5552 -0.7480  1.6995
 7792SOL    HW235010   1.427   3.024   2.612 -1.8125 -0.3322 -1.4145
 7793SOL     OW35011   4.330   3.538  13.626  0.1944 -0.8894 -0.2974
 7793SOL    HW135012   4.256   3.526  13.568  0.2570  0.6688 -0.7119
 7793SOL    HW235013   4.291   3.560  13.711  0.7466  2.3729 -0.8890
 7794SOL     OW35014   2.987   4.346   3.219 -0.1186 -0.7172 -0.2034
 7794SOL    HW135015   3.033   4.275   3.263 -1.2718 -1.0255  0.5235
 7794SOL    HW235016   2.946   4.302   3.145 -3.1030  0.9531  0.4302
 7795SOL     OW35017   0.074   0.963   8.224 -0.5349 -0.2405 -0.1454
 7795SOL    HW135018   0.114   1.048   8.240  0.5725 -0.9428  0.7477
 7795SOL    HW235019   0.021   0.960   8.303 -1.4607 -2.1641 -0.8275
 7796SOL     OW35020   2.709   0.444   0.576  0.2691  0.0905  0.2347
 7796SOL    HW135021   2.653   0.501   0.524 -0.2062  0.7204  1.4405
 7796SOL    HW235022   2.765   0.510   0.615 -0.6673  0.5276  0.8396
 7797SOL     OW35023   0.284   3.943  10.766  0.2055  0.1477 -0.3250
 7797SOL    HW135024   0.311   4.033  10.784 -3.9330  1.9888 -3.2236
 7797SOL    HW235025   0.192   3.962  10.751  0.3863  1.5080  0.2461
 7798SOL     OW35026   3.256   3.881  16.794 -0.5402 -0.0380 -0.0413
 7798SOL    HW135027   3.224   3.968  16.817 -0.3608  0.4436 -1.6052
 7798SOL    HW235028   3.260   3.893  16.699  0.4312  0.6619  0.0890
 7799SOL     OW35029   3.527   1.421   4.906  0.1758  0.1912  0.5073
 7799SOL    HW135030   3.451   1.475   4.928  0.4894  0.8262  0.0405
 7799SOL    HW235031   3.501   1.335   4.941 -3.4387  0.8751 -0.5432
 7800SOL     OW35032   2.287   0.929   3.438 -0.0428 -0.0469  0.3281
 7800SOL    HW135033   2.320   1.001   3.492 -0.8488  1.7700 -1.5613
 7800SOL    HW235034   2.289   0.953   3.346 -0.3509 -1.7950 -0.1337
 7801SOL     OW35035   4.406   0.924   4.813  0.0671 -0.3089  0.4397
 7801SOL    HW135036   4.320   0.927   4.855  0.0865 -1.1130  0.5523
 7801SOL    HW235037   4.402   0.834   4.779 -0.3265 -0.0087 -0.3054
 7802SOL     OW35038   1.860   0.778   6.550 -0.4096  0.4237 -0.4556
 7802SOL    HW135039   1.775   0.821   6.541 -1.8746 -1.8358  2.5746
 7802SOL    HW235040   1.839   0.693   6.512  1.3972 -0.1087 -0.2830
 7803SOL     OW35041   4.466   4.265   5.389 -0.3625  0.1711 -0.1734
 7803SOL    HW135042   4.517   4.258   5.469 -1.6578 -1.9173  0.4862
 7803SOL    HW235043   4.409   4.190   5.406 -0.0509 -0.1989 -0.7490
 7804SOL     OW35044   2.185   2.207  14.266 -0.6681  0.7233 -0.5678
 7804SOL    HW135045   2.194   2.297  14.236 -3.1072  0.8368 -0.9703
 7804SOL    HW235046   2.225   2.160  14.192  0.0257  0.5255 -0.0704
 7805SOL     OW35047   4.651   2.738   4.050  0.3378  0.0835 -0.2996
 7805SOL    HW135048   4.567   2.732   4.096 -2.0738 -2.2940 -5.0105
 7805SOL    HW235049   4.616   2.717   3.963 -1.9192  0.1630  0.6100
 7806SOL     OW35050   0.446   0.984   1.301  0.3044 -0.2959 -0.2421
 7806SOL    HW135051   0.376   1.041   1.269 -1.1500 -1.6441  0.5915
 7806SOL    HW235052   0.412   0.968   1.389 -1.6478 -1.8873 -1.2994
 7807SOL     OW35053   4.242   2.001   0.565 -0.3957 -0.2260 -0.4130
 7807SOL    HW135054   4.269   2.074   0.620 -0.8216 -0.0630 -0.4168
 7807SOL    HW235055   4.222   2.041   0.481  1.6500  2.8284  0.5665
 7808SOL     OW35056   4.688   3.589   2.335  0.4856  0.3475 -0.4091
 7808SOL    HW135057   0.019   3.597   2.405 -1.5173  4.0246  1.0779
 7808SOL    HW235058   0.009   3.632   2.270 -0.5177  1.7297 -0.3717
 7809SOL     OW35059   0.170   4.671   8.929 -0.2681 -0.3536  0.5310
 7809SOL    HW135060   0.246   4.687   8.874 -0.4641 -0.8576  0.1206
 7809SOL    HW235061   0.167   0.022   8.973  4.5652  0.0010  0.1591
 7810SOL     OW35062   3.974   2.696   6.452 -0.3581  0.1088  0.1294
 7810SOL    HW135063   3.893   2.645   6.441 -0.5178  0.8156 -1.7855
 7810SOL    HW235064   3.961   2.721   6.544 -3.1335 -0.4749 -0.1098
 7811SOL     OW35065   0.669   1.678   5.550 -0.4676  0.4510  0.6119
 7811SOL    HW135066   0.703   1.620   5.481  0.1820  2.0886 -0.4606
 7811SOL    HW235067   0.736   1.661   5.616 -0.9076 -0.2805  0.8794
 7812SOL     OW35068   3.300   1.624   2.894 -0.5876 -0.1550  0.4765
 7812SOL    HW135069   3.269   1.578   2.816 -0.8910  0.1311  0.4284
 7812SOL    HW235070   3.317   1.555   2.959 -0.6834 -0.4727  0.1676
 7813SOL     OW35071   2.182   3.606   9.447 -0.2228  0.6080 -0.0385
 7813SOL    HW135072   2.201   3.673   9.513 -0.2416  2.5548 -2.0376
 7813SOL    HW235073   2.266   3.602   9.401  0.1559 -1.5271  0.8000
 7814SOL     OW35074   0.752   3.439   1.163  0.7652 -0.0898 -0.1333
 7814SOL    HW135075   0.691   3.477   1.227 -0.1014  0.4797 -1.3020
 7814SOL    HW235076   0.763   3.510   1.100 -1.0298  1.3521  1.1794
 7815SOL     OW35077   4.264   4.601  10.452  0.6794  0.2337 -0.2677
 7815SOL    HW135078   4.336   4.537  10.447 -0.0165 -0.5035 -0.8736
 7815SOL    HW235079   4.285   4.655  10.528 -1.1342 -0.7421  0.9193
 7816SOL     OW35080   1.270   4.210  10.626 -0.0952 -0.0593 -0.0811
 7816SOL    HW135081   1.356   4.209  10.583 -0.6644  1.7129 -1.2645
 7816SOL    HW235082   1.268   4.301  10.655  0.4061  0.1417 -0.6735
 7817SOL     OW35083   2.485   3.287   8.443  0.5406 -0.4577 -0.3843
 7817SOL    HW135084   2.391   3.305   8.440  0.6347  0.2492  0.8278
 7817SOL    HW235085   2.496   3.201   8.484  0.4817  0.1731  0.9630
 7818SOL     OW35086   3.896   3.054   9.406 -0.1224 -0.6322 -0.6661
 7818SOL    HW135087   3.881   2.961   9.423 -0.1918 -0.4219  0.4465
 7818SOL    HW235088   3.807   3.086   9.391 -0.1837 -0.1145  0.8418
 7819SOL     OW35089   1.857   4.568   5.510 -0.1563  0.3176 -0.4171
 7819SOL    HW135090   1.857   4.534   5.599 -0.3773 -0.6145 -0.7707
 7819SOL    HW235091   1.771   4.555   5.470  0.0550  0.7639 -1.0253
 7820SOL     OW35092   0.113   4.275   2.936  0.0293 -0.0996 -0.1248
 7820SOL    HW135093   0.103   4.303   3.027  1.0421  1.3195 -0.4477
 7820SOL    HW235094   0.122   4.362   2.896  0.9300  0.4156  1.1947
 7821SOL     OW35095   0.049   3.845  13.227  0.6217 -0.0429 -0.0061
 7821SOL    HW135096   0.049   3.916  13.292  1.8706  0.8857 -1.0146
 7821SOL    HW235097   0.132   3.802  13.242  0.4267 -0.6500 -0.6900
 7822SOL     OW35098   1.083   2.764   7.689 -0.2505 -0.3504 -0.4294
 7822SOL    HW135099   1.039   2.711   7.623 -1.7129  0.5104 -0.1438
 7822SOL    HW235100   1.015   2.808   7.739  1.3960  3.7178 -1.7697
 7823SOL     OW35101   3.949   3.507   3.566  0.1353 -0.0320 -0.2959
 7823SOL    HW135102   3.955   3.471   3.478  0.7934  0.2549 -0.3746
 7823SOL    HW235103   3.854   3.511   3.573  0.2438 -1.6725  1.9834
 7824SOL     OW35104   3.830   2.253  17.118 -0.0381  0.5825 -0.3132
 7824SOL    HW135105   3.787   2.309  17.182  0.0762 -0.6288  0.8269
 7824SOL    HW235106   3.779   2.173  17.120 -0.7104  1.0064 -0.4813
 7825SOL     OW35107   1.651   2.011   8.557 -0.5232  0.1542 -0.3155
 7825SOL    HW135108   1.647   1.919   8.582  1.6319  0.4004  0.9460
 7825SOL    HW235109   1.741   2.021   8.589 -1.6431  2.1487  2.2428
 7826SOL     OW35110   3.970   4.703   2.659  0.2139 -0.3667 -0.1472
 7826SOL    HW135111   3.999   4.646   2.588 -0.5837 -1.9729  0.8161
 7826SOL    HW235112   4.007   4.661   2.736 -0.6416  0.4394  0.7027
 7827SOL     OW35113   4.580   0.518   8.920  0.7728 -0.2671 -0.0646
 7827SOL    HW135114   4.622   0.565   8.848 -0.4209 -0.4224 -0.8548
 7827SOL    HW235115   4.561   0.587   8.984 -0.0908 -1.1732  0.6495
 7828SOL     OW35116   3.180   1.239  11.895 -0.4675 -0.0532  0.4360
 7828SOL    HW135117   3.100   1.212  11.849  1.2172 -0.5443 -2.1758
 7828SOL    HW235118   3.169   1.184  11.972  0.1319 -1.8185 -0.7492
 7829SOL     OW35119   4.319   2.497  11.704 -0.4865  0.5059  0.5805
 7829SOL    HW135120   4.316   2.547  11.622  0.9773 -1.2367 -0.5332
 7829SOL    HW235121   4.282   2.561  11.765 -1.9007  0.7446 -0.5240
 7830SOL     OW35122   1.135   3.279  12.300  0.3928  0.2167  0.7160
 7830SOL    HW135123   1.216   3.310  12.341  1.2816  0.5181 -1.2626
 7830SOL    HW235124   1.074   3.268  12.372 -0.6314 -0.9467 -0.3109
 7831SOL     OW35125   0.146   3.154  14.583  0.2548 -0.3829  0.2805
 7831SOL    HW135126   0.152   3.070  14.538 -0.9186 -0.3879  0.1461
 7831SOL    HW235127   0.121   3.132  14.672 -0.4543  0.9886  0.4219
 7832SOL     OW35128   3.276   3.482  11.177  0.5185  0.3123 -0.6091
 7832SOL    HW135129   3.321   3.527  11.248  0.4667 -0.5417 -0.0296
 7832SOL    HW235130   3.226   3.548  11.129  0.8771 -0.2195 -1.7065
 7833SOL     OW35131   3.052   3.390   4.386 -0.4799 -0.0468 -0.4193
 7833SOL    HW135132   3.066   3.481   4.361 -1.7301  0.5745  1.1506
 7833SOL    HW235133   3.141   3.368   4.415 -0.8515 -0.1238  0.6557
 7834SOL     OW35134   0.501   2.801   3.728 -0.3612  0.1985 -0.8557
 7834SOL    HW135135   0.463   2.879   3.687 -0.7918 -0.3413 -1.4790
 7834SOL    HW235136   0.571   2.844   3.777 -0.6508  0.7386 -0.9099
 7835SOL     OW35137   0.745   2.738  11.963 -0.6943  0.3070 -0.0309
 7835SOL    HW135138   0.772   2.667  12.022  0.4617 -0.0358 -0.9872
 7835SOL    HW235139   0.687   2.770  12.033  0.4986 -1.0348  1.5778
 7836SOL     OW35140   2.062   2.940  16.289  0.1275 -0.0359 -0.6473
 7836SOL    HW135141   2.042   2.877  16.359  2.6704 -0.3895 -0.2432
 7836SOL    HW235142   1.999   2.909  16.224 -0.0849  0.3053 -0.6050
 7837SOL     OW35143   3.736   2.203  16.816  0.3200  0.3506 -0.0915
 7837SOL    HW135144   3.744   2.255  16.896  3.8221  2.6718 -1.9296
 7837SOL    HW235145   3.643   2.207  16.792  0.5328  0.7694 -0.8507
 7838SOL     OW35146   2.504   1.673   7.139 -0.3182 -0.0527 -0.1256
 7838SOL    HW135147   2.567   1.732   7.181 -0.7304  1.6665 -1.9272
 7838SOL    HW235148   2.500   1.696   7.046 -0.8019 -0.4500 -0.2064
 7839SOL     OW35149   2.654   2.958   7.194  0.8477 -0.5339 -0.4478
 7839SOL    HW135150   2.746   2.945   7.172  0.7936 -1.1593 -0.3201
 7839SOL    HW235151   2.609   2.894   7.138  0.2829 -0.9741  0.5020
 7840SOL     OW35152   2.126   1.567   5.985  1.1679 -0.2834  0.1850
 7840SOL    HW135153   2.140   1.516   5.905 -1.4932 -0.1963 -0.3170
 7840SOL    HW235154   2.090   1.494   6.034 -0.4844 -0.6356 -1.5541
 7841SOL     OW35155   0.434   2.277   4.160  0.1536  0.1766  0.0097
 7841SOL    HW135156   0.437   2.361   4.207 -2.0010  1.0937 -1.5285
 7841SOL    HW235157   0.488   2.303   4.086  2.6017 -0.7401  1.4573
 7842SOL     OW35158   3.219   2.657   5.595  0.4135  0.2686  0.8593
 7842SOL    HW135159   3.201   2.716   5.668 -0.4454  0.3660  0.5603
 7842SOL    HW235160   3.158   2.685   5.528  0.4223 -1.4368  0.1493
 7843SOL     OW35161   4.220   2.461   8.855 -0.1851  0.1720 -0.7244
 7843SOL    HW135162   4.148   2.401   8.873  0.6205  0.0598  2.2057
 7843SOL    HW235163   4.180   2.541   8.822  0.6705  0.7792 -0.2954
 7844SOL     OW35164   2.999   3.335  10.621 -0.4452  0.4635  0.1058
 7844SOL    HW135165   2.959   3.278  10.686  2.6134 -0.3181  1.3172
 7844SOL    HW235166   2.965   3.302  10.537  1.2524  1.0929 -0.8329
 7845SOL     OW35167   2.222   3.536  15.652 -0.2444  0.2740 -0.2418
 7845SOL    HW135168   2.288   3.600  15.677 -0.2366  0.0173  0.3837
 7845SOL    HW235169   2.283   3.466  15.631  0.2619  0.0795  1.9072
 7846SOL     OW35170   4.607   0.527   2.496 -0.2611 -0.1456  0.5156
 7846SOL    HW135171   4.537   0.470   2.465 -0.2251  0.1811 -0.1645
 7846SOL    HW235172   4.561   0.555   2.574  0.1909  4.0979 -0.7311
 7847SOL     OW35173   2.881   2.160   2.891  0.4885 -0.7168  0.1536
 7847SOL    HW135174   2.854   2.205   2.811  0.0185 -0.0722  0.6801
 7847SOL    HW235175   2.976   2.157   2.878  0.7358 -0.9942  2.0540
 7848SOL     OW35176   2.668   3.015   3.455 -0.5511  0.3635 -0.2581
 7848SOL    HW135177   2.726   3.074   3.504  1.7166 -1.3507 -0.8535
 7848SOL    HW235178   2.592   3.004   3.512  1.5151 -1.2268  2.1877
 7849SOL     OW35179   4.379   0.873   6.733 -0.1483 -0.1855  0.1830
 7849SOL    HW135180   4.386   0.926   6.654 -1.5584  2.0774  1.5881
 7849SOL    HW235181   4.409   0.932   6.802  1.9008 -1.1591  0.1360
 7850SOL     OW35182   2.234   3.115   3.984  0.1045  0.5544  0.6847
 7850SOL    HW135183   2.257   3.145   4.072  0.5756 -0.7871  1.0180
 7850SOL    HW235184   2.222   3.021   3.992  0.0805  0.4919 -0.0878
 7851SOL     OW35185   1.155   2.015   6.581 -0.3621  0.2254  0.6981
 7851SOL    HW135186   1.062   2.000   6.596  0.0433 -1.3474  1.6804
 7851SOL    HW235187   1.158   2.106   6.611 -1.4863  0.7801 -0.8525
 7852SOL     OW35188   4.142   1.139   7.248  0.7175  0.0222  0.0841
 7852SOL    HW135189   4.131   1.125   7.342  2.9864 -0.9119  0.2208
 7852SOL    HW235190   4.072   1.203   7.235 -1.4987 -2.3809  0.2330
 7853SOL     OW35191   0.108   2.405  13.395 -0.1286 -0.1195 -0.0532
 7853SOL    HW135192   0.080   2.429  13.307 -0.5931 -1.3122 -0.2435
 7853SOL    HW235193   0.179   2.344  13.375 -0.4889 -0.8346  0.8492
 7854SOL     OW35194   1.929   4.436  17.590 -0.2548 -0.3313  0.0388
 7854SOL    HW135195   1.867   4.387  17.536 -0.1887 -0.5114  0.1268
 7854SOL    HW235196   1.962   4.514  17.545  1.6331 -0.0926  1.8094
 7855SOL     OW35197   0.861   2.153  13.285  0.5697  0.5205 -0.0492
 7855SOL    HW135198   0.948   2.172  13.249  0.9696  0.5256  0.9245
 7855SOL    HW235199   0.821   2.084  13.232  0.8225  1.3931 -1.3821
 7856SOL     OW35200   1.391   0.542  10.630  0.0837 -0.2396 -0.6270
 7856SOL    HW135201   1.305   0.570  10.659  1.0722  1.4567  0.6586
 7856SOL    HW235202   1.417   0.482  10.701 -0.8555  0.0661 -0.0273
 7857SOL     OW35203   0.466   0.111   6.123  0.0610  0.2347  0.6066
 7857SOL    HW135204   0.489   0.111   6.216 -1.4747 -0.9735  0.9825
 7857SOL    HW235205   0.455   0.016   6.114  0.1701  0.3581 -0.8012
 7858SOL     OW35206   1.203   2.480   3.242 -0.2718  0.4041 -0.0081
 7858SOL    HW135207   1.240   2.568   3.250  0.1859  0.3883 -2.0161
 7858SOL    HW235208   1.278   2.425   3.219 -2.0762 -0.4149 -3.8714
 7859SOL     OW35209   3.952   3.435   5.091  0.2986  0.2316  0.4585
 7859SOL    HW135210   4.012   3.509   5.084  0.7288 -0.4305 -2.6538
 7859SOL    HW235211   4.014   3.380   5.140 -1.4094 -1.9441  0.1889
 7860SOL     OW35212   1.842   3.024   7.480 -0.5476  0.2668 -0.1630
 7860SOL    HW135213   1.858   3.115   7.456  0.0795  0.1240 -0.2839
 7860SOL    HW235214   1.920   2.986   7.441 -0.5071 -1.9911  2.1085
 7861SOL     OW35215   2.710   4.314   5.828  0.0189 -0.1098 -0.6264
 7861SOL    HW135216   2.796   4.320   5.870 -0.0077 -4.0816 -0.0124
 7861SOL    HW235217   2.675   4.402   5.842 -0.0069 -0.4459  1.4612
 7862SOL     OW35218   1.015   3.454   3.669  0.0283 -0.2604 -0.5875
 7862SOL    HW135219   1.074   3.389   3.707 -2.0742 -1.3405  0.8435
 7862SOL    HW235220   0.975   3.401   3.601 -1.8699 -0.5282  0.7190
 7863SOL     OW35221   4.678   1.708   9.433  0.0003  0.1065 -0.4545
 7863SOL    HW135222   4.594   1.751   9.445 -0.5543 -1.0130 -0.3472
 7863SOL    HW235223   4.697   1.659   9.513  2.6612  2.6746  0.5115
 7864SOL     OW35224   1.996   2.633   8.176  0.0313  0.0333 -0.0123
 7864SOL    HW135225   2.087   2.662   8.170  0.4434 -1.9233 -3.1604
 7864SOL    HW235226   1.942   2.708   8.150  0.3441  0.3713  0.3049
 7865SOL     OW35227   4.091   2.325   4.678 -0.4612  0.4332  0.3474
 7865SOL    HW135228   4.029   2.304   4.747 -0.2434 -0.6541  0.2001
 7865SOL    HW235229   4.101   2.239   4.638  0.9868  0.1691  1.2947
 7866SOL     OW35230   0.494   3.235   5.505  0.8712  0.0966  0.0781
 7866SOL    HW135231   0.520   3.200   5.590  1.7240  0.4881 -0.0272
 7866SOL    HW235232   0.504   3.329   5.520 -0.6201  0.0015  1.6356
 7867SOL     OW35233   3.811   1.935   3.941 -0.2115  0.0514  0.0315
 7867SOL    HW135234   3.725   1.894   3.932 -1.4448  2.9346 -1.5493
 7867SOL    HW235235   3.807   1.998   3.869 -1.6758 -0.2744 -0.1800
 7868SOL     OW35236   2.953   3.693   5.325  0.2259 -0.2395  0.4718
 7868SOL    HW135237   2.880   3.712   5.267  1.0987 -0.6851 -0.7582
 7868SOL    HW235238   2.978   3.782   5.349  1.3863 -0.2569 -0.6775
 7869SOL     OW35239   0.001   4.507   6.344 -0.6234  0.3510 -0.0059
 7869SOL    HW135240   0.076   4.468   6.298  0.7382  2.0967  0.7136
 7869SOL    HW235241   0.041   4.566   6.408 -1.3238 -1.6654  2.2813
 7870SOL     OW35242   3.895   4.345   6.215 -0.2561 -0.1422 -0.1743
 7870SOL    HW135243   3.823   4.302   6.170 -1.0240  0.4726  0.4622
 7870SOL    HW235244   3.882   4.437   6.189 -0.1799  0.1537  0.8287
 7871SOL     OW35245   4.507   1.983  16.471 -0.0553 -0.6041 -1.0780
 7871SOL    HW135246   4.516   1.888  16.473 -0.1605 -0.5514  0.9992
 7871SOL    HW235247   4.436   2.001  16.531 -1.2785 -0.2792 -2.6260
 7872SOL     OW35248   4.555   2.466   2.381 -0.1529  0.0892 -0.3914
 7872SOL    HW135249   4.491   2.399   2.357  0.0755  0.5384 -2.2453
 7872SOL    HW235250   4.580   2.447   2.472  0.6271 -0.7390 -0.7770
 7873SOL     OW35251   4.154   1.089   7.526  0.5619 -0.1929  0.1718
 7873SOL    HW135252   4.144   1.001   7.563  2.4683 -0.4848 -0.0167
 7873SOL    HW235253   4.223   1.136   7.574  0.1344 -0.7626  1.3597
 7874SOL     OW35254   2.883   4.648  14.442  0.1424  0.1027 -0.1579
 7874SOL    HW135255   2.879   4.594  14.363  0.5953 -1.6405  1.0252
 7874SOL    HW235256   2.885   4.584  14.513 -0.5629  1.4255  1.0566
 7875SOL     OW35257   2.251   3.808   9.647  0.1156  0.3200  0.4241
 7875SOL    HW135258   2.204   3.804   9.730  0.9495 -1.6986  0.7926
 7875SOL    HW235259   2.326   3.755   9.675  2.2850  2.0834 -2.0470
 7876SOL     OW35260   2.009   4.358   4.327 -0.0899 -0.3385 -0.0225
 7876SOL    HW135261   2.053   4.282   4.290  0.2990  0.3818 -1.0615
 7876SOL    HW235262   1.988   4.405   4.246 -1.8224  1.8866  1.7080
 7877SOL     OW35263   1.435   4.000   1.632  0.2425 -0.1974  0.1677
 7877SOL    HW135264   1.403   3.930   1.689  1.1063 -0.8253 -0.1055
 7877SOL    HW235265   1.510   3.953   1.595 -0.7742 -2.0568  0.4623
 7878SOL     OW35266   0.103   3.357   9.379 -0.1849  0.3250 -0.1544
 7878SOL    HW135267   0.174   3.417   9.359  0.7430 -1.6235 -2.6107
 7878SOL    HW235268   0.101   3.343   9.474 -1.0110 -2.0386 -0.5261
 7879SOL     OW35269   0.618   3.990   5.812 -0.2748  0.0217 -0.4787
 7879SOL    HW135270   0.661   4.074   5.799  0.2356 -0.1322  0.2203
 7879SOL    HW235271   0.646   3.975   5.902  1.5013 -0.4071 -1.1054
 7880SOL     OW35272   2.979   0.710   3.025  0.1598  0.3559 -0.0327
 7880SOL    HW135273   2.909   0.665   2.977  0.6979  0.0221 -0.5030
 7880SOL    HW235274   2.962   0.694   3.118 -0.1533  2.1632  0.2076
 7881SOL     OW35275   0.482   2.871   5.630 -0.4659 -0.3494  0.1534
 7881SOL    HW135276   0.405   2.814   5.635 -0.1750 -0.7870 -0.4026
 7881SOL    HW235277   0.475   2.921   5.711  4.9372 -0.5208  0.7281
 7882SOL     OW35278   1.602   2.874   2.154  0.3752 -0.1364  0.2700
 7882SOL    HW135279   1.617   2.783   2.128 -1.5197 -0.5673  0.6522
 7882SOL    HW235280   1.567   2.910   2.073  0.6046  0.3351  0.3853
 7883SOL     OW35281   2.933   1.079   3.104  0.0033 -0.1155  0.3508
 7883SOL    HW135282   2.931   1.144   3.175 -1.7598  0.6043 -0.3655
 7883SOL    HW235283   2.992   1.113   3.037 -0.3251  0.0560  0.1554
 7884SOL     OW35284   3.373   2.288   7.446 -0.7741 -0.5423 -0.8718
 7884SOL    HW135285   3.393   2.198   7.421  0.3872 -0.5386  0.0506
 7884SOL    HW235286   3.455   2.326   7.480 -1.8097 -0.7366  1.7995
 7885SOL     OW35287   2.296   0.194   7.315  0.1544 -0.6734  0.4359
 7885SOL    HW135288   2.278   0.225   7.226  1.6933 -1.3895 -0.1141
 7885SOL    HW235289   2.278   0.269   7.371  0.0342 -0.5092  0.1817
 7886SOL     OW35290   2.491   0.024   6.125 -0.2580 -0.1387  0.8226
 7886SOL    HW135291   2.430   4.695   6.087  0.8699  0.3451 -1.7662
 7886SOL    HW235292   2.575   4.719   6.103  0.5598  1.1602  1.5734
 7887SOL     OW35293   2.701   3.965  16.502  0.1203 -0.1682  0.6926
 7887SOL    HW135294   2.726   3.875  16.480 -1.0676 -0.4475  0.4736
 7887SOL    HW235295   2.755   4.011  16.438 -0.1988 -2.5838 -1.3236
 7888SOL     OW35296   1.856   1.567   8.637 -0.3219 -0.3932  0.0737
 7888SOL    HW135297   1.892   1.506   8.701  1.7541 -1.8732 -2.4587
 7888SOL    HW235298   1.939   1.598   8.600 -1.2414  1.0316 -0.8152
 7889SOL     OW35299   4.673   3.563  13.234  0.1149  0.2947 -0.9593
 7889SOL    HW135300   4.706   3.652  13.246  0.1837  0.2889 -1.0991
 7889SOL    HW235301   0.013   3.503  13.242 -1.0328 -0.8832  0.7232
 7890SOL     OW35302   2.505   2.023   3.678  0.0510 -0.7184 -0.3011
 7890SOL    HW135303   2.599   2.043   3.677 -0.1827  0.6832  2.7264
 7890SOL    HW235304   2.507   1.940   3.632 -0.6680 -0.0842 -1.4809
 7891SOL     OW35305   4.511   3.272   7.164  0.6761 -0.2627 -0.5079
 7891SOL    HW135306   4.602   3.259   7.192  0.1343 -1.3718  0.7290
 7891SOL    HW235307   4.521   3.318   7.080 -0.8676 -1.6375 -1.4502
 7892SOL     OW35308   2.322   2.669   9.030  0.0800 -0.1986 -0.0172
 7892SOL    HW135309   2.315   2.677   8.935  0.9442  1.3836  0.0461
 7892SOL    HW235310   2.231   2.678   9.057 -0.6222  0.4653 -2.6357
 7893SOL     OW35311   3.819   0.462   2.502  0.4843  0.0637 -0.4469
 7893SOL    HW135312   3.750   0.400   2.480 -0.4966  0.8368  0.5138
 7893SOL    HW235313   3.774   0.493   2.580  1.0826 -0.6858  0.1948
 7894SOL     OW35314   2.665   0.268  11.647  0.2261  0.2100 -0.3496
 7894SOL    HW135315   2.676   0.356  11.682 -0.9485  0.1889  0.0669
 7894SOL    HW235316   2.752   0.249  11.611  0.1747 -0.5973 -0.0459
 7895SOL     OW35317   2.616   4.415   2.032  0.0308 -0.1733 -0.0320
 7895SOL    HW135318   2.623   4.322   2.013 -3.2119 -0.1268 -1.5965
 7895SOL    HW235319   2.652   4.456   1.954 -2.5750 -1.6248 -2.0188
 7896SOL     OW35320   3.064   3.736   5.066 -0.1622  0.2721 -0.0629
 7896SOL    HW135321   3.069   3.716   5.159  4.5525  1.4410 -0.0962
 7896SOL    HW235322   3.156   3.734   5.043  0.4239  2.4760  2.0911
 7897SOL     OW35323   3.542   2.659  14.611  0.4501 -0.3132 -0.1996
 7897SOL    HW135324   3.518   2.670  14.519 -0.6650 -0.0372  0.1241
 7897SOL    HW235325   3.455   2.666  14.651  2.0365  2.9501  2.5785
 7898SOL     OW35326   2.880   4.151   1.757 -0.4070 -0.2818 -0.2376
 7898SOL    HW135327   2.795   4.190   1.737 -0.1711  0.4332  0.1698
 7898SOL    HW235328   2.854   4.058   1.760 -0.7866 -0.1999 -0.9534
 7899SOL     OW35329   0.248   2.325   9.158  0.0465 -0.5862 -0.3574
 7899SOL    HW135330   0.254   2.405   9.105 -1.7401  0.9126  1.7010
 7899SOL    HW235331   0.161   2.343   9.195  1.2708  0.2475  2.0904
 7900SOL     OW35332   3.796   3.245   3.551 -0.3791 -0.0512 -0.0448
 7900SOL    HW135333   3.842   3.254   3.634  0.1206 -1.8216 -0.1468
 7900SOL    HW235334   3.865   3.236   3.485 -0.9578 -2.4795 -0.2994
 7901SOL     OW35335   1.749   4.053   8.092  0.0016  0.8665 -0.1233
 7901SOL    HW135336   1.727   4.006   8.012 -2.1607  0.3708  0.7518
 7901SOL    HW235337   1.661   4.065   8.129 -0.3049  0.5323 -0.7597
 7902SOL     OW35338   0.947   2.827   4.161 -0.3563  0.7697  0.4959
 7902SOL    HW135339   0.923   2.752   4.215 -1.7416 -0.5648 -1.9552
 7902SOL    HW235340   0.964   2.890   4.230  0.9690  0.1418  0.7517
 7903SOL     OW35341   3.347   2.145   4.911  0.3430 -0.1012 -0.3426
 7903SOL    HW135342   3.409   2.214   4.887 -0.5372  0.7975 -0.0505
 7903SOL    HW235343   3.367   2.076   4.848 -2.6886 -0.5703 -0.7737
 7904SOL     OW35344   3.972   3.108   5.335  1.0315  0.1050  0.8301
 7904SOL    HW135345   3.901   3.172   5.344 -0.4300 -1.5227  0.8323
 7904SOL    HW235346   3.978   3.116   5.239  0.7921  1.5600  0.9352
 7905SOL     OW35347   4.713   1.170   4.361 -0.3182  0.2191 -0.6265
 7905SOL    HW135348   0.066   1.138   4.385 -1.3768 -2.4543 -0.3331
 7905SOL    HW235349   4.732   1.249   4.310 -1.1163  0.0085 -1.2556
 7906SOL     OW35350   3.812   0.216   8.967  0.0722  0.0583 -0.2731
 7906SOL    HW135351   3.851   0.303   8.954 -0.3147  0.4195  0.9375
 7906SOL    HW235352   3.881   0.183   9.024  0.4853 -1.3033 -1.5765
 7907SOL     OW35353   2.640   2.653   7.270  0.1477 -0.4436  0.0914
 7907SOL    HW135354   2.690   2.594   7.213  0.0372 -1.0548  0.6306
 7907SOL    HW235355   2.581   2.693   7.206 -0.7809  0.1233  1.3071
 7908SOL     OW35356   1.370   0.283   7.363  0.6224 -0.4700  0.0573
 7908SOL    HW135357   1.435   0.234   7.312 -0.3763 -2.1928  0.4300
 7908SOL    HW235358   1.335   0.219   7.425 -0.0330 -1.1682 -1.0316
 7909SOL     OW35359   2.353   2.818  10.667 -0.6398 -0.6576 -0.2348
 7909SOL    HW135360   2.390   2.748  10.722 -0.0714  0.3486  0.6765
 7909SOL    HW235361   2.271   2.776  10.642 -1.5043 -0.1358  1.7430
 7910SOL     OW35362   3.734   3.599   8.719 -0.2314 -0.0559 -0.2869
 7910SOL    HW135363   3.765   3.628   8.805  3.0313  0.0651 -1.5082
 7910SOL    HW235364   3.651   3.642   8.703 -0.0453  0.6327  0.6040
 7911SOL     OW35365   1.184   1.261   2.801 -0.1431  0.0411 -0.2435
 7911SOL    HW135366   1.202   1.355   2.799 -0.4115  0.1177  0.9495
 7911SOL    HW235367   1.088   1.260   2.810 -0.1372 -1.6416 -0.3548
 7912SOL     OW35368   0.896   2.443   5.652  0.0924 -0.2413  0.1670
 7912SOL    HW135369   0.937   2.463   5.736 -3.3517  0.1271  1.7730
 7912SOL    HW235370   0.943   2.504   5.595 -1.7658  1.0088 -0.0520
 7913SOL     OW35371   1.097   2.767   3.825 -0.8490  0.0182 -0.5079
 7913SOL    HW135372   1.057   2.696   3.875 -1.9138 -0.0590 -1.4765
 7913SOL    HW235373   1.059   2.849   3.856 -0.2167 -0.0571  0.4683
 7914SOL     OW35374   0.660   4.027   6.560 -0.2167 -0.5107  0.5056
 7914SOL    HW135375   0.715   4.006   6.636 -0.6265  0.3534  1.0547
 7914SOL    HW235376   0.599   4.092   6.596 -0.1623  0.5306 -1.3053
 7915SOL     OW35377   2.158   2.949   0.922 -0.1281  0.1938  0.3256
 7915SOL    HW135378   2.232   2.962   0.863 -2.5465  2.8192 -2.2067
 7915SOL    HW235379   2.167   3.026   0.979  0.7277 -0.0016  0.4419
 7916SOL     OW35380   2.982   3.168   3.234  0.3504  0.3694  0.4829
 7916SOL    HW135381   2.982   3.082   3.277 -1.8256  0.3342  0.4082
 7916SOL    HW235382   2.998   3.227   3.308  0.5067 -0.4305  1.0933
 7917SOL     OW35383   0.400   3.003  11.980  0.5106  0.0158  0.1064
 7917SOL    HW135384   0.450   3.083  11.993 -0.5738  0.8276 -0.7100
 7917SOL    HW235385   0.373   3.026  11.892  0.6781  0.4118  0.1604
 7918SOL     OW35386   4.274   2.343   9.745  0.1385 -0.2944 -0.0721
 7918SOL    HW135387   4.368   2.332   9.726 -0.1167  0.8158 -1.9551
 7918SOL    HW235388   4.278   2.334   9.840  1.5983  0.8658 -0.0246
 7919SOL     OW35389   1.395   1.699  13.232  0.0123 -0.5754  0.2249
 7919SOL    HW135390   1.360   1.694  13.321 -1.9270 -0.5722 -0.5435
 7919SOL    HW235391   1.351   1.620  13.201 -1.0435  0.8688 -1.9525
 7920SOL     OW35392   2.276   1.780   6.891  0.9026 -0.2297 -0.3986
 7920SOL    HW135393   2.271   1.686   6.872  1.0659  0.0155 -1.6513
 7920SOL    HW235394   2.202   1.787   6.951 -0.2958  1.3881 -2.0798
 7921SOL     OW35395   4.244   1.308   3.760  0.7602 -0.0305  0.5504
 7921SOL    HW135396   4.179   1.371   3.792  0.7546 -0.6700  1.8101
 7921SOL    HW235397   4.237   1.321   3.666  0.9086  0.1320  0.5635
 7922SOL     OW35398   0.726   3.642   4.100  0.0295 -0.4673 -0.0181
 7922SOL    HW135399   0.669   3.577   4.058 -0.6829 -0.8427  1.5059
 7922SOL    HW235400   0.671   3.681   4.168  0.1235 -0.0009 -0.2103
 7923SOL     OW35401   3.770   0.374   9.500 -0.1873  0.3958 -0.0529
 7923SOL    HW135402   3.754   0.404   9.410 -2.0944 -0.6009 -0.0552
 7923SOL    HW235403   3.864   0.389   9.498 -0.3157  1.1212 -0.6078
 7924SOL     OW35404   0.498   2.353  11.291  0.7524 -0.0017 -0.2361
 7924SOL    HW135405   0.461   2.265  11.298  1.6649 -0.2717  1.2322
 7924SOL    HW235406   0.585   2.338  11.330  1.1126  2.7484  0.0230
 7925SOL     OW35407   3.925   1.205   9.492 -0.5564  0.3380 -0.1905
 7925SOL    HW135408   3.892   1.262   9.561  0.2374  1.7677 -0.9830
 7925SOL    HW235409   3.998   1.252   9.452 -2.1450  2.8246 -0.1686
 7926SOL     OW35410   0.365   2.614   2.178 -0.6433  0.1643 -0.4556
 7926SOL    HW135411   0.294   2.580   2.123 -0.5134 -0.1089 -0.4494
 7926SOL    HW235412   0.314   2.642   2.255  1.0598 -3.8587  2.1442
 7927SOL     OW35413   0.936   2.613   7.531 -0.4755 -0.0365  0.4413
 7927SOL    HW135414   0.976   2.526   7.529 -0.4462 -0.0153  0.1080
 7927SOL    HW235415   0.902   2.631   7.443 -1.3802 -1.0323  0.5930
 7928SOL     OW35416   0.277   1.915  11.498  0.2149 -0.4126 -0.4340
 7928SOL    HW135417   0.186   1.885  11.491 -0.3235  0.8512  1.2984
 7928SOL    HW235418   0.324   1.834  11.517  1.8491  0.6155 -0.1436
 7929SOL     OW35419   2.247   3.581   6.144  0.0061 -0.4613  0.4958
 7929SOL    HW135420   2.247   3.539   6.058 -0.5309  0.3556  0.0963
 7929SOL    HW235421   2.261   3.499   6.192  1.4411  0.5096  1.7045
 7930SOL     OW35422   2.615   3.225  10.423 -0.3174  0.2237 -0.1790
 7930SOL    HW135423   2.661   3.151  10.383  2.4726  1.8063  0.0964
 7930SOL    HW235424   2.550   3.182  10.478  0.6175  0.2503  0.9355
 7931SOL     OW35425   0.612   4.325   1.418 -0.1925 -0.2794 -0.0866
 7931SOL    HW135426   0.593   4.393   1.354  0.0190  0.4283  0.6084
 7931SOL    HW235427   0.530   4.275   1.420  0.2125 -0.9720 -0.7296
 7932SOL     OW35428   4.000   1.247   3.186  0.2480 -0.0472 -0.5482
 7932SOL    HW135429   3.979   1.240   3.279  1.2050 -2.4754 -0.5239
 7932SOL    HW235430   3.946   1.319   3.153 -0.1977  0.4771  1.3270
 7933SOL     OW35431   0.278   2.260   7.707 -0.0860 -0.2203 -0.5165
 7933SOL    HW135432   0.328   2.309   7.641 -0.3776 -0.9534 -1.2774
 7933SOL    HW235433   0.206   2.320   7.724 -0.0877 -1.1442  2.7191
 7934SOL     OW35434   2.368   3.511  13.000 -0.8860 -0.4748  0.1794
 7934SOL    HW135435   2.383   3.425  12.961 -0.4337  0.1976 -1.1490
 7934SOL    HW235436   2.273   3.517  13.000 -0.7406  1.6616 -1.1768
 7935SOL     OW35437   1.318   0.248  12.500 -0.5298  0.1645  0.3099
 7935SOL    HW135438   1.309   0.334  12.458  0.2524 -0.6696 -1.5850
 7935SOL    HW235439   1.411   0.251  12.523 -0.7438  2.3524  0.8369
 7936SOL     OW35440   1.615   1.038   3.965  0.5591 -0.0485 -0.4204
 7936SOL    HW135441   1.693   0.994   4.001 -1.8763 -0.6838  4.1087
 7936SOL    HW235442   1.568   0.959   3.939  2.8286 -0.8549 -2.0897
 7937SOL     OW35443   1.396   2.804   9.851 -0.1030  0.4318 -0.1299
 7937SOL    HW135444   1.373   2.748   9.925 -2.4270 -0.7090 -1.7060
 7937SOL    HW235445   1.341   2.880   9.869 -0.2156 -0.0559  1.5581
 7938SOL     OW35446   0.574   4.317   7.774 -0.1060 -0.3557  0.1536
 7938SOL    HW135447   0.601   4.359   7.692 -0.6839  0.9951  0.6458
 7938SOL    HW235448   0.627   4.365   7.838 -1.1297  1.1046 -0.0793
 7939SOL     OW35449   1.869   0.992  11.502  0.1631  0.0640  0.2749
 7939SOL    HW135450   1.789   0.938  11.504 -1.0645  1.8739  0.3561
 7939SOL    HW235451   1.848   1.074  11.546 -2.9464 -0.7277  0.3013
 7940SOL     OW35452   3.041   0.328  13.679  0.0279 -0.0774 -0.3762
 7940SOL    HW135453   2.988   0.397  13.638  0.9552  1.0774  0.3718
 7940SOL    HW235454   3.128   0.365  13.666 -0.3166  0.7531 -0.2970
 7941SOL     OW35455   2.240   3.153   2.864 -0.2935 -0.2717 -0.3727
 7941SOL    HW135456   2.235   3.111   2.778  3.0570 -1.3299 -0.0464
 7941SOL    HW235457   2.156   3.128   2.903 -1.0569  2.9192  0.0444
 7942SOL     OW35458   0.598   2.217   7.548  0.1672 -0.3814 -0.1519
 7942SOL    HW135459   0.585   2.123   7.544  0.0161 -0.3112 -1.2256
 7942SOL    HW235460   0.507   2.248   7.542 -0.2637 -0.8469  4.0666
 7943SOL     OW35461   1.434   2.814   5.270 -0.2393 -0.2434  0.2524
 7943SOL    HW135462   1.418   2.902   5.236 -0.9094 -1.2407 -1.9984
 7943SOL    HW235463   1.405   2.826   5.361  0.6042 -2.6331  0.8407
 7944SOL     OW35464   0.211   2.073   4.663 -0.3100 -0.1906 -0.5342
 7944SOL    HW135465   0.178   2.123   4.589 -0.0787  0.9571  0.1331
 7944SOL    HW235466   0.272   2.011   4.622  1.5021  1.8516 -0.9214
 7945SOL     OW35467   2.482   2.796  16.551 -0.4021  0.0517 -0.4391
 7945SOL    HW135468   2.403   2.823  16.596  0.1752  0.5893  0.2540
 7945SOL    HW235469   2.536   2.807  16.629 -0.2422 -0.4071 -0.4795
 7946SOL     OW35470   3.612   0.466   9.711 -0.0356 -0.0975 -0.4978
 7946SOL    HW135471   3.642   0.551   9.680  0.1615  0.1841  0.4430
 7946SOL    HW235472   3.651   0.421   9.637 -1.2294  1.0994 -1.8368
 7947SOL     OW35473   2.447   0.892   5.186 -0.9532  0.1199  0.1152
 7947SOL    HW135474   2.442   0.947   5.264  0.3292 -0.1747  0.4060
 7947SOL    HW235475   2.496   0.817   5.219  0.0359  1.0239  0.7102
 7948SOL     OW35476   0.438   1.500   2.660  0.0808 -0.5998  0.0826
 7948SOL    HW135477   0.350   1.468   2.640 -0.3346 -0.7700  2.1968
 7948SOL    HW235478   0.426   1.590   2.627  0.6504 -0.6507 -0.2674
 7949SOL     OW35479   2.327   0.909   8.935  0.5986 -0.7989  0.4495
 7949SOL    HW135480   2.389   0.979   8.914  0.2194 -1.1083 -1.7472
 7949SOL    HW235481   2.325   0.899   9.030  3.0720 -2.5171  0.3163
 7950SOL     OW35482   2.381   2.071   9.624  0.7245  0.3753 -0.6947
 7950SOL    HW135483   2.313   2.132   9.650 -0.1698 -0.9652  0.1288
 7950SOL    HW235484   2.340   2.001   9.573  2.0014 -1.0050  0.1742
 7951SOL     OW35485   2.707   3.117   8.096 -0.4862 -0.1588  0.0110
 7951SOL    HW135486   2.790   3.161   8.112 -0.4453 -0.1306 -0.2762
 7951SOL    HW235487   2.739   3.035   8.059  0.5804  1.0288 -1.7169
 7952SOL     OW35488   4.699   1.043  16.711  0.1622  0.0699  0.1146
 7952SOL    HW135489   4.635   0.980  16.742 -0.1662 -0.8639 -2.5072
 7952SOL    HW235490   4.677   1.056  16.619 -1.4278  1.8487  0.7440
 7953SOL     OW35491   3.603   2.367  11.885  0.6536  0.0471  0.0023
 7953SOL    HW135492   3.658   2.354  11.808 -0.9909 -1.2640 -0.9367
 7953SOL    HW235493   3.649   2.443  11.921 -0.5367  1.0479 -0.6065
 7954SOL     OW35494   0.412   4.560  17.637  0.6226 -0.3860  0.1841
 7954SOL    HW135495   0.379   4.515  17.715 -0.6513  0.5632  0.2023
 7954SOL    HW235496   0.351   4.524  17.573 -0.9917 -1.5524  2.3639
 7955SOL     OW35497   2.474   0.404   8.051 -0.4982  0.5039 -0.9616
 7955SOL    HW135498   2.524   0.400   8.132 -0.2883  0.0324 -1.1114
 7955SOL    HW235499   2.388   0.406   8.093  0.8023  1.2967  1.6288
 7956SOL     OW35500   3.192   0.112   3.455  0.3837 -0.3152 -0.1378
 7956SOL    HW135501   3.256   0.073   3.395 -3.2782 -2.1145 -2.8552
 7956SOL    HW235502   3.220   0.084   3.542 -0.1519  2.6897  1.0061
 7957SOL     OW35503   3.160   1.973   9.869  0.2506 -0.6374 -0.1767
 7957SOL    HW135504   3.199   1.887   9.855  2.0840  0.1789 -0.2041
 7957SOL    HW235505   3.241   2.024   9.879  1.3033 -2.4115  0.2995
 7958SOL     OW35506   0.666   3.740   9.569  0.1375  0.1937 -0.7605
 7958SOL    HW135507   0.681   3.799   9.643 -1.0837 -0.7958  0.2780
 7958SOL    HW235508   0.630   3.806   9.510 -1.5344 -0.4423 -0.4426
 7959SOL     OW35509   2.847   2.969   8.999 -0.2073  0.3826  0.2507
 7959SOL    HW135510   2.770   2.955   8.944 -2.2353 -0.8146  3.3757
 7959SOL    HW235511   2.812   3.047   9.043 -0.4304 -0.3381  1.3668
 7960SOL     OW35512   3.511   2.546   5.007  0.2992 -0.4685  0.4952
 7960SOL    HW135513   3.479   2.526   5.095  1.6303 -1.1209  0.8191
 7960SOL    HW235514   3.435   2.577   4.957  0.3741  1.2259  1.4642
 7961SOL     OW35515   2.750   4.045   3.376  0.1789  0.1164  0.6595
 7961SOL    HW135516   2.719   3.996   3.300  0.6598 -1.3831  1.4325
 7961SOL    HW235517   2.841   4.069   3.359  0.4917  1.1427  3.7602
 7962SOL     OW35518   0.833   0.850  10.626  0.0651 -0.3813  0.4957
 7962SOL    HW135519   0.766   0.869  10.691  0.6699  2.0010  0.4302
 7962SOL    HW235520   0.828   0.931  10.575  2.0410 -0.3248  0.3788
 7963SOL     OW35521   3.136   0.158   6.633  0.0243  0.3008  0.2754
 7963SOL    HW135522   3.194   0.229   6.663 -0.9617  0.8868  0.8042
 7963SOL    HW235523   3.154   0.134   6.542  2.1637  2.7434  0.0511
 7964SOL     OW35524   4.578   2.792   1.763 -0.1904 -0.5849 -0.3823
 7964SOL    HW135525   4.652   2.791   1.824 -1.0743  2.5326  0.7347
 7964SOL    HW235526   4.548   2.701   1.764 -1.7159 -0.0524  1.6308
 7965SOL     OW35527   2.490   2.551  10.689  0.2858 -0.0264  0.3066
 7965SOL    HW135528   2.415   2.493  10.677 -1.0898  2.0570 -1.2096
 7965SOL    HW235529   2.553   2.519  10.624 -0.2569  1.3437 -0.8817
 7966SOL     OW35530   2.144   3.621   8.882  0.2005  0.3379  0.2615
 7966SOL    HW135531   2.122   3.672   8.803  1.2625  3.0721  1.7456
 7966SOL    HW235532   2.140   3.686   8.952  0.3553 -1.6067  2.0735
 7967SOL     OW35533   4.626   1.499   5.246  0.2143 -0.4802  0.1068
 7967SOL    HW135534   4.575   1.575   5.275  0.3609 -0.4944  0.3943
 7967SOL    HW235535   4.575   1.482   5.166  1.6679 -0.0094 -0.9224
 7968SOL     OW35536   1.183   4.088   7.891  0.1942  0.1483  0.3551
 7968SOL    HW135537   1.187   4.045   7.806  1.0637  0.7391  0.0928
 7968SOL    HW235538   1.196   4.179   7.863  1.8159 -0.2811 -0.2730
 7969SOL     OW35539   3.911   0.297   0.580  0.2529 -0.1456 -0.0755
 7969SOL    HW135540   3.956   0.219   0.547 -0.2156  0.0340 -1.1606
 7969SOL    HW235541   3.938   0.288   0.671  1.7435  0.4997 -0.4491
 7970SOL     OW35542   4.594   3.121   1.351  0.2008  0.1692  0.0147
 7970SOL    HW135543   4.616   3.200   1.301  2.1215  0.9115  2.0727
 7970SOL    HW235544   4.527   3.083   1.294 -1.2859  1.6538  0.7677
 7971SOL     OW35545   0.490   4.409   8.643 -0.5995  0.2585 -0.3480
 7971SOL    HW135546   0.552   4.475   8.613 -0.4637 -0.9008 -2.6723
 7971SOL    HW235547   0.510   4.342   8.578 -0.6853  0.1804 -0.2939
 7972SOL     OW35548   4.190   2.868   0.165 -0.4085 -0.1824 -1.0296
 7972SOL    HW135549   4.131   2.811   0.116 -2.2267  1.4489 -0.7294
 7972SOL    HW235550   4.156   2.950   0.129  0.2389  0.5594  0.0319
 7973SOL     OW35551   3.381   4.097   8.334  0.1517 -0.2656 -0.0163
 7973SOL    HW135552   3.458   4.135   8.292 -0.6612  1.8277  0.4050
 7973SOL    HW235553   3.399   4.121   8.426 -0.0273  2.2556 -0.6512
 7974SOL     OW35554   0.815   2.657  12.257  0.3763 -0.3170  0.9509
 7974SOL    HW135555   0.873   2.731  12.278  1.4154 -0.8466 -0.0584
 7974SOL    HW235556   0.743   2.686  12.312  0.7100 -0.5330  1.4994
 7975SOL     OW35557   2.227   3.770  17.136  0.8247 -0.5558  0.2679
 7975SOL    HW135558   2.273   3.723  17.205  2.2216 -1.1532 -1.0387
 7975SOL    HW235559   2.173   3.697  17.106 -0.8934  0.9108 -0.2394
 7976SOL     OW35560   1.712   3.921   0.130  0.2425 -0.0520 -0.5191
 7976SOL    HW135561   1.707   3.855   0.061 -1.7468  0.0845 -0.4809
 7976SOL    HW235562   1.676   3.875   0.206 -0.0193  1.2701  0.1382
 7977SOL     OW35563   2.848   1.509   6.216 -0.4099 -0.0795  0.0368
 7977SOL    HW135564   2.753   1.512   6.228 -0.6886 -0.1293 -2.0963
 7977SOL    HW235565   2.883   1.482   6.301 -0.0252  1.4230  0.3601
 7978SOL     OW35566   2.162   3.473   7.879 -0.1780  0.1957 -0.1207
 7978SOL    HW135567   2.236   3.453   7.821 -0.7319 -1.9331 -0.1206
 7978SOL    HW235568   2.199   3.509   7.960  2.3714  1.4715 -1.8378
 7979SOL     OW35569   4.554   1.409   6.226 -0.3486 -0.2050  0.0690
 7979SOL    HW135570   4.590   1.470   6.290 -0.7224 -1.3549  1.3832
 7979SOL    HW235571   4.617   1.338   6.236 -1.3225 -0.8325  1.7249
 7980SOL     OW35572   4.435   4.016   3.960  0.3679  0.0563  0.2001
 7980SOL    HW135573   4.367   3.965   3.917  0.3517  1.0851 -0.9758
 7980SOL    HW235574   4.402   3.991   4.047  2.0278  0.9456  1.1058
 7981SOL     OW35575   3.452   3.543  15.572 -0.3816 -0.3231 -0.3940
 7981SOL    HW135576   3.408   3.500  15.646 -2.6576 -0.3468 -1.7848
 7981SOL    HW235577   3.383   3.588  15.525  0.3602  0.3951 -0.7910
 7982SOL     OW35578   1.975   2.675   5.381  0.4132 -0.4865  0.4706
 7982SOL    HW135579   2.009   2.587   5.367 -0.5319 -0.8345  0.3380
 7982SOL    HW235580   2.055   2.725   5.395  1.5569 -2.2928  0.2748
 7983SOL     OW35581   2.179   0.696   3.585 -0.5566 -0.2066 -0.6418
 7983SOL    HW135582   2.229   0.757   3.530  1.8157  1.1991  3.1021
 7983SOL    HW235583   2.118   0.670   3.516  1.0899 -0.2066 -2.1273
 7984SOL     OW35584   2.353   0.269   5.413 -0.2480  0.3638 -0.0763
 7984SOL    HW135585   2.348   0.306   5.501 -2.8277  0.5476 -0.3067
 7984SOL    HW235586   2.353   0.354   5.367  0.1546  0.4239  0.0378
 7985SOL     OW35587   3.524   1.701   4.785  0.0889  0.2047 -0.4758
 7985SOL    HW135588   3.564   1.748   4.858  0.9665 -0.2783 -0.6477
 7985SOL    HW235589   3.544   1.610   4.809 -0.0663  0.3947  0.3854
 7986SOL     OW35590   3.895   2.360  17.616  0.7147  0.0532 -0.4566
 7986SOL    HW135591   3.917   2.346  17.524  0.6670 -0.1643 -0.4366
 7986SOL    HW235592   3.975   2.397  17.653  0.2841 -0.2480  0.7928
 7987SOL     OW35593   4.018   2.511   5.416 -0.0137 -0.3142 -0.4637
 7987SOL    HW135594   3.992   2.594   5.376  0.8008 -0.5159 -1.4191
 7987SOL    HW235595   3.935   2.468   5.436 -0.8709  2.0922  1.1476
 7988SOL     OW35596   3.559   4.722   1.315 -0.0662 -0.0918 -0.2923
 7988SOL    HW135597   3.550   0.001   1.409 -0.8432  0.2441 -0.4103
 7988SOL    HW235598   3.474   0.019   1.283  0.6397  1.6519 -0.4527
 7989SOL     OW35599   3.400   0.308   8.220 -0.5806 -0.2099  0.1114
 7989SOL    HW135600   3.438   0.320   8.307  1.4053 -2.2090 -0.4897
 7989SOL    HW235601   3.373   0.216   8.225 -2.7109  0.2861 -1.9286
 7990SOL     OW35602   1.693   1.376   5.078 -0.2806  0.5189 -0.2256
 7990SOL    HW135603   1.650   1.367   4.993 -0.8888 -2.4366  0.4141
 7990SOL    HW235604   1.626   1.408   5.137  0.4190  1.9310 -0.1839
 7991SOL     OW35605   2.750   4.039   2.591 -0.1979  0.0467  0.2053
 7991SOL    HW135606   2.709   4.060   2.675 -2.2915 -1.5936 -0.4206
 7991SOL    HW235607   2.731   4.118   2.540  0.0636  0.2373  0.4052
 7992SOL     OW35608   4.727   1.306   3.955 -0.2349 -0.0237 -0.1259
 7992SOL    HW135609   0.029   1.393   3.968 -0.7937 -0.0022  1.2720
 7992SOL    HW235610   4.650   1.333   3.906 -0.4023  0.4174  0.3808
 7993SOL     OW35611   2.974   1.130   3.681  0.5987  0.2542 -0.2610
 7993SOL    HW135612   3.000   1.038   3.687 -0.6355  0.0104  1.4532
 7993SOL    HW235613   2.882   1.123   3.655  1.3600  2.6353 -3.5476
 7994SOL     OW35614   0.636   0.673   8.351  0.0846 -0.0587 -0.1605
 7994SOL    HW135615   0.581   0.646   8.425  0.6556 -1.7299 -0.3575
 7994SOL    HW235616   0.601   0.615   8.284  1.9115  0.1219 -1.2583
 7995SOL     OW35617   3.521   1.568   0.802  0.2240 -0.3529 -0.6766
 7995SOL    HW135618   3.458   1.625   0.759 -0.7092 -1.5608 -0.9225
 7995SOL    HW235619   3.573   1.633   0.850 -1.9674  0.0816  1.0737
 7996SOL     OW35620   2.102   2.967  15.058 -0.6577 -0.5928 -0.0166
 7996SOL    HW135621   2.143   2.959  14.971  0.8712 -2.1800  0.8549
 7996SOL    HW235622   2.139   2.883  15.086 -0.8248  0.0693  2.1119
 7997SOL     OW35623   0.386   0.262   8.051  0.4009 -0.4115  0.1796
 7997SOL    HW135624   0.361   0.269   7.959 -1.1957 -0.4212  0.6072
 7997SOL    HW235625   0.321   0.327   8.081 -2.0095 -2.6938 -0.0822
 7998SOL     OW35626   2.699   1.492   3.538  1.0119  0.3820  0.1931
 7998SOL    HW135627   2.629   1.434   3.567  0.2157  1.2143 -0.0731
 7998SOL    HW235628   2.770   1.481   3.601  0.1595 -2.1231  0.6897
 7999SOL     OW35629   1.202   0.237   9.689  0.5031  0.0740  0.4814
 7999SOL    HW135630   1.108   0.220   9.676  0.4977  1.3493 -1.1224
 7999SOL    HW235631   1.220   0.156   9.736 -1.6019  0.3080  1.7394
 8000SOL     OW35632   2.060   1.742   8.868  0.0144  0.1205 -0.3176
 8000SOL    HW135633   2.074   1.836   8.879  1.1368 -0.1898  1.0091
 8000SOL    HW235634   1.982   1.727   8.920  0.4653  1.5864  0.7745
 8001SOL     OW35635   1.810   0.586   5.147  0.5062 -0.0967  0.2276
 8001SOL    HW135636   1.812   0.575   5.052  0.7426  0.8543  0.1236
 8001SOL    HW235637   1.872   0.658   5.151  0.6315 -0.1754 -0.2782
 8002SOL     OW35638   0.942   2.605  10.158 -0.4341 -0.0502  0.5656
 8002SOL    HW135639   0.853   2.616  10.191 -0.3785 -1.3455  1.1718
 8002SOL    HW235640   0.989   2.673  10.206 -1.9802  1.1040  0.4145
 8003SOL     OW35641   3.829   4.550   2.024 -0.1116 -0.3442 -0.0829
 8003SOL    HW135642   3.752   4.600   2.053 -1.0710 -0.9602 -1.5452
 8003SOL    HW235643   3.848   4.499   2.103  0.0474  0.6419  0.5175
 8004SOL     OW35644   1.550   2.137   6.116  0.0148 -0.0604 -0.4020
 8004SOL    HW135645   1.638   2.100   6.125  0.0261  0.1974  0.5143
 8004SOL    HW235646   1.522   2.121   6.206  1.9313 -1.1898  0.0122
 8005SOL     OW35647   3.159   2.140   7.953 -0.3088 -0.2907  0.0457
 8005SOL    HW135648   3.220   2.137   7.879 -1.0922 -2.8391 -0.5151
 8005SOL    HW235649   3.177   2.229   7.983 -1.7601  0.0247 -0.0064
 8006SOL     OW35650   0.965   3.344  17.347  0.1284  0.3731 -0.4984
 8006SOL    HW135651   0.890   3.290  17.320  2.0815 -2.1013 -0.9407
 8006SOL    HW235652   0.916   3.426  17.351  0.7888  0.7440 -0.0424
 8007SOL     OW35653   1.484   2.762   3.786 -0.1781 -0.0394  0.3270
 8007SOL    HW135654   1.533   2.735   3.709  0.6454  0.7921  0.5713
 8007SOL    HW235655   1.483   2.684   3.842 -0.3622 -1.3636 -1.5210
 8008SOL     OW35656   4.667   1.009   6.102 -0.2736  0.2538 -0.2526
 8008SOL    HW135657   4.699   0.986   6.014  1.4103  0.7725  0.2176
 8008SOL    HW235658   4.733   1.074   6.127  0.2225  0.3603 -1.7896
 8009SOL     OW35659   1.433   0.511   8.478  0.2654  0.1678 -0.1421
 8009SOL    HW135660   1.338   0.514   8.477  0.3148  2.2384  0.8240
 8009SOL    HW235661   1.463   0.602   8.473  0.5733  0.2441  3.4189
 8010SOL     OW35662   3.900   0.845   2.431 -0.1479 -1.2049 -0.4804
 8010SOL    HW135663   3.820   0.827   2.381 -0.2807 -1.4789 -0.1702
 8010SOL    HW235664   3.869   0.805   2.511  1.1564 -0.9920  0.1299
 8011SOL     OW35665   0.453   1.886   7.544  0.5246 -0.0589 -0.5359
 8011SOL    HW135666   0.462   1.795   7.570  0.8573  0.4086  1.0009
 8011SOL    HW235667   0.545   1.912   7.547  0.4280  0.1871  0.3052
 8012SOL     OW35668   3.875   0.450   5.426 -0.1352 -0.3549 -0.3803
 8012SOL    HW135669   3.785   0.480   5.413  0.3451  0.3490 -2.0706
 8012SOL    HW235670   3.912   0.484   5.344 -0.0670  1.3138  0.3519
 8013SOL     OW35671   0.035   1.759  11.575 -1.0009  0.0536  0.1974
 8013SOL    HW135672   4.690   1.746  11.523 -0.6099  1.6117 -0.7995
 8013SOL    HW235673   4.732   1.818  11.640  1.4685  0.9280  0.8011
 8014SOL     OW35674   3.717   2.566   3.270  0.0102  0.2066 -0.0310
 8014SOL    HW135675   3.744   2.497   3.209 -0.6025 -0.9969  1.0677
 8014SOL    HW235676   3.769   2.646   3.258  2.2624 -1.5908 -2.1925
 8015SOL     OW35677   1.734   1.970   7.039  0.3379  0.4446 -0.1820
 8015SOL    HW135678   1.681   2.029   7.093  1.0923  0.9851 -0.0255
 8015SOL    HW235679   1.743   2.016   6.956 -0.5438  0.6893 -0.1384
 8016SOL     OW35680   3.882   0.416  10.769  0.3926 -0.8694  0.5390
 8016SOL    HW135681   3.866   0.322  10.766 -1.9816 -0.5540  3.0417
 8016SOL    HW235682   3.818   0.433  10.838 -1.1398  1.1905 -1.3722
 8017SOL     OW35683   2.792   4.630   2.295  0.1036  0.3201 -0.0607
 8017SOL    HW135684   2.798   4.668   2.383 -1.6109  3.1632 -1.1446
 8017SOL    HW235685   2.746   4.549   2.317  4.0067 -1.8958  0.0200
 8018SOL     OW35686   2.838   1.995   9.522 -0.2047  0.2991  0.0515
 8018SOL    HW135687   2.760   1.958   9.564 -0.6367 -0.7877 -1.6908
 8018SOL    HW235688   2.813   2.087   9.517  0.8070  0.5377 -0.6655
 8019SOL     OW35689   2.974   2.177   9.936  0.7991 -0.0248 -0.0970
 8019SOL    HW135690   3.049   2.144   9.986  0.2827  1.3362  1.5983
 8019SOL    HW235691   3.000   2.269   9.934  0.7629 -0.0015  0.3379
 8020SOL     OW35692   1.895   0.992   2.856  0.2639  0.5881  0.0590
 8020SOL    HW135693   1.911   0.904   2.891  3.0262  0.1471 -2.3056
 8020SOL    HW235694   1.841   0.963   2.782 -1.5224 -0.3105  1.6947
 8021SOL     OW35695   4.718   4.605  16.084 -0.4138  0.2976  0.3191
 8021SOL    HW135696   4.702   4.698  16.100 -0.1159  0.2843  0.7029
 8021SOL    HW235697   4.641   4.572  16.037  0.7457  0.7815 -1.8985
 8022SOL     OW35698   3.760   3.512   4.552 -0.0045 -0.0457  0.7039
 8022SOL    HW135699   3.771   3.541   4.462  1.1292 -2.6978 -0.0002
 8022SOL    HW235700   3.709   3.584   4.589 -0.0941 -0.6948  1.8476
 8023SOL     OW35701   0.839   4.297  17.437 -0.1444  0.4808  0.4021
 8023SOL    HW135702   0.812   4.241  17.509  2.5366 -1.0151  0.2428
 8023SOL    HW235703   0.764   4.306  17.378  0.0829 -2.4956 -0.3291
 8024SOL     OW35704   3.430   1.154   8.657 -0.0114 -0.2338 -0.3965
 8024SOL    HW135705   3.476   1.086   8.608  0.6077 -0.0215 -0.1063
 8024SOL    HW235706   3.341   1.138   8.623  0.2232  0.1349 -1.1810
 8025SOL     OW35707   0.203   3.113   2.748 -0.0261 -0.4098 -0.2401
 8025SOL    HW135708   0.172   3.119   2.658 -1.0453 -3.4643 -0.1177
 8025SOL    HW235709   0.133   3.166   2.787  1.2030  2.6564 -2.2462
 8026SOL     OW35710   3.168   2.492   1.051 -0.1341 -0.7255 -1.1191
 8026SOL    HW135711   3.152   2.447   1.134 -3.1242  0.0829 -1.2747
 8026SOL    HW235712   3.259   2.470   1.029  0.8953  0.9846  1.4380
 8027SOL     OW35713   2.630   4.233   3.839 -0.1307 -0.0435  0.1285
 8027SOL    HW135714   2.606   4.183   3.917 -0.7921  0.1605  0.0543
 8027SOL    HW235715   2.660   4.312   3.883  2.0140 -1.1144  0.5882
 8028SOL     OW35716   0.319   2.794   8.414 -0.6920 -0.3324  0.6280
 8028SOL    HW135717   0.256   2.859   8.444  2.6325  2.6837  1.0249
 8028SOL    HW235718   0.265   2.745   8.350  2.1309 -2.4771 -0.1207
 8029SOL     OW35719   4.209   4.606  16.699  0.0388 -0.1164 -0.2076
 8029SOL    HW135720   4.140   4.540  16.708 -0.7245  0.4831 -1.6472
 8029SOL    HW235721   4.238   4.606  16.790  1.1584  2.3750 -0.5901
 8030SOL     OW35722   0.267   3.601   3.265  0.0389  0.2477 -0.0214
 8030SOL    HW135723   0.319   3.532   3.224 -1.3539 -0.1998 -1.0290
 8030SOL    HW235724   0.328   3.675   3.260  0.5703 -0.3272 -1.9793
 8031SOL     OW35725   4.381   2.513  13.369 -0.4684 -0.3005 -0.2640
 8031SOL    HW135726   4.453   2.576  13.367 -0.9983  0.3186  0.0750
 8031SOL    HW235727   4.402   2.456  13.443  1.9261  0.6634 -0.1894
 8032SOL     OW35728   3.224   0.464  16.669 -0.4331  0.1942  0.1921
 8032SOL    HW135729   3.246   0.385  16.620 -2.5795 -0.1279 -0.2606
 8032SOL    HW235730   3.291   0.463  16.737 -1.3477  4.6777  1.1547
 8033SOL     OW35731   1.577   0.416   4.222 -0.1400 -0.0023  0.1776
 8033SOL    HW135732   1.560   0.392   4.131 -1.3745 -0.1327  0.4422
 8033SOL    HW235733   1.598   0.324   4.240  0.8103  0.2065  0.1322
 8034SOL     OW35734   3.124   3.085  15.739 -0.2830  0.6525  0.5435
 8034SOL    HW135735   3.095   3.155  15.798  1.7938  0.3842  1.8674
 8034SOL    HW235736   3.193   3.127  15.688  1.1670 -1.9158  0.4188
 8035SOL     OW35737   3.987   2.143   9.603  0.5163  0.2588  0.0245
 8035SOL    HW135738   3.901   2.104   9.585  1.1862 -0.7711 -0.9231
 8035SOL    HW235739   4.015   2.082   9.672  1.6725  0.2343 -0.4702
 8036SOL     OW35740   2.909   3.207  10.842 -0.2079 -0.1932  0.7684
 8036SOL    HW135741   2.830   3.168  10.878 -1.7152  0.2807 -1.9875
 8036SOL    HW235742   2.984   3.190  10.899  0.8896  1.1641 -0.2548
 8037SOL     OW35743   1.404   0.927  16.666 -0.3566  0.7386 -0.6066
 8037SOL    HW135744   1.406   0.965  16.578  0.9926  1.1804 -0.3871
 8037SOL    HW235745   1.382   1.004  16.719  0.1242  1.1631 -1.0306
 8038SOL     OW35746   3.516   4.406   8.170  0.3003  0.9320 -0.3513
 8038SOL    HW135747   3.543   4.497   8.165 -2.5030  1.7905  0.3093
 8038SOL    HW235748   3.578   4.379   8.238 -0.4024 -3.4002 -1.4106
 8039SOL     OW35749   4.185   1.210   8.324 -0.0137 -0.0943  0.4260
 8039SOL    HW135750   4.199   1.249   8.411 -2.7267  0.4094  0.6634
 8039SOL    HW235751   4.266   1.226   8.276 -1.4494  2.0782 -1.3047
 8040SOL     OW35752   0.229   0.914   7.193 -0.3040 -0.1590  0.1841
 8040SOL    HW135753   0.166   0.850   7.161  0.5789 -0.7057 -0.4768
 8040SOL    HW235754   0.224   0.986   7.131 -0.0950  1.1833  1.7119
 8041SOL     OW35755   1.607   0.805   6.969  0.0310 -0.4840 -0.0921
 8041SOL    HW135756   1.654   0.751   7.032  1.8750  1.4657  0.1957
 8041SOL    HW235757   1.568   0.876   7.020 -0.6403 -1.5770  0.9147
 8042SOL     OW35758   3.999   3.923  10.122 -0.5742 -0.6664 -0.4608
 8042SOL    HW135759   3.970   3.832  10.127 -2.5646  0.0727  1.4282
 8042SOL    HW235760   3.975   3.948  10.211 -0.2543 -0.2867 -0.4821
 8043SOL     OW35761   1.553   0.020  16.671  0.0020 -0.2681  0.5659
 8043SOL    HW135762   1.488   0.005  16.740 -0.5820 -1.7786 -0.2986
 8043SOL    HW235763   1.625   4.698  16.699  0.3475  0.5890  1.4077
 8044SOL     OW35764   3.240   0.560   3.027 -0.7129  0.3642  0.2486
 8044SOL    HW135765   3.190   0.532   3.104  0.2029 -0.7856  0.4186
 8044SOL    HW235766   3.172   0.605   2.977 -0.4306 -2.3675 -2.5819
 8045SOL     OW35767   2.832   4.562  16.084 -0.1441 -0.5036  0.3758
 8045SOL    HW135768   2.837   4.639  16.141  1.5067 -0.3694  0.0475
 8045SOL    HW235769   2.755   4.578  16.029  1.3520  2.0845 -0.9445
 8046SOL     OW35770   1.634   1.392  16.784  0.0570  0.0229  0.5881
 8046SOL    HW135771   1.573   1.406  16.856  0.4339 -4.3513  1.7726
 8046SOL    HW235772   1.573   1.358  16.718 -0.6520  1.7054  0.3960
 8047SOL     OW35773   0.175   2.056   8.211 -0.1807  0.0927 -0.0686
 8047SOL    HW135774   0.176   2.118   8.138 -2.2506  0.0940 -0.1135
 8047SOL    HW235775   0.083   2.055   8.238  0.3148  3.4515  1.7237
 8048SOL     OW35776   1.857   4.594  16.806 -0.3201 -0.0449  0.8234
 8048SOL    HW135777   1.879   4.563  16.894 -1.2720 -3.8514 -0.2884
 8048SOL    HW235778   1.938   4.642  16.788  0.5514 -1.0196  2.2049
 8049SOL     OW35779   1.740   4.262   0.374 -0.0414  0.0226 -0.3030
 8049SOL    HW135780   1.724   4.356   0.377  1.2294  0.2204  0.1350
 8049SOL    HW235781   1.805   4.247   0.305  0.4421 -0.3272  0.2302
 8050SOL     OW35782   2.331   1.717   3.766  0.2384 -0.2327 -0.1375
 8050SOL    HW135783   2.306   1.772   3.841 -1.8387 -1.5252  0.1422
 8050SOL    HW235784   2.295   1.632   3.792  1.7652 -0.9272 -0.3495
 8051SOL     OW35785   1.585   1.827   2.323 -0.1187 -0.0769 -0.1908
 8051SOL    HW135786   1.506   1.881   2.316 -1.5049 -1.8749  1.4188
 8051SOL    HW235787   1.563   1.753   2.380 -1.1080 -0.3022 -0.8742
 8052SOL     OW35788   3.077   4.278   9.362  0.1415  0.2722  0.2406
 8052SOL    HW135789   3.045   4.253   9.449 -0.4139 -1.1070 -0.3535
 8052SOL    HW235790   3.003   4.289   9.303  1.9526 -0.5331 -2.1961
 8053SOL     OW35791   1.013   1.634   3.955 -0.7398 -0.0330  0.3698
 8053SOL    HW135792   0.991   1.542   3.967 -0.3819 -0.0598  0.7966
 8053SOL    HW235793   0.934   1.660   4.002  0.3546  2.9257  0.5828
 8054SOL     OW35794   1.287   3.259   1.160 -0.2109 -0.0647 -0.3845
 8054SOL    HW135795   1.311   3.324   1.226 -1.0172  0.0556 -0.2144
 8054SOL    HW235796   1.198   3.281   1.131 -0.1603 -0.6525 -0.9757
 8055SOL     OW35797   2.395   3.734   8.914  0.6834  0.3263  0.0217
 8055SOL    HW135798   2.355   3.660   8.869  1.3180 -0.1457  0.2376
 8055SOL    HW235799   2.460   3.774   8.857  0.9552 -0.4628 -0.2174
 8056SOL     OW35800   2.340   3.715  14.011  0.5273 -0.0714 -0.2855
 8056SOL    HW135801   2.338   3.763  13.928  0.1681  1.4295  0.5809
 8056SOL    HW235802   2.314   3.629  13.978  2.5909 -1.0512  0.6877
 8057SOL     OW35803   3.009   4.192   2.913 -0.4381  0.1525 -0.0730
 8057SOL    HW135804   3.093   4.185   2.958  0.1137 -1.6306 -1.3421
 8057SOL    HW235805   2.976   4.103   2.926 -0.1854  0.1664  0.6640
 8058SOL     OW35806   1.646   0.587   1.443  0.5971  0.1485 -0.8934
 8058SOL    HW135807   1.655   0.629   1.357 -1.3278 -0.6788 -1.4857
 8058SOL    HW235808   1.689   0.649   1.502 -0.9737 -0.1456  0.5334
 8059SOL     OW35809   2.759   2.741   4.723 -0.6783  0.0126 -0.6815
 8059SOL    HW135810   2.761   2.723   4.817 -0.9240 -0.6737 -0.8102
 8059SOL    HW235811   2.851   2.753   4.701 -0.3930 -1.1731 -0.1106
 8060SOL     OW35812   4.217   2.560   4.612 -0.1182  0.1095  0.1851
 8060SOL    HW135813   4.241   2.539   4.522 -1.7736  1.4587 -0.5741
 8060SOL    HW235814   4.214   2.473   4.652 -2.7426 -0.5739 -1.4986
 8061SOL     OW35815   0.615   2.278  13.383  0.0620  0.4613  0.2040
 8061SOL    HW135816   0.598   2.371  13.363 -1.0758  0.1952 -0.0621
 8061SOL    HW235817   0.710   2.271  13.370 -0.4416  0.0629 -3.3699
 8062SOL     OW35818   4.350   0.102   2.680 -0.4151 -0.4117 -0.1824
 8062SOL    HW135819   4.350   0.013   2.715 -1.9392 -1.3503 -2.5525
 8062SOL    HW235820   4.443   0.126   2.677 -0.6685  0.5398 -0.7514
 8063SOL     OW35821   3.282   1.465   4.970  0.1867  0.4577 -0.2772
 8063SOL    HW135822   3.280   1.459   5.066  0.6829  2.5358 -0.1422
 8063SOL    HW235823   3.229   1.387   4.956  0.2250 -0.0370  2.4107
 8064SOL     OW35824   3.303   0.125   2.947 -0.2259 -0.2681  0.7989
 8064SOL    HW135825   3.334   0.091   2.863 -1.7088  2.0390 -0.6799
 8064SOL    HW235826   3.211   0.138   2.922 -0.5287  0.4009  2.2157
 8065SOL     OW35827   3.583   1.537   2.947  0.2672  0.2688  0.0618
 8065SOL    HW135828   3.652   1.493   2.898  0.4848  0.3365  0.3042
 8065SOL    HW235829   3.527   1.554   2.872  0.4700 -1.2783 -0.4309
 8066SOL     OW35830   0.713   3.512  17.194  0.3225  0.0395 -0.2335
 8066SOL    HW135831   0.664   3.538  17.116 -1.0551 -1.2491  0.1998
 8066SOL    HW235832   0.683   3.422  17.207  1.1523 -0.1625  0.2943
 8067SOL     OW35833   4.531   0.680   4.543 -0.1391 -0.0206 -0.1434
 8067SOL    HW135834   4.600   0.743   4.522 -0.5198  0.4029 -0.1162
 8067SOL    HW235835   4.487   0.680   4.458 -0.8828  2.8494  0.2480
 8068SOL     OW35836   4.575   3.397   3.474 -0.1307 -0.5256 -0.0148
 8068SOL    HW135837   4.605   3.440   3.554  0.6490 -1.5012  0.2135
 8068SOL    HW235838   4.632   3.321   3.477  1.6946  0.9054  1.1822
 8069SOL     OW35839   2.991   0.312  12.615  0.2217  0.0446  0.2347
 8069SOL    HW135840   3.037   0.337  12.695 -0.8475 -0.5724  1.0439
 8069SOL    HW235841   2.992   0.219  12.639 -1.6082 -0.0181  0.0624
 8070SOL     OW35842   2.148   3.334   0.793  0.0578 -0.1529  0.1338
 8070SOL    HW135843   2.102   3.349   0.876 -0.1265 -2.3342  0.4336
 8070SOL    HW235844   2.073   3.345   0.735  1.9019  0.9790 -2.0284
 8071SOL     OW35845   1.896   4.412   7.128 -0.6305  0.6868 -0.2565
 8071SOL    HW135846   1.987   4.410   7.099 -0.7097 -0.0525 -0.4651
 8071SOL    HW235847   1.855   4.360   7.058  0.8686 -1.9819  0.8345
 8072SOL     OW35848   1.837   0.191  17.299 -0.5361  0.2081  0.6136
 8072SOL    HW135849   1.804   0.106  17.272  1.5941 -0.7199  0.9808
 8072SOL    HW235850   1.918   0.195  17.249 -0.5269 -1.3229  0.5336
 8073SOL     OW35851   4.003   2.622   3.059  0.4194 -0.0785 -0.3911
 8073SOL    HW135852   4.061   2.683   3.014 -0.8774  0.5546 -1.2083
 8073SOL    HW235853   3.944   2.689   3.093  3.2891  2.9787 -1.4266
 8074SOL     OW35854   1.950   0.620   5.792 -0.5164 -0.3878 -0.0932
 8074SOL    HW135855   1.926   0.668   5.713 -1.5810  1.5894  1.4401
 8074SOL    HW235856   1.877   0.630   5.853  1.1325 -3.0827  2.3785
 8075SOL     OW35857   1.563   3.818   5.996  0.5218 -0.5058  0.3806
 8075SOL    HW135858   1.529   3.745   6.049 -1.2508 -0.2433 -0.3809
 8075SOL    HW235859   1.655   3.813   6.022  0.1763  1.1026  1.9257
 8076SOL     OW35860   4.725   2.977   6.927  0.0208  0.3334 -0.7185
 8076SOL    HW135861   4.661   3.011   6.865  0.4225  1.2156 -0.6474
 8076SOL    HW235862   0.039   3.058   6.944  1.8478 -0.6004 -1.4323
 8077SOL     OW35863   1.224   3.211  15.950 -0.0131  0.1387  0.2070
 8077SOL    HW135864   1.311   3.185  15.981  0.3284  0.4984 -0.4325
 8077SOL    HW235865   1.169   3.148  15.996 -0.1725  0.3799  0.3496
 8078SOL     OW35866   0.463   3.148   2.784  0.6011  0.3146  0.3734
 8078SOL    HW135867   0.490   3.061   2.814  0.4846 -0.8379 -2.8491
 8078SOL    HW235868   0.371   3.137   2.764  0.9166  0.9024 -1.3580
 8079SOL     OW35869   2.981   1.480   3.112  0.0150 -0.2432  0.2719
 8079SOL    HW135870   3.047   1.415   3.087 -0.8240 -2.0249  2.5943
 8079SOL    HW235871   2.896   1.436   3.105 -1.1531  1.9009  1.2026
 8080SOL     OW35872   4.443   0.693   6.268  0.1285 -0.0179  0.0517
 8080SOL    HW135873   4.449   0.599   6.288  0.1857 -0.4782 -2.0932
 8080SOL    HW235874   4.535   0.711   6.290  0.3716 -3.1159  1.6537
 8081SOL     OW35875   4.707   3.788  13.547  0.0342 -0.5692 -0.3149
 8081SOL    HW135876   4.638   3.852  13.530 -0.8857 -1.1524  1.2268
 8081SOL    HW235877   0.032   3.846  13.595 -2.2046  1.7348 -0.3294
 8082SOL     OW35878   1.398   1.801   7.757  0.0156 -0.1214  0.0605
 8082SOL    HW135879   1.401   1.813   7.662  0.9411 -0.7991 -0.0002
 8082SOL    HW235880   1.477   1.848   7.785 -2.3984  4.3930 -0.7527
 8083SOL     OW35881   1.238   0.036   7.482  0.1390  0.1076  0.5703
 8083SOL    HW135882   1.145   0.049   7.499  0.2746  1.1812  0.4865
 8083SOL    HW235883   1.259   4.718   7.560  0.0496 -2.2443 -0.9876
 8084SOL     OW35884   3.399   0.741   7.582 -0.0537 -0.3653 -0.3638
 8084SOL    HW135885   3.321   0.733   7.527  0.7451  0.0077 -1.5582
 8084SOL    HW235886   3.447   0.666   7.547 -0.8837 -0.6744 -0.8414
 8085SOL     OW35887   0.592   2.329   2.554  0.3312 -0.0718 -0.4481
 8085SOL    HW135888   0.627   2.371   2.633 -0.6358  3.0360 -1.6914
 8085SOL    HW235889   0.670   2.326   2.499 -0.7825  3.1398 -2.2023
 8086SOL     OW35890   1.079   1.569  10.664  0.1026  0.0962 -0.3555
 8086SOL    HW135891   0.988   1.546  10.682  0.3414 -0.5390  0.0470
 8086SOL    HW235892   1.117   1.483  10.648  1.5529  0.5282  0.7902
 8087SOL     OW35893   4.312   4.405   6.049 -0.2432 -0.4882 -0.0463
 8087SOL    HW135894   4.405   4.395   6.029  0.4598 -1.3097  3.5910
 8087SOL    HW235895   4.299   4.496   6.023  0.0064  0.1407  1.9873
 8088SOL     OW35896   1.282   1.362   2.426 -0.5112  0.0859  0.0459
 8088SOL    HW135897   1.210   1.378   2.486 -0.1240  0.7669  0.3336
 8088SOL    HW235898   1.263   1.426   2.356 -1.3251 -0.8997 -0.6401
 8089SOL     OW35899   3.406   1.881  11.322  0.3980  0.0203  0.4225
 8089SOL    HW135900   3.389   1.909  11.232 -0.4047 -2.3805 -0.1738
 8089SOL    HW235901   3.377   1.960  11.369  0.3968  1.7086 -2.4053
 8090SOL     OW35902   2.997   3.734   8.805 -0.4501 -0.0572  0.0453
 8090SOL    HW135903   2.970   3.824   8.787 -1.2099 -0.3732 -0.4392
 8090SOL    HW235904   2.910   3.693   8.810  0.4577 -1.7758  1.6525
 8091SOL     OW35905   4.324   1.938   5.700 -0.4875 -0.0254  0.3210
 8091SOL    HW135906   4.260   2.007   5.718  2.0415  2.5438 -0.5808
 8091SOL    HW235907   4.288   1.898   5.622  1.4445  1.1882 -1.2160
 8092SOL     OW35908   1.255   0.522  14.199  0.5708 -0.4938 -0.1333
 8092SOL    HW135909   1.275   0.577  14.123 -1.5083 -0.4554 -0.6451
 8092SOL    HW235910   1.287   0.437  14.170 -1.4942 -0.7741 -1.5519
 8093SOL     OW35911   2.902   3.980   8.776 -0.6133 -0.2956 -0.1413
 8093SOL    HW135912   2.901   4.059   8.830  0.5981 -0.4253  0.0532
 8093SOL    HW235913   2.875   4.018   8.692 -1.1737  0.5638  0.4316
 8094SOL     OW35914   3.180   4.733  16.277  0.1410 -0.1442 -0.5276
 8094SOL    HW135915   3.184   0.086  16.316 -0.7135 -0.1186 -0.5039
 8094SOL    HW235916   3.134   0.020  16.196 -2.7383 -2.5888  0.4571
 8095SOL     OW35917   1.155   3.122   6.203  0.4064  0.8184  0.6925
 8095SOL    HW135918   1.086   3.070   6.243  0.6633 -1.7684 -2.2697
 8095SOL    HW235919   1.171   3.175   6.282  2.0910  1.5527 -0.1355
 8096SOL     OW35920   0.285   0.299   3.148 -0.5339 -0.1651 -0.3770
 8096SOL    HW135921   0.281   0.209   3.180 -0.6972 -1.5131 -4.1227
 8096SOL    HW235922   0.366   0.287   3.097 -0.6829  1.9644 -1.1201
 8097SOL     OW35923   3.251   3.804   8.730  0.6689  0.4789 -0.0644
 8097SOL    HW135924   3.161   3.772   8.733  0.5116  0.7954 -1.1494
 8097SOL    HW235925   3.306   3.734   8.764 -0.5306  0.2961  1.4848
 8098SOL     OW35926   4.201   2.256   4.165 -0.5656  0.4442  0.0516
 8098SOL    HW135927   4.110   2.226   4.166 -0.8444  0.9672 -5.0846
 8098SOL    HW235928   4.194   2.327   4.101  0.6870 -0.6376 -1.2928
 8099SOL     OW35929   1.667   1.199   8.502 -0.0473  0.1744 -0.3195
 8099SOL    HW135930   1.654   1.206   8.596 -2.6884 -0.7100 -0.6265
 8099SOL    HW235931   1.754   1.158   8.497 -0.2353 -0.1766 -0.7974
 8100SOL     OW35932   0.373   4.191  10.806 -0.4119 -0.4498 -0.4561
 8100SOL    HW135933   0.424   4.197  10.887 -1.2661 -2.0120  0.2088
 8100SOL    HW235934   0.396   4.264  10.750  0.9725 -0.5321  0.0094
 8101SOL     OW35935   3.449   1.173   2.095 -0.1322 -0.0475  0.1012
 8101SOL    HW135936   3.451   1.267   2.077 -2.0892 -0.6865 -3.3740
 8101SOL    HW235937   3.539   1.157   2.122  0.5434  3.4099 -0.1220
 8102SOL     OW35938   4.357   4.432   8.988 -0.2693  0.1357 -0.3184
 8102SOL    HW135939   4.406   4.362   9.031  1.8283 -0.0925 -3.1375
 8102SOL    HW235940   4.433   4.478   8.953 -0.2775  1.8488  1.9268
 8103SOL     OW35941   4.661   1.411   6.670  0.1926  0.5577 -0.1720
 8103SOL    HW135942   4.652   1.428   6.764 -0.0951  1.7023 -0.4056
 8103SOL    HW235943   4.714   1.331   6.673 -1.6738 -0.6963 -1.0759
 8104SOL     OW35944   4.603   1.267   5.386  0.1559 -0.3268  0.0451
 8104SOL    HW135945   4.624   1.352   5.345  2.2331 -1.2465 -0.8187
 8104SOL    HW235946   4.628   1.287   5.476  0.1707 -1.1554  0.2190
 8105SOL     OW35947   4.116   3.750   7.473  0.0769 -0.6789  0.7334
 8105SOL    HW135948   4.030   3.713   7.452  0.4630 -1.3191  0.2718
 8105SOL    HW235949   4.143   3.703   7.552  0.8730  0.0396  0.8790
 8106SOL     OW35950   0.527   0.688   7.244 -0.2732 -0.5489  0.6640
 8106SOL    HW135951   0.450   0.685   7.188  0.6393 -0.3355 -0.6130
 8106SOL    HW235952   0.491   0.679   7.332  1.4754 -0.6369  1.3787
 8107SOL     OW35953   4.305   3.709   9.601 -0.1412 -0.0292 -0.2462
 8107SOL    HW135954   4.355   3.683   9.679 -0.2733  1.3738  0.3060
 8107SOL    HW235955   4.232   3.760   9.635  1.0250  2.6857 -1.7935
 8108SOL     OW35956   2.002   2.232   8.197 -0.4229  0.1571  0.8405
 8108SOL    HW135957   2.009   2.137   8.210  0.2750  0.3944  2.1442
 8108SOL    HW235958   2.089   2.255   8.230 -0.7392  1.1548  0.9623
 8109SOL     OW35959   4.054   2.598   2.268 -0.2061  0.3372  0.0200
 8109SOL    HW135960   4.048   2.555   2.183 -0.4803  0.4048  0.0049
 8109SOL    HW235961   4.147   2.596   2.290 -0.5431 -1.1708  1.2652
 8110SOL     OW35962   4.022   3.072   7.990  0.6024  0.5817 -0.7082
 8110SOL    HW135963   4.080   3.098   8.061 -2.8408 -0.5669  2.5384
 8110SOL    HW235964   4.092   3.034   7.937  0.1531  1.4308 -1.9138
 8111SOL     OW35965   0.464   2.201  15.327  0.3326 -0.0901  0.2995
 8111SOL    HW135966   0.387   2.206  15.383 -0.8545 -1.4673 -1.2391
 8111SOL    HW235967   0.480   2.107  15.331  0.1908 -0.1561 -0.7439
 8112SOL     OW35968   0.661   0.778   4.370 -0.3198  0.3703  0.1928
 8112SOL    HW135969   0.669   0.752   4.278  0.5063 -0.7004  0.5583
 8112SOL    HW235970   0.594   0.719   4.403  0.2893  0.5424  1.7349
 8113SOL     OW35971   2.617   0.006   2.079  0.0928  0.9784  0.4621
 8113SOL    HW135972   2.677   4.692   2.136  0.5274  0.7906 -0.1492
 8113SOL    HW235973   2.629   4.704   1.991  0.2654  3.4170 -0.5278
 8114SOL     OW35974   2.158   1.931   2.644 -0.0371  0.1691  1.0203
 8114SOL    HW135975   2.078   1.885   2.617  0.4982  0.2370 -0.7395
 8114SOL    HW235976   2.136   2.022   2.624  1.1827  0.2741  0.1499
 8115SOL     OW35977   3.133   3.967  12.441 -0.1419  0.0163 -0.0314
 8115SOL    HW135978   3.225   3.941  12.434 -0.0636  0.1673  0.4729
 8115SOL    HW235979   3.094   3.883  12.415  1.9568 -1.0803  0.3093
 8116SOL     OW35980   1.264   2.198   7.102 -0.6479  0.1171 -0.0249
 8116SOL    HW135981   1.324   2.247   7.158 -0.7841 -2.6840  2.5621
 8116SOL    HW235982   1.315   2.192   7.022 -1.5686 -0.4591 -0.5580
 8117SOL     OW35983   1.224   1.302   5.029  0.1365  0.1724  0.1631
 8117SOL    HW135984   1.233   1.389   4.991 -1.0603  0.3450  0.2771
 8117SOL    HW235985   1.177   1.254   4.961 -1.2186  0.3102  1.0126
 8118SOL     OW35986   0.510   0.836   9.547 -0.4423  0.8211 -0.4138
 8118SOL    HW135987   0.549   0.922   9.566  0.8162 -0.2523  1.9516
 8118SOL    HW235988   0.418   0.860   9.543 -0.3584  0.8911 -1.8676
 8119SOL     OW35989   0.525   1.965   2.927  0.1445 -0.0292  0.4060
 8119SOL    HW135990   0.616   1.938   2.929 -0.6023 -2.6528 -0.9169
 8119SOL    HW235991   0.525   2.053   2.966 -0.5012  0.6032 -0.9657
 8120SOL     OW35992   3.995   0.730  12.835  0.6158  0.2028 -0.5268
 8120SOL    HW135993   4.014   0.714  12.742 -1.1886  0.0124 -0.8754
 8120SOL    HW235994   4.013   0.823  12.822 -0.7889  0.4880 -0.5062
 8121SOL     OW35995   3.522   4.220   2.873  0.5336 -0.3180  0.1605
 8121SOL    HW135996   3.517   4.199   2.780  2.7983 -1.0630  0.1979
 8121SOL    HW235997   3.612   4.196   2.898  1.0479  0.3319 -1.0965
 8122SOL     OW35998   4.282   4.621   7.085 -0.5255 -0.4935 -0.3558
 8122SOL    HW135999   4.295   4.631   6.991  0.1941  1.4291 -0.0710
 8122SOL    HW236000   4.271   4.713   7.110 -1.9528 -0.6484 -0.4222
 8123SOL     OW36001   2.868   0.696   5.103 -0.2949  0.4453  0.4052
 8123SOL    HW136002   2.913   0.657   5.029  1.3724  1.6091  0.7837
 8123SOL    HW236003   2.799   0.633   5.121  0.0355 -0.6227 -2.0839
 8124SOL     OW36004   0.043   3.290   2.845  0.0625 -0.0528 -0.1742
 8124SOL    HW136005   0.115   3.352   2.858  0.4897 -1.0532  2.2115
 8124SOL    HW236006   4.724   3.329   2.776  0.7575 -0.2348 -0.8121
 8125SOL     OW36007   3.261   3.222   3.797 -0.1483 -0.1993  0.2402
 8125SOL    HW136008   3.348   3.182   3.796 -0.0830 -0.0355 -0.9248
 8125SOL    HW236009   3.215   3.153   3.748 -0.4700  1.3988 -1.6888
 8126SOL     OW36010   3.418   0.470   3.878 -0.0823 -0.6370  0.5759
 8126SOL    HW136011   3.446   0.491   3.788 -3.0193  1.8871  0.2683
 8126SOL    HW236012   3.471   0.521   3.939 -1.4386 -1.0444  2.0863
 8127SOL     OW36013   3.907   2.134   3.755 -0.1407  0.3429 -0.4363
 8127SOL    HW136014   3.857   2.158   3.676 -3.9080 -0.1656  1.7792
 8127SOL    HW236015   3.921   2.215   3.804  0.0051  0.8039 -1.2440
 8128SOL     OW36016   3.304   3.310   4.411  0.7212  0.1251 -0.6806
 8128SOL    HW136017   3.286   3.232   4.358 -0.6164 -1.2481  1.7803
 8128SOL    HW236018   3.349   3.269   4.484  3.0894  2.0275 -1.0957
 8129SOL     OW36019   1.614   0.164   5.737 -0.2487  0.0674 -0.7384
 8129SOL    HW136020   1.678   0.198   5.799 -0.7094  0.5874 -0.5400
 8129SOL    HW236021   1.624   0.237   5.674 -0.2372 -0.8639 -1.8178
 8130SOL     OW36022   1.019   4.675   3.659 -0.1005 -0.0354  0.0685
 8130SOL    HW136023   1.028   4.647   3.751 -0.1446 -0.4468 -0.0533
 8130SOL    HW236024   0.969   4.598   3.631 -0.0922  0.1720 -0.5072
 8131SOL     OW36025   4.389   3.368   4.648  0.0516 -0.2177 -0.0139
 8131SOL    HW136026   4.324   3.310   4.688  1.3452 -1.0658  0.8741
 8131SOL    HW236027   4.432   3.396   4.730  1.3758 -2.2914  0.0062
 8132SOL     OW36028   4.596   2.414   8.295  0.3381 -0.7352  0.1408
 8132SOL    HW136029   4.530   2.481   8.312  1.5465  1.2071 -2.8633
 8132SOL    HW236030   4.536   2.362   8.241  2.8288 -2.7226 -0.7422
 8133SOL     OW36031   3.350   3.136   8.197  0.1463  0.5736 -0.0383
 8133SOL    HW136032   3.356   3.157   8.290 -2.1806  2.5283 -0.3314
 8133SOL    HW236033   3.433   3.089   8.186 -0.1741  0.4304 -1.8531
 8134SOL     OW36034   0.953   3.812   5.560 -0.0768  0.6360 -0.1226
 8134SOL    HW136035   0.917   3.807   5.649  0.4759 -1.5968 -0.0332
 8134SOL    HW236036   0.886   3.860   5.512 -1.3860  0.3978  1.4760
 8135SOL     OW36037   0.219   2.726   9.715  0.3522 -0.0369  0.2431
 8135SOL    HW136038   0.267   2.713   9.796 -0.2164 -0.3503  0.5303
 8135SOL    HW236039   0.130   2.703   9.740  0.2625  1.0837  0.9076
 8136SOL     OW36040   2.513   4.356   6.836 -0.2040 -0.0860 -0.0875
 8136SOL    HW136041   2.518   4.263   6.855  0.0953  0.1491  0.9993
 8136SOL    HW236042   2.522   4.394   6.923 -0.0747  0.2545 -0.2488
 8137SOL     OW36043   2.193   2.119   6.044  0.1097 -0.3733  0.2006
 8137SOL    HW136044   2.117   2.144   5.990  1.2056 -0.0066 -1.1773
 8137SOL    HW236045   2.265   2.147   5.988 -0.9958  0.2244 -0.9234
 8138SOL     OW36046   2.093   4.053  14.182 -0.1891  0.7503 -0.3422
 8138SOL    HW136047   2.057   4.038  14.094 -0.7968 -1.2529  0.2351
 8138SOL    HW236048   2.188   4.054  14.166  0.0491  2.0728  1.2004
 8139SOL     OW36049   2.478   4.384   5.519  0.0681 -0.0905 -0.0145
 8139SOL    HW136050   2.482   4.477   5.541  0.0569 -0.2646  0.7365
 8139SOL    HW236051   2.421   4.383   5.443  0.8493  0.6923 -0.6094
 8140SOL     OW36052   3.833   2.321   3.152 -0.1283  0.4777  0.4697
 8140SOL    HW136053   3.814   2.233   3.184 -1.3011  0.2672 -0.8210
 8140SOL    HW236054   3.929   2.318   3.157 -0.0039 -1.1662 -3.0048
 8141SOL     OW36055   4.231   0.224   6.611  0.0214 -0.3810 -0.0644
 8141SOL    HW136056   4.257   0.152   6.553  0.3859  0.7709 -1.3429
 8141SOL    HW236057   4.137   0.233   6.592  0.1979  0.5870 -0.5002
 8142SOL     OW36058   3.557   0.613   4.056 -0.2335 -0.0473 -0.3495
 8142SOL    HW136059   3.611   0.686   4.027  1.7376 -0.0748  3.2179
 8142SOL    HW236060   3.582   0.605   4.148 -1.7671 -1.1447 -0.0202
 8143SOL     OW36061   1.580   1.415   3.293  0.0248 -0.4450  0.1388
 8143SOL    HW136062   1.608   1.331   3.329 -2.0151 -0.5149  1.5696
 8143SOL    HW236063   1.665   1.440   3.258 -1.3593  1.8878 -1.5549
 8144SOL     OW36064   3.461   4.691  11.137 -0.1189  0.6912  0.4507
 8144SOL    HW136065   3.505   4.704  11.221  0.7984  1.1727 -0.1061
 8144SOL    HW236066   3.528   4.642  11.089  0.6122  2.5663 -0.4584
 8145SOL     OW36067   1.342   4.167   7.035 -0.2214 -0.2604 -0.3493
 8145SOL    HW136068   1.385   4.248   7.064  1.6705 -1.0934 -0.8585
 8145SOL    HW236069   1.404   4.131   6.972  2.2582  2.7547  0.3559
 8146SOL     OW36070   1.812   3.689  17.383 -0.5581 -0.8291 -0.1052
 8146SOL    HW136071   1.739   3.673  17.323 -1.5788  0.7490  0.7179
 8146SOL    HW236072   1.804   3.783  17.395 -0.0520 -0.7732 -0.2228
 8147SOL     OW36073   4.154   2.170  11.848  0.0304 -0.8069  0.0077
 8147SOL    HW136074   4.108   2.249  11.875  1.3006 -0.1361  0.2116
 8147SOL    HW236075   4.245   2.197  11.833 -0.4217 -0.1754 -1.6261
 8148SOL     OW36076   1.368   1.378  15.431  0.4531 -0.2425 -0.3995
 8148SOL    HW136077   1.325   1.377  15.345 -1.5447  1.0835  0.5540
 8148SOL    HW236078   1.325   1.302  15.469  1.7429 -1.2444 -0.9666
 8149SOL     OW36079   0.739   1.992  17.338 -0.4033 -0.3424 -0.7083
 8149SOL    HW136080   0.774   1.967  17.424 -1.1042 -1.7731 -0.8398
 8149SOL    HW236081   0.790   2.072  17.322 -0.0531 -0.6868 -1.3341
 8150SOL     OW36082   1.539   4.085   6.845  0.2118 -0.0935  0.5085
 8150SOL    HW136083   1.525   4.012   6.784  1.3957  0.2755 -0.1994
 8150SOL    HW236084   1.575   4.039   6.921  1.9394  0.8380  0.2512
 8151SOL     OW36085   1.424   2.724  17.513  0.6776 -0.1154  0.3983
 8151SOL    HW136086   1.399   2.783  17.584  0.2400  0.8830 -0.6008
 8151SOL    HW236087   1.407   2.780  17.438  0.7733 -0.5505  0.0506
 8152SOL     OW36088   3.009   1.777   2.081 -0.4443 -0.2314 -0.4421
 8152SOL    HW136089   2.923   1.773   2.122  0.8020 -0.7564  2.1077
 8152SOL    HW236090   3.005   1.697   2.028 -2.8625  0.2703 -1.0137
 8153SOL     OW36091   4.455   2.592   6.988  0.3151 -0.6572 -0.0048
 8153SOL    HW136092   4.399   2.633   7.055 -2.8834  0.5376 -3.4161
 8153SOL    HW236093   4.388   2.557   6.929  1.9602 -2.2966 -0.9004
 8154SOL     OW36094   0.372   1.756   8.690  0.2353  0.0263 -0.5791
 8154SOL    HW136095   0.279   1.778   8.697 -0.5632 -3.6931  1.0676
 8154SOL    HW236096   0.409   1.844   8.688  1.2893 -0.2802  3.5739
 8155SOL     OW36097   1.150   2.307  12.324 -0.0349  0.2350 -0.4762
 8155SOL    HW136098   1.191   2.252  12.257  0.6382 -1.0452  0.9734
 8155SOL    HW236099   1.231   2.336  12.367 -0.9625 -0.7897  1.9929
 8156SOL     OW36100   2.953   2.922  10.636 -0.3025  0.8760  0.2215
 8156SOL    HW136101   2.922   2.996  10.585  2.1089  0.8248 -1.3326
 8156SOL    HW236102   2.903   2.845  10.609  0.6142  0.4861 -0.3715
 8157SOL     OW36103   1.580   1.952  14.282 -0.1720 -0.2244 -0.6353
 8157SOL    HW136104   1.506   1.905  14.244 -0.5168 -1.3654  1.4785
 8157SOL    HW236105   1.586   2.033  14.232  3.7332 -0.0070  0.1365
 8158SOL     OW36106   2.316   0.070  12.947 -0.0925  0.0477 -0.2991
 8158SOL    HW136107   2.228   0.040  12.925  0.7573 -0.4419 -2.9721
 8158SOL    HW236108   2.343   0.132  12.879  0.4447 -1.4882 -1.4809
 8159SOL     OW36109   1.080   1.701   7.428 -0.3066  0.2640  0.6324
 8159SOL    HW136110   1.038   1.779   7.464  1.1433  0.5798  1.6608
 8159SOL    HW236111   1.021   1.674   7.358 -0.3275  0.9307  0.3913
 8160SOL     OW36112   3.020   1.677  16.250  0.2570 -0.5359 -0.5172
 8160SOL    HW136113   2.979   1.605  16.297 -1.3702  0.6233 -0.1577
 8160SOL    HW236114   2.951   1.742  16.262  0.7300  0.2043 -1.8129
 8161SOL     OW36115   1.109   3.034   7.581  0.1035  0.1629  0.6639
 8161SOL    HW136116   1.077   3.109   7.632  0.9148  0.3585  0.9007
 8161SOL    HW236117   1.076   2.959   7.630 -1.0596 -0.2019 -0.7093
 8162SOL     OW36118   2.087   3.837   6.594 -0.7220  0.0021 -0.4257
 8162SOL    HW136119   2.004   3.854   6.550  0.0527  3.3463 -0.5554
 8162SOL    HW236120   2.143   3.901   6.551  1.0630 -1.3539 -0.0913
 8163SOL     OW36121   4.273   0.525  11.067  0.1064 -0.6125 -0.3294
 8163SOL    HW136122   4.300   0.447  11.019  2.7578  0.8250 -1.1686
 8163SOL    HW236123   4.326   0.524  11.146  0.0177 -0.6287 -0.2699
 8164SOL     OW36124   1.313   0.455   5.017 -0.5854 -0.7008  0.3331
 8164SOL    HW136125   1.305   0.402   5.097 -0.8789 -0.7414  0.2762
 8164SOL    HW236126   1.304   0.548   5.038  1.1255 -0.8949  2.0041
 8165SOL     OW36127   0.915   2.882  16.864 -0.2744  0.2302  0.2216
 8165SOL    HW136128   0.827   2.849  16.881 -0.9348  0.4679 -2.7365
 8165SOL    HW236129   0.914   2.917  16.775  0.7987  0.8338  0.4348
 8166SOL     OW36130   2.579   1.259   5.274 -0.3179  0.4735 -0.4549
 8166SOL    HW136131   2.485   1.249   5.264 -0.3516 -2.7161  2.7888
 8166SOL    HW236132   2.589   1.339   5.223 -2.9316  1.4511  0.6012
 8167SOL     OW36133   0.366   0.787   3.736  0.4144  0.0954  0.0344
 8167SOL    HW136134   0.287   0.828   3.771  0.2294 -1.0806  0.9973
 8167SOL    HW236135   0.415   0.865   3.711 -2.6171  1.6041 -1.2328
 8168SOL     OW36136   4.668   4.551   1.027  0.3200  0.8959 -0.0184
 8168SOL    HW136137   4.603   4.482   1.039  0.0203  1.7145  3.0434
 8168SOL    HW236138   4.729   4.537   1.099 -0.9192 -0.3003  0.8000
 8169SOL     OW36139   0.510   3.615   6.885  0.6289 -0.0058  0.5786
 8169SOL    HW136140   0.499   3.700   6.842 -0.9373  0.0189  1.0372
 8169SOL    HW236141   0.598   3.586   6.862  0.6366 -0.2151  0.8619
 8170SOL     OW36142   3.570   3.107   0.889 -0.1391 -0.8644  0.5951
 8170SOL    HW136143   3.507   3.106   0.818  0.0674  0.8349  0.4073
 8170SOL    HW236144   3.520   3.170   0.940 -1.2085 -1.7277  0.6064
 8171SOL     OW36145   0.823   4.488   2.563  0.4732 -0.7897 -0.0788
 8171SOL    HW136146   0.728   4.495   2.565  0.6604  1.6989  0.4521
 8171SOL    HW236147   0.836   4.419   2.498 -1.4963 -0.2702 -1.0342
 8172SOL     OW36148   3.089   2.397  14.043  0.4165  0.7129 -0.5360
 8172SOL    HW136149   2.996   2.395  14.021  0.5220 -1.5431 -0.7215
 8172SOL    HW236150   3.123   2.426  13.958  1.6403  0.4774 -0.1192
 8173SOL     OW36151   3.986   0.246   6.520  0.4533 -0.2144  0.0502
 8173SOL    HW136152   3.899   0.230   6.557  0.5903  2.4140  1.5813
 8173SOL    HW236153   3.968   0.330   6.477 -0.4432  0.6847  2.1657
 8174SOL     OW36154   0.148   3.500   6.500  0.9248 -0.0576 -0.0960
 8174SOL    HW136155   0.112   3.435   6.561 -0.1049 -1.7588 -2.5118
 8174SOL    HW236156   0.162   3.576   6.555 -2.1252 -0.0496  0.6786
 8175SOL     OW36157   1.713   0.558   2.965  0.2703  0.0690  0.1849
 8175SOL    HW136158   1.646   0.603   3.016  1.6915  1.8165  0.5091
 8175SOL    HW236159   1.660   0.549   2.886  1.2416  2.0407 -0.6966
 8176SOL     OW36160   3.962   2.805   9.618  0.3615 -0.1014 -0.0721
 8176SOL    HW136161   3.975   2.763   9.703 -1.2797 -0.2889  0.0829
 8176SOL    HW236162   4.020   2.881   9.622 -1.3390  1.1196  1.4237
 8177SOL     OW36163   2.995   3.139   7.663 -0.6204  0.0342 -0.0065
 8177SOL    HW136164   2.964   3.079   7.730  1.1178 -0.3143  0.4942
 8177SOL    HW236165   3.075   3.178   7.699 -1.7591 -0.5110  3.0634
 8178SOL     OW36166   3.694   4.211  11.107  0.2090  0.3416  0.0660
 8178SOL    HW136167   3.655   4.252  11.184  2.4983  2.8906 -0.1549
 8178SOL    HW236168   3.663   4.120  11.110  1.6190 -0.0950  1.5163
 8179SOL     OW36169   0.211   4.192   1.692 -0.9681  0.0119  0.5453
 8179SOL    HW136170   0.252   4.219   1.610  0.1705 -0.7969  0.8511
 8179SOL    HW236171   0.118   4.216   1.684 -1.3706 -1.3185  1.1789
 8180SOL     OW36172   0.881   1.097   8.212 -0.6902  0.3241  0.8033
 8180SOL    HW136173   0.937   1.044   8.268  0.6398  2.5167  1.5074
 8180SOL    HW236174   0.806   1.039   8.195  0.2434 -1.4512  2.8145
 8181SOL     OW36175   2.496   3.228   5.949 -0.3766  0.6178  0.1567
 8181SOL    HW136176   2.424   3.197   6.003 -0.8181  0.1590 -0.6872
 8181SOL    HW236177   2.558   3.156   5.956  0.5457  1.5015  0.9015
 8182SOL     OW36178   0.963   0.299   3.985 -0.0147 -0.1243  0.0021
 8182SOL    HW136179   0.892   0.235   3.996 -0.8576  1.1219  1.7962
 8182SOL    HW236180   0.921   0.368   3.933  2.4789  0.6862 -0.9423
 8183SOL     OW36181   0.697   1.152   7.599  0.1237  0.5392  0.0188
 8183SOL    HW136182   0.661   1.063   7.597  1.5702  0.0075 -2.0562
 8183SOL    HW236183   0.674   1.176   7.509 -1.1064  1.0342  0.4652
 8184SOL     OW36184   1.094   1.399   8.291  0.5000  0.5260 -0.5412
 8184SOL    HW136185   1.161   1.334   8.270  0.7820  0.8396 -0.6168
 8184SOL    HW236186   1.132   1.476   8.247  0.9054  0.5611 -0.1409
 8185SOL     OW36187   1.308   2.156   7.896 -0.2832  0.2611  0.5400
 8185SOL    HW136188   1.294   2.251   7.890  4.3056  0.9110  0.0039
 8185SOL    HW236189   1.398   2.150   7.865 -0.5618  1.2464 -0.4565
 8186SOL     OW36190   3.600   3.442   6.739 -0.4883 -0.7726  0.2687
 8186SOL    HW136191   3.538   3.434   6.667  0.2592 -1.6085 -0.2751
 8186SOL    HW236192   3.585   3.356   6.778 -1.8711 -0.1577  1.0745
 8187SOL     OW36193   4.075   4.434   8.614  0.4780  0.4758 -0.4507
 8187SOL    HW136194   4.022   4.414   8.536 -0.3678 -0.6297  0.4100
 8187SOL    HW236195   4.011   4.456   8.682  0.0506 -0.7133 -0.4754
 8188SOL     OW36196   0.193   4.119   5.902 -0.2943 -0.2359 -0.8504
 8188SOL    HW136197   0.111   4.111   5.951  0.1839  1.6823  0.2740
 8188SOL    HW236198   0.155   4.158   5.824  2.0391  1.9663 -0.8795
 8189SOL     OW36199   2.134   4.107   2.065 -0.4236 -0.6497 -0.1030
 8189SOL    HW136200   2.056   4.161   2.059 -2.5381 -3.8638 -1.5438
 8189SOL    HW236201   2.143   4.101   2.160  0.3863  4.1289  0.1071
 8190SOL     OW36202   3.713   4.419   6.739 -0.2432  0.7466 -0.0659
 8190SOL    HW136203   3.688   4.505   6.703 -1.2492  0.0630 -0.9929
 8190SOL    HW236204   3.631   4.384   6.773  0.4778 -0.8834 -0.0003
 8191SOL     OW36205   0.704   0.456  10.529  0.4621 -0.3295 -0.3992
 8191SOL    HW136206   0.624   0.441  10.580  0.5533 -0.5085 -0.3108
 8191SOL    HW236207   0.773   0.471  10.593  0.9544 -0.7505 -0.8339
 8192SOL     OW36208   3.067   0.049   5.014  0.4499  0.1745  0.0088
 8192SOL    HW136209   3.114   4.700   5.010 -2.2528 -1.3753 -0.0216
 8192SOL    HW236210   2.988   0.045   4.960 -0.0788 -0.5768  0.8423
 8193SOL     OW36211   2.579   1.781   6.320 -0.3723  0.6957 -0.2678
 8193SOL    HW136212   2.555   1.696   6.283 -0.1839  0.2331  0.6906
 8193SOL    HW236213   2.673   1.795   6.313 -0.3564 -0.7448 -3.0836
 8194SOL     OW36214   1.183   0.106   3.960  0.4710  0.2295 -0.2336
 8194SOL    HW136215   1.206   0.092   4.052 -1.3468 -0.8612  0.0647
 8194SOL    HW236216   1.148   0.195   3.958  0.1695  0.1487  2.0232
 8195SOL     OW36217   3.714   1.528   5.579 -0.1347 -0.1928  0.4924
 8195SOL    HW136218   3.760   1.564   5.655 -1.7578 -0.3393  1.5369
 8195SOL    HW236219   3.623   1.520   5.609 -0.4803 -2.8905 -1.2241
 8196SOL     OW36220   2.094   1.218   9.086  0.0426  0.2725 -0.9250
 8196SOL    HW136221   2.162   1.279   9.112 -0.6596  0.2735  0.9763
 8196SOL    HW236222   2.123   1.173   9.007  2.8640 -0.2007  0.3803
 8197SOL     OW36223   2.764   0.644   6.236 -0.4782 -0.2128  0.0383
 8197SOL    HW136224   2.803   0.557   6.243  0.2343  0.1524  0.5757
 8197SOL    HW236225   2.814   0.677   6.161  0.2830  1.8741  1.4490
 8198SOL     OW36226   4.145   2.921  14.572 -0.0809  0.1271  0.0507
 8198SOL    HW136227   4.052   2.918  14.548 -0.8962  0.4912  3.0968
 8198SOL    HW236228   4.133   2.922  14.667  0.3120  0.1961  0.1009
 8199SOL     OW36229   3.408   1.278   8.886 -0.4257 -0.9116 -0.0642
 8199SOL    HW136230   3.401   1.236   8.801 -1.9685 -1.3946  0.3091
 8199SOL    HW236231   3.463   1.353   8.861 -0.1189 -0.7041  1.2240
 8200SOL     OW36232   4.200   0.066   4.788 -0.0100 -0.0216  0.1374
 8200SOL    HW136233   4.239   0.072   4.875 -0.3230  0.0004  0.2752
 8200SOL    HW236234   4.139   0.140   4.790 -0.4478 -0.3183 -1.6078
 8201SOL     OW36235   0.431   3.549   2.680 -0.1220  0.1015 -0.0532
 8201SOL    HW136236   0.489   3.494   2.732  0.5113  0.4523 -0.3913
 8201SOL    HW236237   0.442   3.502   2.598 -0.6453  0.3290 -0.2593
 8202SOL     OW36238   0.095   2.582  15.757  0.1834  0.5084  0.0559
 8202SOL    HW136239   0.022   2.643  15.747 -1.1572 -0.7811  2.0987
 8202SOL    HW236240   0.137   2.598  15.842  1.3292 -0.5725 -0.3049
 8203SOL     OW36241   2.073   0.061   4.583  0.3584 -0.1801 -0.2022
 8203SOL    HW136242   2.058   0.000   4.511 -0.1194 -1.0306  0.6291
 8203SOL    HW236243   2.169   0.064   4.592  0.5622  0.2245 -2.2982
 8204SOL     OW36244   2.970   0.474   1.309  0.1115 -0.5020 -0.6226
 8204SOL    HW136245   2.888   0.426   1.321 -0.8157  1.1087 -0.4385
 8204SOL    HW236246   3.019   0.406   1.262 -1.2697 -0.6229 -1.8958
 8205SOL     OW36247   1.610   3.159  14.274 -0.4010  0.0308 -0.0228
 8205SOL    HW136248   1.591   3.109  14.353  0.8283  1.1024  0.9606
 8205SOL    HW236249   1.593   3.089  14.211 -0.2836 -1.1121  1.2159
 8206SOL     OW36250   2.664   4.272   0.877 -0.4169  0.1790 -0.1607
 8206SOL    HW136251   2.588   4.306   0.924 -0.1362  0.3534  0.1591
 8206SOL    HW236252   2.624   4.196   0.833 -0.0524  0.2073 -0.5465
 8207SOL     OW36253   0.683   0.729   3.421  0.4954 -0.3173 -0.3998
 8207SOL    HW136254   0.591   0.753   3.426  0.5538 -0.3489  0.7786
 8207SOL    HW236255   0.691   0.640   3.387  0.6970 -0.5735  0.3181
 8208SOL     OW36256   2.596   1.056   5.856  0.5223 -0.0391 -0.1662
 8208SOL    HW136257   2.569   0.981   5.804 -0.1382 -0.6179  1.0014
 8208SOL    HW236258   2.624   1.003   5.931  1.4305  0.4016 -0.1905
 8209SOL     OW36259   1.375   3.351   1.670 -0.6877  0.6863  0.1809
 8209SOL    HW136260   1.341   3.428   1.625 -0.3622  2.4555  2.9982
 8209SOL    HW236261   1.451   3.383   1.719 -1.5440  2.7719  0.1320
 8210SOL     OW36262   2.461   0.582  17.585  0.1319  0.1406 -0.2182
 8210SOL    HW136263   2.551   0.550  17.585  0.1952  0.2873 -3.0037
 8210SOL    HW236264   2.428   0.524  17.516  0.2774  0.4938 -0.5847
 8211SOL     OW36265   0.089   3.026   3.885  0.5251  0.0799 -0.1999
 8211SOL    HW136266   0.117   2.980   3.806 -0.1293 -1.1989  0.2991
 8211SOL    HW236267   4.730   3.032   3.864  0.0107  0.0068  2.0628
 8212SOL     OW36268   2.428   3.354   2.823  0.4755  0.3836 -0.2165
 8212SOL    HW136269   2.363   3.285   2.837 -0.1524  0.5974 -2.1694
 8212SOL    HW236270   2.474   3.339   2.906  1.7532  2.1695 -0.5945
 8213SOL     OW36271   3.938   1.563   6.780 -0.1534  0.9989 -0.1342
 8213SOL    HW136272   4.007   1.512   6.740 -1.8597 -0.6247 -0.9916
 8213SOL    HW236273   3.991   1.641   6.800 -0.4430  1.0078  0.6141
 8214SOL     OW36274   4.326   4.172  14.435  0.1302  0.0382 -0.4597
 8214SOL    HW136275   4.409   4.205  14.471 -0.2966  0.6832 -0.0692
 8214SOL    HW236276   4.338   4.096  14.378 -2.1859  1.9685 -3.4752
 8215SOL     OW36277   2.457   4.486  16.225 -0.4854  0.2027 -0.1429
 8215SOL    HW136278   2.423   4.400  16.197 -1.8149 -0.2351  2.8148
 8215SOL    HW236279   2.435   4.486  16.318 -0.2067 -0.3561 -0.0745
 8216SOL     OW36280   3.104   3.511   6.663  0.1227  0.3472 -0.7670
 8216SOL    HW136281   3.127   3.585   6.719  0.9560  0.7218 -1.5794
 8216SOL    HW236282   3.176   3.447   6.662 -1.7797 -1.7778 -0.9888
 8217SOL     OW36283   2.992   3.977   3.156  0.0579  0.3167 -0.0797
 8217SOL    HW136284   2.970   3.898   3.206  0.7163 -0.7031 -1.3979
 8217SOL    HW236285   2.924   3.956   3.093 -0.5442  1.5042  0.1714
 8218SOL     OW36286   1.766   1.801  10.459 -0.3345  0.0830 -0.9937
 8218SOL    HW136287   1.704   1.766  10.523 -0.7536 -0.3205 -1.6163
 8218SOL    HW236288   1.713   1.854  10.398 -2.2662 -0.1813  0.4479
 8219SOL     OW36289   1.715   1.242   6.799  0.4185 -0.4548  0.1943
 8219SOL    HW136290   1.690   1.231   6.707 -3.6354  0.1793  1.1849
 8219SOL    HW236291   1.634   1.209   6.840  0.4257 -0.0877  0.5099
 8220SOL     OW36292   3.440   1.563   8.835  0.3152 -0.4774 -0.6705
 8220SOL    HW136293   3.346   1.575   8.818  0.2578 -0.1599 -0.1367
 8220SOL    HW236294   3.476   1.643   8.798 -0.5123 -1.1172 -2.8884
 8221SOL     OW36295   0.254   3.189   6.271 -0.5024 -0.1904  0.2242
 8221SOL    HW136296   0.288   3.108   6.234 -1.7104 -0.4135 -0.4184
 8221SOL    HW236297   0.214   3.151   6.349 -1.7605  0.9492  0.1574
 8222SOL     OW36298   2.990   4.356   5.955  0.0446 -0.1025 -0.0917
 8222SOL    HW136299   2.967   4.437   6.000  0.4426 -0.1996  0.2788
 8222SOL    HW236300   3.048   4.387   5.885 -2.3637 -1.4970 -2.7196
 8223SOL     OW36301   1.314   1.164  13.905 -0.0669  0.5852  0.1538
 8223SOL    HW136302   1.243   1.179  13.968 -1.5858  0.2346 -1.4629
 8223SOL    HW236303   1.389   1.137  13.956 -1.2844 -3.3675 -0.1665
 8224SOL     OW36304   4.452   2.828   9.135  0.1996  0.4161 -0.7143
 8224SOL    HW136305   4.459   2.920   9.112 -0.5814  0.4698 -0.7450
 8224SOL    HW236306   4.487   2.790   9.054  0.2636  0.0486 -0.5142
 8225SOL     OW36307   3.657   1.136   2.877  0.4007 -0.1143  0.1829
 8225SOL    HW136308   3.595   1.106   2.810 -0.1821 -0.2085  0.7662
 8225SOL    HW236309   3.706   1.206   2.834  0.3295 -0.9424 -1.2473
 8226SOL     OW36310   1.953   3.273   5.110 -0.1761 -0.4150  0.1834
 8226SOL    HW136311   2.030   3.313   5.150 -0.4411  0.8780 -0.6005
 8226SOL    HW236312   1.991   3.191   5.080  0.9150  0.2406 -0.2273
 8227SOL     OW36313   2.057   1.008  16.665 -0.4357  0.2136 -0.0328
 8227SOL    HW136314   1.996   0.983  16.735  0.2231 -0.0138  0.4641
 8227SOL    HW236315   1.997   1.028  16.594 -0.9789  1.3535  0.7457
 8228SOL     OW36316   3.586   3.585   8.197 -0.1694  0.1081  0.0495
 8228SOL    HW136317   3.528   3.528   8.146  0.3455 -1.2862  1.0284
 8228SOL    HW236318   3.671   3.548   8.175  0.0704  0.1860  0.8483
 8229SOL     OW36319   4.675   2.308   2.156 -0.3344  0.5707 -0.2267
 8229SOL    HW136320   4.616   2.367   2.110  0.9825  1.5515 -0.6533
 8229SOL    HW236321   4.708   2.364   2.226  2.0380  0.3017 -1.1308
 8230SOL     OW36322   1.011   1.953  16.164  0.2894  0.2245  0.1557
 8230SOL    HW136323   1.016   1.860  16.142 -1.6330  0.4499 -1.2385
 8230SOL    HW236324   0.957   1.987  16.093  2.4396  2.8518 -0.1938
 8231SOL     OW36325   2.313   2.043   8.405  0.2819 -0.2803  0.4746
 8231SOL    HW136326   2.290   2.098   8.480 -0.7045 -0.6126  0.4220
 8231SOL    HW236327   2.321   2.113   8.340  1.3947  0.2865  1.2269
 8232SOL     OW36328   2.414   3.864   4.080  0.2838 -0.2785 -0.0966
 8232SOL    HW136329   2.435   3.772   4.062 -1.3245 -0.6469 -0.0410
 8232SOL    HW236330   2.384   3.864   4.171 -2.5837  0.2588 -1.0597
 8233SOL     OW36331   4.572   0.263   9.018 -0.0552  0.4778 -0.2722
 8233SOL    HW136332   4.544   0.348   8.985  0.7653 -0.1093 -2.4594
 8233SOL    HW236333   4.509   0.219   8.961  1.9808  0.4254 -2.4470
 8234SOL     OW36334   3.801   0.984   6.426 -0.4886  0.3151 -0.2134
 8234SOL    HW136335   3.729   1.028   6.471  0.1108 -0.8115  1.8463
 8234SOL    HW236336   3.875   1.045   6.435  0.4858 -0.8776 -0.1755
 8235SOL     OW36337   1.821   1.824  15.763  0.0075 -0.0727  0.1538
 8235SOL    HW136338   1.906   1.818  15.807  1.1481  1.1988 -1.8529
 8235SOL    HW236339   1.830   1.798  15.671  2.8202 -1.0851  0.7302
 8236SOL     OW36340   2.088   2.080   3.267 -0.1808  0.5111 -0.0760
 8236SOL    HW136341   2.177   2.046   3.275 -0.2789  0.7408  1.9034
 8236SOL    HW236342   2.072   2.069   3.173  1.4360  0.2751 -0.3107
 8237SOL     OW36343   1.314   1.964   6.127  0.7163  0.0572  0.1702
 8237SOL    HW136344   1.279   1.926   6.046  1.0699 -1.6404  0.8260
 8237SOL    HW236345   1.407   1.944   6.122  0.3027 -2.2357  1.6912
 8238SOL     OW36346   0.927   2.892   6.978 -0.4238 -0.1406  0.4660
 8238SOL    HW136347   1.018   2.883   7.008 -0.5359  0.6402  1.0527
 8238SOL    HW236348   0.879   2.882   7.060 -0.3095 -0.1203  0.5363
 8239SOL     OW36349   2.950   1.699   9.726 -0.1321  0.0784 -0.2278
 8239SOL    HW136350   2.896   1.751   9.786  2.6584  1.0477  1.4094
 8239SOL    HW236351   3.000   1.641   9.783  0.6445 -0.0189 -1.0219
 8240SOL     OW36352   4.490   3.335  13.175  0.4052 -0.3556 -0.0024
 8240SOL    HW136353   4.544   3.402  13.216 -0.6250  1.1053 -1.0463
 8240SOL    HW236354   4.468   3.379  13.093 -0.4728  1.6163  1.3019
 8241SOL     OW36355   2.763   4.300   4.964 -0.0437  0.6691 -0.0323
 8241SOL    HW136356   2.826   4.328   5.031 -0.1881  1.5935 -0.2889
 8241SOL    HW236357   2.781   4.372   4.904  2.3857 -1.1944 -1.5450
 8242SOL     OW36358   0.293   2.640   7.331 -0.3906  0.0201 -0.6814
 8242SOL    HW136359   0.295   2.657   7.236  2.4757 -0.1598 -0.6619
 8242SOL    HW236360   0.303   2.734   7.346 -2.7035  0.1654 -0.1743
 8243SOL     OW36361   4.022   0.168   8.187  0.0747 -0.1901 -0.2486
 8243SOL    HW136362   4.031   0.135   8.097  0.8099 -0.3658 -0.1095
 8243SOL    HW236363   3.972   0.093   8.219 -2.8436  1.5836 -0.7027
 8244SOL     OW36364   1.620   4.514   0.387 -0.0191  0.6869 -0.3817
 8244SOL    HW136365   1.581   4.526   0.474  0.0027  1.2410 -0.4486
 8244SOL    HW236366   1.542   4.504   0.333 -0.2836  0.1805  0.1017
 8245SOL     OW36367   3.851   1.231   3.661 -0.1134  0.7403 -0.3414
 8245SOL    HW136368   3.812   1.147   3.682  2.9294 -0.5643  0.1741
 8245SOL    HW236369   3.911   1.200   3.593  2.1285  1.9232  1.0995
 8246SOL     OW36370   0.472   0.463   9.449  0.1931 -0.0657  0.2686
 8246SOL    HW136371   0.560   0.427   9.438  0.8690  1.6536  0.1718
 8246SOL    HW236372   0.474   0.477   9.544  1.9957 -0.4864  0.2961
 8247SOL     OW36373   2.400   4.217  15.645 -0.2028 -0.0613  0.5206
 8247SOL    HW136374   2.390   4.180  15.557  0.7734  0.5397  0.1542
 8247SOL    HW236375   2.492   4.241  15.643 -0.4943  0.8839 -1.9839
 8248SOL     OW36376   0.024   3.530   0.263 -0.2663  0.9321  0.3478
 8248SOL    HW136377   4.708   3.606   0.232  1.4048  1.5739 -0.7722
 8248SOL    HW236378   4.730   3.535   0.354 -0.4608 -0.8363  0.3715
 8249SOL     OW36379   1.631   2.241   1.498  0.1862  0.2862 -0.3542
 8249SOL    HW136380   1.656   2.288   1.577  0.9079 -1.9864  0.7762
 8249SOL    HW236381   1.708   2.248   1.442 -0.0926 -0.1513 -0.7922
 8250SOL     OW36382   2.475   0.997   5.443 -0.3633  0.1559  0.1722
 8250SOL    HW136383   2.547   1.052   5.474 -0.8652  0.0971  1.4334
 8250SOL    HW236384   2.489   0.928   5.508 -2.1042 -1.1569 -0.8212
 8251SOL     OW36385   1.645   1.958   7.292  0.3684  0.1360 -0.4163
 8251SOL    HW136386   1.691   1.980   7.373 -0.1010  0.2543 -0.1839
 8251SOL    HW236387   1.565   1.915   7.322 -0.9616  2.6878 -0.3053
 8252SOL     OW36388   1.984   3.668   9.254 -0.1758  0.4116 -0.1717
 8252SOL    HW136389   2.060   3.664   9.313  0.1617 -0.5127 -0.6642
 8252SOL    HW236390   1.915   3.712   9.304  0.6255  2.7133 -1.0653
 8253SOL     OW36391   3.710   4.381  13.992 -0.2711 -0.7651  0.1015
 8253SOL    HW136392   3.745   4.373  13.903  0.3243 -0.1864  0.2866
 8253SOL    HW236393   3.741   4.302  14.035 -0.4976 -0.3400  1.0489
 8254SOL     OW36394   0.835   0.008  16.841  0.0346 -0.5681 -0.5110
 8254SOL    HW136395   0.756   0.029  16.891  0.4555  0.1415 -0.1463
 8254SOL    HW236396   0.856   0.092  16.801 -1.6717  0.2705  0.3326
 8255SOL     OW36397   0.714   4.508   6.160  0.1889  0.3356  0.3966
 8255SOL    HW136398   0.789   4.568   6.161 -0.4466  1.1836 -4.4652
 8255SOL    HW236399   0.738   4.422   6.128  2.1596  0.9910  0.1504
 8256SOL     OW36400   1.715   1.384   7.886 -0.1147 -0.7226  0.5239
 8256SOL    HW136401   1.744   1.449   7.950  0.8217 -0.0923 -0.5382
 8256SOL    HW236402   1.622   1.399   7.900 -0.2553  1.2199 -2.4714
 8257SOL     OW36403   2.847   4.245   9.224  0.1678 -0.1894  0.6240
 8257SOL    HW136404   2.776   4.302   9.194 -0.3082 -1.9396 -1.5639
 8257SOL    HW236405   2.796   4.191   9.284  0.0525 -1.9960 -1.0874
 8258SOL     OW36406   0.897   3.076   5.021  0.1524  0.3355  0.2888
 8258SOL    HW136407   0.907   3.166   4.989  1.6826  0.3624  0.8406
 8258SOL    HW236408   0.959   3.072   5.094  1.1742 -1.4661 -0.6813
 8259SOL     OW36409   2.180   3.359   9.200  0.4215 -0.1365  0.7514
 8259SOL    HW136410   2.142   3.319   9.122  1.5140  0.8478 -0.3000
 8259SOL    HW236411   2.255   3.391   9.150 -1.2806 -0.4339 -1.9960
 8260SOL     OW36412   2.681   1.348   7.316 -0.5225  0.0822 -0.7657
 8260SOL    HW136413   2.672   1.253   7.310 -0.5330  0.2314 -3.1120
 8260SOL    HW236414   2.628   1.369   7.240  0.4802  1.9951 -0.9417
 8261SOL     OW36415   0.436   4.343   7.354  0.2046  0.1815 -0.5483
 8261SOL    HW136416   0.407   4.374   7.268 -1.4005 -2.6836 -1.0411
 8261SOL    HW236417   0.458   4.254   7.326  1.5988  0.6197 -0.8178
 8262SOL     OW36418   3.072   0.720   8.983  0.0051  0.1404  0.3403
 8262SOL    HW136419   3.132   0.691   8.915  0.0212  0.1080  0.3683
 8262SOL    HW236420   3.084   0.815   8.986  1.4889 -0.0387  0.0685
 8263SOL     OW36421   2.643   4.280   6.125 -0.6679 -0.5169  0.0228
 8263SOL    HW136422   2.576   4.243   6.183 -0.6534 -0.3903  0.1209
 8263SOL    HW236423   2.656   4.220   6.052  0.9177  2.8329 -2.4181
 8264SOL     OW36424   1.617   3.382   4.229  0.5000 -0.1913  0.4381
 8264SOL    HW136425   1.609   3.455   4.290  0.2850 -0.5512  0.8430
 8264SOL    HW236426   1.529   3.348   4.212  1.4567 -1.3203 -2.1706
 8265SOL     OW36427   1.930   2.669   2.775  0.6759  0.5868 -0.0319
 8265SOL    HW136428   1.852   2.719   2.753  0.4217  0.0014 -0.4739
 8265SOL    HW236429   1.993   2.741   2.776  0.1091  1.0860 -0.5771
 8266SOL     OW36430   4.016   0.557   1.952  0.1453  0.0679  0.5310
 8266SOL    HW136431   4.091   0.614   1.935  1.9586 -2.8568 -1.1450
 8266SOL    HW236432   4.060   0.478   1.984  0.0953 -0.7290 -1.3887
 8267SOL     OW36433   2.601   4.088  12.388 -0.5062  0.2845  0.2702
 8267SOL    HW136434   2.631   4.169  12.346 -0.9093  0.2402 -0.1001
 8267SOL    HW236435   2.601   4.034  12.309 -2.0675 -0.9066  1.1083
 8268SOL     OW36436   3.863   1.286  10.421 -0.1310 -0.2137 -0.3924
 8268SOL    HW136437   3.876   1.205  10.469  1.8331  0.4162  0.1210
 8268SOL    HW236438   3.768   1.294  10.434 -0.4362 -0.2789 -2.5290
 8269SOL     OW36439   2.582   0.233   3.351 -0.2313 -0.2137  0.6515
 8269SOL    HW136440   2.542   0.147   3.340 -1.1544  0.1288  1.2687
 8269SOL    HW236441   2.658   0.209   3.404  0.7220  0.3135 -0.4900
 8270SOL     OW36442   3.109   0.967   4.831 -0.8752  1.0321  0.0462
 8270SOL    HW136443   3.159   0.900   4.877 -0.1084  1.0671 -0.7206
 8270SOL    HW236444   3.182   1.014   4.791 -1.0486  1.5571  0.3438
 8271SOL     OW36445   2.386   4.338   3.427 -0.1195 -0.5308 -0.1000
 8271SOL    HW136446   2.312   4.394   3.448  0.5129  0.0278  0.6441
 8271SOL    HW236447   2.388   4.277   3.501  1.9373  0.8693  1.0073
 8272SOL     OW36448   3.098   0.294   4.144 -0.2361  0.3367  0.5653
 8272SOL    HW136449   3.080   0.381   4.180 -1.0527  1.8586 -3.4441
 8272SOL    HW236450   3.053   0.301   4.059  0.7390 -0.3639  0.0015
 8273SOL     OW36451   2.630   3.824   3.179 -0.3900  0.0541  0.0641
 8273SOL    HW136452   2.570   3.815   3.105  0.2104 -0.5470 -0.3433
 8273SOL    HW236453   2.683   3.752   3.147 -0.5406 -1.1452  2.5226
 8274SOL     OW36454   4.486   2.709  17.452 -0.3103 -0.1796 -0.5457
 8274SOL    HW136455   4.513   2.673  17.367  1.3623  3.8933 -1.7792
 8274SOL    HW236456   4.501   2.802  17.432 -1.5281  0.2606  0.6048
 8275SOL     OW36457   4.018   1.104  14.044  0.3210 -0.0631  0.8819
 8275SOL    HW136458   3.988   1.077  13.957 -1.6058  0.8422  1.2719
 8275SOL    HW236459   3.942   1.125  14.098 -3.5162  0.6494 -4.7138
 8276SOL     OW36460   2.751   3.503   5.450  0.2255  0.1441  1.0630
 8276SOL    HW136461   2.743   3.413   5.418  1.2926  0.6449 -0.6160
 8276SOL    HW236462   2.795   3.546   5.376 -0.7149 -0.9427 -0.1267
 8277SOL     OW36463   2.379   2.084   4.143 -0.1106  0.1119  0.0650
 8277SOL    HW136464   2.460   2.091   4.194  0.5220  1.1984 -1.0759
 8277SOL    HW236465   2.405   2.121   4.059 -1.6027  0.1747 -0.3699
 8278SOL     OW36466   4.023   0.619   8.139  0.0381  0.1099  0.8003
 8278SOL    HW136467   4.041   0.554   8.207 -0.6374 -1.0091 -0.0717
 8278SOL    HW236468   4.111   0.648   8.118 -0.2844 -0.8272 -1.9194
 8279SOL     OW36469   3.128   4.014  12.910 -0.5069 -0.5836 -0.0263
 8279SOL    HW136470   3.200   4.074  12.894 -0.8702 -0.0417  0.3629
 8279SOL    HW236471   3.147   3.981  12.998  1.6105 -1.5772 -0.8578
 8280SOL     OW36472   3.938   0.015   8.613 -1.0939  0.5250  0.0232
 8280SOL    HW136473   4.010   0.013   8.549 -0.4785 -0.6805  0.7440
 8280SOL    HW236474   3.995   4.722   8.685 -2.0312 -1.6318 -0.0736
 8281SOL     OW36475   3.992   3.526   1.052  0.0546 -0.3369  0.3938
 8281SOL    HW136476   4.050   3.451   1.063 -0.3168 -0.8708 -1.2787
 8281SOL    HW236477   4.005   3.577   1.132  0.7821  1.3949 -0.8340
 8282SOL     OW36478   2.706   4.630   3.689 -0.2055 -0.2155 -0.6821
 8282SOL    HW136479   2.628   4.591   3.729 -0.7350 -0.8966 -2.3702
 8282SOL    HW236480   2.688   4.724   3.681 -0.1392 -0.1112  0.2907
 8283SOL     OW36481   3.025   1.848   5.031 -0.1750  0.3082 -0.0014
 8283SOL    HW136482   3.026   1.845   5.126 -1.7747 -1.0891 -0.0337
 8283SOL    HW236483   2.978   1.767   5.011  1.7284 -1.0173  0.9241
 8284SOL     OW36484   0.703   1.028   5.564  0.4513 -0.2934  0.1472
 8284SOL    HW136485   0.759   1.056   5.491  0.7093  0.1080  0.4989
 8284SOL    HW236486   0.754   0.951   5.591  4.0371  1.8939 -0.4826
 8285SOL     OW36487   1.567   4.094   2.999 -0.1721 -0.2345  0.3367
 8285SOL    HW136488   1.498   4.102   3.065 -0.4747  0.9744 -0.1366
 8285SOL    HW236489   1.622   4.167   3.028 -0.5483  0.0789  0.2579
 8286SOL     OW36490   0.084   1.519  15.420  0.3794  0.3071  0.1804
 8286SOL    HW136491   0.077   1.597  15.475  0.1232 -0.9683  1.9386
 8286SOL    HW236492   0.015   1.532  15.355 -0.9995  0.4837  1.6694
 8287SOL     OW36493   3.788   3.091   6.755 -0.0429 -0.1503  0.0657
 8287SOL    HW136494   3.842   3.163   6.788 -0.5716  0.2877 -0.0056
 8287SOL    HW236495   3.780   3.030   6.828  3.0322 -1.0645 -0.3560
 8288SOL     OW36496   1.337   3.767   1.763 -0.1139 -0.5978  1.0951
 8288SOL    HW136497   1.307   3.680   1.790 -2.8183  0.1394  0.4841
 8288SOL    HW236498   1.424   3.750   1.798  1.0685  0.5740 -1.2879
 8289SOL     OW36499   2.194   3.864   9.042  0.3674 -0.1806 -0.8878
 8289SOL    HW136500   2.208   3.958   9.042  2.1007 -0.4484  0.5227
 8289SOL    HW236501   2.278   3.834   9.007  1.4712  0.4799  1.2188
 8290SOL     OW36502   4.403   1.591   7.395  0.2982 -0.1359 -0.3364
 8290SOL    HW136503   4.404   1.667   7.336 -0.3228 -0.4163 -0.7108
 8290SOL    HW236504   4.462   1.520   7.371  1.2141  0.7875 -0.8453
 8291SOL     OW36505   3.379   2.152   9.906  0.4042 -0.0721  0.6431
 8291SOL    HW136506   3.445   2.108   9.853 -0.1912 -1.6797  1.2443
 8291SOL    HW236507   3.396   2.244   9.883  3.5754 -0.4119  1.5772
 8292SOL     OW36508   1.810   0.520   7.541  0.0187  0.2882 -0.2854
 8292SOL    HW136509   1.736   0.563   7.584 -0.2174 -1.5497  1.1362
 8292SOL    HW236510   1.880   0.560   7.592 -1.3606  1.2979  0.8258
 8293SOL     OW36511   0.292   2.713  10.261  0.2658  0.3064 -0.1936
 8293SOL    HW136512   0.230   2.642  10.275  0.0595  0.6370  0.5997
 8293SOL    HW236513   0.363   2.659  10.295 -1.7953 -1.3281  1.5043
 8294SOL     OW36514   2.998   4.488   7.292 -0.3915 -0.2118  0.3899
 8294SOL    HW136515   3.006   4.454   7.382 -2.6811  0.0845  0.7103
 8294SOL    HW236516   3.011   4.583   7.299  1.0209 -0.3891  0.1365
 8295SOL     OW36517   0.603   0.146   5.087  0.3120 -0.4115 -0.6672
 8295SOL    HW136518   0.671   0.104   5.034  0.4886 -0.2771 -0.5440
 8295SOL    HW236519   0.653   0.205   5.143 -0.0847 -1.8459  1.2210
 8296SOL     OW36520   3.728   3.831  16.313  0.0875 -0.0062  0.3754
 8296SOL    HW136521   3.693   3.823  16.401 -1.7130  0.8244 -0.2667
 8296SOL    HW236522   3.681   3.910  16.289 -0.8058 -0.1632  1.6159
 8297SOL     OW36523   0.652   2.559   3.038  0.1921 -0.6585  0.1763
 8297SOL    HW136524   0.565   2.598   3.053  0.1688 -0.2783 -1.0043
 8297SOL    HW236525   0.696   2.578   3.121 -2.4981 -2.5262  2.0366
 8298SOL     OW36526   4.672   2.889  17.212 -0.3524  1.0642  0.1119
 8298SOL    HW136527   0.007   2.954  17.205  0.2807  0.3254 -0.4425
 8298SOL    HW236528   4.612   2.927  17.276 -0.7894  0.7050 -0.0867
 8299SOL     OW36529   2.440   1.368   4.192  0.6526 -0.5114 -0.1242
 8299SOL    HW136530   2.366   1.381   4.251  0.3592  0.6386 -0.7380
 8299SOL    HW236531   2.496   1.446   4.189 -0.1700  0.0209 -1.9115
 8300SOL     OW36532   4.444   4.544  13.774  0.0250 -0.3241 -0.5701
 8300SOL    HW136533   4.351   4.536  13.794  0.0056  0.5062 -0.2985
 8300SOL    HW236534   4.456   4.638  13.786  0.1430 -0.2680 -1.1503
 8301SOL     OW36535   4.689   1.797   7.054 -0.3834  0.0022  0.4324
 8301SOL    HW136536   4.683   1.893   7.051 -1.9072 -0.2447 -4.2564
 8301SOL    HW236537   0.039   1.791   7.010 -1.1238  1.3934 -1.1809
 8302SOL     OW36538   2.276   4.492   1.297 -0.0844  0.0245 -0.6775
 8302SOL    HW136539   2.218   4.429   1.254 -1.1707 -1.4354  3.0104
 8302SOL    HW236540   2.277   4.447   1.381  1.8412 -0.4273 -0.9433
 8303SOL     OW36541   4.717   4.113   7.363  0.1042 -0.0996  0.1326
 8303SOL    HW136542   4.733   4.021   7.383  1.6398 -0.2885 -1.9456
 8303SOL    HW236543   4.636   4.105   7.312  0.3413  0.9733 -0.4159
 8304SOL     OW36544   1.166   2.593   4.727  0.1986 -0.5497 -0.0037
 8304SOL    HW136545   1.082   2.641   4.728  0.1777 -0.5854 -0.0646
 8304SOL    HW236546   1.180   2.573   4.820  1.2705  0.8977  0.1507
 8305SOL     OW36547   0.735   4.601   4.279 -0.0273 -0.3808  0.2135
 8305SOL    HW136548   0.755   4.558   4.362  0.9284  0.1609  0.2683
 8305SOL    HW236549   0.824   4.629   4.256  0.8962 -2.1682  1.6321
 8306SOL     OW36550   2.843   0.973   4.990  0.1118  0.1319 -0.0243
 8306SOL    HW136551   2.926   0.982   4.944  0.0186  0.8218 -0.0554
 8306SOL    HW236552   2.845   0.879   5.009  2.9024  0.6295  2.1905
 8307SOL     OW36553   3.585   1.534  17.316 -0.2854  0.0812  0.0990
 8307SOL    HW136554   3.568   1.618  17.359 -1.4128 -0.7969  1.3481
 8307SOL    HW236555   3.633   1.484  17.382  0.8324  0.6227 -0.2981
 8308SOL     OW36556   3.938   2.699   4.311 -0.4993  0.7598 -0.0919
 8308SOL    HW136557   3.870   2.716   4.245 -1.4580 -0.9567  0.4681
 8308SOL    HW236558   4.022   2.737   4.286  0.9036 -0.3071  3.0997
 8309SOL     OW36559   2.069   3.611   0.645  0.3269 -0.2728 -1.0603
 8309SOL    HW136560   2.088   3.547   0.577 -0.7474  0.5498 -2.1456
 8309SOL    HW236561   2.154   3.626   0.686  0.5784 -1.5906 -1.1219
 8310SOL     OW36562   3.792   1.734   2.923 -0.1302 -0.1022  0.1702
 8310SOL    HW136563   3.789   1.816   2.973  0.3413 -1.0380  1.7553
 8310SOL    HW236564   3.699   1.714   2.919 -0.3194  0.5547  1.1708
 8311SOL     OW36565   1.455   0.383   3.533 -0.0394 -0.7354  0.0821
 8311SOL    HW136566   1.418   0.304   3.494 -0.3183 -0.3523 -0.4449
 8311SOL    HW236567   1.546   0.361   3.549  0.7701  2.5553  0.0298
 8312SOL     OW36568   2.869   0.036   9.396  0.0378  0.4451  0.0265
 8312SOL    HW136569   2.911   0.055   9.480  0.0181 -0.7820  0.3132
 8312SOL    HW236570   2.815   0.114   9.383  2.0961  2.0508  1.0844
 8313SOL     OW36571   3.238   1.941   5.463  0.1306  0.2690 -0.2546
 8313SOL    HW136572   3.147   1.912   5.462 -0.0718  0.8207  1.7849
 8313SOL    HW236573   3.272   1.906   5.545  0.4035 -0.0348 -0.4959
 8314SOL     OW36574   0.330   3.801   5.832 -0.1382 -0.0175  0.5718
 8314SOL    HW136575   0.302   3.891   5.849  2.1970  0.5866  1.1641
 8314SOL    HW236576   0.303   3.745   5.904 -1.7817 -0.3524 -0.2900
 8315SOL     OW36577   0.607   4.708   0.153  0.4270  0.1675 -0.0536
 8315SOL    HW136578   0.553   4.630   0.142  2.4440 -1.5345  2.1721
 8315SOL    HW236579   0.697   4.676   0.160  0.5576  0.6141  0.2834
 8316SOL     OW36580   3.434   0.755   2.138 -0.3306  0.3697 -0.1285
 8316SOL    HW136581   3.423   0.827   2.076 -1.0884 -0.6990 -1.2223
 8316SOL    HW236582   3.458   0.677   2.088  1.3559  0.1495  0.9850
 8317SOL     OW36583   0.673   3.757   1.541  0.0666 -0.4449 -0.2541
 8317SOL    HW136584   0.580   3.737   1.536  0.1415 -1.0268  0.6154
 8317SOL    HW236585   0.676   3.840   1.588  1.2118 -2.1774  2.7276
 8318SOL     OW36586   1.678   0.488  17.637  0.0903  0.4764  0.1302
 8318SOL    HW136587   1.644   0.399  17.629  0.6188  0.4033 -1.4255
 8318SOL    HW236588   1.618   0.541  17.585 -1.2501 -2.3396 -1.1936
 8319SOL     OW36589   0.139   3.233   2.256 -0.6549  0.0395 -0.1691
 8319SOL    HW136590   0.063   3.264   2.205 -3.1358  0.3567  3.6682
 8319SOL    HW236591   0.178   3.319   2.270  0.8294 -0.4985 -1.0842
 8320SOL     OW36592   3.599   3.911   9.762 -0.3826  0.5024 -1.1493
 8320SOL    HW136593   3.557   3.826   9.767  0.8964  0.0317  1.6289
 8320SOL    HW236594   3.550   3.958   9.830 -1.3635  1.0467 -2.2313
 8321SOL     OW36595   4.702   4.123   7.666  0.3392  0.3660 -0.3749
 8321SOL    HW136596   4.702   4.027   7.677  0.4243  0.3371 -0.6308
 8321SOL    HW236597   0.018   4.133   7.585  0.0196  1.6563 -0.4130
 8322SOL     OW36598   3.987   4.335  15.634  0.1033 -0.6736  0.4151
 8322SOL    HW136599   4.014   4.245  15.651  1.3887  0.0120  1.9264
 8322SOL    HW236600   4.020   4.385  15.708 -2.9614 -0.1419  1.4425
 8323SOL     OW36601   2.612   1.945   4.039 -0.5124  0.5433 -0.0775
 8323SOL    HW136602   2.542   1.880   4.031 -1.5978  1.5654  1.0994
 8323SOL    HW236603   2.651   1.947   3.952  1.2395  1.2676  0.7127
 8324SOL     OW36604   4.206   1.197   6.902 -0.1013 -0.0291  0.9815
 8324SOL    HW136605   4.152   1.191   6.823  2.0175 -1.8339 -0.3395
 8324SOL    HW236606   4.153   1.142   6.958 -0.6043  0.1907  0.7209
 8325SOL     OW36607   4.271   3.823  17.253 -0.1865  0.0272 -0.2260
 8325SOL    HW136608   4.190   3.873  17.262 -0.4981 -0.7160  1.1459
 8325SOL    HW236609   4.300   3.838  17.342 -0.4094  1.5422 -0.4048
 8326SOL     OW36610   1.126   1.478   3.194 -0.2057 -0.0823 -0.2213
 8326SOL    HW136611   1.089   1.519   3.116  0.4734 -0.0651 -0.5353
 8326SOL    HW236612   1.215   1.513   3.200 -0.8170  1.3481  0.4048
 8327SOL     OW36613   2.002   2.740  13.099  0.8665 -0.1714 -0.0831
 8327SOL    HW136614   2.042   2.692  13.026 -0.2141 -1.4220  0.1564
 8327SOL    HW236615   2.046   2.826  13.095  1.1141 -0.3975 -2.2393
 8328SOL     OW36616   2.781   1.648   4.418 -0.4827 -0.3029  0.3500
 8328SOL    HW136617   2.768   1.724   4.361 -2.2806  0.1542  1.3665
 8328SOL    HW236618   2.789   1.572   4.361  0.3551 -1.2402  1.7316
 8329SOL     OW36619   3.989   1.569   2.416 -1.2315  0.1883 -0.7614
 8329SOL    HW136620   3.953   1.480   2.421 -2.1416  0.5294 -1.1611
 8329SOL    HW236621   4.077   1.552   2.448 -0.6665  0.7462 -2.0414
 8330SOL     OW36622   4.224   1.008   3.545  0.1457  0.0595  0.4379
 8330SOL    HW136623   4.227   1.007   3.641 -2.6107 -0.2688  0.4988
 8330SOL    HW236624   4.304   1.058   3.525 -0.0679  0.3233  0.2462
 8331SOL     OW36625   1.815   3.569  10.287 -0.9320  0.1145 -0.5934
 8331SOL    HW136626   1.882   3.547  10.352  1.1767  0.6951 -2.5724
 8331SOL    HW236627   1.878   3.562  10.216 -0.8248  0.9071 -0.5675
 8332SOL     OW36628   0.170   0.998  15.275  0.2701  0.3450  0.8878
 8332SOL    HW136629   0.227   0.976  15.202 -1.1299 -0.7866  0.1472
 8332SOL    HW236630   0.170   1.094  15.273 -2.2056  0.3588  1.2132
 8333SOL     OW36631   0.122   2.581   8.360  0.0573 -0.2451  0.0333
 8333SOL    HW136632   0.058   2.531   8.411 -1.0713  1.4647  0.3149
 8333SOL    HW236633   0.141   2.522   8.288 -2.9053  0.8182 -1.6124
 8334SOL     OW36634   3.321   4.697   7.313 -0.1363  0.1804 -0.6976
 8334SOL    HW136635   3.398   0.009   7.344  0.9221 -1.1079 -1.4028
 8334SOL    HW236636   3.267   4.691   7.392  0.2446  1.2337 -0.3624
 8335SOL     OW36637   0.089   1.964   9.433  0.1086 -0.3986  0.3244
 8335SOL    HW136638   0.025   1.897   9.408  0.1026 -0.3113  0.1010
 8335SOL    HW236639   0.156   1.943   9.368 -0.2384 -0.0550 -0.1505
 8336SOL     OW36640   2.597   2.641   9.568 -0.1282  0.2027  0.1068
 8336SOL    HW136641   2.638   2.638   9.655 -0.7185  0.8166  0.3995
 8336SOL    HW236642   2.546   2.560   9.573 -0.7231  0.4767 -1.7323
 8337SOL     OW36643   2.939   1.735   7.741  0.0221  0.3569  0.7231
 8337SOL    HW136644   2.906   1.763   7.827  1.2266 -0.2130  1.3772
 8337SOL    HW236645   2.968   1.647   7.765 -2.1163 -0.7034 -0.5529
 8338SOL     OW36646   4.264   2.111   8.058  0.0498  0.1720  0.3954
 8338SOL    HW136647   4.186   2.096   8.003  0.7802 -2.5725  0.1339
 8338SOL    HW236648   4.320   2.144   7.988 -1.5612 -0.9434 -1.4514
 8339SOL     OW36649   3.055   2.779   8.249  0.6685  0.3285  0.3381
 8339SOL    HW136650   3.005   2.861   8.250 -1.8314 -1.2034  1.3524
 8339SOL    HW236651   3.144   2.809   8.266  0.2776  1.1897  0.9034
 8340SOL     OW36652   1.091   0.993   5.838  0.2926 -0.2392  0.3329
 8340SOL    HW136653   1.076   0.992   5.932  0.5941 -3.3014  0.3444
 8340SOL    HW236654   1.174   0.946   5.831  0.0791 -0.4290 -0.8991
 8341SOL     OW36655   4.734   0.094   1.008 -0.1446 -0.2291 -0.2811
 8341SOL    HW136656   4.685   0.017   1.039 -0.8091 -0.2010 -1.2785
 8341SOL    HW236657   0.071   0.053   0.959 -0.4575 -0.8079 -0.2580
 8342SOL     OW36658   1.392   2.364   5.648 -0.3486  0.2925  0.2750
 8342SOL    HW136659   1.450   2.405   5.713 -2.1424  2.8348  0.2685
 8342SOL    HW236660   1.378   2.447   5.602 -1.9650  0.3195  0.8235
 8343SOL     OW36661   3.717   0.219  12.766 -0.3045 -0.0243  0.1249
 8343SOL    HW136662   3.691   0.147  12.823 -1.3627  0.8881  0.7978
 8343SOL    HW236663   3.811   0.214  12.781 -0.3459 -0.0317  0.3766
 8344SOL     OW36664   2.828   0.855  12.842 -0.1328  0.1160  0.2616
 8344SOL    HW136665   2.921   0.842  12.825 -0.0829  1.4788 -0.5433
 8344SOL    HW236666   2.824   0.951  12.839  1.7011  0.1839 -0.3922
 8345SOL     OW36667   4.607   0.871   3.539 -0.2280  0.2609 -0.0093
 8345SOL    HW136668   4.577   0.961   3.554 -0.6864  0.0710  0.2203
 8345SOL    HW236669   4.621   0.844   3.629 -0.7948 -2.2253 -0.6725
 8346SOL     OW36670   2.242   3.019   2.627 -0.5146  0.2063  0.7005
 8346SOL    HW136671   2.178   3.060   2.568 -0.4027  2.0976  1.9098
 8346SOL    HW236672   2.317   3.022   2.568 -0.0968 -0.6197  1.1864
 8347SOL     OW36673   3.816   1.471  12.739 -0.3570  0.0211 -0.1320
 8347SOL    HW136674   3.735   1.515  12.762  0.5581  1.3134  0.6115
 8347SOL    HW236675   3.852   1.465  12.827 -1.5764 -2.4951  0.1981
 8348SOL     OW36676   0.706   4.542   7.922 -0.1153 -0.2349  0.6639
 8348SOL    HW136677   0.675   4.507   8.005 -0.4707  1.4059  1.2212
 8348SOL    HW236678   0.797   4.556   7.946 -0.2629 -0.8335  1.5877
 8349SOL     OW36679   1.210   4.456   1.349  0.2841 -0.2028  0.1927
 8349SOL    HW136680   1.259   4.375   1.341 -0.4691 -0.7703  1.4638
 8349SOL    HW236681   1.136   4.418   1.395  3.0689 -2.6613  2.5752
 8350SOL     OW36682   4.080   1.849  16.668 -0.1255  0.2341 -0.1103
 8350SOL    HW136683   4.008   1.795  16.636 -0.5109 -0.2072  1.4990
 8350SOL    HW236684   4.078   1.817  16.758  1.1043 -0.5161 -0.3496
 8351SOL     OW36685   3.755   3.751  12.778  0.1274  0.1174 -0.1176
 8351SOL    HW136686   3.771   3.717  12.690  0.0836 -3.0267  1.1077
 8351SOL    HW236687   3.798   3.682  12.828  1.1932  2.3097  1.9917
 8352SOL     OW36688   0.929   4.640   8.011 -0.3541  0.6093 -0.1992
 8352SOL    HW136689   0.995   4.707   7.990 -0.9406  1.0052 -0.7873
 8352SOL    HW236690   0.898   4.676   8.094 -0.5644 -1.9913  0.8559
 8353SOL     OW36691   4.360   1.452   9.381  0.2182 -0.2590  0.7227
 8353SOL    HW136692   4.341   1.496   9.465 -2.2024  1.0507 -0.4966
 8353SOL    HW236693   4.447   1.490   9.368  0.7920 -2.0557 -0.5269
 8354SOL     OW36694   0.005   4.188  11.350 -0.2717 -0.1228 -0.2001
 8354SOL    HW136695   4.665   4.206  11.291 -0.4881 -1.7481 -0.4230
 8354SOL    HW236696   0.004   4.093  11.343  1.9174 -0.0414 -1.5526
 8355SOL     OW36697   4.519   1.321   9.101  0.0938 -0.7030  0.1977
 8355SOL    HW136698   4.573   1.242   9.109  0.5311 -0.5365 -1.1618
 8355SOL    HW236699   4.475   1.318   9.186  2.0887 -0.8636  1.2195
 8356SOL     OW36700   2.886   3.333  16.942 -0.5787 -0.5313 -0.0867
 8356SOL    HW136701   2.952   3.399  16.964 -0.1239 -2.0758  3.0750
 8356SOL    HW236702   2.944   3.260  16.922 -0.2776  0.1825 -1.8708
 8357SOL     OW36703   1.309   0.458  15.365  0.6585 -0.8349  0.5569
 8357SOL    HW136704   1.223   0.448  15.326  0.8410 -0.1956 -0.0205
 8357SOL    HW236705   1.339   0.368  15.354  0.5539 -0.9694  1.4281
 8358SOL     OW36706   2.634   2.235   7.293 -0.1423 -0.6558 -0.3734
 8358SOL    HW136707   2.728   2.251   7.292 -0.4891  1.2032 -2.3895
 8358SOL    HW236708   2.600   2.319   7.261 -0.6941 -0.1259  1.6521
 8359SOL     OW36709   1.034   0.712   0.198 -0.0807  0.0173  0.9469
 8359SOL    HW136710   1.019   0.687   0.107  2.6505 -0.2255  0.5604
 8359SOL    HW236711   0.948   0.739   0.231  0.8062  3.1503  0.7577
 8360SOL     OW36712   2.872   3.838   4.206 -0.0322 -0.1836 -0.2882
 8360SOL    HW136713   2.925   3.764   4.179  1.1280  0.8414 -0.8202
 8360SOL    HW236714   2.851   3.875   4.121  0.6868 -0.2696 -0.5009
 8361SOL     OW36715   4.387   2.725   5.774  0.8007 -0.1694  0.4356
 8361SOL    HW136716   4.329   2.724   5.697  0.5027  0.6129  0.6477
 8361SOL    HW236717   4.332   2.674   5.834  0.1961  1.0281  0.8974
 8362SOL     OW36718   4.565   0.577   7.636  0.1678 -0.0054 -0.1816
 8362SOL    HW136719   4.660   0.566   7.631  0.2045 -0.5357  1.5618
 8362SOL    HW236720   4.539   0.485   7.633  0.8930 -0.2278  0.2375
 8363SOL     OW36721   2.459   1.620   8.943 -0.5104  0.0438  0.6293
 8363SOL    HW136722   2.495   1.692   8.993 -0.2760  1.5652 -1.7163
 8363SOL    HW236723   2.440   1.666   8.861  1.1848 -1.2908 -0.5314
 8364SOL     OW36724   3.143   2.551  16.229 -0.3098 -0.6761  0.0529
 8364SOL    HW136725   3.162   2.633  16.274 -2.8305 -0.9181  1.5814
 8364SOL    HW236726   3.185   2.574  16.146  0.2101 -2.6836 -0.2562
 8365SOL     OW36727   3.470   0.579   4.866  0.1967  0.2061  0.0080
 8365SOL    HW136728   3.520   0.507   4.827  0.9772  1.1689 -0.7536
 8365SOL    HW236729   3.539   0.629   4.909  1.5576 -0.0224 -1.8691
 8366SOL     OW36730   1.253   0.973   3.680  0.2242 -0.4482  0.6263
 8366SOL    HW136731   1.302   0.939   3.604 -1.0362  2.1873 -1.3536
 8366SOL    HW236732   1.166   0.981   3.642 -1.3598 -1.6321  4.0289
 8367SOL     OW36733   3.999   0.311   3.002 -0.3598 -0.1459  0.5069
 8367SOL    HW136734   3.948   0.243   2.957 -0.3428 -1.0166  1.8145
 8367SOL    HW236735   4.023   0.267   3.083  1.6011  1.0241  0.5431
 8368SOL     OW36736   2.638   3.583  13.126 -0.5186 -0.3183 -0.2112
 8368SOL    HW136737   2.611   3.556  13.213 -0.2151 -1.3186 -0.4214
 8368SOL    HW236738   2.554   3.566  13.083 -0.1530 -1.7549 -0.3538
 8369SOL     OW36739   1.287   3.007   8.760 -0.1548 -0.3217 -0.2235
 8369SOL    HW136740   1.213   3.038   8.709  0.6594 -0.0217 -1.2222
 8369SOL    HW236741   1.241   2.935   8.803 -1.7164  1.3441  0.8863
 8370SOL     OW36742   0.457   0.987  17.619  0.2328  0.3058 -0.1344
 8370SOL    HW136743   0.457   0.990  17.523 -0.2723  0.1343 -0.1427
 8370SOL    HW236744   0.442   1.080  17.633 -4.0066 -0.3972  0.2118
 8371SOL     OW36745   0.434   3.093  14.751 -0.1224 -0.2546  0.3166
 8371SOL    HW136746   0.394   3.011  14.720  0.1686 -1.7106  3.8380
 8371SOL    HW236747   0.404   3.087  14.841 -2.5921  0.9168 -0.4221
 8372SOL     OW36748   4.439   1.711  17.003 -0.4031 -0.2524  0.9172
 8372SOL    HW136749   4.466   1.741  16.916  0.2737 -1.7549  0.6078
 8372SOL    HW236750   4.396   1.629  16.978  2.3824 -1.3388 -0.3038
 8373SOL     OW36751   0.651   1.185   1.237 -0.2051 -0.3045  0.2960
 8373SOL    HW136752   0.702   1.105   1.230 -1.3166 -0.9320 -0.7266
 8373SOL    HW236753   0.565   1.143   1.239 -0.1078 -0.3897  2.5335
 8374SOL     OW36754   3.846   3.381   6.138  0.0427  0.1076 -0.5349
 8374SOL    HW136755   3.897   3.462   6.145  0.1103  0.1398 -1.4186
 8374SOL    HW236756   3.798   3.394   6.056 -1.2604 -1.4148 -0.0067
 8375SOL     OW36757   3.077   1.762  10.550 -0.0174  0.1178  0.0929
 8375SOL    HW136758   3.170   1.740  10.546 -0.3171 -1.3099  0.9430
 8375SOL    HW236759   3.048   1.772  10.459  1.3974 -3.4049 -0.7332
 8376SOL     OW36760   0.830   0.508   4.224 -0.0249 -0.0364  0.2183
 8376SOL    HW136761   0.821   0.554   4.141 -1.8273  1.6301  1.3447
 8376SOL    HW236762   0.869   0.430   4.183 -1.1643 -2.4628  3.7061
 8377SOL     OW36763   1.817   3.042   8.587  0.2427 -0.2714 -0.6528
 8377SOL    HW136764   1.846   3.003   8.504 -0.7976 -0.4294 -0.9466
 8377SOL    HW236765   1.818   3.137   8.578  1.4547 -0.3410 -1.2478
 8378SOL     OW36766   3.339   4.417   0.900 -0.5284  0.0982  0.1157
 8378SOL    HW136767   3.395   4.458   0.966  0.4943 -1.8397  0.4577
 8378SOL    HW236768   3.385   4.336   0.876 -2.2937 -1.0180  0.5178
 8379SOL     OW36769   3.109   1.623   7.508 -0.1752  0.5084 -0.4340
 8379SOL    HW136770   3.026   1.581   7.485 -1.5402  2.4446  0.9345
 8379SOL    HW236771   3.095   1.714   7.535 -2.0767  0.6673 -1.9456
 8380SOL     OW36772   0.300   2.939  16.812  0.3178  0.5729 -0.1501
 8380SOL    HW136773   0.383   2.986  16.822 -0.0847  1.0889  0.7563
 8380SOL    HW236774   0.303   2.892  16.895 -0.4295  0.6812 -0.0619
 8381SOL     OW36775   1.778   2.239  11.741  0.7661  0.5697 -0.9013
 8381SOL    HW136776   1.860   2.236  11.692 -0.0480  0.5192 -2.2358
 8381SOL    HW236777   1.720   2.287  11.682 -2.2690 -1.7642  0.2398
 8382SOL     OW36778   1.805   3.120  16.966  0.5701  0.2440 -0.0542
 8382SOL    HW136779   1.827   3.038  17.010  0.8687  1.0924  1.3648
 8382SOL    HW236780   1.880   3.178  16.977  2.1134 -1.5489 -1.1831
 8383SOL     OW36781   4.234   1.722   4.088 -0.1338  0.2108  0.0352
 8383SOL    HW136782   4.160   1.770   4.048 -0.9261 -0.7768  0.3266
 8383SOL    HW236783   4.188   1.655   4.137  1.1577 -1.7946 -1.5148
 8384SOL     OW36784   0.396   1.645   6.946  0.2081 -0.3013  0.2546
 8384SOL    HW136785   0.319   1.588   6.936 -0.7662  1.3963 -1.9584
 8384SOL    HW236786   0.442   1.620   6.867 -1.6093  0.2046 -0.9730
 8385SOL     OW36787   3.763   3.223   7.049  0.3889  0.1546  0.3327
 8385SOL    HW136788   3.776   3.231   7.143 -1.5359 -0.8660  0.6699
 8385SOL    HW236789   3.834   3.278   7.014 -0.5628  0.4516 -1.1386
 8386SOL     OW36790   3.378   3.619   7.928 -0.1597  0.2087  0.1990
 8386SOL    HW136791   3.324   3.691   7.961 -1.7340 -0.7361 -0.3630
 8386SOL    HW236792   3.358   3.552   7.993 -1.1852  1.3943  1.0926
 8387SOL     OW36793   4.252   3.658   5.486 -0.0528  0.6223  0.3786
 8387SOL    HW136794   4.232   3.576   5.442 -0.8599  0.5432  0.8933
 8387SOL    HW236795   4.273   3.632   5.575  2.1108  0.8189 -0.0729
 8388SOL     OW36796   3.504   0.689   3.700 -0.0404  0.4643 -0.0826
 8388SOL    HW136797   3.450   0.722   3.628  0.5230  0.3872 -0.5428
 8388SOL    HW236798   3.496   0.753   3.771  0.1311 -0.4850  0.7916
 8389SOL     OW36799   2.432   3.130  15.554  0.4333 -0.2741 -0.7761
 8389SOL    HW136800   2.448   3.060  15.491 -2.4938 -2.1255  0.5283
 8389SOL    HW236801   2.513   3.180  15.539 -0.6211  1.8536  0.5882
 8390SOL     OW36802   0.234   0.279   1.871 -0.1726 -0.2325  0.5149
 8390SOL    HW136803   0.261   0.258   1.782 -0.6718 -1.4258  0.6428
 8390SOL    HW236804   0.291   0.222   1.924  0.5146 -0.1323 -0.1185
 8391SOL     OW36805   4.430   1.735   8.309  0.7071  0.3143 -0.3478
 8391SOL    HW136806   4.473   1.746   8.224 -0.7403 -0.1563 -1.1318
 8391SOL    HW236807   4.368   1.807   8.304  1.9769  1.5101  0.9415
 8392SOL     OW36808   3.843   1.001   3.061  0.4495  0.2362 -0.4776
 8392SOL    HW136809   3.774   1.018   2.997  0.5650  0.3005 -0.5857
 8392SOL    HW236810   3.874   1.084   3.098 -1.1859  0.9357 -0.6956
 8393SOL     OW36811   1.979   3.683   7.950  0.2060 -0.0189  0.1596
 8393SOL    HW136812   2.005   3.601   7.907 -1.5725  0.3400 -1.6007
 8393SOL    HW236813   2.044   3.746   7.920 -1.0638 -0.9707 -4.6368
 8394SOL     OW36814   1.098   4.313   1.865  0.0163 -0.2083 -0.1408
 8394SOL    HW136815   1.188   4.325   1.894 -0.0849 -0.1007  0.1394
 8394SOL    HW236816   1.053   4.398   1.867  1.4987  0.5967 -2.2288
 8395SOL     OW36817   2.029   4.542  14.690  0.6604 -0.1780 -0.0152
 8395SOL    HW136818   2.122   4.560  14.679  0.2101  1.1622 -1.5674
 8395SOL    HW236819   2.004   4.462  14.644 -0.4635 -0.2799  0.7522
 8396SOL     OW36820   2.351   0.705   8.099  0.2521  0.3043  0.2878
 8396SOL    HW136821   2.296   0.645   8.050  0.2706  0.1526  0.4527
 8396SOL    HW236822   2.285   0.772   8.117  0.4643  0.3324  0.9550
 8397SOL     OW36823   0.073   2.637  13.564 -0.0399 -0.6183  0.5486
 8397SOL    HW136824   0.091   2.547  13.539  0.1824  0.0508 -1.6772
 8397SOL    HW236825   0.045   2.675  13.481  1.6790 -0.7198 -0.0696
 8398SOL     OW36826   3.280   0.111   6.369 -0.0447  0.3561  0.0211
 8398SOL    HW136827   3.355   0.098   6.427  0.7329 -0.8652 -1.2509
 8398SOL    HW236828   3.277   0.027   6.323 -2.7215 -0.0627  0.9709
 8399SOL     OW36829   2.486   2.014  16.832 -0.2610 -0.4789 -0.0455
 8399SOL    HW136830   2.548   1.945  16.858  0.5113  0.5806  0.9191
 8399SOL    HW236831   2.420   1.956  16.795 -1.5756  2.4264 -2.2746
 8400SOL     OW36832   0.467   4.626   7.213  0.0780  0.1692  0.0486
 8400SOL    HW136833   0.384   4.658   7.178  0.8628  1.1856 -0.8959
 8400SOL    HW236834   0.452   4.626   7.308  3.1922 -0.5326  0.5454
 8401SOL     OW36835   4.087   2.913   8.608 -0.3156 -0.0869 -0.0465
 8401SOL    HW136836   4.014   2.965   8.639  0.9054  2.3397 -1.2953
 8401SOL    HW236837   4.122   2.976   8.545 -0.2813 -0.9122 -0.8512
 8402SOL     OW36838   1.177   2.120  14.658  0.5621 -0.3468 -0.0968
 8402SOL    HW136839   1.101   2.063  14.645  2.6535 -3.2282  0.3473
 8402SOL    HW236840   1.244   2.056  14.635  0.8494  0.9517 -2.8350
 8403SOL     OW36841   4.554   3.554   9.338 -0.3687 -0.0647 -0.0753
 8403SOL    HW136842   4.631   3.607   9.361 -0.1531 -0.4198  0.0212
 8403SOL    HW236843   4.497   3.623   9.303  0.4750  1.3483  1.3021
 8404SOL     OW36844   0.245   0.424   7.488 -0.5651 -0.3373  1.0718
 8404SOL    HW136845   0.309   0.491   7.463 -1.6774 -0.2890 -1.6257
 8404SOL    HW236846   0.216   0.469   7.567  0.4659  2.0525  0.0904
 8405SOL     OW36847   2.563   3.035  10.691 -0.1388  0.0149  0.5829
 8405SOL    HW136848   2.525   2.947  10.696 -0.7290  0.1160 -1.9177
 8405SOL    HW236849   2.627   3.039  10.762  1.0816 -1.7915 -0.3968
 8406SOL     OW36850   0.423   2.147   0.650  0.4648  0.2372 -0.5939
 8406SOL    HW136851   0.450   2.061   0.682 -3.2719 -0.7488 -0.1171
 8406SOL    HW236852   0.468   2.196   0.719 -0.3437  0.5726 -0.2964
 8407SOL     OW36853   3.647   4.487   4.120  0.3103  0.1776  0.2683
 8407SOL    HW136854   3.670   4.561   4.175  0.5320  0.3588 -0.0700
 8407SOL    HW236855   3.731   4.441   4.122 -1.8016 -3.6190  0.9880
 8408SOL     OW36856   1.930   1.646  16.879 -0.2667  0.1146 -0.4223
 8408SOL    HW136857   2.017   1.606  16.871  0.2674  0.9813  1.0728
 8408SOL    HW236858   1.878   1.587  16.933  1.2482 -0.9521 -0.1303
 8409SOL     OW36859   0.222   0.981  12.146  0.2000  0.6910  0.0428
 8409SOL    HW136860   0.246   1.072  12.131 -2.0177  1.6165  2.0975
 8409SOL    HW236861   0.251   0.973  12.236  2.2280 -1.1044 -0.7625
 8410SOL     OW36862   1.901   0.448   7.836  0.4528 -0.6600  0.2415
 8410SOL    HW136863   1.836   0.458   7.906 -0.2490 -0.8633 -0.3850
 8410SOL    HW236864   1.934   0.359   7.846 -0.7227 -1.0359  0.7613
 8411SOL     OW36865   0.411   3.732   4.794  0.3491  0.1848 -0.8962
 8411SOL    HW136866   0.466   3.667   4.751  1.6096 -0.4554  1.7032
 8411SOL    HW236867   0.405   3.793   4.721 -1.7153 -0.4699 -1.2802
 8412SOL     OW36868   4.046   1.826   6.852 -0.4226 -0.4533  0.0469
 8412SOL    HW136869   4.112   1.858   6.914 -0.0171  1.4959 -1.4055
 8412SOL    HW236870   4.104   1.841   6.777  0.3594  1.7741  1.0712
 8413SOL     OW36871   2.011   0.737  16.511  0.1757  0.5241  0.0723
 8413SOL    HW136872   1.950   0.686  16.566  0.5110  0.3499  0.2805
 8413SOL    HW236873   1.980   0.826  16.528 -0.4001  0.3088  0.1680
 8414SOL     OW36874   0.830   1.440   2.936  0.1136  0.0732 -0.5609
 8414SOL    HW136875   0.883   1.379   2.885  0.9117 -0.2379  0.6282
 8414SOL    HW236876   0.893   1.505   2.966 -1.5178  2.1909 -1.7201
 8415SOL     OW36877   4.172   3.562   3.392 -0.0266  0.5397  0.4168
 8415SOL    HW136878   4.254   3.513   3.393 -0.7070 -0.6478 -3.2036
 8415SOL    HW236879   4.178   3.607   3.308  1.0714  0.5639  0.5170
 8416SOL     OW36880   4.174   0.105   5.759 -0.6012  0.0601 -0.1607
 8416SOL    HW136881   4.086   0.135   5.784 -0.0539  1.8271 -0.3367
 8416SOL    HW236882   4.195   0.167   5.689 -0.1222  0.1089  0.0269
 8417SOL     OW36883   3.903   2.803   6.686 -0.1394 -0.0944 -0.2261
 8417SOL    HW136884   3.863   2.887   6.662 -1.1416 -0.4331  0.2490
 8417SOL    HW236885   3.943   2.827   6.770 -0.7317  1.0791 -0.2806
 8418SOL     OW36886   4.673   2.635   5.197 -0.3203 -0.0213  0.3092
 8418SOL    HW136887   4.671   2.540   5.208  1.3265 -0.1677 -0.8064
 8418SOL    HW236888   4.579   2.653   5.207 -0.5684 -0.6219 -0.9713
 8419SOL     OW36889   2.690   0.858  16.774  0.2641  0.0433  0.1268
 8419SOL    HW136890   2.609   0.835  16.819 -0.0156 -1.0636 -0.9337
 8419SOL    HW236891   2.685   0.953  16.770  1.2227  0.0393 -1.1961
 8420SOL     OW36892   2.543   2.313   6.315 -0.2973 -0.5488 -0.0052
 8420SOL    HW136893   2.546   2.227   6.274 -3.2293 -1.3416  1.4473
 8420SOL    HW236894   2.466   2.292   6.368  0.5990 -0.1729  1.4615
 8421SOL     OW36895   3.812   1.447   0.834 -0.5029  0.0960 -0.1929
 8421SOL    HW136896   3.848   1.495   0.759 -1.3626 -2.3092 -2.1275
 8421SOL    HW236897   3.716   1.455   0.840 -0.3086  2.6472 -0.4206
 8422SOL     OW36898   0.828   3.898   6.346  0.2927 -0.4256  0.1786
 8422SOL    HW136899   0.872   3.954   6.282 -1.4370  1.5157  0.6762
 8422SOL    HW236900   0.785   3.964   6.401  2.3835 -0.0256  1.3210
 8423SOL     OW36901   0.940   0.168  17.240  0.0202  0.4619 -0.4420
 8423SOL    HW136902   0.992   0.107  17.291  0.3146  0.2308 -1.0239
 8423SOL    HW236903   0.939   0.245  17.297 -0.0318 -0.5876  0.9806
 8424SOL     OW36904   0.874   4.666   0.237 -0.0573  0.0262  0.1931
 8424SOL    HW136905   0.865   4.696   0.327  1.9779 -1.0841  0.7540
 8424SOL    HW236906   0.938   4.727   0.201  0.9846 -2.1071 -1.5943
 8425SOL     OW36907   0.111   3.115   8.195 -0.0284 -0.1426  0.2085
 8425SOL    HW136908   0.099   3.202   8.234 -1.5922 -0.5684  0.6814
 8425SOL    HW236909   0.085   3.136   8.105  1.3007  1.0748  0.1134
 8426SOL     OW36910   4.456   1.497   8.909 -0.2116  0.1345 -0.2744
 8426SOL    HW136911   4.490   1.574   8.955 -0.8692  1.0251 -1.3013
 8426SOL    HW236912   4.499   1.432   8.965  0.2127  1.0431  0.4709
 8427SOL     OW36913   0.154   4.461   1.426  0.3211  0.1391 -0.6627
 8427SOL    HW136914   0.247   4.483   1.436  0.1535  0.7492 -0.4377
 8427SOL    HW236915   0.113   4.542   1.396  0.9066  0.0667 -1.6791
 8428SOL     OW36916   3.586   1.179   5.780  0.4002  0.0719 -0.3054
 8428SOL    HW136917   3.654   1.129   5.735  1.2114  0.5904  0.3363
 8428SOL    HW236918   3.652   1.237   5.820  1.7869 -0.5867 -1.6451
 8429SOL     OW36919   3.248   2.798   9.675  0.2141  0.0210 -0.7465
 8429SOL    HW136920   3.286   2.877   9.637 -2.0312  0.9717 -1.0394
 8429SOL    HW236921   3.329   2.748   9.683  0.2676  0.2908  0.3566
 8430SOL     OW36922   4.721   3.248   8.926  0.4026  0.5461 -0.1854
 8430SOL    HW136923   4.720   3.318   8.991 -0.5531 -1.7380  2.2958
 8430SOL    HW236924   4.669   3.189   8.980 -0.0963 -2.1043 -3.5420
 8431SOL     OW36925   1.964   2.222   5.910 -0.7050 -0.8853 -0.0671
 8431SOL    HW136926   1.931   2.243   5.997 -2.9921  1.9398 -1.6209
 8431SOL    HW236927   1.904   2.280   5.862 -1.0667 -1.5308 -0.3929
 8432SOL     OW36928   3.461   2.880   8.939  0.7230  0.3266  0.4371
 8432SOL    HW136929   3.367   2.869   8.927  0.7251 -1.0310  1.7308
 8432SOL    HW236930   3.472   2.965   8.896  1.0330 -0.7405 -1.6354
 8433SOL     OW36931   1.792   3.442   0.996  0.1309 -0.1541  0.0171
 8433SOL    HW136932   1.765   3.374   1.057 -0.3337 -0.8090 -0.9173
 8433SOL    HW236933   1.776   3.404   0.909  2.5981  2.8337 -1.7136
 8434SOL     OW36934   2.400   3.559   2.647 -0.5150  0.0011  0.0374
 8434SOL    HW136935   2.414   3.483   2.703 -1.9806  0.0492  0.4901
 8434SOL    HW236936   2.315   3.545   2.605 -0.2741 -0.0293 -0.4361
 8435SOL     OW36937   1.229   1.702  17.331  0.2422  0.4005 -0.2892
 8435SOL    HW136938   1.239   1.655  17.414 -1.9822  4.2221  2.1317
 8435SOL    HW236939   1.138   1.693  17.303 -0.1674 -1.8498  1.7255
 8436SOL     OW36940   0.414   2.660   3.020 -0.5228 -0.5484 -0.3577
 8436SOL    HW136941   0.368   2.627   3.097  0.9084 -1.6312  0.0318
 8436SOL    HW236942   0.364   2.738   2.998 -0.4872  0.5457  3.4596
 8437SOL     OW36943   2.386   4.531   4.593  0.1289  0.1053  0.0977
 8437SOL    HW136944   2.390   4.623   4.621 -0.3643 -0.7356  2.8270
 8437SOL    HW236945   2.292   4.518   4.605  0.3134 -0.8101  0.4695
 8438SOL     OW36946   1.793   3.448   2.545  0.3108  0.0828 -0.4834
 8438SOL    HW136947   1.701   3.420   2.548  0.1737  0.5722 -0.1942
 8438SOL    HW236948   1.822   3.429   2.635 -3.1166 -3.0131 -0.0399
 8439SOL     OW36949   2.058   1.945  16.807  0.5516  0.0374 -0.3778
 8439SOL    HW136950   2.072   1.944  16.902 -1.2162 -1.4104 -0.1463
 8439SOL    HW236951   2.105   2.026  16.788 -0.3650  0.2955 -1.5023
 8440SOL     OW36952   2.079   3.834   2.300  0.0808 -0.6153  0.0026
 8440SOL    HW136953   2.009   3.771   2.316  2.0262 -2.4859  1.1117
 8440SOL    HW236954   2.079   3.878   2.385 -1.2024 -0.8575  0.1317
 8441SOL     OW36955   3.289   2.074  17.033  0.4598  0.0078  0.5218
 8441SOL    HW136956   3.239   2.125  17.097  0.8975 -1.6771  2.2069
 8441SOL    HW236957   3.338   2.146  16.993 -2.3210  1.5546 -0.0932
 8442SOL     OW36958   1.517   4.056  16.907  0.2109  0.3068  0.5403
 8442SOL    HW136959   1.448   4.096  16.961  0.0313 -0.7612  1.1160
 8442SOL    HW236960   1.595   4.103  16.935 -1.9592  2.2287  3.4528
 8443SOL     OW36961   3.181   2.266   8.923  0.5153 -0.0468 -0.2710
 8443SOL    HW136962   3.226   2.321   8.859 -0.6550  1.6612  0.3516
 8443SOL    HW236963   3.133   2.336   8.967  0.7476 -1.4175  2.1616
 8444SOL     OW36964   1.495   2.167   6.412 -0.1369  0.0153 -0.0163
 8444SOL    HW136965   1.515   2.230   6.482 -3.2222  1.1872 -0.1888
 8444SOL    HW236966   1.539   2.087   6.440 -1.2818 -0.7675 -0.4336
 8445SOL     OW36967   0.189   2.733  10.808  0.0445  0.7143  0.0810
 8445SOL    HW136968   0.123   2.802  10.799  0.1658  1.2963  3.7137
 8445SOL    HW236969   0.259   2.790  10.839  0.3024  0.7107 -0.4943
 8446SOL     OW36970   3.470   2.913   2.505  0.2607 -0.6328  0.4999
 8446SOL    HW136971   3.387   2.898   2.459 -0.8174 -0.7539  2.4641
 8446SOL    HW236972   3.467   2.834   2.559  1.2440 -0.9572  0.0708
 8447SOL     OW36973   0.973   4.678   5.594 -0.1858  0.4579  0.2370
 8447SOL    HW136974   0.895   4.681   5.648  0.1842  1.9889  0.7001
 8447SOL    HW236975   0.948   0.015   5.536 -2.2756 -1.1133 -0.7772
 8448SOL     OW36976   2.971   2.544   2.263 -0.4293  0.2028 -0.1457
 8448SOL    HW136977   2.990   2.450   2.260  1.4754  0.6084 -0.4021
 8448SOL    HW236978   2.925   2.558   2.180 -0.6660  0.4114  0.0206
 8449SOL     OW36979   0.815   4.717   6.790 -0.4912 -0.0803  0.2218
 8449SOL    HW136980   0.768   0.005   6.870  0.8732 -2.8864  1.7676
 8449SOL    HW236981   0.906   4.715   6.818 -0.6348 -0.0314  0.6945
 8450SOL     OW36982   1.112   0.571   2.310  0.1644  0.0613  0.2836
 8450SOL    HW136983   1.066   0.487   2.307  1.0606 -0.5559  3.6633
 8450SOL    HW236984   1.038   0.629   2.325 -0.7825 -0.3910 -2.7525
 8451SOL     OW36985   4.364   0.202   8.843  0.5120  0.3173  0.6322
 8451SOL    HW136986   4.362   0.231   8.752  1.3178  1.7316  1.0702
 8451SOL    HW236987   4.296   0.253   8.888 -1.2299 -0.9636 -0.5684
 8452SOL     OW36988   1.138   1.527   6.980 -0.3953 -0.1307 -0.4552
 8452SOL    HW136989   1.233   1.536   6.984 -0.6017  2.6572 -1.7572
 8452SOL    HW236990   1.129   1.435   6.954 -0.3032 -0.8406  2.0169
 8453SOL     OW36991   0.431   0.918   2.792  0.3145 -0.3529  0.0369
 8453SOL    HW136992   0.473   0.971   2.860 -0.0900  0.4202 -0.3178
 8453SOL    HW236993   0.481   0.836   2.787 -1.2829 -1.5923  4.3213
 8454SOL     OW36994   2.740   0.773  13.426  0.4122 -0.0154  0.2541
 8454SOL    HW136995   2.683   0.802  13.497 -0.5033 -0.2836 -0.3806
 8454SOL    HW236996   2.733   0.849  13.369 -1.6070 -0.8115 -0.5148
 8455SOL     OW36997   0.816   4.483   8.676  0.2002 -0.1199  0.1247
 8455SOL    HW136998   0.818   4.508   8.768  0.6552 -0.2255  0.1419
 8455SOL    HW236999   0.830   4.389   8.683  0.0034 -0.0682  1.1882
 8456SOL     OW37000   0.259   4.112   2.169  0.3125 -0.4778 -0.1541
 8456SOL    HW137001   0.234   4.182   2.110 -0.4291 -2.6536 -2.4383
 8456SOL    HW237002   0.309   4.152   2.241  1.2619  1.8176 -2.1309
 8457SOL     OW37003   0.854   0.004   0.504 -0.1346  0.2466 -0.5584
 8457SOL    HW137004   0.867   0.096   0.528 -0.8828  0.3398 -0.5201
 8457SOL    HW237005   0.875   4.700   0.590 -1.1623 -0.2492 -0.5300
 8458SOL     OW37006   1.159   1.354   6.193 -0.3145  0.4225  0.1997
 8458SOL    HW137007   1.088   1.375   6.133 -0.2665  0.4377  0.1484
 8458SOL    HW237008   1.129   1.401   6.271  1.8721  1.0504  0.6854
 8459SOL     OW37009   3.013   0.592   4.846  0.3751  0.0133  0.4841
 8459SOL    HW137010   3.099   0.625   4.872  0.6484  0.4471 -0.9759
 8459SOL    HW237011   2.990   0.680   4.815  2.7271 -0.0202 -1.3039
 8460SOL     OW37012   3.596   4.286   7.664  0.1434 -0.2008  0.0316
 8460SOL    HW137013   3.637   4.338   7.595 -1.1805  1.0258  0.1697
 8460SOL    HW237014   3.505   4.275   7.635 -0.0643 -2.9868  1.7760
 8461SOL     OW37015   0.158   4.250  11.076  0.5867 -0.1454  0.4911
 8461SOL    HW137016   0.148   4.213  11.164 -1.6433 -0.7196  0.0018
 8461SOL    HW237017   0.245   4.229  11.044 -1.7334 -3.2801 -3.6491
 8462SOL     OW37018   4.306   4.230   8.503 -0.2932  0.2706  0.3342
 8462SOL    HW137019   4.318   4.291   8.430 -0.2229  0.1515  0.2469
 8462SOL    HW237020   4.230   4.266   8.550 -0.7074  0.3800 -0.4229
 8463SOL     OW37021   4.102   3.655   5.035 -0.3847 -0.1596 -0.6396
 8463SOL    HW137022   4.092   3.718   4.964  1.4988 -0.3968 -1.1033
 8463SOL    HW237023   4.044   3.693   5.102  1.5299  3.9783 -1.3048
 8464SOL     OW37024   3.243   3.992   7.852 -0.2364  0.1614  0.5484
 8464SOL    HW137025   3.322   3.963   7.897 -0.0040 -0.1478 -0.0749
 8464SOL    HW237026   3.218   4.072   7.899 -0.1871  1.0919 -1.0096
 8465SOL     OW37027   0.232   3.721   6.685 -0.1456 -0.0887  1.2113
 8465SOL    HW137028   0.326   3.739   6.693  0.3693 -1.6084 -1.3732
 8465SOL    HW237029   0.190   3.805   6.666  1.3604  0.3765 -0.1178
 8466SOL     OW37030   1.666   2.145   9.272 -1.0972  0.0182 -0.1282
 8466SOL    HW137031   1.693   2.236   9.261 -3.6142  0.8995  1.0039
 8466SOL    HW237032   1.736   2.107   9.220 -1.1218  0.2153 -0.3061
 8467SOL     OW37033   4.051   0.872   2.169  0.3214  0.1938  0.4391
 8467SOL    HW137034   4.103   0.804   2.213 -1.5457 -1.2783  0.3546
 8467SOL    HW237035   3.976   0.873   2.228 -0.0332 -0.0058 -0.0134
 8468SOL     OW37036   2.850   2.346   3.821  0.0604  0.1664 -0.3169
 8468SOL    HW137037   2.861   2.267   3.874  0.1412 -0.5999 -1.4863
 8468SOL    HW237038   2.927   2.332   3.767 -0.9628 -1.4866 -1.3371
 8469SOL     OW37039   1.772   1.183   6.109  0.3758  0.0952  0.1543
 8469SOL    HW137040   1.762   1.215   6.019  2.5245 -0.3776 -0.2480
 8469SOL    HW237041   1.803   1.094   6.098  1.0366  0.3028  0.3568
 8470SOL     OW37042   1.199   2.966   6.791 -0.2146  0.7752  0.0024
 8470SOL    HW137043   1.211   3.057   6.817 -2.1827  0.3410  2.3614
 8470SOL    HW237044   1.186   2.918   6.872  1.3588 -0.0705 -0.2445
 8471SOL     OW37045   1.206   2.551   2.705 -0.4866 -0.5123 -0.1548
 8471SOL    HW137046   1.112   2.545   2.723 -0.5257  1.0864  0.1490
 8471SOL    HW237047   1.224   2.625   2.647  1.5682 -0.0890  1.0369
 8472SOL     OW37048   3.795   1.392   2.810  0.5547 -0.0999  0.1414
 8472SOL    HW137049   3.838   1.350   2.736  1.0576  0.6358  0.0216
 8472SOL    HW237050   3.871   1.395   2.867 -1.0762 -0.1449  2.3304
 8473SOL     OW37051   0.242   0.139   4.945 -0.3115 -0.2757  0.1372
 8473SOL    HW137052   0.271   0.119   5.034 -0.5581 -1.4577 -0.0538
 8473SOL    HW237053   0.184   0.212   4.962 -1.6145 -1.7551  1.9663
 8474SOL     OW37054   1.556   4.417  14.296  0.4118  0.1989 -0.0491
 8474SOL    HW137055   1.565   4.421  14.391 -0.7777  0.5177  0.0438
 8474SOL    HW237056   1.623   4.353  14.273 -0.6967 -0.0051 -2.6855
 8475SOL     OW37057   0.796   2.850   7.219  0.2622  0.1862 -0.2403
 8475SOL    HW137058   0.802   2.793   7.296  1.6518  0.1253 -0.3878
 8475SOL    HW237059   0.761   2.928   7.261  0.0763 -1.1775  2.1502
 8476SOL     OW37060   4.122   4.077   2.468  0.4123 -0.2466  0.1865
 8476SOL    HW137061   4.166   4.102   2.550  3.0500 -1.5692 -0.8199
 8476SOL    HW237062   4.127   4.160   2.420 -3.8349 -0.6442 -0.9200
 8477SOL     OW37063   3.890   3.268  12.758  0.6449 -0.0427 -0.0539
 8477SOL    HW137064   3.890   3.177  12.789  0.6231  0.1561  0.5447
 8477SOL    HW237065   3.879   3.246  12.666 -0.8322 -0.5231  0.2498
 8478SOL     OW37066   1.999   2.871   8.423  0.0582 -0.0787  0.2383
 8478SOL    HW137067   2.021   2.784   8.456 -0.6653 -0.6169 -0.7342
 8478SOL    HW237068   1.929   2.847   8.362 -0.8946 -1.9658  2.0815
 8479SOL     OW37069   3.076   1.394   0.146  0.1514  0.1748 -0.2298
 8479SOL    HW137070   3.048   1.450   0.218 -1.8400 -2.8903  1.3350
 8479SOL    HW237071   3.012   1.412   0.078 -0.0437 -2.6167 -0.7753
 8480SOL     OW37072   4.613   0.252   8.491  0.6583 -0.0506  0.6770
 8480SOL    HW137073   4.588   0.344   8.495  2.2732  0.3112  2.6315
 8480SOL    HW237074   4.666   0.245   8.412  2.7612 -0.1221  2.0721
 8481SOL     OW37075   1.395   2.147   8.405 -0.1977  0.0960 -0.9110
 8481SOL    HW137076   1.339   2.143   8.327  0.7901 -1.5621 -1.5408
 8481SOL    HW237077   1.343   2.201   8.464  0.2379 -0.9625  0.4280
 8482SOL     OW37078   1.555   2.132   7.658  0.0661 -0.5679  0.0727
 8482SOL    HW137079   1.619   2.069   7.624  2.8624  1.4992  1.5533
 8482SOL    HW237080   1.593   2.159   7.742  1.0288  1.0266 -0.8879
 8483SOL     OW37081   0.194   2.198   4.054 -0.5633 -0.3989  0.5007
 8483SOL    HW137082   0.205   2.189   3.960 -1.6164  0.1846  0.3288
 8483SOL    HW237083   0.283   2.214   4.086 -0.4194 -1.3970  0.6054
 8484SOL     OW37084   1.425   3.286   6.022  0.1054  0.2500  0.5981
 8484SOL    HW137085   1.477   3.239   5.957  0.9691 -0.2690  1.6528
 8484SOL    HW237086   1.337   3.292   5.986 -0.0637 -0.3961  0.9072
 8485SOL     OW37087   2.888   0.162   7.544 -0.1032  0.0566 -0.2119
 8485SOL    HW137088   2.851   0.134   7.628  0.7856  2.2069  0.8896
 8485SOL    HW237089   2.818   0.218   7.509  0.2189  0.0985 -0.7909
 8486SOL     OW37090   4.400   0.073   6.394 -0.4359  0.4371 -0.7392
 8486SOL    HW137091   4.427   0.016   6.466  0.4663  0.5811 -0.9675
 8486SOL    HW237092   4.474   0.059   6.334  0.8027  1.1518  0.6308
 8487SOL     OW37093   2.632   3.112   2.762 -0.0949 -0.1594  0.1662
 8487SOL    HW137094   2.661   3.138   2.850 -0.0245 -1.2198  0.4496
 8487SOL    HW237095   2.591   3.028   2.783 -1.6030 -0.0997 -2.6139
 8488SOL     OW37096   1.370   1.957  10.646  0.1599  0.1919 -0.5651
 8488SOL    HW137097   1.312   1.941  10.720  0.8896  0.3840  0.0469
 8488SOL    HW237098   1.447   1.992  10.690 -0.2761 -0.2316  0.5524
 8489SOL     OW37099   3.143   2.990  15.258 -0.1804  0.0050  0.2965
 8489SOL    HW137100   3.175   3.078  15.239  0.4500 -0.0233  1.2480
 8489SOL    HW237101   3.087   2.977  15.181  1.7475 -1.1489 -0.9085
 8490SOL     OW37102   3.145   0.148   5.233 -0.3783  0.1955  0.4758
 8490SOL    HW137103   3.071   0.206   5.255 -1.1901 -0.4682 -0.5084
 8490SOL    HW237104   3.108   0.114   5.152  1.0425 -0.7466  0.2328
 8491SOL     OW37105   1.068   4.221  14.777 -0.2706 -0.5149 -0.2294
 8491SOL    HW137106   1.051   4.224  14.683 -1.1648 -0.1413 -0.0534
 8491SOL    HW237107   1.103   4.309  14.790 -0.0197 -0.5475 -0.6655
 8492SOL     OW37108   0.172   1.046   4.790  0.5840  0.1995  0.3784
 8492SOL    HW137109   0.088   1.028   4.832  0.9147 -0.3714  0.7988
 8492SOL    HW237110   0.183   0.956   4.758 -0.3806 -0.3636  1.6420
 8493SOL     OW37111   4.002   3.941  12.612  0.5565  0.3037 -0.1239
 8493SOL    HW137112   4.075   3.994  12.645  1.6766 -0.7180 -0.9746
 8493SOL    HW237113   3.961   4.000  12.549 -0.0272  0.6034  0.5303
 8494SOL     OW37114   1.820   3.953   2.135 -0.1449 -0.6654 -0.0983
 8494SOL    HW137115   1.914   3.936   2.131  0.0463  0.3195  0.3583
 8494SOL    HW237116   1.805   3.940   2.229  0.3603  1.2182  0.2397
 8495SOL     OW37117   1.081   0.200   4.224  0.0920 -0.2892 -0.2059
 8495SOL    HW137118   1.056   0.245   4.144 -0.2219 -0.8475 -0.4276
 8495SOL    HW237119   1.097   0.277   4.279 -0.3207 -1.7665  2.0001
 8496SOL     OW37120   2.969   3.200   2.709  0.2463 -0.2311  0.2765
 8496SOL    HW137121   2.996   3.145   2.783 -2.5684 -0.9455  0.7755
 8496SOL    HW237122   3.043   3.258   2.696  1.3868 -0.9310  3.6287
 8497SOL     OW37123   2.081   4.227  12.353  0.2760 -0.4296 -0.4489
 8497SOL    HW137124   2.079   4.172  12.432 -1.1691 -0.3561 -0.4325
 8497SOL    HW237125   2.172   4.256  12.353  1.1080 -3.0383 -1.8435
 8498SOL     OW37126   4.278   3.323   5.985 -0.0320  0.4152 -0.5291
 8498SOL    HW137127   4.264   3.287   6.072 -0.0668  0.4978 -0.5001
 8498SOL    HW237128   4.371   3.346   5.985 -0.0718  0.5855  1.8666
 8499SOL     OW37129   2.351   4.378   4.309  0.3201 -0.4292 -0.0051
 8499SOL    HW137130   2.378   4.351   4.397  1.8777 -1.1114 -0.6964
 8499SOL    HW237131   2.366   4.294   4.266 -0.6745 -1.2443  1.2488
 8500SOL     OW37132   3.835   0.183  11.981 -0.3443  0.4403  0.1692
 8500SOL    HW137133   3.790   0.266  11.995  0.4662  0.7605  0.8518
 8500SOL    HW237134   3.909   0.210  11.926  0.3630 -1.6978  0.0724
 8501SOL     OW37135   0.087   1.270   5.088 -0.1923  0.9066 -0.1170
 8501SOL    HW137136   0.121   1.301   5.172 -1.5022  1.8234  0.0800
 8501SOL    HW237137   4.729   1.253   5.107 -0.6962  2.7089 -0.9711
 8502SOL     OW37138   2.233   4.050   6.457  0.2707 -0.4078 -0.5551
 8502SOL    HW137139   2.254   4.059   6.364  0.2925 -0.5143 -0.5611
 8502SOL    HW237140   2.233   4.142   6.481 -1.2939 -0.2558 -1.2011
 8503SOL     OW37141   0.686   0.620  13.786  0.2428  0.2585  0.1083
 8503SOL    HW137142   0.591   0.632  13.787  0.1600 -0.4071 -0.2762
 8503SOL    HW237143   0.707   0.611  13.693  3.0671 -2.0493  0.9826
 8504SOL     OW37144   0.125   0.878  11.861  0.5446  0.2326 -0.2269
 8504SOL    HW137145   0.160   0.870  11.949  1.2128  1.1865 -0.4127
 8504SOL    HW237146   0.201   0.865  11.803  0.6541 -2.2390  0.4556
 8505SOL     OW37147   1.688   4.577   7.895  0.2597 -0.1643 -0.5352
 8505SOL    HW137148   1.625   4.649   7.895  1.1790  0.6517 -1.8183
 8505SOL    HW237149   1.700   4.570   7.990 -0.9109 -1.9717 -0.5352
 8506SOL     OW37150   1.407   2.256  15.816  0.2535  0.3079 -0.3762
 8506SOL    HW137151   1.389   2.181  15.759  1.1965  0.2951 -0.6549
 8506SOL    HW237152   1.339   2.318  15.791  1.2869  0.3731 -2.9784
 8507SOL     OW37153   2.940   0.487   3.537  0.3392 -0.1240  0.4685
 8507SOL    HW137154   2.857   0.454   3.572 -0.2660  2.2634  1.2846
 8507SOL    HW237155   3.005   0.427   3.575 -0.0614 -0.3100  0.8584
 8508SOL     OW37156   4.030   0.535   4.700  0.4299  0.0091  0.7247
 8508SOL    HW137157   4.097   0.520   4.633 -1.0353 -2.1581 -0.2459
 8508SOL    HW237158   4.070   0.582   4.773  4.6723  1.4529 -2.5304
 8509SOL     OW37159   3.805   2.937   6.066 -0.4355  0.4317  0.1691
 8509SOL    HW137160   3.885   2.927   6.118 -0.0462 -1.0302 -0.6898
 8509SOL    HW237161   3.767   3.011   6.113  0.5694 -0.6174  2.6367
 8510SOL     OW37162   0.132   2.630   8.637 -0.0399 -0.1397  0.0609
 8510SOL    HW137163   0.142   2.650   8.544 -0.9188  0.8320  0.1740
 8510SOL    HW237164   0.147   2.718   8.671 -3.3272  1.1240 -1.8195
 8511SOL     OW37165   4.220   2.755  13.370 -0.2779  0.0585 -0.1781
 8511SOL    HW137166   4.196   2.672  13.412 -3.3469  2.3444  2.5906
 8511SOL    HW237167   4.303   2.777  13.413 -2.0722  0.4033  3.1435
 8512SOL     OW37168   2.361   4.089   9.561 -0.0074  0.1655  0.1001
 8512SOL    HW137169   2.365   4.144   9.640 -1.0395 -1.4696  1.2851
 8512SOL    HW237170   2.333   4.008   9.604 -1.4767  0.8738  0.4901
 8513SOL     OW37171   3.329   1.407   7.681  0.4237  0.6897 -0.2754
 8513SOL    HW137172   3.269   1.395   7.608 -0.5363 -1.8842  0.9506
 8513SOL    HW237173   3.349   1.320   7.715 -1.0140 -0.5620 -2.6425
 8514SOL     OW37174   4.214   3.537  14.647  0.0160 -0.3639 -0.2527
 8514SOL    HW137175   4.219   3.526  14.552  0.5953  0.2527 -0.2902
 8514SOL    HW237176   4.289   3.487  14.679 -1.6808 -1.6863  1.6627
 8515SOL     OW37177   1.240   3.276   2.995 -0.5456  0.4920 -0.2803
 8515SOL    HW137178   1.196   3.196   2.966  1.8352 -0.3444 -1.6273
 8515SOL    HW237179   1.284   3.303   2.914  1.6898  1.2457  1.1985
 8516SOL     OW37180   4.320   0.666   4.755  0.0947 -0.5164 -0.0635
 8516SOL    HW137181   4.393   0.641   4.698 -0.6956 -0.0940 -1.2675
 8516SOL    HW237182   4.269   0.713   4.689 -0.9826  0.0569  1.1649
 8517SOL     OW37183   2.500   2.467   2.441 -0.1945  0.2744 -0.5935
 8517SOL    HW137184   2.441   2.398   2.410 -1.3705  0.9621  0.1338
 8517SOL    HW237185   2.576   2.458   2.384  1.5861 -1.3844  2.0372
 8518SOL     OW37186   3.074   2.099   4.585  0.1288  0.3895  0.0621
 8518SOL    HW137187   3.097   2.177   4.637 -2.5497  0.4886  1.1042
 8518SOL    HW237188   3.070   2.029   4.651 -2.7348 -1.0306 -1.5980
 8519SOL     OW37189   2.894   1.680  14.675  0.1887 -0.3801  0.2754
 8519SOL    HW137190   2.936   1.697  14.591  0.4609 -1.3639  0.2159
 8519SOL    HW237191   2.942   1.604  14.708  1.6780 -0.4187 -1.9713
 8520SOL     OW37192   4.572   1.167   5.128 -0.2143  0.2714  0.0685
 8520SOL    HW137193   4.544   1.198   5.214 -1.0398  0.3597 -0.2334
 8520SOL    HW237194   4.495   1.191   5.077  0.5326 -0.3242 -1.3110
 8521SOL     OW37195   1.505   2.630  14.585 -0.4541 -0.3779 -0.4096
 8521SOL    HW137196   1.428   2.623  14.529 -0.8115  0.9473 -0.0773
 8521SOL    HW237197   1.531   2.538  14.583 -0.7604 -0.4180 -2.3536
 8522SOL     OW37198   2.293   2.101  10.707 -0.2957  0.6055 -0.0645
 8522SOL    HW137199   2.217   2.107  10.764 -0.1088 -1.8796  0.4652
 8522SOL    HW237200   2.327   2.019  10.743 -1.7474  0.9733  2.1210
 8523SOL     OW37201   1.908   3.657   4.327 -0.4901  0.3260  0.1763
 8523SOL    HW137202   1.840   3.604   4.371 -1.0195  0.2694 -0.7217
 8523SOL    HW237203   1.869   3.670   4.241  1.3961  0.0732 -0.6951
 8524SOL     OW37204   1.724   4.651   9.006  0.0160 -0.4627  0.1323
 8524SOL    HW137205   1.646   4.672   8.954 -0.0083 -0.5182  0.1466
 8524SOL    HW237206   1.697   4.582   9.066 -2.0324  0.2652  0.0513
 8525SOL     OW37207   4.443   4.398  10.380 -0.1320 -0.2723 -0.4608
 8525SOL    HW137208   4.372   4.413  10.317  1.0382  0.4573 -1.6309
 8525SOL    HW237209   4.476   4.314  10.348 -0.9174 -0.0939 -1.7456
 8526SOL     OW37210   1.685   4.068   3.341 -1.0043  0.2892 -0.0096
 8526SOL    HW137211   1.686   4.162   3.358  1.6038  0.2290  0.1578
 8526SOL    HW237212   1.637   4.064   3.258 -0.3086  0.4583 -0.4199
 8527SOL     OW37213   4.679   2.950   9.652  0.1433  0.4143  0.0818
 8527SOL    HW137214   4.677   3.045   9.640 -0.7019  0.3333 -0.4355
 8527SOL    HW237215   4.723   2.945   9.737  2.5637 -1.5238 -1.2862
 8528SOL     OW37216   1.678   1.204   2.863 -0.1614  0.4384 -0.2337
 8528SOL    HW137217   1.744   1.166   2.806  1.1188  1.8690  0.2779
 8528SOL    HW237218   1.709   1.203   2.953  0.0953  1.8357 -0.2989
 8529SOL     OW37219   2.119   0.443   3.646 -0.5890  0.5746 -0.2803
 8529SOL    HW137220   2.153   0.420   3.732 -0.9192  1.1937  0.0182
 8529SOL    HW237221   2.145   0.535   3.655 -0.3603  0.4031  0.7998
 8530SOL     OW37222   4.556   3.931   5.930  0.6006 -0.0402  0.2919
 8530SOL    HW137223   4.604   4.013   5.938  0.7185 -0.0310 -0.5671
 8530SOL    HW237224   4.591   3.898   6.013  1.5716 -0.9279 -0.4842
 8531SOL     OW37225   0.561   4.217   6.279 -0.3546 -0.3074 -0.5809
 8531SOL    HW137226   0.567   4.291   6.339  0.1658 -1.1308  0.3643
 8531SOL    HW237227   0.562   4.144   6.340  0.9605 -0.6362 -1.0011
 8532SOL     OW37228   3.845   1.638   5.810 -0.6136 -0.0400  0.0717
 8532SOL    HW137229   3.873   1.726   5.783 -0.4517 -0.1879 -0.2433
 8532SOL    HW237230   3.863   1.648   5.904 -2.0689 -1.9077  0.5533
 8533SOL     OW37231   3.101   3.026  14.461  0.2790 -0.6061 -0.0577
 8533SOL    HW137232   3.157   3.101  14.439 -1.1035 -0.1515 -1.9874
 8533SOL    HW237233   3.012   3.049  14.433  0.9186 -0.8589 -2.2595
 8534SOL     OW37234   3.968   0.883   3.311 -0.5113 -0.5366  0.5295
 8534SOL    HW137235   3.937   0.792   3.304  0.8432 -1.1564  2.3868
 8534SOL    HW237236   3.920   0.927   3.241  1.6148  0.7580 -0.1096
 8535SOL     OW37237   3.208   2.138   2.903  0.4383  0.3714 -0.4952
 8535SOL    HW137238   3.276   2.184   2.953 -0.2725  1.7834 -0.8375
 8535SOL    HW237239   3.249   2.052   2.895  0.9389  0.9535 -3.9540
 8536SOL     OW37240   0.575   3.940  10.684  0.0366 -0.0829 -0.0466
 8536SOL    HW137241   0.496   3.914  10.731  0.5599 -0.1583  0.7926
 8536SOL    HW237242   0.611   3.991  10.756 -1.6068  2.4366 -1.0052
 8537SOL     OW37243   3.211   0.913   5.114 -0.0725 -0.1241  0.6939
 8537SOL    HW137244   3.284   0.919   5.176 -0.4676 -1.3839  1.2838
 8537SOL    HW237245   3.147   0.970   5.158  1.7780  2.0664  0.5665
 8538SOL     OW37246   1.561   0.855  13.603 -0.3595  0.3686  0.1632
 8538SOL    HW137247   1.508   0.850  13.523  0.3290  1.2013 -0.3538
 8538SOL    HW237248   1.517   0.784  13.650  0.2802 -1.4732 -2.0213
 8539SOL     OW37249   0.914   3.766   8.265 -0.9722 -0.4989 -0.0969
 8539SOL    HW137250   0.845   3.822   8.300  0.4310  1.0779  0.1275
 8539SOL    HW237251   0.869   3.682   8.271  1.9519 -2.2013 -1.5226
 8540SOL     OW37252   4.152   0.873  14.137  0.3140 -0.3655 -0.1282
 8540SOL    HW137253   4.081   0.910  14.085  0.5191  0.8703  0.4624
 8540SOL    HW237254   4.223   0.932  14.112 -0.7346  1.4729  1.1983
 8541SOL     OW37255   2.269   3.148  12.624  0.3171  0.0708  0.2332
 8541SOL    HW137256   2.335   3.082  12.602  1.8259  1.9104 -0.7461
 8541SOL    HW237257   2.263   3.195  12.541  0.3647  0.3664  0.4000
 8542SOL     OW37258   1.980   1.819  10.586  0.2790 -0.5466 -0.1463
 8542SOL    HW137259   1.961   1.737  10.631 -1.6655  0.1590  0.3342
 8542SOL    HW237260   1.896   1.816  10.540  0.4743 -2.7658 -0.3731
 8543SOL     OW37261   4.020   0.264   3.761  0.2789 -0.7270 -0.1488
 8543SOL    HW137262   4.044   0.248   3.852 -0.9900 -0.4038  0.2409
 8543SOL    HW237263   4.109   0.266   3.724  0.0589 -0.8055 -0.6741
 8544SOL     OW37264   0.803   2.364   2.373  0.4495  0.6167  0.3811
 8544SOL    HW137265   0.744   2.432   2.340  1.6885  0.7842 -1.4651
 8544SOL    HW237266   0.778   2.307   2.300  0.1452 -0.0115  0.9701
 8545SOL     OW37267   1.670   0.130  14.728  0.3458 -0.1423 -0.2598
 8545SOL    HW137268   1.641   0.052  14.681  0.7873 -0.0862 -0.6162
 8545SOL    HW237269   1.764   0.116  14.732  0.2175 -1.1705 -1.0007
 8546SOL     OW37270   1.002   0.325   5.140  0.3318 -0.7008  0.3110
 8546SOL    HW137271   1.086   0.333   5.187  0.5910  0.2089 -0.3141
 8546SOL    HW237272   0.950   0.398   5.173  0.8722 -0.3623  0.4252
 8547SOL     OW37273   3.774   0.104   9.616  0.5050 -0.3483 -0.0066
 8547SOL    HW137274   3.739   0.189   9.590 -0.2401  0.0767  2.4236
 8547SOL    HW237275   3.819   0.123   9.698  1.5395  0.2418 -0.7286
 8548SOL     OW37276   3.260   1.042   6.813 -0.2543 -0.0807 -0.5703
 8548SOL    HW137277   3.224   1.029   6.901 -3.1567  1.0359 -1.6094
 8548SOL    HW237278   3.221   0.971   6.763  0.8841  0.4653 -2.2351
 8549SOL     OW37279   4.290   3.020   3.525 -0.0794 -0.2369 -0.2046
 8549SOL    HW137280   4.323   2.955   3.587  1.6763  0.5541 -0.3070
 8549SOL    HW237281   4.219   3.058   3.577  1.3692 -0.5338  1.9926
 8550SOL     OW37282   3.678   4.665  12.825 -0.4112 -0.3509  0.2409
 8550SOL    HW137283   3.731   4.613  12.887  0.1069 -1.7689 -1.3927
 8550SOL    HW237284   3.598   4.679  12.876  1.1332  0.0591  2.5696
 8551SOL     OW37285   4.108   1.160  11.261  0.4212 -0.1896 -0.2588
 8551SOL    HW137286   4.043   1.105  11.304  0.2146 -0.6723 -1.1811
 8551SOL    HW237287   4.192   1.119  11.281 -0.0309 -1.7417 -1.5266
 8552SOL     OW37288   3.596   0.680   5.107  0.0996  0.3602  0.2580
 8552SOL    HW137289   3.550   0.730   5.173  0.0367 -0.1130  0.5758
 8552SOL    HW237290   3.672   0.736   5.092 -0.0142  0.6642  0.8416
 8553SOL     OW37291   0.590   1.596   9.804  0.0092  0.6223 -0.2823
 8553SOL    HW137292   0.681   1.594   9.775  0.0496 -1.7897 -0.0240
 8553SOL    HW237293   0.560   1.653   9.733  0.2358 -0.6116 -1.3611
 8554SOL     OW37294   0.708   4.126   4.779  0.2524  0.1993  0.1575
 8554SOL    HW137295   0.677   4.059   4.718  0.3220 -0.0710  0.4214
 8554SOL    HW237296   0.673   4.085   4.858 -0.2527  1.2099  0.4552
 8555SOL     OW37297   0.752   2.089   0.670  0.3567 -0.2747 -0.2722
 8555SOL    HW137298   0.838   2.089   0.713 -0.1689 -2.2938  0.7840
 8555SOL    HW237299   0.728   1.997   0.684 -0.9711 -0.0298 -0.9174
 8556SOL     OW37300   2.844   1.822  13.561  0.2785  0.5171  0.3798
 8556SOL    HW137301   2.866   1.731  13.579 -1.4585 -0.7109 -3.6545
 8556SOL    HW237302   2.862   1.847  13.470  0.9714  1.4888  0.7807
 8557SOL     OW37303   3.557   2.965  14.768 -0.3415 -0.1290  0.5577
 8557SOL    HW137304   3.511   2.928  14.693 -0.7039  1.7247 -0.1302
 8557SOL    HW237305   3.617   3.025  14.724 -0.9889 -1.1041 -1.6362
 8558SOL     OW37306   2.220   2.654   1.614 -0.5309 -0.4464  0.0108
 8558SOL    HW137307   2.151   2.612   1.665 -1.4771  0.6550 -0.3719
 8558SOL    HW237308   2.255   2.709   1.684 -2.4752  0.5298  0.2148
 8559SOL     OW37309   1.430   4.571   7.240 -0.1762  0.1143 -0.4158
 8559SOL    HW137310   1.368   4.602   7.174 -0.6382 -1.1821 -0.5687
 8559SOL    HW237311   1.463   4.658   7.266  1.7092 -1.1997  1.5524
 8560SOL     OW37312   1.975   0.191   2.342  0.5819 -0.1424  0.0547
 8560SOL    HW137313   1.982   0.195   2.247 -0.1974  1.3540  0.0706
 8560SOL    HW237314   1.892   0.143   2.350 -1.3455  2.8830 -1.5271
 8561SOL     OW37315   1.067   1.012  15.729  0.0049 -0.0898  0.0786
 8561SOL    HW137316   1.007   0.938  15.728  1.8852 -1.5330 -5.1909
 8561SOL    HW237317   1.014   1.088  15.753 -0.3587 -0.6841  1.1227
 8562SOL     OW37318   2.411   0.232   2.461  0.3397 -0.9492 -0.0022
 8562SOL    HW137319   2.448   0.147   2.436  0.5018 -0.2748 -2.0556
 8562SOL    HW237320   2.410   0.222   2.556 -1.5351  0.0462  0.0844
 8563SOL     OW37321   0.734   2.082   5.089 -0.1608 -0.1535 -0.1132
 8563SOL    HW137322   0.640   2.098   5.097 -0.7543 -2.7998 -1.5819
 8563SOL    HW237323   0.735   1.987   5.098 -1.7097 -0.1897 -0.2206
 8564SOL     OW37324   0.210   4.713   6.419  0.5750 -0.4355  0.0238
 8564SOL    HW137325   0.245   0.026   6.344  1.3035 -2.5361 -0.9479
 8564SOL    HW237326   0.230   0.026   6.500 -0.2094 -0.3607  0.1708
 8565SOL     OW37327   2.329   3.492   7.648  0.1620 -0.3124  0.0540
 8565SOL    HW137328   2.280   3.524   7.572 -1.0325 -0.5454  0.7250
 8565SOL    HW237329   2.368   3.408   7.625  1.6619  0.8916 -1.8318
 8566SOL     OW37330   1.978   2.545   5.953 -0.2312 -0.1546  0.0128
 8566SOL    HW137331   1.888   2.521   5.930 -0.0800  1.0416 -1.7842
 8566SOL    HW237332   2.018   2.536   5.866 -2.8687 -1.8502 -1.0290
 8567SOL     OW37333   1.025   2.080   3.933  0.4792  0.3581  0.0224
 8567SOL    HW137334   0.981   2.006   3.891  2.3407 -2.1374  2.4288
 8567SOL    HW237335   0.958   2.077   4.003  0.1569  0.1568 -0.2938
 8568SOL     OW37336   0.985   0.966  10.918  0.1754 -0.1671  0.4155
 8568SOL    HW137337   1.063   0.928  10.877  0.3240  0.3478  0.2132
 8568SOL    HW237338   0.988   1.056  10.886 -0.1032 -1.2636 -2.6858
 8569SOL     OW37339   1.679   3.672   2.793 -0.1614  0.2581 -0.3008
 8569SOL    HW137340   1.764   3.649   2.757 -0.2704  1.1167 -1.1043
 8569SOL    HW237341   1.659   3.589   2.837 -0.5799  0.2127 -0.5833
 8570SOL     OW37342   0.241   2.979  10.304 -0.1950  0.6421  0.1011
 8570SOL    HW137343   0.251   2.887  10.281  2.4246  0.9498  0.0283
 8570SOL    HW237344   0.177   2.972  10.375 -1.6164 -1.1089 -1.3699
 8571SOL     OW37345   2.538   4.674  12.823  0.5352 -1.1224 -0.3314
 8571SOL    HW137346   2.462   4.731  12.834  0.0707 -1.2985 -2.6382
 8571SOL    HW237347   2.606   0.004  12.803 -0.2033  0.1488  1.2616
 8572SOL     OW37348   4.387   0.669   5.747  0.3778  0.1225  0.0798
 8572SOL    HW137349   4.394   0.754   5.705  0.6129 -0.2935 -0.7217
 8572SOL    HW237350   4.407   0.685   5.839  2.6167 -2.1364 -0.0208
 8573SOL     OW37351   2.477   2.567   8.257  0.0855  0.0832 -0.2212
 8573SOL    HW137352   2.558   2.602   8.218 -0.7782  0.6140 -1.5291
 8573SOL    HW237353   2.520   2.484   8.279  0.8902 -0.1998 -2.8595
 8574SOL     OW37354   4.005   3.383  12.302 -0.4843  0.0671 -0.1055
 8574SOL    HW137355   4.083   3.430  12.330 -0.0479 -0.4168 -0.5003
 8574SOL    HW237356   3.959   3.447  12.246  0.1832  1.3055  0.7741
 8575SOL     OW37357   0.772   3.285   3.301 -0.8371 -0.1586 -0.0327
 8575SOL    HW137358   0.763   3.261   3.208  2.0002  0.1038 -0.3866
 8575SOL    HW237359   0.679   3.306   3.309 -0.4965  0.9831  0.8363
 8576SOL     OW37360   0.671   4.296   1.921 -0.3112 -0.1474 -0.1135
 8576SOL    HW137361   0.587   4.249   1.917  0.3552 -1.4307  0.7947
 8576SOL    HW237362   0.643   4.369   1.977 -0.7201  1.0766 -1.9360
 8577SOL     OW37363   0.137   2.770   2.690  0.1633 -0.1649  0.2282
 8577SOL    HW137364   0.056   2.802   2.652  0.0019 -1.1634 -0.2610
 8577SOL    HW237365   0.101   2.683   2.706 -0.3271  0.1687  0.9718
 8578SOL     OW37366   0.507   3.014   9.519  0.0556 -0.0267 -0.0541
 8578SOL    HW137367   0.458   3.055   9.591 -1.1030 -0.2761 -0.6991
 8578SOL    HW237368   0.593   3.042   9.550  0.1496 -0.3250 -0.0445
 8579SOL     OW37369   1.063   2.245   3.720 -0.4726 -0.2430 -0.5880
 8579SOL    HW137370   1.130   2.281   3.779  0.3066  0.8054 -2.1022
 8579SOL    HW237371   1.013   2.194   3.783 -0.0837  1.2133  0.8958
 8580SOL     OW37372   2.167   3.764  14.282  0.1714  0.1438 -0.1614
 8580SOL    HW137373   2.157   3.832  14.215 -0.0787  0.7191  0.4691
 8580SOL    HW237374   2.192   3.817  14.357  0.9299 -2.5179  1.4620
 8581SOL     OW37375   3.178   0.631   7.488 -0.0998  0.0105 -0.9843
 8581SOL    HW137376   3.145   0.607   7.575  0.2341 -0.0143 -0.8618
 8581SOL    HW237377   3.149   0.564   7.426  0.9334 -0.7097 -0.7019
 8582SOL     OW37378   2.467   0.245   1.895  0.6521  0.0104 -0.2947
 8582SOL    HW137379   2.417   0.166   1.915  0.0492  0.3218 -0.5667
 8582SOL    HW237380   2.461   0.289   1.979 -0.2502 -0.0432 -0.3322
 8583SOL     OW37381   1.652   3.485   2.216 -0.2611 -0.4120 -0.0422
 8583SOL    HW137382   1.618   3.417   2.274  0.3116 -1.5609 -1.0417
 8583SOL    HW237383   1.600   3.564   2.231 -1.9595 -1.1754 -1.8588
 8584SOL     OW37384   2.983   1.307  15.769 -0.2367  1.4906  0.4099
 8584SOL    HW137385   3.065   1.284  15.726 -1.1609 -0.0441 -0.5198
 8584SOL    HW237386   3.011   1.368  15.837 -1.6097 -0.2925  2.5852
 8585SOL     OW37387   3.180   0.351   8.892  0.1985  0.2134 -0.1872
 8585SOL    HW137388   3.085   0.361   8.881  0.4064  1.0807 -1.1873
 8585SOL    HW237389   3.192   0.363   8.986 -0.3980  2.2761 -0.3653
 8586SOL     OW37390   1.880   4.058  12.207  0.1939 -0.3022  0.3371
 8586SOL    HW137391   1.887   4.114  12.130  0.5140 -0.8334 -0.0279
 8586SOL    HW237392   1.941   4.092  12.272  0.5653  1.0688 -0.7347
 8587SOL     OW37393   2.615   0.993   4.428  0.2141 -0.4903  0.1091
 8587SOL    HW137394   2.584   1.023   4.343 -0.3941 -0.7177  0.2564
 8587SOL    HW237395   2.574   0.909   4.445 -0.1168 -0.3737 -0.1114
 8588SOL     OW37396   0.346   4.077  15.228  0.0554 -0.4000  0.0935
 8588SOL    HW137397   0.307   4.147  15.281  0.3717  0.4162 -0.7580
 8588SOL    HW237398   0.416   4.129  15.189  1.0806 -2.5356 -0.9065
 8589SOL     OW37399   1.855   3.131  14.615  0.3315 -0.0409  0.2447
 8589SOL    HW137400   1.798   3.062  14.581  0.7035 -1.5172  2.5988
 8589SOL    HW237401   1.881   3.173  14.534 -2.4776 -2.5839 -1.9635
 8590SOL     OW37402   1.392   4.474   1.668 -0.0478  0.3130  0.2990
 8590SOL    HW137403   1.414   4.381   1.672  2.2689  0.8871  1.1270
 8590SOL    HW237404   1.336   4.475   1.745 -0.6457 -4.2920 -0.0782
 8591SOL     OW37405   0.204   1.742   1.592 -0.4209  0.1021 -0.7478
 8591SOL    HW137406   0.112   1.759   1.572 -0.7630  0.0690  0.7983
 8591SOL    HW237407   0.208   1.649   1.569 -2.4177 -0.2855  0.4584
 8592SOL     OW37408   3.095   0.186   2.314  0.5751  0.1513 -0.2949
 8592SOL    HW137409   3.008   0.205   2.349  0.5990 -0.6243  0.1760
 8592SOL    HW237410   3.075   0.120   2.248 -0.7542  1.3883 -1.1410
 8593SOL     OW37411   2.858   2.718   9.504  0.3088 -0.0470 -0.3413
 8593SOL    HW137412   2.769   2.692   9.526  0.1044  1.2744  0.3928
 8593SOL    HW237413   2.856   2.754   9.415  0.4622 -0.3914 -0.4828
 8594SOL     OW37414   1.246   4.453   4.653 -0.2157 -0.0023 -0.4196
 8594SOL    HW137415   1.276   4.374   4.608 -1.8290 -1.3113  0.7726
 8594SOL    HW237416   1.249   4.413   4.740  3.2724 -0.9118 -0.9655
 8595SOL     OW37417   0.763   2.805  14.187  0.0951 -0.6777 -0.8601
 8595SOL    HW137418   0.771   2.900  14.200  1.8976 -0.7594 -1.3607
 8595SOL    HW237419   0.826   2.760  14.243 -0.1628  1.8232  1.4503
 8596SOL     OW37420   2.759   2.659   5.495  0.4081 -0.0370  0.2081
 8596SOL    HW137421   2.840   2.611   5.475 -0.5117 -0.7711 -1.7631
 8596SOL    HW237422   2.760   2.675   5.589 -0.0915 -0.9700  0.3723
 8597SOL     OW37423   4.357   2.273   1.663  0.4820  0.1986 -0.0619
 8597SOL    HW137424   4.277   2.273   1.715 -0.5509 -1.0955 -1.6701
 8597SOL    HW237425   4.380   2.181   1.673  0.0229  0.3887  2.7407
 8598SOL     OW37426   1.391   3.201   4.676  0.4909  0.2414 -1.1301
 8598SOL    HW137427   1.439   3.213   4.594  5.1174  0.3423  1.5544
 8598SOL    HW237428   1.452   3.221   4.747 -1.1511 -0.7077  0.5607
 8599SOL     OW37429   4.459   1.370   9.698 -0.2962  0.6351 -0.3610
 8599SOL    HW137430   4.368   1.396   9.714  0.9835  3.1430  2.9036
 8599SOL    HW237431   4.445   1.292   9.644 -0.3498 -0.4854  1.2687
 8600SOL     OW37432   4.258   2.402   7.283  0.3045  0.1876 -0.2750
 8600SOL    HW137433   4.248   2.492   7.254  0.2382  0.9822  2.2230
 8600SOL    HW237434   4.172   2.392   7.325 -0.1895 -0.3184 -1.4080
 8601SOL     OW37435   0.823   2.880   8.200  0.0448  0.0495 -0.7746
 8601SOL    HW137436   0.813   2.841   8.287 -1.2919 -2.1138 -1.9138
 8601SOL    HW237437   0.738   2.923   8.189 -0.1464 -0.0641  0.1840
 8602SOL     OW37438   2.201   0.054   9.133  0.4501 -0.4045  1.2111
 8602SOL    HW137439   2.112   0.088   9.121 -0.5436 -3.1414  0.7889
 8602SOL    HW237440   2.185   4.696   9.151  1.0080 -1.1077 -1.8559
 8603SOL     OW37441   3.485   4.601   7.767 -0.2407 -0.5289 -0.1589
 8603SOL    HW137442   3.497   4.677   7.709  0.0916  1.2996  2.3337
 8603SOL    HW237443   3.574   4.587   7.800 -0.4074  0.5612  0.7369
 8604SOL     OW37444   4.108   3.024   9.711 -0.4408  0.2109  0.0021
 8604SOL    HW137445   4.128   3.114   9.738 -0.8195  0.2853  0.0352
 8604SOL    HW237446   4.187   3.001   9.663 -0.5632 -0.7244  0.2419
 8605SOL     OW37447   2.237   3.489   0.121  0.2017 -0.2091  0.2569
 8605SOL    HW137448   2.259   3.464   0.031 -0.8487 -1.4701  0.3413
 8605SOL    HW237449   2.145   3.463   0.122  0.1496  0.0571  2.0534
 8606SOL     OW37450   0.375   0.063   3.233 -0.3993  0.4963 -0.4716
 8606SOL    HW137451   0.373   0.020   3.318 -0.4190 -0.3506 -0.9023
 8606SOL    HW237452   0.455   0.024   3.199  0.2649  1.8609 -0.4646
 8607SOL     OW37453   0.435   0.171   5.755 -0.0450 -0.0568  0.1724
 8607SOL    HW137454   0.450   0.266   5.749  1.9977 -0.4231 -0.7901
 8607SOL    HW237455   0.479   0.155   5.838 -0.5336 -2.7078 -0.1107
 8608SOL     OW37456   3.314   3.916   5.740 -0.3177 -0.1162 -0.2041
 8608SOL    HW137457   3.255   3.850   5.705 -0.0182  0.3574 -1.5890
 8608SOL    HW237458   3.335   3.968   5.663  0.0211  0.4427  0.2642
 8609SOL     OW37459   0.250   0.037   0.862 -0.4893 -0.3069 -0.0464
 8609SOL    HW137460   0.325   0.092   0.840  0.3512 -1.5182 -0.1412
 8609SOL    HW237461   0.184   0.081   0.807  0.4927  0.2611 -0.7755
 8610SOL     OW37462   1.262   1.100  15.501  0.8388  0.7333 -0.4005
 8610SOL    HW137463   1.342   1.051  15.521 -0.2419 -0.1047  1.9008
 8610SOL    HW237464   1.213   1.078  15.580  1.2952  0.7035 -0.1279
 8611SOL     OW37465   4.503   3.408   9.568  0.3589 -0.3218  0.4913
 8611SOL    HW137466   4.415   3.425   9.533 -0.8595 -1.5927  2.9185
 8611SOL    HW237467   4.550   3.422   9.486 -0.8316  1.5053  0.1210
 8612SOL     OW37468   1.307   4.472   7.477 -0.7833 -0.0104  0.0051
 8612SOL    HW137469   1.312   4.534   7.549 -0.9767  2.4545 -2.0892
 8612SOL    HW237470   1.362   4.512   7.410 -1.5608  2.9801  1.1556
 8613SOL     OW37471   3.204   4.500   2.912  0.5358 -0.4442 -0.3238
 8613SOL    HW137472   3.201   4.538   2.824  0.8742 -0.0100 -0.1493
 8613SOL    HW237473   3.292   4.516   2.945  1.0242 -1.9021 -0.9582
 8614SOL     OW37474   4.124   1.303   4.279 -0.5779  0.0420  0.0913
 8614SOL    HW137475   4.032   1.283   4.295 -0.7502 -0.0864 -1.0899
 8614SOL    HW237476   4.140   1.243   4.206 -1.2564  0.5210 -0.4540
 8615SOL     OW37477   3.793   2.317   6.060 -0.3898 -0.0942  0.0674
 8615SOL    HW137478   3.857   2.360   6.003 -1.3340 -0.3400 -1.1738
 8615SOL    HW237479   3.747   2.395   6.091  1.2935  0.2826  1.6165
 8616SOL     OW37480   3.273   4.453   6.008  0.0414  0.1788 -0.1111
 8616SOL    HW137481   3.290   4.492   5.922  1.5938  2.0000  1.0169
 8616SOL    HW237482   3.246   4.364   5.986  0.0567  0.0160  0.5317
 8617SOL     OW37483   2.397   2.782   4.880 -0.0548  0.1419  0.4154
 8617SOL    HW137484   2.426   2.744   4.798  1.2642  0.2098  0.8518
 8617SOL    HW237485   2.302   2.775   4.871 -0.2529  1.0109  1.8128
 8618SOL     OW37486   1.962   1.783   6.048  0.2500 -0.0016 -0.2343
 8618SOL    HW137487   1.983   1.839   5.972  0.3045  0.4393  0.1046
 8618SOL    HW237488   2.018   1.707   6.034  1.0580  0.9234 -2.0671
 8619SOL     OW37489   4.691   1.279  10.155 -0.6299  0.6433  0.0867
 8619SOL    HW137490   0.033   1.274  10.212 -0.5006  2.1654  0.0427
 8619SOL    HW237491   4.648   1.352  10.199 -0.8148  0.1007  0.8125
 8620SOL     OW37492   2.341   4.001   8.538  0.0831 -0.5884 -0.2919
 8620SOL    HW137493   2.306   3.914   8.519 -0.8083  0.0980 -1.7616
 8620SOL    HW237494   2.268   4.047   8.580 -0.9507 -1.5010 -1.1030
 8621SOL     OW37495   4.583   1.212   7.176 -0.1201 -0.1287  0.2740
 8621SOL    HW137496   4.559   1.129   7.218 -0.8497  0.6071  1.2824
 8621SOL    HW237497   4.594   1.262   7.256 -1.6412  0.3193  0.1928
 8622SOL     OW37498   1.120   0.879   4.829  0.3459  0.0936  0.1613
 8622SOL    HW137499   1.042   0.823   4.830  0.0343  0.5262 -0.2099
 8622SOL    HW237500   1.090   0.959   4.786 -1.3310 -0.4937  0.2417
 8623SOL     OW37501   4.389   1.457   2.224  0.7370 -0.1408 -0.1933
 8623SOL    HW137502   4.350   1.393   2.284  1.8669 -0.2320  0.4546
 8623SOL    HW237503   4.463   1.407   2.189  1.3543  1.1534 -0.7071
 8624SOL     OW37504   4.398   0.928   8.115 -0.9296  0.0802  0.1317
 8624SOL    HW137505   4.364   1.005   8.160 -0.0685  0.6359 -0.1690
 8624SOL    HW237506   4.390   0.960   8.025  1.3117  1.5968  0.4710
 8625SOL     OW37507   3.323   3.659   9.313  0.0238  0.0023 -0.3092
 8625SOL    HW137508   3.264   3.727   9.281  0.4427  0.4637 -0.0940
 8625SOL    HW237509   3.254   3.595   9.330 -0.5905  0.7486 -0.0454
 8626SOL     OW37510   3.149   0.124   9.060 -0.1500  0.1161 -0.1213
 8626SOL    HW137511   3.088   0.051   9.058 -0.2473  0.2232 -1.2310
 8626SOL    HW237512   3.205   0.105   8.985  0.1220  0.6451 -0.0583
 8627SOL     OW37513   1.719   4.272   3.110  0.1745  0.3872 -0.6802
 8627SOL    HW137514   1.678   4.319   3.183  0.2359  0.6897 -0.8399
 8627SOL    HW237515   1.772   4.340   3.067 -0.9685 -0.1675 -2.9496
 8628SOL     OW37516   2.366   2.700  12.089  0.6277 -0.2676  0.5949
 8628SOL    HW137517   2.324   2.624  12.130 -2.3559  0.7288 -0.6138
 8628SOL    HW237518   2.425   2.658  12.026 -1.2676  2.6684 -3.1162
 8629SOL     OW37519   2.668   3.234   5.309 -0.3988 -0.4229 -0.3745
 8629SOL    HW137520   2.666   3.203   5.400 -0.0865 -2.2686 -0.9919
 8629SOL    HW237521   2.580   3.212   5.280 -0.7804  0.7625 -0.1118
 8630SOL     OW37522   0.466   4.420  10.665 -0.0876 -0.2692  0.2195
 8630SOL    HW137523   0.386   4.469  10.648  0.1013 -0.4863 -1.2924
 8630SOL    HW237524   0.514   4.443  10.586 -1.8193  0.3217 -0.6734
 8631SOL     OW37525   4.409   2.348  13.591  0.2988 -0.1810 -0.5990
 8631SOL    HW137526   4.333   2.301  13.624 -1.2068  1.8013 -1.3130
 8631SOL    HW237527   4.455   2.374  13.671 -0.0613 -0.2521 -0.3721
 8632SOL     OW37528   3.564   1.213   3.146 -0.0770  0.6173  0.1712
 8632SOL    HW137529   3.581   1.174   3.060 -0.2024  1.9291 -0.4508
 8632SOL    HW237530   3.470   1.206   3.163  0.2011 -1.2030  0.9265
 8633SOL     OW37531   3.048   1.120   5.221  0.4377  0.1063 -0.1643
 8633SOL    HW137532   3.041   1.185   5.292  1.4130  0.1754 -0.1294
 8633SOL    HW237533   2.968   1.071   5.240 -0.9866  2.5340  0.1437
 8634SOL     OW37534   2.888   1.498   8.436 -0.5796 -0.3368 -0.5773
 8634SOL    HW137535   2.902   1.573   8.379  0.0042  1.1973  1.5860
 8634SOL    HW237536   2.972   1.480   8.479 -0.4734  1.8939  0.1307
 8635SOL     OW37537   4.163   2.116   3.275 -0.2331 -0.1982  0.3278
 8635SOL    HW137538   4.216   2.060   3.331  1.0156  0.4976 -0.1736
 8635SOL    HW237539   4.153   2.200   3.318  0.6412  0.6818 -1.1757
 8636SOL     OW37540   0.814   0.188  10.554 -0.3069  0.0853 -0.1609
 8636SOL    HW137541   0.883   0.241  10.515  0.6450 -0.2520  1.0547
 8636SOL    HW237542   0.746   0.254  10.567 -1.2737 -0.6501 -1.5747
 8637SOL     OW37543   2.767   3.954   2.116  0.0137  0.2128 -0.4865
 8637SOL    HW137544   2.780   3.937   2.209 -1.7536 -0.1571 -0.3057
 8637SOL    HW237545   2.703   3.890   2.087  0.3475 -0.8630  1.1129
 8638SOL     OW37546   1.152   2.396  15.807  0.0256 -0.5219 -0.5644
 8638SOL    HW137547   1.082   2.332  15.809 -1.7367  1.4264  0.2331
 8638SOL    HW237548   1.099   2.470  15.836  0.7279  0.2421 -1.2009
 8639SOL     OW37549   2.975   1.707   2.594  0.1864  0.4072 -0.4495
 8639SOL    HW137550   2.954   1.636   2.655 -2.0638 -0.0340 -1.7485
 8639SOL    HW237551   2.935   1.678   2.513 -2.2373  1.0352  0.5116
 8640SOL     OW37552   1.371   1.431  16.877 -0.8974  0.3032 -0.2701
 8640SOL    HW137553   1.350   1.509  16.825  0.5181 -0.6040 -2.2228
 8640SOL    HW237554   1.338   1.457  16.963 -0.3509 -2.1249  0.6522
 8641SOL     OW37555   2.695   2.604   7.902 -0.0680  0.4983 -0.1546
 8641SOL    HW137556   2.764   2.584   7.840 -1.8595  1.4389 -2.4215
 8641SOL    HW237557   2.665   2.683   7.858  0.2113  1.2648  1.0267
 8642SOL     OW37558   4.305   3.610  15.208  0.8075  0.0480 -0.1990
 8642SOL    HW137559   4.327   3.688  15.158  0.0332 -0.0520 -0.7061
 8642SOL    HW237560   4.224   3.640  15.251  1.4309  2.0880 -0.4658
 8643SOL     OW37561   3.577   3.064   9.870 -0.0758  0.1017 -1.0784
 8643SOL    HW137562   3.580   2.970   9.852  3.8076  0.3888 -1.9928
 8643SOL    HW237563   3.652   3.101   9.823  0.4163 -0.1042 -0.4519
 8644SOL     OW37564   3.355   1.195   0.614 -0.6078 -0.4872 -0.0722
 8644SOL    HW137565   3.399   1.152   0.688  2.3948  2.8126  0.0458
 8644SOL    HW237566   3.416   1.183   0.542  1.0161  2.1098  0.8849
 8645SOL     OW37567   0.560   0.311  17.250 -0.0342 -0.0239 -0.2192
 8645SOL    HW137568   0.465   0.303  17.242 -0.2572  1.9024  0.5235
 8645SOL    HW237569   0.574   0.292  17.343 -0.2404  0.1060 -0.1614
 8646SOL     OW37570   1.085   2.942  17.473 -0.0810 -0.0921  0.2840
 8646SOL    HW137571   1.112   3.033  17.461 -1.6278  0.2700 -0.5032
 8646SOL    HW237572   1.071   2.916  17.381  2.8528  1.5808 -0.6149
 8647SOL     OW37573   0.902   1.156   5.410 -0.2965  0.5580  0.1259
 8647SOL    HW137574   0.967   1.214   5.371  2.2026 -2.3875 -0.0861
 8647SOL    HW237575   0.917   1.066   5.381 -1.3590 -0.4722  2.7597
 8648SOL     OW37576   2.732   2.430   8.487 -0.0972  0.2168  0.4294
 8648SOL    HW137577   2.790   2.425   8.562  0.9664  2.8451 -0.2242
 8648SOL    HW237578   2.773   2.370   8.425 -2.5774  1.3160 -2.2761
 8649SOL     OW37579   0.669   3.787   4.601 -0.0543 -0.1718  0.2495
 8649SOL    HW137580   0.731   3.781   4.528  1.7451 -2.0488  1.9408
 8649SOL    HW237581   0.652   3.881   4.604 -1.6723 -0.5274  1.7459
 8650SOL     OW37582   3.269   4.352   8.656  0.3948 -0.3891  0.1039
 8650SOL    HW137583   3.230   4.278   8.609 -0.6776 -1.1857  2.2671
 8650SOL    HW237584   3.223   4.427   8.618  0.5303 -1.9715 -3.2340
 8651SOL     OW37585   1.094   1.331   4.497  0.1816  0.2149 -0.4092
 8651SOL    HW137586   1.175   1.323   4.547 -1.2408 -2.6135  1.4196
 8651SOL    HW237587   1.118   1.277   4.421  2.1417  0.4675  0.0248
 8652SOL     OW37588   1.508   0.698   5.001 -0.2386  1.1788 -0.7452
 8652SOL    HW137589   1.504   0.652   5.084  1.0656  0.7446 -0.9276
 8652SOL    HW237590   1.449   0.771   5.021  0.2522  1.2271  0.4698
 8653SOL     OW37591   0.174   3.675   2.543 -0.3644 -0.4408 -0.1306
 8653SOL    HW137592   0.239   3.631   2.598 -2.7153 -0.1725  2.9012
 8653SOL    HW237593   0.110   3.709   2.607  1.7175  1.7516  0.7832
 8654SOL     OW37594   2.802   1.747  16.057  0.5390 -0.1780  0.3009
 8654SOL    HW137595   2.864   1.674  16.052  0.8216  0.0063  1.0609
 8654SOL    HW237596   2.863   1.817  16.077  2.1432 -1.8967  1.4067
 8655SOL     OW37597   1.372   3.353   5.117 -0.0456 -0.2271 -0.8045
 8655SOL    HW137598   1.421   3.283   5.073  2.4636 -1.2284  3.6562
 8655SOL    HW237599   1.293   3.366   5.064 -0.0292 -2.4646 -1.3926
 8656SOL     OW37600   3.209   2.218  13.589 -0.5843 -0.6480  0.5001
 8656SOL    HW137601   3.264   2.296  13.602  1.5910 -2.1277  0.2358
 8656SOL    HW237602   3.213   2.210  13.494  0.5638 -1.1737  0.5872
 8657SOL     OW37603   1.180   2.032   0.965 -0.2170 -0.0804  0.2571
 8657SOL    HW137604   1.245   1.971   0.930 -0.3426 -0.1000  0.0616
 8657SOL    HW237605   1.217   2.120   0.968  1.2566 -0.6872 -0.2625
 8658SOL     OW37606   4.227   0.249   5.523  0.2553 -0.0669  0.2782
 8658SOL    HW137607   4.236   0.342   5.544  2.4894 -0.4874  1.1349
 8658SOL    HW237608   4.290   0.234   5.452 -0.0845 -0.0519 -0.0251
 8659SOL     OW37609   3.801   2.806   3.141  0.2495 -0.2254  0.1330
 8659SOL    HW137610   3.715   2.796   3.101  0.2751 -2.2237  0.6057
 8659SOL    HW237611   3.804   2.899   3.165  0.6067  0.1103 -1.2046
 8660SOL     OW37612   0.541   3.616  15.682  0.2462  0.2015 -0.1255
 8660SOL    HW137613   0.543   3.710  15.700 -2.5888  0.4832 -1.1960
 8660SOL    HW237614   0.530   3.585  15.772 -1.4303 -0.0135 -0.3928
 8661SOL     OW37615   2.171   2.449   2.590  0.5864 -0.4612 -0.0807
 8661SOL    HW137616   2.265   2.451   2.610  0.4336  0.1925  0.6111
 8661SOL    HW237617   2.147   2.542   2.587 -0.1456 -0.5681  1.9632
 8662SOL     OW37618   3.243   3.033   8.610 -0.3135  1.0076 -0.4980
 8662SOL    HW137619   3.283   3.075   8.687 -1.0468  1.4135 -0.3351
 8662SOL    HW237620   3.179   2.975   8.652 -0.3047 -0.2882 -2.3075
 8663SOL     OW37621   3.769   3.628   6.633 -0.0372  0.2535  0.2662
 8663SOL    HW137622   3.709   3.556   6.652 -0.8794  0.2165 -2.5597
 8663SOL    HW237623   3.827   3.583   6.570 -4.7886 -1.3558 -2.9123
 8664SOL     OW37624   0.886   3.837   9.212 -0.1392 -0.5586 -0.8089
 8664SOL    HW137625   0.896   3.779   9.287 -0.5718  0.7690  0.2644
 8664SOL    HW237626   0.938   3.909   9.247 -0.9295 -0.9667  1.2036
 8665SOL     OW37627   4.185   3.556  12.366 -0.3582 -0.1108  0.1370
 8665SOL    HW137628   4.251   3.624  12.356  1.5082 -1.9555  0.0710
 8665SOL    HW237629   4.190   3.557  12.461 -0.1308 -0.2475  0.1265
 8666SOL     OW37630   3.487   1.187   3.848  0.3701 -0.9668  0.2825
 8666SOL    HW137631   3.450   1.172   3.761  1.7120  0.1530 -0.4874
 8666SOL    HW237632   3.413   1.230   3.891  1.8748  1.9570 -0.0401
 8667SOL     OW37633   3.474   2.460   3.354  0.2215 -0.1621 -0.5571
 8667SOL    HW137634   3.450   2.457   3.262 -1.8837  0.1125 -0.0181
 8667SOL    HW237635   3.561   2.500   3.353  0.1976 -0.1786 -2.6889
 8668SOL     OW37636   4.284   0.079   2.364 -0.4145  0.7327 -0.3563
 8668SOL    HW137637   4.220   0.056   2.296  0.3300 -0.0433 -0.8067
 8668SOL    HW237638   4.223   0.108   2.432  0.6611  2.7157 -0.2322
 8669SOL     OW37639   3.884   4.133   2.046 -0.0623  0.3274 -0.2639
 8669SOL    HW137640   3.960   4.075   2.042  0.4081  0.8347  1.2079
 8669SOL    HW237641   3.896   4.190   1.971  0.3631  0.6573  0.0556
 8670SOL     OW37642   2.625   1.665   9.451  0.2296  0.1811 -1.1128
 8670SOL    HW137643   2.531   1.651   9.439  0.1248 -0.3001  0.2758
 8670SOL    HW237644   2.614   1.748   9.499  1.8363 -0.0651 -0.3144
 8671SOL     OW37645   3.163   3.378   3.534  0.1098  0.1605  0.3802
 8671SOL    HW137646   3.217   3.397   3.457  0.7164  2.0770  1.2849
 8671SOL    HW237647   3.239   3.351   3.586  0.6354 -0.2604 -0.6042
 8672SOL     OW37648   3.116   2.856   5.836 -0.0676 -0.5055 -0.2020
 8672SOL    HW137649   3.044   2.917   5.855 -0.7482 -1.6926  1.0318
 8672SOL    HW237650   3.178   2.913   5.790 -0.9704 -0.4085 -1.2920
 8673SOL     OW37651   3.561   3.580   9.490 -0.2901  0.4522  0.2041
 8673SOL    HW137652   3.542   3.492   9.458  0.9243  0.6592 -1.0937
 8673SOL    HW237653   3.483   3.630   9.464  0.3765  0.9796 -0.7565
 8674SOL     OW37654   2.973   1.168   2.129 -0.1319 -0.2264  0.2228
 8674SOL    HW137655   3.011   1.181   2.042 -0.6754  1.8383  0.2971
 8674SOL    HW237656   3.045   1.154   2.190  0.3780 -0.9776 -0.5463
 8675SOL     OW37657   2.505   4.073   0.727 -0.1972 -0.0904 -0.1651
 8675SOL    HW137658   2.414   4.047   0.740 -0.3729  0.5079 -0.2027
 8675SOL    HW237659   2.532   3.981   0.725 -0.0640 -0.1179  2.1967
 8676SOL     OW37660   3.774   3.834  10.832 -0.1604  0.3880 -0.6157
 8676SOL    HW137661   3.724   3.777  10.891 -0.2030 -1.4950 -2.4743
 8676SOL    HW237662   3.703   3.890  10.801 -0.8231  0.3612  0.8372
 8677SOL     OW37663   0.325   2.810   4.297  0.0824  0.0936  0.1831
 8677SOL    HW137664   0.407   2.840   4.260  0.7087 -1.1897  0.5399
 8677SOL    HW237665   0.261   2.825   4.227 -1.3149 -1.2404  1.1721
 8678SOL     OW37666   3.207   1.144  11.143 -0.3660 -0.3940  0.1086
 8678SOL    HW137667   3.289   1.193  11.152  0.0602 -1.7573  3.4765
 8678SOL    HW237668   3.158   1.180  11.217 -0.9818  0.9939 -0.9606
 8679SOL     OW37669   1.806   2.160   3.837  0.5279 -0.2095  0.0678
 8679SOL    HW137670   1.833   2.248   3.865  2.2770 -0.7986  0.2261
 8679SOL    HW237671   1.771   2.118   3.915  0.1325 -1.5713 -0.8417
 8680SOL     OW37672   2.265   2.567   3.001 -0.4310  0.3646  0.3693
 8680SOL    HW137673   2.208   2.634   3.039  3.1702  2.4334  2.0723
 8680SOL    HW237674   2.252   2.579   2.907  0.5839 -1.7478 -0.0344
 8681SOL     OW37675   3.278   1.372   3.876  0.4404  0.4102 -0.2501
 8681SOL    HW137676   3.243   1.434   3.940  0.0719  1.4345 -1.4389
 8681SOL    HW237677   3.231   1.395   3.796  1.1521 -1.0453 -1.0887
 8682SOL     OW37678   0.798   0.463   9.675  0.0221 -0.0566 -0.1852
 8682SOL    HW137679   0.834   0.446   9.763 -1.6948 -1.9105  0.1523
 8682SOL    HW237680   0.736   0.535   9.682 -0.8580 -1.0505  2.2009
 8683SOL     OW37681   2.855   1.034   5.555 -0.2833  0.4444  0.4588
 8683SOL    HW137682   2.913   1.107   5.532 -1.6279  0.7791 -1.8559
 8683SOL    HW237683   2.842   1.002   5.466 -1.7910  0.2540  0.7540
 8684SOL     OW37684   2.133   2.748   9.222 -0.2336 -0.6541  0.4976
 8684SOL    HW137685   2.113   2.702   9.304 -0.9538  1.5531  1.5541
 8684SOL    HW237686   2.203   2.808   9.248  0.1625 -1.0997  0.4618
 8685SOL     OW37687   0.120   1.072   2.521  1.2619  0.6363 -0.3453
 8685SOL    HW137688   0.049   1.102   2.579  0.0824 -0.6139 -1.1591
 8685SOL    HW237689   0.073   1.078   2.438 -1.5693 -0.5247  1.1626
 8686SOL     OW37690   1.968   4.561   2.455  0.1203  0.1680 -0.1653
 8686SOL    HW137691   1.951   4.612   2.535  2.2092  0.5986  0.0114
 8686SOL    HW237692   1.934   4.614   2.383  0.4824 -2.1750 -2.0602
 8687SOL     OW37693   1.002   3.455   2.336 -0.5709  0.1240  0.1021
 8687SOL    HW137694   0.931   3.460   2.272  0.2345  0.6058 -0.7587
 8687SOL    HW237695   1.014   3.360   2.334 -1.0158  0.0584  0.7031
 8688SOL     OW37696   4.408   4.493   5.245  0.1878 -0.7090  0.0748
 8688SOL    HW137697   4.429   4.445   5.325  0.3398  0.3542  0.6643
 8688SOL    HW237698   4.318   4.464   5.233  0.1712 -1.6204  2.3805
 8689SOL     OW37699   0.892   0.147  10.836 -0.1179  0.0685  0.2982
 8689SOL    HW137700   0.896   0.135  10.742  0.4112 -0.2316  0.3586
 8689SOL    HW237701   0.858   0.060  10.859 -0.0603 -0.3246 -1.1509
 8690SOL     OW37702   1.738   3.354  11.957 -0.3180 -0.8292 -0.3358
 8690SOL    HW137703   1.693   3.341  11.874 -0.1667 -0.6098 -0.4535
 8690SOL    HW237704   1.809   3.410  11.925  0.9278 -2.1909  0.0434
 8691SOL     OW37705   3.154   0.821   4.525  0.5859  0.6099 -0.2558
 8691SOL    HW137706   3.126   0.756   4.461  1.4623 -1.7178  1.7191
 8691SOL    HW237707   3.241   0.790   4.550 -0.9795 -0.7113  3.6815
 8692SOL     OW37708   1.842   4.463  11.831 -0.4736 -0.3277 -0.0512
 8692SOL    HW137709   1.868   4.527  11.897 -1.4748  1.7788 -1.6967
 8692SOL    HW237710   1.909   4.476  11.764 -1.6577 -0.6743 -1.3083
 8693SOL     OW37711   3.739   3.441   2.998  0.1082  0.0213 -0.1151
 8693SOL    HW137712   3.697   3.407   2.919 -1.1707  1.9949 -0.2814
 8693SOL    HW237713   3.714   3.533   2.990  0.1834  0.2669  2.6374
 8694SOL     OW37714   2.852   2.996   8.344 -0.4653 -0.2008 -0.8537
 8694SOL    HW137715   2.919   3.063   8.352 -0.0359 -0.4433 -2.3887
 8694SOL    HW237716   2.796   3.044   8.283 -0.2832 -1.5066 -2.0507
 8695SOL     OW37717   2.595   1.733  13.342  0.2314  0.3825  0.2280
 8695SOL    HW137718   2.578   1.819  13.379  0.1878 -0.6303  2.5846
 8695SOL    HW237719   2.615   1.765  13.254 -0.5021  0.4135  0.0775
 8696SOL     OW37720   4.709   3.893   4.948 -0.7855  0.7538 -0.4196
 8696SOL    HW137721   0.042   3.954   4.979 -0.4895  0.6741 -0.9199
 8696SOL    HW237722   4.681   3.862   5.034  0.1678  0.6427 -0.1531
 8697SOL     OW37723   4.169   0.942   4.914  0.3564  0.1808  0.1260
 8697SOL    HW137724   4.158   0.970   5.005  1.2208 -0.6720  0.4925
 8697SOL    HW237725   4.082   0.915   4.883  0.5218  0.2776 -0.4322
 8698SOL     OW37726   1.986   4.007   3.197  0.3215  0.6997 -0.2579
 8698SOL    HW137727   2.025   3.979   3.279 -1.2808 -1.3703 -0.2158
 8698SOL    HW237728   1.896   3.975   3.206 -0.2689  1.8594 -1.9296
 8699SOL     OW37729   0.282   2.582   6.383 -0.2919  0.1006 -0.5973
 8699SOL    HW137730   0.357   2.620   6.429  1.6710 -1.4047 -2.5385
 8699SOL    HW237731   0.268   2.505   6.438 -1.6609  0.9264  0.2122
 8700SOL     OW37732   3.220   0.950   8.345 -0.0053 -0.1598  0.6888
 8700SOL    HW137733   3.261   1.037   8.349 -1.8848  0.8101 -1.2192
 8700SOL    HW237734   3.131   0.958   8.380 -0.1905  2.4103 -0.3510
 8701SOL     OW37735   4.157   1.850   9.264 -0.4413 -0.4626 -0.0489
 8701SOL    HW137736   4.081   1.872   9.211 -1.7093 -1.7555  1.2132
 8701SOL    HW237737   4.163   1.938   9.300 -0.7626  0.9493 -3.5103
 8702SOL     OW37738   3.418   2.499   4.606  0.2740  0.0895 -0.1343
 8702SOL    HW137739   3.511   2.502   4.629  0.0635  2.2850  0.4055
 8702SOL    HW237740   3.417   2.535   4.517  1.0714 -1.2527 -0.6868
 8703SOL     OW37741   0.994   2.596   4.002  0.7607  0.5071  0.0477
 8703SOL    HW137742   0.934   2.651   4.052  0.2070 -0.6618  0.6707
 8703SOL    HW237743   0.959   2.508   4.021 -0.0999  0.6436 -0.8832
 8704SOL     OW37744   4.135   3.998   2.001  0.3590  0.7845  0.2456
 8704SOL    HW137745   4.231   3.997   2.003  0.3913  3.0703  0.1506
 8704SOL    HW237746   4.121   3.961   2.088  0.9656  2.1826  0.9335
 8705SOL     OW37747   3.969   3.318  11.902 -0.9159  0.4818  0.1004
 8705SOL    HW137748   4.054   3.337  11.941  0.3613 -2.2678 -1.3284
 8705SOL    HW237749   3.969   3.387  11.837  0.4552  2.5834  2.3389
 8706SOL     OW37750   1.661   4.524  12.374 -0.4145  0.0150 -0.3478
 8706SOL    HW137751   1.678   4.470  12.451 -0.7265  0.5311  0.0844
 8706SOL    HW237752   1.748   4.517  12.334 -1.1387 -2.0028 -1.5252
 8707SOL     OW37753   1.971   4.686   8.923  0.4532 -0.2464  0.2577
 8707SOL    HW137754   1.882   4.669   8.952 -0.1446  2.6754  0.1406
 8707SOL    HW237755   1.965   0.042   8.892 -1.7966  0.0393  1.5676
 8708SOL     OW37756   4.197   1.355   9.886  0.4022 -0.1139 -0.0755
 8708SOL    HW137757   4.138   1.281   9.896  0.2395 -0.0626 -0.6961
 8708SOL    HW237758   4.160   1.421   9.945  1.8904  0.1703  0.5595
 8709SOL     OW37759   4.678   3.875   6.782 -0.1158  0.3869  0.2841
 8709SOL    HW137760   4.652   3.911   6.866  1.7692  1.8982  0.1996
 8709SOL    HW237761   0.011   3.935   6.753  0.6096  0.2706  1.7450
 8710SOL     OW37762   1.179   2.401   3.520  0.0338 -0.8149 -0.2795
 8710SOL    HW137763   1.115   2.457   3.476  0.5842 -0.6195 -0.8237
 8710SOL    HW237764   1.116   2.366   3.583 -0.3678  2.4486  1.1596
 8711SOL     OW37765   2.724   1.373   3.144 -0.4139  0.2188  0.2928
 8711SOL    HW137766   2.713   1.328   3.060 -1.1383  0.3134  0.3344
 8711SOL    HW237767   2.635   1.362   3.178  0.1286 -1.1136  1.2952
 8712SOL     OW37768   1.744   0.583   4.878  0.1965  0.3986 -0.2232
 8712SOL    HW137769   1.741   0.546   4.790  2.6709 -1.3773  0.4212
 8712SOL    HW237770   1.650   0.596   4.890  0.1149 -1.5528  1.3957
 8713SOL     OW37771   4.094   0.046   7.968 -0.3017 -0.4721 -0.5757
 8713SOL    HW137772   4.127   4.708   8.022  0.8613  2.2450  2.3744
 8713SOL    HW237773   4.163   0.040   7.902  0.6190  2.3173  0.1013
 8714SOL     OW37774   2.407   4.266   2.874  0.3107 -0.6612 -0.9024
 8714SOL    HW137775   2.348   4.268   2.950  1.1101  1.9897 -0.3719
 8714SOL    HW237776   2.382   4.180   2.840 -2.1645 -1.0679  1.8938
 8715SOL     OW37777   0.343   2.540   4.277  0.2453  0.3490 -0.3097
 8715SOL    HW137778   0.263   2.502   4.242 -0.9008  1.7476  0.7487
 8715SOL    HW237779   0.330   2.633   4.259 -2.6349 -0.0826 -0.3243
 8716SOL     OW37780   2.908   0.930   4.664 -0.3797  0.0938 -0.1340
 8716SOL    HW137781   2.879   1.022   4.658 -2.2560 -0.5522 -1.1932
 8716SOL    HW237782   2.982   0.948   4.721 -0.3050  0.8267 -0.4641
 8717SOL     OW37783   2.129   2.776   2.589  0.1700 -0.0634 -0.1996
 8717SOL    HW137784   2.144   2.749   2.499  0.5150 -1.1970  0.2016
 8717SOL    HW237785   2.182   2.856   2.590  1.2515 -0.7986  1.4781
 8718SOL     OW37786   4.658   1.848  12.288 -0.1732  0.6156  0.1874
 8718SOL    HW137787   4.678   1.895  12.369  0.6043  0.4073  0.1218
 8718SOL    HW237788   4.733   1.888  12.244 -1.2196  1.5306 -0.7354
 8719SOL     OW37789   3.824   4.648  10.873  0.0188 -0.1345 -0.0382
 8719SOL    HW137790   3.856   4.569  10.916 -5.1569 -1.9784  0.5051
 8719SOL    HW237791   3.730   4.650  10.894 -0.3581 -0.6936 -1.6930
 8720SOL     OW37792   2.168   4.592  12.240 -0.0696  0.6191  0.3558
 8720SOL    HW137793   2.242   4.584  12.300 -0.0176 -1.5221 -0.0079
 8720SOL    HW237794   2.229   4.579  12.168  0.8103  2.2778  0.7977
 8721SOL     OW37795   0.217   3.026  14.206  0.8067 -0.4797 -0.1241
 8721SOL    HW137796   0.158   3.100  14.193 -0.3177 -1.3548 -0.0069
 8721SOL    HW237797   0.184   2.981  14.284  1.0021  2.6109  1.7638
 8722SOL     OW37798   3.137   1.285   9.968  0.3606  0.9951 -0.7840
 8722SOL    HW137799   3.231   1.294   9.952  0.6827  0.2153  0.6444
 8722SOL    HW237800   3.113   1.309   9.878 -1.6219  2.8791  0.2400
 8723SOL     OW37801   0.912   2.225  17.316 -0.3511 -0.1291 -0.2429
 8723SOL    HW137802   0.906   2.317  17.343  1.3305  0.7397 -2.8669
 8723SOL    HW237803   0.991   2.202  17.366 -0.1131 -0.9626 -0.9944
 8724SOL     OW37804   2.630   2.541   6.140 -0.2275 -0.0171  0.1064
 8724SOL    HW137805   2.655   2.458   6.182 -2.1188 -0.9011 -0.5075
 8724SOL    HW237806   2.646   2.518   6.049 -2.6424  0.4030 -0.4257
 8725SOL     OW37807   0.283   0.650  12.111  0.5461 -0.0523  0.1870
 8725SOL    HW137808   0.333   0.625  12.033 -4.2724 -2.7592 -2.0762
 8725SOL    HW237809   0.228   0.572  12.121  0.5399 -0.0284  0.3330
 8726SOL     OW37810   0.560   0.103   9.296  0.3005 -0.6296  0.4889
 8726SOL    HW137811   0.480   0.087   9.346  0.4685 -1.4610  0.4856
 8726SOL    HW237812   0.613   0.161   9.350 -1.3019 -0.2731  1.6756
 8727SOL     OW37813   3.751   3.891   7.282 -0.5186 -0.3812 -0.2718
 8727SOL    HW137814   3.846   3.894   7.280 -0.5479  0.7244  0.6389
 8727SOL    HW237815   3.735   3.933   7.198 -0.8472 -1.1229 -0.5806
 8728SOL     OW37816   2.966   0.803   6.479  0.1714  0.2642  0.0874
 8728SOL    HW137817   3.015   0.724   6.454 -0.6181  0.5766 -2.4350
 8728SOL    HW237818   2.976   0.785   6.573  1.3927 -1.8178 -0.4260
 8729SOL     OW37819   0.334   2.827   3.401  0.3957 -0.0287 -0.3036
 8729SOL    HW137820   0.300   2.737   3.400 -0.6107  0.3651 -1.2557
 8729SOL    HW237821   0.280   2.870   3.334  1.0897  1.9029  0.3814
 8730SOL     OW37822   4.302   1.786  17.212 -0.0108 -0.1149  0.3794
 8730SOL    HW137823   4.232   1.831  17.165  1.5823  1.4966 -0.4383
 8730SOL    HW237824   4.363   1.761  17.143  0.0040  0.5908  0.1320
 8731SOL     OW37825   2.411   4.480   7.471  0.0796 -0.5107  0.0980
 8731SOL    HW137826   2.406   4.395   7.515 -2.9750  0.2273  1.2347
 8731SOL    HW237827   2.485   4.525   7.512  1.0458 -1.2730 -0.8138
 8732SOL     OW37828   2.595   1.536   2.069  0.2177  0.6187  0.3722
 8732SOL    HW137829   2.609   1.485   2.149  1.1824 -0.1149 -0.2602
 8732SOL    HW237830   2.561   1.463   2.018  1.4345 -0.0973  0.5723
 8733SOL     OW37831   1.310   2.179   3.392 -0.8263  0.1163 -0.0177
 8733SOL    HW137832   1.352   2.222   3.317 -0.7014 -0.5926 -0.3520
 8733SOL    HW237833   1.296   2.248   3.457 -0.2784  2.2066 -2.1240
 8734SOL     OW37834   0.591   4.042   4.545 -0.1683 -0.0729 -0.1121
 8734SOL    HW137835   0.519   4.082   4.496  0.1186 -0.5981 -0.9607
 8734SOL    HW237836   0.658   4.107   4.526  0.6040 -0.1737  2.3106
 8735SOL     OW37837   1.828   2.219   5.511 -0.2433 -0.1851 -0.1854
 8735SOL    HW137838   1.780   2.139   5.488 -0.9786  0.4045 -0.7025
 8735SOL    HW237839   1.767   2.249   5.578  0.5499  0.1224  0.3844
 8736SOL     OW37840   3.356   3.335   0.378  0.2225  0.2660  0.0149
 8736SOL    HW137841   3.370   3.365   0.467  0.5307  0.8399 -0.2299
 8736SOL    HW237842   3.277   3.382   0.353 -0.5924 -1.0485  0.0953
 8737SOL     OW37843   1.370   3.826  10.859 -0.1600 -0.0801 -0.7620
 8737SOL    HW137844   1.459   3.848  10.889 -0.5455 -1.1910  1.1762
 8737SOL    HW237845   1.336   3.772  10.930 -0.8492 -0.9871 -1.7898
 8738SOL     OW37846   2.071   1.747   1.945 -0.2387  0.2755 -0.5352
 8738SOL    HW137847   2.114   1.720   2.026  1.5510  1.6780 -1.0208
 8738SOL    HW237848   2.128   1.697   1.887 -1.7517 -1.3504 -0.6329
 8739SOL     OW37849   1.988   0.602  12.187  0.0152  0.2974 -0.3746
 8739SOL    HW137850   2.056   0.565  12.131 -0.3714 -1.0731  0.0606
 8739SOL    HW237851   1.912   0.584  12.132  0.8592  0.6455 -1.6572
 8740SOL     OW37852   3.317   0.346   5.222 -0.2531  0.2053  0.2981
 8740SOL    HW137853   3.263   0.412   5.266 -0.9214  0.3279 -0.7194
 8740SOL    HW237854   3.255   0.274   5.226  2.3724 -2.0168  0.3845
 8741SOL     OW37855   3.513   4.385  12.892 -0.5569 -0.0227  0.1788
 8741SOL    HW137856   3.448   4.455  12.899 -0.1114  0.4633 -0.5293
 8741SOL    HW237857   3.574   4.411  12.961  0.0430 -0.6568 -0.1186
 8742SOL     OW37858   3.519   1.154   4.432 -0.2800 -0.1708  0.2879
 8742SOL    HW137859   3.454   1.187   4.494  0.9442  1.0094  0.9577
 8742SOL    HW237860   3.524   1.225   4.368 -0.3944 -0.7718 -0.3870
 8743SOL     OW37861   1.645   1.746   6.142 -0.0475 -0.1438  0.6448
 8743SOL    HW137862   1.668   1.783   6.227  0.3855 -0.2071  0.5559
 8743SOL    HW237863   1.727   1.759   6.095 -0.9465  0.9471 -0.6483
 8744SOL     OW37864   1.705   3.700  17.705  1.1974  0.1402 -0.3483
 8744SOL    HW137865   1.732   3.634   0.032 -2.4784 -0.0661  1.0104
 8744SOL    HW237866   1.743   3.656  17.629 -0.8298 -0.2629 -1.1354
 8745SOL     OW37867   3.942   1.316   2.459  0.2838  0.1238 -0.1985
 8745SOL    HW137868   4.012   1.251   2.465 -0.3704 -0.5491  0.0301
 8745SOL    HW237869   3.875   1.278   2.516 -0.3125  1.4352 -0.0311
 8746SOL     OW37870   2.536   2.675  11.883  0.1172  0.7786 -0.5788
 8746SOL    HW137871   2.539   2.613  11.810 -0.0594  1.5675 -1.2540
 8746SOL    HW237872   2.620   2.719  11.868  1.2815 -0.7956  1.3556
 8747SOL     OW37873   3.950   1.726   3.247 -0.6019  0.2599  0.3122
 8747SOL    HW137874   4.036   1.697   3.216 -0.5223 -1.3167  2.0181
 8747SOL    HW237875   3.977   1.803   3.298 -1.5805  0.7550  0.0818
 8748SOL     OW37876   0.628   1.064   4.761  0.1051  0.0129  0.0376
 8748SOL    HW137877   0.616   1.072   4.856  2.8528  1.9689  0.2044
 8748SOL    HW237878   0.670   0.978   4.767  0.4012 -0.0235 -2.8103
 8749SOL     OW37879   1.167   3.445   0.843 -0.4014 -0.5129  0.5327
 8749SOL    HW137880   1.246   3.458   0.894  0.6088  0.2374 -1.2064
 8749SOL    HW237881   1.201   3.435   0.754 -1.1040 -0.7309  0.2865
 8750SOL     OW37882   2.524   1.183  16.053 -0.3229  0.5457  0.1011
 8750SOL    HW137883   2.610   1.186  16.010 -0.6765 -2.3451 -0.8246
 8750SOL    HW237884   2.502   1.276  16.056 -0.5976  0.4856 -0.0875
 8751SOL     OW37885   1.628   4.409  11.670  0.0664 -0.2429 -0.0429
 8751SOL    HW137886   1.635   4.504  11.663 -1.1444 -0.1848 -0.4979
 8751SOL    HW237887   1.672   4.400  11.755  1.6622  1.9423 -0.6629
 8752SOL     OW37888   4.430   3.855   5.697  0.0907  0.2971 -0.1740
 8752SOL    HW137889   4.479   3.870   5.777 -2.0397  2.4928  0.7212
 8752SOL    HW237890   4.402   3.763   5.699 -0.7658  0.6131  2.7200
 8753SOL     OW37891   3.446   1.081   2.712 -0.0477  0.2928  0.1398
 8753SOL    HW137892   3.402   1.032   2.782  1.2931 -0.2221  0.6259
 8753SOL    HW237893   3.382   1.140   2.673 -1.9600 -2.1107 -0.3753
 8754SOL     OW37894   1.830   3.936   5.140  0.9465 -0.0628  0.1760
 8754SOL    HW137895   1.836   3.843   5.157  0.0926 -0.6018 -2.4152
 8754SOL    HW237896   1.765   3.964   5.205 -0.3045  2.1362 -1.9987
 8755SOL     OW37897   4.375   3.170   8.605 -0.2522  0.2331  0.6076
 8755SOL    HW137898   4.365   3.216   8.688  2.0087 -2.1077  2.1835
 8755SOL    HW237899   4.302   3.211   8.559  0.9108 -0.2670 -1.7028
 8756SOL     OW37900   2.440   2.169   3.890 -0.2994 -0.4996 -0.3333
 8756SOL    HW137901   2.468   2.120   3.813  0.8569  1.4322 -1.1497
 8756SOL    HW237902   2.502   2.242   3.893 -1.2071  0.2149  1.2053
 8757SOL     OW37903   1.952   0.892  15.051  0.1242 -0.8956 -0.4298
 8757SOL    HW137904   1.989   0.804  15.044  0.3407 -0.7558 -1.0324
 8757SOL    HW237905   1.862   0.870  15.028 -0.3859  1.1017 -0.3579
 8758SOL     OW37906   2.340   3.700   0.452 -0.3207 -0.0625 -0.1318
 8758SOL    HW137907   2.333   3.617   0.498 -1.0095 -0.4383 -0.9076
 8758SOL    HW237908   2.321   3.760   0.524  0.1090  0.0503 -0.1134
 8759SOL     OW37909   1.182   0.695   7.051 -0.6830  0.2188 -0.2972
 8759SOL    HW137910   1.201   0.666   7.141  0.6338  0.6655 -0.4414
 8759SOL    HW237911   1.262   0.672   7.003 -0.4043  0.5521  0.0091
 8760SOL     OW37912   3.681   1.756   3.357 -0.3183  0.3385 -0.0539
 8760SOL    HW137913   3.653   1.751   3.266 -1.7471  3.2012  0.2461
 8760SOL    HW237914   3.772   1.727   3.347 -1.3588 -1.1001 -5.2613
 8761SOL     OW37915   2.142   0.389   6.815  0.2573 -0.6734  0.0114
 8761SOL    HW137916   2.150   0.297   6.843  0.4384 -1.1542 -1.6232
 8761SOL    HW237917   2.176   0.390   6.726 -1.1205 -0.3160 -0.5151
 8762SOL     OW37918   4.662   2.614  17.653 -0.5560  0.3429 -0.3165
 8762SOL    HW137919   0.001   2.674  17.640 -0.8518  0.7594 -0.0483
 8762SOL    HW237920   4.602   2.635  17.582 -0.5151  0.1959 -0.3960
 8763SOL     OW37921   3.023   3.614   9.318 -0.3752 -0.1534 -0.4159
 8763SOL    HW137922   3.017   3.676   9.245 -1.3398  1.3289  0.9256
 8763SOL    HW237923   2.976   3.539   9.282 -1.3352  0.1115  0.2945
 8764SOL     OW37924   1.258   0.099   4.489 -0.1177 -0.2078  0.2104
 8764SOL    HW137925   1.285   0.119   4.579 -1.8498  0.7100  0.5248
 8764SOL    HW237926   1.194   0.168   4.471  0.2673 -0.5735 -2.5236
 8765SOL     OW37927   4.256   2.417   2.565 -0.1215 -0.2422 -0.4469
 8765SOL    HW137928   4.178   2.420   2.621  0.5906  0.7439  0.4752
 8765SOL    HW237929   4.261   2.321   2.562  2.3354 -0.0571 -2.0307
 8766SOL     OW37930   2.414   3.401   0.314 -0.1038  0.5094  0.0929
 8766SOL    HW137931   2.385   3.423   0.226  0.6395 -0.8483 -0.4837
 8766SOL    HW237932   2.349   3.444   0.369 -0.4838 -2.9153  2.2884
 8767SOL     OW37933   4.636   4.018   4.283  0.0453 -0.4463  0.0597
 8767SOL    HW137934   4.725   4.004   4.250 -0.1782  1.2658 -1.2603
 8767SOL    HW237935   4.613   4.091   4.225  0.1423 -0.5047 -0.0530
 8768SOL     OW37936   0.503   2.988   1.557  0.1608 -0.0495  0.1117
 8768SOL    HW137937   0.574   3.026   1.506 -0.8848  3.4454  1.2351
 8768SOL    HW237938   0.496   3.060   1.621 -0.3407 -0.0433  0.0517
 8769SOL     OW37939   2.304   2.205   4.682  0.0481 -0.1284  0.4932
 8769SOL    HW137940   2.369   2.156   4.731  2.4031  0.4260 -2.0972
 8769SOL    HW237941   2.229   2.147   4.667 -1.3603  1.7719  0.0758
 8770SOL     OW37942   0.979   3.026   4.371 -0.2355  0.7999  0.1626
 8770SOL    HW137943   0.939   3.095   4.424 -0.1502 -0.6589  2.1196
 8770SOL    HW237944   1.026   2.968   4.430  0.2911 -1.3651 -2.3578
 8771SOL     OW37945   0.624   3.463   3.857 -0.5017  0.1221  0.3577
 8771SOL    HW137946   0.556   3.490   3.918 -0.5934  1.1725 -0.2155
 8771SOL    HW237947   0.578   3.409   3.792 -2.0319  0.6982  0.9687
 8772SOL     OW37948   0.363   0.158   2.281 -0.2949  0.4048  0.3674
 8772SOL    HW137949   0.445   0.201   2.254 -0.8208 -0.2369 -2.2576
 8772SOL    HW237950   0.372   0.175   2.375  1.1456  0.1557  0.2830
 8773SOL     OW37951   2.229   4.104   7.535  0.3353  0.1235 -0.1177
 8773SOL    HW137952   2.214   4.011   7.552  0.4372  0.0353 -0.5091
 8773SOL    HW237953   2.182   4.108   7.452  1.7535  0.6795 -0.8790
 8774SOL     OW37954   2.502   3.769   5.729 -0.0205  0.4592  0.4517
 8774SOL    HW137955   2.549   3.749   5.810 -2.5112  0.4067  1.8712
 8774SOL    HW237956   2.454   3.850   5.747  2.5504  2.4024 -1.3472
 8775SOL     OW37957   4.558   4.486   3.450 -0.9080  0.6181 -0.2463
 8775SOL    HW137958   4.626   4.431   3.489 -1.1201  1.4680  1.3168
 8775SOL    HW237959   4.483   4.449   3.496  0.5638 -0.0871  1.6036
 8776SOL     OW37960   2.987   2.534   5.374  0.0746 -0.2676  0.0039
 8776SOL    HW137961   2.986   2.628   5.355  1.7117 -0.3848 -0.6544
 8776SOL    HW237962   3.014   2.495   5.291 -0.0310 -0.8443  0.2432
 8777SOL     OW37963   1.970   0.720  12.431 -0.3401  0.3676 -0.4010
 8777SOL    HW137964   1.882   0.750  12.452 -0.6236 -0.0782 -0.9674
 8777SOL    HW237965   1.974   0.712  12.336  2.1388  0.3431 -0.3044
 8778SOL     OW37966   2.809   1.055  13.327  0.0415 -0.1039  0.1318
 8778SOL    HW137967   2.771   1.134  13.289  1.7458  0.6201 -0.0690
 8778SOL    HW237968   2.804   0.998  13.249 -1.1901 -1.1135  0.9453
 8779SOL     OW37969   3.598   0.776  17.294  0.0705 -0.2435 -0.1851
 8779SOL    HW137970   3.565   0.727  17.218 -0.1347 -2.4985  1.3519
 8779SOL    HW237971   3.617   0.851  17.237  0.1166 -0.9467 -1.0963
 8780SOL     OW37972   4.459   0.801   7.479 -0.3427 -0.7270 -0.0251
 8780SOL    HW137973   4.535   0.821   7.424  1.2394 -2.2527  1.6180
 8780SOL    HW237974   4.472   0.714   7.515 -1.8774 -1.0215 -0.1985
 8781SOL     OW37975   0.454   2.786   5.246 -0.1785 -0.1791 -0.3893
 8781SOL    HW137976   0.415   2.702   5.269 -0.7342  0.2132  0.1031
 8781SOL    HW237977   0.507   2.770   5.168 -1.0971 -1.6180 -0.7145
 8782SOL     OW37978   4.447   0.381   2.084 -0.1285  0.1750  0.1128
 8782SOL    HW137979   4.441   0.406   2.177  0.5988  0.3015  0.1225
 8782SOL    HW237980   4.537   0.354   2.069 -0.1591  0.8317 -1.1972
 8783SOL     OW37981   3.491   2.042   3.027  0.2197 -0.6436 -0.5516
 8783SOL    HW137982   3.441   1.964   3.051  1.3023 -1.1708 -0.0019
 8783SOL    HW237983   3.445   2.114   3.070  0.7264 -0.8348  0.3036
 8784SOL     OW37984   0.445   3.652  11.221  0.1979 -0.2231  0.6648
 8784SOL    HW137985   0.433   3.557  11.216 -0.7050 -0.1954  2.1507
 8784SOL    HW237986   0.364   3.678  11.177 -0.5558 -0.2951  2.0141
 8785SOL     OW37987   0.813   2.773   8.445  0.2581 -0.4946 -0.5458
 8785SOL    HW137988   0.788   2.680   8.447  0.7838 -0.6659 -2.3903
 8785SOL    HW237989   0.752   2.808   8.511  0.7505  2.0015 -1.4412
 8786SOL     OW37990   2.276   1.918   7.685  0.1464  0.2924 -0.5336
 8786SOL    HW137991   2.343   1.955   7.627 -0.1504  0.1350 -0.9787
 8786SOL    HW237992   2.316   1.834   7.709  2.0997  0.8791 -1.7245
 8787SOL     OW37993   2.581   1.290  12.180 -0.0668 -0.3318 -0.0286
 8787SOL    HW137994   2.655   1.284  12.241  1.0513  1.8220 -1.1941
 8787SOL    HW237995   2.604   1.373  12.139 -1.0546 -0.2428 -0.4090
 8788SOL     OW37996   3.375   0.963   2.950  0.0520  0.5227  0.3186
 8788SOL    HW137997   3.288   0.974   2.911  0.9773 -0.5158 -2.0185
 8788SOL    HW237998   3.346   0.921   3.031  0.2694  2.1907  1.2547
 8789SOL     OW37999   1.407   2.747  11.559 -0.0434 -0.6248 -0.0891
 8789SOL    HW138000   1.463   2.825  11.563  0.0854 -0.6916 -0.5723
 8789SOL    HW238001   1.394   2.740  11.653  0.3632 -1.9569 -0.1274
 8790SOL     OW38002   2.631   4.356  12.261  0.1219  0.3021 -0.1675
 8790SOL    HW138003   2.688   4.356  12.184 -0.3549  0.0661 -0.5253
 8790SOL    HW238004   2.698   4.354  12.329  0.8261 -1.0818 -0.9022
 8791SOL     OW38005   3.954   2.195   1.068  0.3699 -0.3515  0.0608
 8791SOL    HW138006   4.023   2.143   1.027  0.8319 -0.8379  1.4607
 8791SOL    HW238007   3.992   2.282   1.057 -1.1655  0.1543 -1.3522
 8792SOL     OW38008   3.115   1.683   9.525 -0.2119 -0.5930  0.2909
 8792SOL    HW138009   3.075   1.715   9.443  0.4616 -1.8629 -0.5385
 8792SOL    HW238010   3.043   1.693   9.587 -0.5222 -0.3899 -0.1035
 8793SOL     OW38011   2.685   3.421   9.414  0.2835 -0.1277 -0.3977
 8793SOL    HW138012   2.633   3.475   9.355 -0.3382 -0.3459 -0.0453
 8793SOL    HW238013   2.680   3.332   9.379 -2.0720 -0.0053 -0.3161
 8794SOL     OW38014   0.859   4.731   7.308 -0.1728 -0.3418  0.4549
 8794SOL    HW138015   0.907   4.650   7.295  1.5224  0.7854 -0.3461
 8794SOL    HW238016   0.798   4.710   7.379  2.6476 -4.6386  1.5768
 8795SOL     OW38017   4.099   3.893   6.744 -0.4352 -0.3414 -0.5550
 8795SOL    HW138018   4.090   3.855   6.657 -0.1225  0.1787 -0.8137
 8795SOL    HW238019   4.182   3.940   6.735 -1.2607  0.8729 -1.7870
 8796SOL     OW38020   3.323   0.482  16.253  0.1389  0.1189  0.2269
 8796SOL    HW138021   3.383   0.518  16.318  1.2849 -1.8971  0.2973
 8796SOL    HW238022   3.359   0.525  16.175 -2.4247 -0.0119 -1.0146
 8797SOL     OW38023   2.640   0.414   7.163  0.0794 -0.1945  0.4708
 8797SOL    HW138024   2.582   0.489   7.149 -0.2481 -0.3576  0.9586
 8797SOL    HW238025   2.636   0.384   7.072  0.2212  2.2346 -0.3303
 8798SOL     OW38026   1.144   2.521  10.878 -0.2781 -0.0611  0.5125
 8798SOL    HW138027   1.170   2.486  10.963 -1.4060 -1.8466  0.1130
 8798SOL    HW238028   1.071   2.464  10.854  1.9186 -2.7129  0.1688
 8799SOL     OW38029   4.173   1.499   1.777  0.1168 -0.4360  0.5963
 8799SOL    HW138030   4.166   1.407   1.751  1.2988 -0.9005  1.9607
 8799SOL    HW238031   4.078   1.513   1.774 -0.0585 -2.0437 -1.7919
 8800SOL     OW38032   2.152   1.214   8.782 -0.3965  0.1383  0.2874
 8800SOL    HW138033   2.150   1.123   8.754  1.2736  0.1569  0.0738
 8800SOL    HW238034   2.175   1.261   8.701  0.3736 -0.3971  0.1902
 8801SOL     OW38035   4.661   4.293   7.042  0.4647  0.2857  0.3618
 8801SOL    HW138036   4.586   4.335   7.084 -1.0071 -0.5745 -1.4093
 8801SOL    HW238037   4.623   4.266   6.959  0.0375  1.2276  0.2478
 8802SOL     OW38038   1.928   3.218  15.209 -0.0994  0.3997 -0.0262
 8802SOL    HW138039   1.856   3.257  15.260 -0.3969 -3.1133  2.2264
 8802SOL    HW238040   1.999   3.280  15.226  0.0833 -0.0244  0.7886
 8803SOL     OW38041   4.146   2.858   2.428  0.3864  0.2457 -0.1395
 8803SOL    HW138042   4.056   2.830   2.444  0.3142  0.5049 -0.0899
 8803SOL    HW238043   4.174   2.795   2.362 -0.6929 -0.0241 -0.3459
 8804SOL     OW38044   4.494   3.465   4.886  0.3654  0.1383  0.4006
 8804SOL    HW138045   4.571   3.496   4.934  1.4666  0.1244 -1.3604
 8804SOL    HW238046   4.426   3.509   4.938  0.0585  1.5147 -1.1702
 8805SOL     OW38047   1.218   3.937   3.284  0.0255  0.7436  0.0917
 8805SOL    HW138048   1.216   3.853   3.330  1.7800  0.0962 -1.0030
 8805SOL    HW238049   1.208   3.906   3.194 -1.0581  1.6188 -0.0938
 8806SOL     OW38050   4.728   3.395   2.018 -0.7424  0.8273 -0.1855
 8806SOL    HW138051   4.697   3.480   1.985 -1.5620  0.7065  0.2638
 8806SOL    HW238052   4.681   3.338   1.956  1.4002 -0.0280 -1.0375
 8807SOL     OW38053   2.731   2.320   2.643 -0.1487 -0.3193 -0.5857
 8807SOL    HW138054   2.687   2.380   2.704  2.2559  0.8119  0.0257
 8807SOL    HW238055   2.667   2.250   2.626  0.5232 -0.7303 -1.4143
 8808SOL     OW38056   1.623   4.355   1.956  0.0358  0.3909 -0.0131
 8808SOL    HW138057   1.528   4.364   1.947  0.1117  1.4937  0.2063
 8808SOL    HW238058   1.633   4.370   2.050  0.3400 -0.2394  0.0522
 8809SOL     OW38059   2.838   0.491  13.510  0.0507  0.0051 -0.0461
 8809SOL    HW138060   2.764   0.434  13.531 -0.1472  0.2625 -0.0427
 8809SOL    HW238061   2.793   0.573  13.489  3.0556  1.0033 -2.4995
 8810SOL     OW38062   1.905   2.709   7.748  0.0824 -0.2359 -0.0527
 8810SOL    HW138063   1.852   2.782   7.781  0.1221 -0.5010  0.5882
 8810SOL    HW238064   1.838   2.667   7.694 -0.3194  0.0135  0.2505
 8811SOL     OW38065   1.613   4.069  11.375 -0.0741 -0.3032  0.3483
 8811SOL    HW138066   1.553   4.032  11.440 -1.8966 -0.7221 -1.5678
 8811SOL    HW238067   1.614   3.989  11.322  1.4572  1.1757 -1.8695
 8812SOL     OW38068   3.185   2.218   5.396  0.6925  0.0912  0.2256
 8812SOL    HW138069   3.218   2.202   5.308 -0.2848 -1.3020  0.1136
 8812SOL    HW238070   3.177   2.127   5.424  0.7913  0.1578  0.4697
 8813SOL     OW38071   4.691   1.526   2.401 -0.2384 -0.1964  0.3679
 8813SOL    HW138072   0.010   1.571   2.336 -0.7009 -1.6893 -1.0488
 8813SOL    HW238073   4.632   1.481   2.342  2.2296 -1.4958 -1.1173
 8814SOL     OW38074   1.588   0.456   6.471 -0.7315  0.1010  0.1831
 8814SOL    HW138075   1.607   0.377   6.420 -0.4383  0.2265  0.0975
 8814SOL    HW238076   1.657   0.515   6.440  0.8238 -1.3736  0.8952
 8815SOL     OW38077   0.587   2.815   0.233 -0.4525  0.2925  0.6640
 8815SOL    HW138078   0.600   2.821   0.328  2.0762 -1.1377  0.3991
 8815SOL    HW238079   0.669   2.779   0.199 -0.4817  0.3426  0.5387
 8816SOL     OW38080   4.331   3.319   1.375 -0.4785 -0.4845  0.1544
 8816SOL    HW138081   4.308   3.334   1.284 -1.2245 -0.1967  0.3925
 8816SOL    HW238082   4.421   3.288   1.366 -0.7181 -1.0795 -0.1650
 8817SOL     OW38083   0.794   4.089  12.619  0.8370  0.8227 -0.0750
 8817SOL    HW138084   0.869   4.041  12.583 -1.7978 -3.6715  0.3166
 8817SOL    HW238085   0.769   4.028  12.690 -0.2161  0.8426 -0.4288
 8818SOL     OW38086   3.089   2.547   6.227 -0.5795 -0.1665 -0.3413
 8818SOL    HW138087   3.167   2.500   6.256 -0.4933  0.6261  0.7300
 8818SOL    HW238088   3.122   2.588   6.147  0.6323 -0.3606  0.0560
 8819SOL     OW38089   4.076   4.290   5.739 -0.1725 -0.7777  0.1749
 8819SOL    HW138090   4.108   4.379   5.729  0.1396 -0.9686 -0.5342
 8819SOL    HW238091   4.104   4.269   5.829  0.6856  1.1028  0.3466
 8820SOL     OW38092   2.445   4.283   8.647  0.2487  0.3065  0.7310
 8820SOL    HW138093   2.456   4.194   8.615 -0.0571  1.1294 -1.7111
 8820SOL    HW238094   2.386   4.275   8.722 -0.6547  0.7246  0.0676
 8821SOL     OW38095   1.894   4.066   8.603  0.1762 -0.0920 -0.0944
 8821SOL    HW138096   1.817   4.111   8.637  0.3593 -0.1433  0.3893
 8821SOL    HW238097   1.879   4.068   8.508  2.4445  2.6001 -0.3953
 8822SOL     OW38098   2.303   2.994  16.600 -0.2579 -0.2463  0.5102
 8822SOL    HW138099   2.361   3.011  16.525  0.3836 -0.9939  0.8365
 8822SOL    HW238100   2.224   3.048  16.596 -0.1514 -0.2667 -2.1134
 8823SOL     OW38101   1.923   2.710  12.214  0.3392  0.5305  0.2804
 8823SOL    HW138102   1.995   2.674  12.266 -0.3992 -2.8567 -1.0262
 8823SOL    HW238103   1.842   2.685  12.258 -0.4155  1.4913 -0.5783
 8824SOL     OW38104   1.949   0.291   3.981 -1.2669  0.1220  0.2912
 8824SOL    HW138105   1.922   0.207   3.943 -0.8185  0.4907 -0.8309
 8824SOL    HW238106   1.965   0.262   4.071  1.4291 -0.2758 -0.3275
 8825SOL     OW38107   1.926   3.957  15.702 -0.0305  0.1244 -0.4825
 8825SOL    HW138108   1.946   4.046  15.728 -1.1502 -0.0962  1.1378
 8825SOL    HW238109   1.864   3.965  15.629 -0.8944  0.3510  0.2753
 8826SOL     OW38110   4.592   2.065   9.470  0.1528  0.0045  0.0945
 8826SOL    HW138111   4.566   2.109   9.551  0.7695  1.3115 -0.4115
 8826SOL    HW238112   4.686   2.069   9.488 -0.1126 -1.5311  1.8060
 8827SOL     OW38113   0.619   2.308   7.836  0.1754  0.2112 -0.6803
 8827SOL    HW138114   0.684   2.289   7.769 -0.5998  0.6239 -1.5472
 8827SOL    HW238115   0.560   2.232   7.835  1.4721 -0.7707 -1.0678
 8828SOL     OW38116   1.150   3.159   4.187  0.1528 -0.3257 -0.2323
 8828SOL    HW138117   1.132   3.110   4.106 -3.5668 -1.4814  1.3221
 8828SOL    HW238118   1.105   3.112   4.256 -0.2667 -2.9109 -2.2438
 8829SOL     OW38119   1.157   1.960   3.361 -0.1416  0.0649 -0.7061
 8829SOL    HW138120   1.186   1.891   3.421 -1.5916  1.5391  1.6657
 8829SOL    HW238121   1.211   2.038   3.372 -1.0292  0.5209  0.4228
 8830SOL     OW38122   2.546   3.695   9.189 -0.4865  0.4313  0.3376
 8830SOL    HW138123   2.474   3.726   9.244  1.1477  0.4595  2.4545
 8830SOL    HW238124   2.501   3.638   9.126 -2.1153 -0.4305  2.2591
 8831SOL     OW38125   1.462   2.805  10.197 -0.7312 -0.3719 -0.2241
 8831SOL    HW138126   1.373   2.770  10.194 -0.5255 -0.7754 -1.8184
 8831SOL    HW238127   1.503   2.743  10.137 -0.1166 -0.5946  0.4282
 8832SOL     OW38128   2.743   3.306   1.544  0.1118 -0.5896 -0.2865
 8832SOL    HW138129   2.765   3.213   1.538 -0.1096 -0.8373  2.8210
 8832SOL    HW238130   2.784   3.336   1.625  0.7141 -0.5521 -0.6043
 8833SOL     OW38131   3.456   2.311  17.390  0.1339  0.3591  0.0660
 8833SOL    HW138132   3.395   2.237  17.398 -1.8555  1.7916 -1.8849
 8833SOL    HW238133   3.424   2.363  17.464 -0.7935  1.3733 -1.0616
 8834SOL     OW38134   0.375   4.012  11.774 -0.6989  0.2912  0.3215
 8834SOL    HW138135   0.399   3.929  11.814 -1.3124  0.0024  0.0857
 8834SOL    HW238136   0.434   4.017  11.699 -0.2845  1.3149  0.7088
 8835SOL     OW38137   4.260   4.044   7.768 -0.0757 -0.4274 -0.0459
 8835SOL    HW138138   4.256   4.135   7.796  3.7417 -0.2442  0.0059
 8835SOL    HW238139   4.241   4.054   7.675 -2.3844 -2.3525  0.2300
 8836SOL     OW38140   3.852   4.622   7.577 -0.8834 -0.2697  0.5343
 8836SOL    HW138141   3.928   4.670   7.543 -0.5195  0.3477  2.2492
 8836SOL    HW238142   3.789   4.694   7.587  0.4592  0.9302  0.3122
 8837SOL     OW38143   4.635   1.241   2.611  0.3888  0.2045 -0.1782
 8837SOL    HW138144   4.624   1.309   2.545  1.4680  1.0021  0.4673
 8837SOL    HW238145   4.543   1.221   2.631  1.0314 -3.2684 -0.6994
 8838SOL     OW38146   3.906   2.220   2.853 -0.1613 -0.6599 -0.5021
 8838SOL    HW138147   3.811   2.212   2.853 -0.3731  1.9919  2.1892
 8838SOL    HW238148   3.933   2.137   2.814 -1.7038 -1.2744 -0.2585
 8839SOL     OW38149   2.819   4.697   8.237 -0.0800  0.7816  0.2609
 8839SOL    HW138150   2.840   0.043   8.284 -1.3016  2.0131 -1.3267
 8839SOL    HW238151   2.888   4.697   8.172  0.8478  0.9830  1.2466
 8840SOL     OW38152   0.627   2.475   5.567  0.6345 -0.0121  0.1759
 8840SOL    HW138153   0.621   2.482   5.471 -4.8034  2.2851  0.6622
 8840SOL    HW238154   0.717   2.449   5.585  0.6239 -1.7484 -2.2817
 8841SOL     OW38155   4.145   0.241  10.728 -0.1491  1.0518 -0.0097
 8841SOL    HW138156   4.140   0.214  10.636 -0.5059 -0.4143  0.4347
 8841SOL    HW238157   4.066   0.203  10.766  2.1456 -4.2620 -0.5821
 8842SOL     OW38158   2.102   2.120   2.935 -0.1621  0.2459 -0.3580
 8842SOL    HW138159   2.165   2.189   2.955  1.1779 -0.5885 -1.6857
 8842SOL    HW238160   2.050   2.147   2.859 -0.6219  2.5221  0.7666
 8843SOL     OW38161   1.881   0.116  12.214  0.2540  0.6991  0.6610
 8843SOL    HW138162   1.966   0.158  12.196 -0.0167  1.6997  1.6672
 8843SOL    HW238163   1.890   0.123  12.310  1.3435 -0.0438  0.6196
 8844SOL     OW38164   3.916   4.128   0.982 -0.1413  0.1680 -0.1598
 8844SOL    HW138165   3.867   4.144   1.062  0.5935 -0.7331  0.4830
 8844SOL    HW238166   3.982   4.063   1.009 -1.9112 -1.7169 -0.4059
 8845SOL     OW38167   1.741   2.286  12.830  0.6028  0.5301 -0.0285
 8845SOL    HW138168   1.712   2.203  12.866  1.3997 -1.1125 -3.2287
 8845SOL    HW238169   1.807   2.307  12.896  0.2916  1.9182 -0.1601
 8846SOL     OW38170   4.672   0.961   8.479 -0.4893 -0.0958 -0.2010
 8846SOL    HW138171   0.007   0.999   8.532  0.4749 -1.9060 -0.1772
 8846SOL    HW238172   4.597   0.983   8.535 -0.5141 -0.1383 -0.2176
 8847SOL     OW38173   0.689   4.235  17.679  0.3611  0.0187  0.3930
 8847SOL    HW138174   0.735   4.154  17.661 -1.1857 -0.9167  0.6408
 8847SOL    HW238175   0.608   4.215  17.631  1.1349  1.3411 -1.4928
 8848SOL     OW38176   4.512   4.407   6.449 -0.0128  0.4556  0.0525
 8848SOL    HW138177   4.518   4.325   6.400  1.1294  0.3116  0.4417
 8848SOL    HW238178   4.595   4.444   6.420 -0.8547  2.1410 -0.1875
 8849SOL     OW38179   1.617   3.983   7.093  0.0817 -0.3013  0.6024
 8849SOL    HW138180   1.599   3.947   7.181 -1.8789  0.3821  0.4750
 8849SOL    HW238181   1.712   3.981   7.105  0.0341  2.7272  1.4469
 8850SOL     OW38182   1.194   2.502  15.083 -0.2540  0.1830  0.2836
 8850SOL    HW138183   1.141   2.439  15.035  0.3091 -0.1075  0.0415
 8850SOL    HW238184   1.174   2.477  15.173 -1.0715  2.3942  0.7075
 8851SOL     OW38185   2.897   1.115  14.276  0.3611 -0.0987  0.1714
 8851SOL    HW138186   2.820   1.076  14.235  0.9431 -0.3593 -0.6942
 8851SOL    HW238187   2.959   1.044  14.261  0.8621  0.7719 -1.9941
 8852SOL     OW38188   4.406   0.785   8.527  0.1355  0.1536  0.2397
 8852SOL    HW138189   4.427   0.869   8.567 -0.0832  0.5508 -0.4987
 8852SOL    HW238190   4.389   0.733   8.606 -2.2883 -2.7186 -2.1386
 8853SOL     OW38191   1.395   0.003   4.175  0.3223  0.0977 -0.1510
 8853SOL    HW138192   1.380   4.657   4.125 -0.9132  0.4333 -0.3414
 8853SOL    HW238193   1.331   4.731   4.245  0.3783 -0.8212 -0.1898
 8854SOL     OW38194   0.725   4.059   3.219  0.3184 -0.0799 -0.1456
 8854SOL    HW138195   0.762   3.981   3.178 -0.2171 -1.7369  2.4524
 8854SOL    HW238196   0.705   4.023   3.306  1.5165 -1.6597 -0.5225
 8855SOL     OW38197   1.624   1.694   8.474  0.1331 -0.9079  0.8110
 8855SOL    HW138198   1.687   1.675   8.544 -0.3111 -2.1409  0.8825
 8855SOL    HW238199   1.617   1.602   8.446  1.3172 -0.3020 -1.4585
 8856SOL     OW38200   4.559   3.267   1.820  0.7281  0.4506  0.1951
 8856SOL    HW138201   4.504   3.335   1.782  0.3356 -0.0072 -0.0679
 8856SOL    HW238202   4.547   3.193   1.760 -2.2160  0.3699  0.8660
 8857SOL     OW38203   0.579   2.454  15.406 -0.2978  0.2458  0.3097
 8857SOL    HW138204   0.533   2.371  15.414  0.2210 -0.0541  0.2078
 8857SOL    HW238205   0.610   2.449  15.315  1.9194 -0.2093  1.0871
 8858SOL     OW38206   1.176   3.410   5.753 -0.6610  0.3046 -0.2413
 8858SOL    HW138207   1.104   3.365   5.710  1.8313 -1.8788 -2.1093
 8858SOL    HW238208   1.211   3.333   5.797  1.4595  2.2138  1.4225
 8859SOL     OW38209   2.347   3.557  11.256  0.1361 -0.5262  0.5417
 8859SOL    HW138210   2.289   3.584  11.327 -0.0171  0.6924 -0.0536
 8859SOL    HW238211   2.414   3.510  11.306  2.2685 -1.8055 -3.5363
 8860SOL     OW38212   3.392   3.004  10.341  0.1441  0.0163  0.3548
 8860SOL    HW138213   3.415   3.096  10.327 -1.2741  0.0789 -1.6770
 8860SOL    HW238214   3.336   3.013  10.418  0.3916 -2.5062  0.8419
 8861SOL     OW38215   4.472   2.544  12.655 -0.1800  0.1663  0.3108
 8861SOL    HW138216   4.499   2.626  12.614  1.4308 -0.8352 -0.6209
 8861SOL    HW238217   4.541   2.481  12.636  1.6575  2.0344  0.9025
 8862SOL     OW38218   3.649   3.904   4.319 -0.7459  0.2738  0.0458
 8862SOL    HW138219   3.710   3.967   4.281  1.5140 -0.1876  2.8994
 8862SOL    HW238220   3.564   3.927   4.283 -0.6982 -0.6993 -0.6918
 8863SOL     OW38221   4.632   1.534   6.919  0.5620 -0.1376 -0.5966
 8863SOL    HW138222   4.539   1.536   6.898  1.5345 -1.1407 -4.8506
 8863SOL    HW238223   4.632   1.614   6.972 -0.2865  0.9272 -2.2257
 8864SOL     OW38224   3.795   3.882   3.670 -0.1185  0.7798 -0.8628
 8864SOL    HW138225   3.862   3.914   3.730 -0.9566 -0.8528  0.9523
 8864SOL    HW238226   3.852   3.828   3.615  0.8284 -0.2742  1.1855
 8865SOL     OW38227   1.783   4.314   5.097  0.7065 -0.0055 -0.4624
 8865SOL    HW138228   1.875   4.337   5.110 -0.1672  2.8223  0.5831
 8865SOL    HW238229   1.773   4.249   5.167  0.2982  1.2528  0.6397
 8866SOL     OW38230   0.241   3.890   4.576 -0.3544 -0.5911  0.1393
 8866SOL    HW138231   0.151   3.896   4.606 -0.4888 -1.5562 -0.0855
 8866SOL    HW238232   0.266   3.981   4.594  1.1365 -0.9660 -0.0059
 8867SOL     OW38233   4.190   2.745   5.556 -0.0558 -0.2632  0.3798
 8867SOL    HW138234   4.200   2.818   5.494  0.1263  0.5699  1.3802
 8867SOL    HW238235   4.104   2.770   5.590 -0.0930 -1.4451  1.1409
 8868SOL     OW38236   0.474   1.860   5.476  0.7379 -0.3482 -0.3101
 8868SOL    HW138237   0.539   1.794   5.500  0.6546  0.7254  2.8502
 8868SOL    HW238238   0.396   1.814   5.507  1.6096 -0.8938  1.0431
 8869SOL     OW38239   1.002   3.166   3.250  0.4302 -0.2050 -0.4681
 8869SOL    HW138240   0.925   3.211   3.285 -1.3374 -2.2977 -1.6743
 8869SOL    HW238241   0.979   3.181   3.158  2.3199  0.3666 -0.8578
 8870SOL     OW38242   1.847   1.997  16.580  0.4275  0.4590 -0.3449
 8870SOL    HW138243   1.942   1.983  16.578  0.4027  0.0488  1.0219
 8870SOL    HW238244   1.832   2.068  16.518 -0.0816  0.2616 -0.4467
 8871SOL     OW38245   3.132   0.963  14.116  0.0564 -0.0650 -0.3975
 8871SOL    HW138246   3.194   0.913  14.063  1.8393  1.2287  0.4663
 8871SOL    HW238247   3.188   1.002  14.183 -0.3096 -2.4928  1.2788
 8872SOL     OW38248   2.863   1.941   2.526  0.0180 -0.0410  0.3190
 8872SOL    HW138249   2.891   1.880   2.595 -0.8052  0.3645  1.0189
 8872SOL    HW238250   2.951   1.966   2.497 -0.0900 -1.3513 -1.0746
 8873SOL     OW38251   3.125   2.489  13.745  0.3972 -0.2622  0.6564
 8873SOL    HW138252   3.216   2.473  13.719  0.6912 -0.7556  1.9490
 8873SOL    HW238253   3.113   2.584  13.743 -1.4919 -0.5437 -0.7056
 8874SOL     OW38254   0.443   1.269   7.835  0.6064 -0.0889 -0.5940
 8874SOL    HW138255   0.497   1.326   7.890  2.5718 -2.8972  0.4380
 8874SOL    HW238256   0.353   1.299   7.849  0.2768 -0.4173 -2.0388
 8875SOL     OW38257   0.097   4.528  16.875  0.2424 -0.2972  0.6187
 8875SOL    HW138258   0.108   4.577  16.956 -0.1395  1.6291 -0.4949
 8875SOL    HW238259   0.149   4.449  16.893 -0.9555 -0.9510  1.2055
 8876SOL     OW38260   1.798   3.329  10.656  0.0583 -0.5623  0.1214
 8876SOL    HW138261   1.739   3.396  10.690 -0.3943  0.3398 -2.4547
 8876SOL    HW238262   1.775   3.251  10.706 -0.9956 -0.1510  0.2683
 8877SOL     OW38263   2.013   0.525   0.205  0.4591 -0.2414 -0.1793
 8877SOL    HW138264   2.094   0.552   0.162  0.3313  0.0374 -0.2431
 8877SOL    HW238265   1.942   0.571   0.161  1.4096  1.3925 -0.0027
 8878SOL     OW38266   2.977   1.446  10.268  0.3805 -0.2163 -0.3675
 8878SOL    HW138267   2.921   1.441  10.345  1.0923  4.0146  0.3988
 8878SOL    HW238268   3.004   1.538  10.270  1.5023 -0.5845  1.0238
 8879SOL     OW38269   2.862   4.691   5.528 -0.0522  0.3524  0.2585
 8879SOL    HW138270   2.934   4.722   5.582 -0.5162  0.2177  0.9496
 8879SOL    HW238271   2.895   4.615   5.479 -0.5849  0.7619 -0.7566
 8880SOL     OW38272   1.470   3.317   7.324  0.3504 -0.2348  0.0612
 8880SOL    HW138273   1.563   3.325   7.299 -0.3294  1.6190 -1.8844
 8880SOL    HW238274   1.485   3.278   7.410  0.7793  0.5689  0.3541
 8881SOL     OW38275   3.177   0.228   2.005 -0.3404 -0.2756  0.2106
 8881SOL    HW138276   3.090   0.251   1.971 -0.0315 -2.7248 -2.2034
 8881SOL    HW238277   3.212   0.159   1.950 -0.6287  1.0282 -1.5845
 8882SOL     OW38278   3.612   4.325   4.730  0.1439  0.0255  0.1804
 8882SOL    HW138279   3.543   4.391   4.721  2.3865  2.1780 -1.1302
 8882SOL    HW238280   3.641   4.332   4.821  0.6176  1.4140 -0.0928
 8883SOL     OW38281   0.649   0.257   0.587  0.0924 -0.0588  0.1865
 8883SOL    HW138282   0.623   0.228   0.500  0.6326  0.2368 -0.0726
 8883SOL    HW238283   0.730   0.300   0.560 -0.5891  2.3857  1.9746
 8884SOL     OW38284   4.538   2.514   7.721 -0.5191 -0.1394  0.2027
 8884SOL    HW138285   4.491   2.585   7.678 -2.1610 -1.3132  0.0795
 8884SOL    HW238286   4.498   2.442   7.673  0.9341 -0.5484 -0.3902
 8885SOL     OW38287   2.181   3.504   6.966  0.2127 -0.3429 -0.1749
 8885SOL    HW138288   2.137   3.574   7.013 -0.0818  0.2423 -1.3095
 8885SOL    HW238289   2.161   3.535   6.877 -0.5635 -0.4828 -0.0489
 8886SOL     OW38290   2.389   1.586   2.315 -0.0380 -0.4792 -0.1494
 8886SOL    HW138291   2.391   1.682   2.311 -1.0480 -0.4270  0.7291
 8886SOL    HW238292   2.360   1.572   2.225 -0.1761  0.5693 -0.2711
 8887SOL     OW38293   1.300   1.581   3.668  0.2742  0.6187 -0.4964
 8887SOL    HW138294   1.390   1.566   3.640  0.2494  3.0464 -1.8453
 8887SOL    HW238295   1.311   1.593   3.763  1.4347 -1.5490 -0.3769
 8888SOL     OW38296   2.841   0.931   2.160  0.4620 -0.0968 -0.1491
 8888SOL    HW138297   2.874   0.876   2.088 -1.2284  0.2842 -1.1949
 8888SOL    HW238298   2.887   1.014   2.146 -0.5433  0.3345 -0.8512
 8889SOL     OW38299   1.718   3.535   5.196  0.0647  0.0549  0.9470
 8889SOL    HW138300   1.794   3.593   5.207 -0.5980  1.4165 -1.6221
 8889SOL    HW238301   1.661   3.577   5.260  0.9343  2.3717  0.2260
 8890SOL     OW38302   4.499   1.419   9.968  0.2516 -0.0156  0.3635
 8890SOL    HW138303   4.457   1.505   9.976 -1.4162 -0.8367  0.4998
 8890SOL    HW238304   4.487   1.403   9.874  1.0499  0.3350  0.2018
 8891SOL     OW38305   1.610   1.408  17.209  0.0151 -0.0787  0.3504
 8891SOL    HW138306   1.626   1.443  17.297  1.0301 -2.4363  1.1236
 8891SOL    HW238307   1.526   1.450  17.195  1.6558  2.8189 -0.7307
 8892SOL     OW38308   1.952   2.090   4.112 -0.1508 -0.2874 -0.1144
 8892SOL    HW138309   1.905   2.052   4.186 -0.2994  1.3993  0.6489
 8892SOL    HW238310   1.955   2.011   4.058  1.6721  0.3880 -1.0113
 8893SOL     OW38311   1.404   3.209   2.035 -0.3012 -0.4034 -0.3991
 8893SOL    HW138312   1.487   3.162   2.041 -0.5166 -0.9011 -1.3474
 8893SOL    HW238313   1.399   3.217   1.940  0.9851  0.8945 -0.3664
 8894SOL     OW38314   0.286   1.609   8.120  0.6068 -0.4932  0.0225
 8894SOL    HW138315   0.358   1.567   8.167  1.6519 -0.4811 -1.5646
 8894SOL    HW238316   0.250   1.659   8.193  0.4311 -0.9899  0.2769
 8895SOL     OW38317   3.129   2.906   3.827 -0.1998 -0.1480 -0.1877
 8895SOL    HW138318   3.076   2.955   3.890 -0.1605 -0.6324  0.2208
 8895SOL    HW238319   3.136   2.819   3.867 -0.2041  1.4320  3.2006
 8896SOL     OW38320   0.066   2.154  17.085  0.3008 -0.0205 -0.1312
 8896SOL    HW138321   4.728   2.110  17.039  0.6771  0.9576 -1.6789
 8896SOL    HW238322   0.013   2.204  17.147  0.3777 -1.3395  0.9966
 8897SOL     OW38323   1.354   3.576   1.063  0.0794  0.7983  0.7619
 8897SOL    HW138324   1.354   3.534   1.149 -1.0115  0.7805  0.7544
 8897SOL    HW238325   1.400   3.507   1.015  1.8896  0.7962  2.4921
 8898SOL     OW38326   1.355   0.631  11.439  0.1258  0.3358 -0.5301
 8898SOL    HW138327   1.321   0.702  11.493 -3.4321 -2.2788  0.6606
 8898SOL    HW238328   1.285   0.566  11.448 -0.8166  1.3228 -0.7933
 8899SOL     OW38329   0.380   0.678   6.799  0.5531 -0.4202 -0.0402
 8899SOL    HW138330   0.379   0.769   6.828 -0.1720 -0.6342  0.6139
 8899SOL    HW238331   0.359   0.633   6.881  1.5169 -0.8557 -0.0295
 8900SOL     OW38332   0.629   0.728   1.331 -0.0960 -0.0919  0.3083
 8900SOL    HW138333   0.535   0.726   1.345 -0.3807  1.9903 -1.3566
 8900SOL    HW238334   0.658   0.819   1.344 -1.8343  0.5196 -0.1617
 8901SOL     OW38335   2.401   2.975   7.801  0.3968 -0.6383  0.3877
 8901SOL    HW138336   2.395   2.999   7.894  1.9463  1.4826 -0.0483
 8901SOL    HW238337   2.335   2.907   7.792 -0.5622  0.4549 -0.7328
 8902SOL     OW38338   1.472   4.568   6.681 -0.4052  0.2491  0.4695
 8902SOL    HW138339   1.532   4.618   6.736  0.6943  0.5648 -1.0179
 8902SOL    HW238340   1.471   4.481   6.722 -2.7095 -0.6850 -1.5604
 8903SOL     OW38341   1.897   1.720   1.069  0.0012 -0.3620 -0.2225
 8903SOL    HW138342   1.863   1.798   1.114 -1.1491 -0.9664 -0.0454
 8903SOL    HW238343   1.948   1.767   1.003 -0.6809  0.7621  0.0462
 8904SOL     OW38344   2.140   1.870   5.575  0.3926 -0.0626 -0.1745
 8904SOL    HW138345   2.128   1.777   5.555 -1.5965 -0.0055  0.7037
 8904SOL    HW238346   2.235   1.872   5.564  0.2141 -1.5217 -1.8326
 8905SOL     OW38347   2.305   2.064  13.166 -0.3726 -0.1696  0.0674
 8905SOL    HW138348   2.364   2.023  13.103  0.5887  0.1422  0.7729
 8905SOL    HW238349   2.367   2.063  13.238 -0.2541 -0.7093 -0.0450
 8906SOL     OW38350   2.365   0.970  13.345 -0.2341 -0.2620 -0.2448
 8906SOL    HW138351   2.312   0.893  13.365  0.3093 -0.2854  1.1165
 8906SOL    HW238352   2.391   0.966  13.253 -1.3884 -0.2869 -0.5712
 8907SOL     OW38353   4.544   2.739   4.767 -0.4300 -0.0031  0.5324
 8907SOL    HW138354   4.575   2.828   4.749  1.5423 -0.9716 -0.8201
 8907SOL    HW238355   4.622   2.697   4.805  0.1444  0.0605 -0.5775
 8908SOL     OW38356   2.736   2.787   6.063  0.4190  0.1984  0.4768
 8908SOL    HW138357   2.719   2.701   6.102  0.4377 -0.6807 -1.4968
 8908SOL    HW238358   2.681   2.780   5.985 -0.6509  1.2663  1.1261
 8909SOL     OW38359   3.400   2.532  10.368  0.1903  0.6495 -0.0355
 8909SOL    HW138360   3.350   2.471  10.314  0.2519  0.6840 -0.1300
 8909SOL    HW238361   3.482   2.484  10.381 -1.1277 -1.6611 -0.2641
 8910SOL     OW38362   2.104   0.223   4.837 -0.0737 -0.8719 -0.1467
 8910SOL    HW138363   2.166   0.207   4.766  0.9295 -0.7742  0.7023
 8910SOL    HW238364   2.025   0.181   4.802 -0.3807 -0.3629 -0.0581
 8911SOL     OW38365   3.046   2.392  16.619 -0.0297  0.6183 -0.2511
 8911SOL    HW138366   3.007   2.364  16.536 -1.7605  1.5017  0.2598
 8911SOL    HW238367   2.982   2.443  16.668 -0.1336  0.1560  0.0872
 8912SOL     OW38368   1.480   3.704   2.612 -0.4356 -0.1431 -0.1717
 8912SOL    HW138369   1.452   3.614   2.594  0.4449 -0.3881 -0.2842
 8912SOL    HW238370   1.559   3.687   2.663 -1.0396 -2.6954 -0.0671
 8913SOL     OW38371   1.842   3.338   2.827  0.4775 -0.0919 -0.2452
 8913SOL    HW138372   1.760   3.346   2.876  1.5622 -0.3251  1.6163
 8913SOL    HW238373   1.907   3.386   2.878 -0.4395 -1.1620  1.9418
 8914SOL     OW38374   4.367   1.229  12.564  0.4626  0.1827  0.6273
 8914SOL    HW138375   4.337   1.170  12.633  0.8038 -0.6535  0.0684
 8914SOL    HW238376   4.406   1.301  12.613 -0.0899 -0.5101  2.0708
 8915SOL     OW38377   0.881   1.956   6.583 -0.1619 -0.0699  0.4721
 8915SOL    HW138378   0.816   1.975   6.516 -1.1429  2.7638  2.2088
 8915SOL    HW238379   0.833   1.976   6.664  0.3189  0.8552  0.5360
 8916SOL     OW38380   4.709   2.080   4.174 -0.2605  0.5247 -0.0733
 8916SOL    HW138381   0.000   2.150   4.114 -2.6001  0.1345 -1.5525
 8916SOL    HW238382   4.614   2.071   4.163 -0.1824 -0.7564  0.2962
 8917SOL     OW38383   0.751   2.161   3.717  0.2492  0.4769 -0.4751
 8917SOL    HW138384   0.801   2.132   3.640  1.1442  0.5092  0.0977
 8917SOL    HW238385   0.674   2.191   3.669 -1.8210 -3.8448  0.0694
 8918SOL     OW38386   1.545   3.116  17.130  0.3009  0.0889  0.3729
 8918SOL    HW138387   1.628   3.087  17.091  0.4963  2.8341 -1.2383
 8918SOL    HW238388   1.531   3.040  17.187 -1.5640  2.0952  2.5698
 8919SOL     OW38389   1.383   2.458   2.885  0.2398 -0.0335  0.5125
 8919SOL    HW138390   1.323   2.493   2.819 -0.1970 -0.3844  0.7218
 8919SOL    HW238391   1.440   2.534   2.894 -2.6530  2.2437 -0.1088
 8920SOL     OW38392   2.719   0.029   4.496  0.8073  0.4490  0.2942
 8920SOL    HW138393   2.654   4.733   4.432  0.0294  1.6841  0.4887
 8920SOL    HW238394   2.774   4.687   4.488  1.0497  0.4410  2.0139
 8921SOL     OW38395   2.965   3.408   7.933  0.0522 -0.1472  0.0489
 8921SOL    HW138396   2.973   3.458   7.852 -1.2360 -0.1866 -0.1029
 8921SOL    HW238397   3.016   3.450   8.002 -0.2377 -1.8391  1.3066
 8922SOL     OW38398   3.960   0.396   4.314  0.2221  0.2644  0.1841
 8922SOL    HW138399   3.867   0.382   4.295  0.0754  1.8890 -0.2819
 8922SOL    HW238400   3.966   0.353   4.399 -3.3089 -1.5955 -0.5161
 8923SOL     OW38401   3.964   0.164   5.507 -0.3007 -0.0645  0.0997
 8923SOL    HW138402   3.945   0.247   5.463  1.5318  1.2754  1.8547
 8923SOL    HW238403   4.057   0.183   5.519 -1.1827  2.9117  2.3275
 8924SOL     OW38404   2.576   0.804   3.569 -0.0739  0.3808  0.9519
 8924SOL    HW138405   2.483   0.811   3.546 -0.1730 -2.7412  0.3797
 8924SOL    HW238406   2.619   0.803   3.484 -0.9816 -0.9695  0.4962
 8925SOL     OW38407   4.589   2.885   5.597 -0.3608 -0.1796  0.1932
 8925SOL    HW138408   4.641   2.856   5.523  1.0753 -0.5134  1.3358
 8925SOL    HW238409   4.582   2.804   5.649 -1.9715  1.5268  2.6559
 8926SOL     OW38410   0.103   3.697  14.249  0.4961 -0.0067  0.5709
 8926SOL    HW138411   0.040   3.760  14.216  0.9390  0.3518  0.4164
 8926SOL    HW238412   0.151   3.690  14.166 -1.9151  2.0877 -0.9848
 8927SOL     OW38413   1.715   2.712   8.368  0.1587 -0.0154 -0.0010
 8927SOL    HW138414   1.680   2.706   8.457 -0.3316  1.1071 -0.1143
 8927SOL    HW238415   1.748   2.624   8.352 -0.1047  0.3515 -2.7181
 8928SOL     OW38416   2.553   0.962   8.675 -0.3697 -0.0003  0.2060
 8928SOL    HW138417   2.482   0.906   8.643 -0.5812  0.4597 -0.1351
 8928SOL    HW238418   2.625   0.951   8.613 -0.9923  0.7803 -0.6498
 8929SOL     OW38419   1.894   4.225  14.786 -0.6198  0.3138  0.0659
 8929SOL    HW138420   1.808   4.192  14.812 -0.9317  0.3083 -0.9686
 8929SOL    HW238421   1.865   4.287  14.718  0.0095 -0.1363 -0.6103
 8930SOL     OW38422   0.675   0.262   6.700 -0.0515 -0.4055  0.2585
 8930SOL    HW138423   0.749   0.296   6.751  1.4875 -0.4714 -1.9393
 8930SOL    HW238424   0.703   0.172   6.686 -1.8294 -0.6486 -1.6578
 8931SOL     OW38425   0.742   0.364   9.418  0.2744  0.1174  0.8578
 8931SOL    HW138426   0.794   0.373   9.498 -2.6134  0.3067  2.7047
 8931SOL    HW238427   0.789   0.400   9.343 -0.6530 -0.1542  0.1447
 8932SOL     OW38428   4.366   3.008  17.650 -0.6313 -0.4155  0.2252
 8932SOL    HW138429   4.423   3.047  17.716  1.8267 -0.5932 -1.8194
 8932SOL    HW238430   4.280   3.030  17.686 -0.7371 -0.8551  0.2340
 8933SOL     OW38431   4.155   0.763   9.884 -0.0267  0.0404  0.0232
 8933SOL    HW138432   4.075   0.758   9.832 -0.9139  1.3521  1.2631
 8933SOL    HW238433   4.135   0.850   9.918 -1.0668  0.9184 -2.7701
 8934SOL     OW38434   0.730   2.033   2.528  0.1027 -0.4937 -0.4469
 8934SOL    HW138435   0.719   1.938   2.539 -0.2402 -0.3414  0.5676
 8934SOL    HW238436   0.772   2.036   2.443  3.2434  2.2531  1.2115
 8935SOL     OW38437   0.442   0.744   6.325  0.4490 -0.3381 -0.5443
 8935SOL    HW138438   0.480   0.804   6.261  1.5388 -2.0986 -1.5555
 8935SOL    HW238439   0.433   0.662   6.276 -0.5226 -1.6653  1.8180
 8936SOL     OW38440   3.713   0.716   8.149 -0.8274 -0.3924 -0.1672
 8936SOL    HW138441   3.703   0.633   8.197 -0.5759  0.1442  0.8162
 8936SOL    HW238442   3.806   0.735   8.158 -1.2809  2.5618 -1.7397
 8937SOL     OW38443   4.278   4.334   4.993 -0.6433  0.1120  0.1548
 8937SOL    HW138444   4.333   4.262   5.024  0.8067  1.8992  1.7550
 8937SOL    HW238445   4.340   4.406   4.980 -0.3578 -0.0776  0.4809
 8938SOL     OW38446   2.272   4.543   1.750  0.2154  0.3382 -0.0779
 8938SOL    HW138447   2.274   4.601   1.827  1.4199 -0.2751  0.3492
 8938SOL    HW238448   2.181   4.534   1.722  0.1874  0.9388 -0.1926
 8939SOL     OW38449   1.244   1.545   2.784 -0.6654 -0.1360 -0.3946
 8939SOL    HW138450   1.333   1.511   2.779 -0.3991  0.3497  1.0818
 8939SOL    HW238451   1.263   1.634   2.811  1.4176 -0.2127 -1.6304
 8940SOL     OW38452   4.024   2.320   9.002 -0.1567  0.4106 -0.1924
 8940SOL    HW138453   3.977   2.381   9.059 -0.8149 -0.5328  0.2712
 8940SOL    HW238454   3.952   2.260   8.981 -0.0571 -0.3901  1.8439
 8941SOL     OW38455   0.354   1.913   2.324 -0.3300 -0.4728  0.5612
 8941SOL    HW138456   0.415   1.960   2.381 -0.1859 -1.1110  0.9330
 8941SOL    HW238457   0.362   1.969   2.247  0.3384  1.7436  2.2142
 8942SOL     OW38458   0.021   2.001  12.493  0.2816 -0.3413  0.1395
 8942SOL    HW138459   0.025   1.940  12.566 -0.3239 -1.1796 -0.5368
 8942SOL    HW238460   0.076   2.073  12.524  0.4115 -0.9018  1.1834
 8943SOL     OW38461   1.301   4.358   3.335 -1.0543 -0.5894 -0.4294
 8943SOL    HW138462   1.319   4.423   3.403  1.3362  0.8918 -2.4616
 8943SOL    HW238463   1.236   4.403   3.282 -0.4129 -2.4596 -2.7897
 8944SOL     OW38464   3.855   0.453  11.688  0.1623  0.3882  0.5374
 8944SOL    HW138465   3.803   0.373  11.680  0.7618 -0.1200  1.7544
 8944SOL    HW238466   3.856   0.498  11.603  0.5239 -0.5655  0.0403
 8945SOL     OW38467   2.877   2.332   0.494 -0.0617  0.3491 -0.1316
 8945SOL    HW138468   2.782   2.336   0.510  0.0320  1.3058  0.2125
 8945SOL    HW238469   2.876   2.357   0.401  1.4041  1.9743  0.2873
 8946SOL     OW38470   4.164   2.999   2.701  0.5375 -0.4634 -0.0347
 8946SOL    HW138471   4.090   3.060   2.696 -0.5827 -1.8629 -0.4100
 8946SOL    HW238472   4.168   2.954   2.617  1.3597 -0.2466 -0.1161
 8947SOL     OW38473   2.722   4.306   8.733  0.1780 -0.3038  0.2143
 8947SOL    HW138474   2.777   4.313   8.656 -0.6018  2.9124 -0.0272
 8947SOL    HW238475   2.635   4.328   8.699 -0.9189 -2.7152  1.4313
 8948SOL     OW38476   4.299   0.195   3.681 -0.0049 -0.1288 -0.4126
 8948SOL    HW138477   4.370   0.246   3.721 -1.0884  1.5792 -0.6238
 8948SOL    HW238478   4.328   0.174   3.593  0.2444  0.1955 -0.4071
 8949SOL     OW38479   3.234   3.618  12.038 -0.7466 -0.8542 -0.3039
 8949SOL    HW138480   3.299   3.669  11.990  0.5905 -0.9567  1.3607
 8949SOL    HW238481   3.182   3.576  11.970 -1.0657  0.2448 -0.7377
 8950SOL     OW38482   1.543   3.091   5.400 -0.1481 -0.2418  0.2829
 8950SOL    HW138483   1.605   3.155   5.365 -0.7021 -1.2061 -2.3976
 8950SOL    HW238484   1.609   3.031   5.434  0.1120  0.4904  1.0888
 8951SOL     OW38485   0.583   2.573   3.463 -0.1140  0.3190  0.3254
 8951SOL    HW138486   0.567   2.485   3.429  0.3544 -0.1382  1.2916
 8951SOL    HW238487   0.556   2.568   3.554 -0.5595 -1.4491  0.0946
 8952SOL     OW38488   3.314   4.445   7.202 -0.3724 -0.4083  0.4204
 8952SOL    HW138489   3.225   4.454   7.236  0.4318 -0.8642  2.6389
 8952SOL    HW238490   3.350   4.532   7.221 -0.3130 -0.2736 -0.2827
 8953SOL     OW38491   4.600   0.963   0.606  0.1426  0.1006  0.6261
 8953SOL    HW138492   4.592   0.981   0.700  0.9321 -0.4235  0.7956
 8953SOL    HW238493   4.509   0.957   0.575  0.5553 -2.9051  0.0001
 8954SOL     OW38494   1.021   0.322   3.022 -0.6224 -1.1096  0.1799
 8954SOL    HW138495   0.959   0.258   3.058  0.1384 -2.1978 -0.4463
 8954SOL    HW238496   0.959   0.385   2.986 -0.1991 -1.5758 -1.3422
 8955SOL     OW38497   0.316   3.863   7.477 -0.2230  0.2554 -0.2617
 8955SOL    HW138498   0.360   3.796   7.426  2.4580  0.7484  1.4177
 8955SOL    HW238499   0.247   3.882   7.414 -1.3445  0.6232  1.0620
 8956SOL     OW38500   2.164   4.430   3.566  0.6847 -0.3774  0.1571
 8956SOL    HW138501   2.145   4.386   3.649  0.4064 -1.2818 -0.3818
 8956SOL    HW238502   2.102   4.391   3.504 -1.3227 -0.8811  2.4892
 8957SOL     OW38503   4.630   1.808   8.520 -0.0529 -0.8073 -0.4796
 8957SOL    HW138504   4.605   1.901   8.522  0.6839 -0.6686  3.1227
 8957SOL    HW238505   4.572   1.786   8.448  0.2766 -2.2071 -0.3042
 8958SOL     OW38506   3.984   0.558   9.285  0.4448 -0.6739 -0.2585
 8958SOL    HW138507   4.012   0.498   9.354  2.0066  1.6160  1.1174
 8958SOL    HW238508   4.067   0.591   9.251 -0.8291  0.9597 -1.7506
 8959SOL     OW38509   1.855   3.510  16.923  0.3969  0.4123 -0.7659
 8959SOL    HW138510   1.773   3.462  16.911  1.0473 -0.8888  0.1159
 8959SOL    HW238511   1.859   3.558  16.840 -0.9350 -0.0468 -1.0918
 8960SOL     OW38512   2.779   2.090   5.013 -0.3145 -0.5386  0.4043
 8960SOL    HW138513   2.789   2.118   4.922  0.4075  1.1066  0.9838
 8960SOL    HW238514   2.844   2.145   5.056  1.3801 -1.6620 -0.7266
 8961SOL     OW38515   2.782   1.449   9.506 -0.2681  0.2766 -0.3772
 8961SOL    HW138516   2.793   1.425   9.599 -2.4914 -0.8796 -0.3925
 8961SOL    HW238517   2.719   1.521   9.505 -0.9674 -0.2915  1.0102
 8962SOL     OW38518   1.865   0.895   2.574 -0.5716 -0.5753 -0.2459
 8962SOL    HW138519   1.879   0.890   2.480 -0.1386 -0.4792 -0.1858
 8962SOL    HW238520   1.887   0.806   2.601  0.0066  0.8114  3.9020
 8963SOL     OW38521   0.483   2.471   5.002  0.2432 -0.5355  0.1777
 8963SOL    HW138522   0.469   2.399   4.940 -1.7751 -1.5891  1.8668
 8963SOL    HW238523   0.535   2.428   5.070 -1.0417 -1.5731  0.5040
 8964SOL     OW38524   0.795   4.312  12.367 -0.4156  0.1842 -0.2933
 8964SOL    HW138525   0.782   4.406  12.350 -0.9040  0.2147  0.2504
 8964SOL    HW238526   0.884   4.301  12.334 -0.0666 -0.2435  0.8069
 8965SOL     OW38527   4.280   1.680   6.552 -0.0730  0.4130 -0.1407
 8965SOL    HW138528   4.232   1.600   6.529 -2.4722  2.1274 -1.0716
 8965SOL    HW238529   4.213   1.749   6.559 -0.9194 -0.0730 -3.1467
 8966SOL     OW38530   4.382   2.358   2.875 -0.4226  0.3166  0.1999
 8966SOL    HW138531   4.342   2.301   2.809 -1.4072  2.2906 -0.8943
 8966SOL    HW238532   4.399   2.432   2.818 -1.2338 -0.7230 -1.3725
 8967SOL     OW38533   1.431   3.780   8.555 -0.3459 -0.1277  0.2515
 8967SOL    HW138534   1.358   3.725   8.584 -0.0039 -1.9601 -2.4289
 8967SOL    HW238535   1.457   3.738   8.474  0.4250 -1.8854  1.4097
 8968SOL     OW38536   3.513   0.911   5.552 -0.4823 -0.0226 -0.0867
 8968SOL    HW138537   3.438   0.925   5.610 -0.4403 -0.1665  0.0002
 8968SOL    HW238538   3.568   0.985   5.580  2.1878 -1.4263 -1.6132
 8969SOL     OW38539   3.047   4.647   5.751 -0.5581 -0.1758 -0.0644
 8969SOL    HW138540   3.081   4.558   5.759 -0.4333  0.0195  1.5644
 8969SOL    HW238541   2.959   4.643   5.787 -0.3227  0.2608  0.5637
 8970SOL     OW38542   4.056   4.522   9.871 -0.2354 -0.1725  0.0810
 8970SOL    HW138543   4.132   4.469   9.896  0.2215  0.3867 -0.0987
 8970SOL    HW238544   3.987   4.497   9.932  0.4093 -0.5382  0.6591
 8971SOL     OW38545   0.869   2.988   8.743 -0.1040 -0.8047 -0.4797
 8971SOL    HW138546   0.789   2.965   8.695  0.5550 -1.6535 -1.1601
 8971SOL    HW238547   0.857   2.927   8.815  0.7145 -1.5950 -1.0130
 8972SOL     OW38548   3.046   1.942   2.308 -0.1491  0.2057 -0.2704
 8972SOL    HW138549   3.070   1.871   2.249 -1.7152 -0.3054 -0.3052
 8972SOL    HW238550   3.110   1.935   2.378 -0.9736 -2.0547  0.2442
 8973SOL     OW38551   2.711   2.321   3.451  0.6671 -0.8644 -0.3678
 8973SOL    HW138552   2.624   2.325   3.410  0.5698 -0.1579 -0.0897
 8973SOL    HW238553   2.762   2.294   3.374 -1.3462 -2.5274 -1.1301
 8974SOL     OW38554   3.327   2.634   4.054  0.2764  0.0509  0.0038
 8974SOL    HW138555   3.283   2.687   4.121  1.5999  0.7743  0.2976
 8974SOL    HW238556   3.255   2.596   4.003  0.7256  0.0303 -0.6229
 8975SOL     OW38557   2.678   3.265  11.825  0.0262  0.1652  0.1619
 8975SOL    HW138558   2.607   3.244  11.885  0.7536 -0.5886  0.7549
 8975SOL    HW238559   2.720   3.181  11.808  1.2137  0.5282  1.3348
 8976SOL     OW38560   2.869   4.108   6.862  0.2881  0.4952  0.5798
 8976SOL    HW138561   2.782   4.078   6.889  0.6241  1.3048  2.5499
 8976SOL    HW238562   2.844   4.196   6.834  0.7506  1.0240  1.8278
 8977SOL     OW38563   2.680   0.048   6.363  0.0658  0.2235  0.1400
 8977SOL    HW138564   2.598   0.003   6.379  0.7589 -1.0751  0.0814
 8977SOL    HW238565   2.660   0.139   6.386 -2.2875  0.0463 -1.2675
 8978SOL     OW38566   0.466   0.380  10.632  0.8088  0.1051  0.0212
 8978SOL    HW138567   0.399   0.367  10.564  1.1079  1.1541 -0.4650
 8978SOL    HW238568   0.417   0.386  10.713 -0.1880 -1.9649 -0.4350
 8979SOL     OW38569   3.085   4.559   2.652 -0.0102  0.0418  0.2270
 8979SOL    HW138570   3.078   4.534   2.560  0.9741  1.4122 -0.2244
 8979SOL    HW238571   3.034   4.492   2.698 -0.4522  2.5541  3.3903
 8980SOL     OW38572   2.540   0.504   2.584  0.0343  0.9440 -0.9218
 8980SOL    HW138573   2.489   0.426   2.559 -0.4210  0.8765  0.2313
 8980SOL    HW238574   2.615   0.462   2.626 -0.9138  1.9584  1.7250
 8981SOL     OW38575   2.561   1.424  15.799  0.0520  0.0704 -0.1892
 8981SOL    HW138576   2.593   1.336  15.780 -2.0720 -0.8859  0.7972
 8981SOL    HW238577   2.548   1.459  15.710  2.0455 -3.5236 -1.9197
 8982SOL     OW38578   1.761   2.639   0.686  0.8001  0.1564  0.0499
 8982SOL    HW138579   1.777   2.728   0.717  0.7196  0.0010  0.5288
 8982SOL    HW238580   1.758   2.584   0.764  1.8784  0.4359  0.2882
 8983SOL     OW38581   3.855   1.448   0.439 -0.2332 -0.0285 -0.1331
 8983SOL    HW138582   3.822   1.441   0.349 -0.0623  1.5410 -0.3218
 8983SOL    HW238583   3.949   1.468   0.432 -1.0576  3.8907 -0.2535
 8984SOL     OW38584   4.055   2.343  16.996 -1.0338  0.2678 -1.2037
 8984SOL    HW138585   3.974   2.300  17.024 -0.9786  0.5799 -0.5569
 8984SOL    HW238586   4.043   2.426  17.043  0.9800 -0.7978  1.1913
 8985SOL     OW38587   1.667   3.769   0.371 -0.4679 -0.1901  0.1141
 8985SOL    HW138588   1.762   3.765   0.370 -0.4688 -0.1178 -0.9751
 8985SOL    HW238589   1.654   3.811   0.456  1.8318  1.0955 -0.1979
 8986SOL     OW38590   0.141   0.716   3.172 -0.6385  0.3871 -0.0172
 8986SOL    HW138591   0.140   0.756   3.259 -1.4840  1.8440 -0.6966
 8986SOL    HW238592   0.136   0.623   3.193 -0.4138  0.1110 -1.1994
 8987SOL     OW38593   0.487   3.558  14.478 -0.6597  1.1074  0.3456
 8987SOL    HW138594   0.430   3.500  14.529 -0.3725 -1.3131 -2.0859
 8987SOL    HW238595   0.475   3.519  14.391  0.6168 -2.0427  1.6008
 8988SOL     OW38596   4.014   1.814   8.105  0.0660 -0.2008 -0.3596
 8988SOL    HW138597   3.975   1.835   8.020 -1.1231  0.5320  0.3678
 8988SOL    HW238598   3.963   1.739   8.135  0.1632  0.3561  1.1917
 8989SOL     OW38599   3.599   0.557   7.204 -0.0774 -0.1799  0.2253
 8989SOL    HW138600   3.612   0.596   7.118 -1.2630  1.4871  0.8150
 8989SOL    HW238601   3.515   0.512   7.197 -0.9114  1.2898  0.8238
 8990SOL     OW38602   1.383   2.579   2.329 -0.0358 -0.6497  0.2883
 8990SOL    HW138603   1.366   2.499   2.378 -0.1116 -0.4940  0.5109
 8990SOL    HW238604   1.428   2.540   2.253 -0.9076 -0.9147 -0.0929
 8991SOL     OW38605   2.956   4.036  12.044  0.3408 -0.1509  0.1169
 8991SOL    HW138606   2.985   3.956  12.086  1.0843 -0.3487 -0.7684
 8991SOL    HW238607   3.037   4.084  12.027  0.6041  0.1937  2.3655
 8992SOL     OW38608   2.378   3.257   5.598 -0.5123 -0.1267  0.3209
 8992SOL    HW138609   2.315   3.234   5.529  0.0096  1.6503 -0.7466
 8992SOL    HW238610   2.388   3.351   5.587  1.4989 -0.2386  1.2133
 8993SOL     OW38611   4.679   4.523   5.413 -0.2425  0.0524 -0.1218
 8993SOL    HW138612   4.716   4.509   5.500 -0.9021 -1.8833 -0.1707
 8993SOL    HW238613   4.730   4.464   5.357 -0.0435 -1.0682  1.2634
 8994SOL     OW38614   3.901   4.486   8.821 -0.3555  0.1138  0.5511
 8994SOL    HW138615   3.953   4.438   8.886  0.7099  1.5999  0.7903
 8994SOL    HW238616   3.843   4.537   8.876  0.2916  1.2543  0.1725
 8995SOL     OW38617   0.494   4.602  11.583  0.3135 -0.2720  0.1847
 8995SOL    HW138618   0.518   4.513  11.610  0.1838 -0.3871 -0.0785
 8995SOL    HW238619   0.550   4.666  11.628  1.7895 -1.0672 -0.5171
 8996SOL     OW38620   1.654   2.719   4.604  0.0408  0.6014 -0.0703
 8996SOL    HW138621   1.611   2.762   4.677 -0.7662 -2.1167  1.0653
 8996SOL    HW238622   1.676   2.792   4.546  0.2772  0.9323  0.4487
 8997SOL     OW38623   1.993   0.014   5.775  0.1546  0.4037 -0.0187
 8997SOL    HW138624   2.016   0.088   5.719  0.7379 -0.0735 -0.4020
 8997SOL    HW238625   2.074   4.717   5.815  0.4915  0.1383 -0.9089
 8998SOL     OW38626   3.446   1.838   8.895 -0.1726  0.4077 -0.0563
 8998SOL    HW138627   3.469   1.806   8.982  0.2515  1.1110  0.0878
 8998SOL    HW238628   3.351   1.849   8.902 -0.3824  0.1109 -2.3698
 8999SOL     OW38629   1.559   1.005  15.496 -0.1167  0.1591  0.5139
 8999SOL    HW138630   1.628   0.948  15.530  0.0075  0.4941  0.8181
 8999SOL    HW238631   1.585   1.029  15.407 -0.9719 -0.8494 -0.0093
 9000SOL     OW38632   2.236   0.757   5.353 -0.2700 -1.1786  0.0738
 9000SOL    HW138633   2.296   0.792   5.288 -0.5934  2.0570  1.5253
 9000SOL    HW238634   2.221   0.837   5.404 -0.1186 -0.3864 -1.1253
 9001SOL     OW38635   3.322   1.695   2.295 -0.2188 -0.4093  0.6411
 9001SOL    HW138636   3.330   1.740   2.211  2.6774 -1.8204  0.1622
 9001SOL    HW238637   3.410   1.662   2.312 -0.2629 -0.6638  0.3792
 9002SOL     OW38638   3.471   0.882  13.446 -0.4086  0.1380  0.2970
 9002SOL    HW138639   3.417   0.804  13.461 -1.7323  1.4722  2.4590
 9002SOL    HW238640   3.427   0.941  13.507 -1.1763 -1.0220  0.8534
 9003SOL     OW38641   0.841   0.705   3.087  0.1929  0.6053 -0.1700
 9003SOL    HW138642   0.912   0.715   3.151 -1.9183  0.0813  2.2457
 9003SOL    HW238643   0.796   0.790   3.085  0.0880  0.5567  0.2023
 9004SOL     OW38644   4.004   0.268   4.840 -0.0702  0.1976  0.4634
 9004SOL    HW138645   3.973   0.355   4.814  1.1284  0.4851 -0.0266
 9004SOL    HW238646   4.061   0.304   4.908  1.6236 -0.6111 -0.5191
 9005SOL     OW38647   3.015   1.529   1.951  0.1910  0.1902 -0.2318
 9005SOL    HW138648   3.087   1.513   1.891  1.1117  2.5000  0.2678
 9005SOL    HW238649   2.946   1.471   1.917  0.8778 -0.1181 -1.0827
 9006SOL     OW38650   2.805   4.296   4.378  0.8925 -0.5343 -0.2070
 9006SOL    HW138651   2.837   4.303   4.288  0.5560  2.3572 -0.1094
 9006SOL    HW238652   2.773   4.206   4.382 -0.7856  0.0522 -0.4147
 9007SOL     OW38653   0.283   0.273  17.182 -0.0370  0.2087 -0.2105
 9007SOL    HW138654   0.286   0.355  17.134 -1.9887 -0.3694 -1.3418
 9007SOL    HW238655   0.193   0.276  17.216 -1.2182 -1.0259 -3.2415
 9008SOL     OW38656   0.995   4.364   1.481 -0.2250  0.1012  0.2578
 9008SOL    HW138657   0.957   4.337   1.397 -1.1644  1.1882  0.3369
 9008SOL    HW238658   1.006   4.282   1.529 -0.5987  0.9048  1.7022
 9009SOL     OW38659   3.285   4.202   2.993  0.6634 -0.1198  0.2430
 9009SOL    HW138660   3.260   4.284   2.951  1.2778 -0.3325 -0.5525
 9009SOL    HW238661   3.370   4.183   2.953  0.6951 -1.2766  0.8620
 9010SOL     OW38662   3.884   1.787  12.905 -0.2864 -0.3952  0.3725
 9010SOL    HW138663   3.848   1.842  12.975 -0.9740 -0.3669 -0.0045
 9010SOL    HW238664   3.857   1.839  12.829 -1.5627 -3.3233 -1.1673
 9011SOL     OW38665   1.446   3.503   3.359 -0.5604 -0.0167  0.7724
 9011SOL    HW138666   1.496   3.528   3.281  0.7716 -0.8844  1.3472
 9011SOL    HW238667   1.403   3.424   3.326  1.2681 -0.6550 -0.0650
 9012SOL     OW38668   1.775   4.355   4.726  0.3574  0.0407  0.0956
 9012SOL    HW138669   1.799   4.431   4.673 -0.6391 -0.8213 -1.5817
 9012SOL    HW238670   1.782   4.290   4.657 -0.5355 -2.6269  2.5333
 9013SOL     OW38671   1.683   1.939   6.488 -0.2113  0.5354  0.7045
 9013SOL    HW138672   1.688   1.851   6.451 -1.4876  1.2638 -1.2054
 9013SOL    HW238673   1.768   1.940   6.531  0.4662  1.1828 -0.6253
 9014SOL     OW38674   1.533   0.323  16.607  0.1298  0.3090  0.1112
 9014SOL    HW138675   1.511   0.329  16.514 -0.6800 -0.9980  0.2187
 9014SOL    HW238676   1.564   0.234  16.621 -0.3175 -0.0049 -0.8733
 9015SOL     OW38677   4.653   1.321   2.238  0.0036 -0.3818  0.0629
 9015SOL    HW138678   4.731   1.303   2.185 -0.2903 -0.1974 -0.4271
 9015SOL    HW238679   4.605   1.239   2.229 -0.3340 -0.2262  0.4576
 9016SOL     OW38680   1.318   0.975  13.140 -0.2043 -0.5645  0.1137
 9016SOL    HW138681   1.340   0.988  13.048 -0.7130  1.0521  0.2208
 9016SOL    HW238682   1.223   0.989  13.138  0.1580  1.9453  1.1475
 9017SOL     OW38683   1.035   2.200   7.301 -0.7003  0.3464  0.0432
 9017SOL    HW138684   0.960   2.192   7.243 -1.2238  1.9326  0.5131
 9017SOL    HW238685   1.112   2.183   7.246 -0.8564  0.4471 -0.2026
 9018SOL     OW38686   4.361   4.698   9.550 -0.4206 -0.4472  0.3032
 9018SOL    HW138687   4.455   4.690   9.533  0.0124  2.7556  1.1937
 9018SOL    HW238688   4.351   0.015   9.631 -3.8356 -0.8851  0.1672
 9019SOL     OW38689   2.786   3.944   7.333 -0.3630 -0.1090 -0.1589
 9019SOL    HW138690   2.791   3.942   7.429  1.4954 -0.5252 -0.2660
 9019SOL    HW238691   2.769   3.857   7.298 -0.8961  0.2313 -0.7368
 9020SOL     OW38692   2.746   2.885  11.896  0.6623 -0.3730 -0.4685
 9020SOL    HW138693   2.676   2.902  11.959  0.5650 -1.4627 -0.2966
 9020SOL    HW238694   2.828   2.894  11.945 -0.5120  2.8264  0.9468
 9021SOL     OW38695   2.932   0.800   1.959  0.4325 -0.0546  0.4159
 9021SOL    HW138696   2.859   0.833   1.906  1.0270  1.4941  0.5906
 9021SOL    HW238697   2.974   0.735   1.903 -2.6590 -0.5708 -1.3560
 9022SOL     OW38698   0.032   0.933  14.574  0.3310 -0.3058 -0.2336
 9022SOL    HW138699   4.702   0.998  14.602  0.4280 -0.6230  0.7309
 9022SOL    HW238700   0.112   0.978  14.549  0.5688  1.3403  3.4865
 9023SOL     OW38701   1.674   3.078  11.850 -0.4147  0.3669  0.2339
 9023SOL    HW138702   1.668   2.985  11.873  1.3148  0.3772  0.7337
 9023SOL    HW238703   1.585   3.105  11.871 -0.1841  1.3924 -0.1153
 9024SOL     OW38704   2.272   0.736   5.045  0.4197  0.3947 -0.5673
 9024SOL    HW138705   2.294   0.687   4.965  0.3093 -1.0823  0.2981
 9024SOL    HW238706   2.340   0.802   5.055  0.0427  0.7081 -0.1090
 9025SOL     OW38707   3.260   4.353   5.511  0.2748 -0.1470 -0.6276
 9025SOL    HW138708   3.255   4.387   5.422  1.5361  0.3041 -0.5284
 9025SOL    HW238709   3.354   4.371   5.503 -0.0821  1.7894 -0.4646
 9026SOL     OW38710   2.508   0.377   1.007 -0.2396 -0.5645 -0.0362
 9026SOL    HW138711   2.504   0.293   1.053 -1.6978 -1.0119 -1.0094
 9026SOL    HW238712   2.504   0.357   0.914  2.6038  1.0228 -0.5121
 9027SOL     OW38713   3.241   4.217  12.613  0.2136  0.1727  0.0322
 9027SOL    HW138714   3.155   4.205  12.654 -0.5837  2.1522 -1.0791
 9027SOL    HW238715   3.297   4.173  12.677  0.4088 -4.3805 -3.2556
 9028SOL     OW38716   2.015   2.097  12.974  0.0569 -0.0883 -0.0227
 9028SOL    HW138717   1.988   2.059  13.058 -1.0035 -0.0923 -0.3592
 9028SOL    HW238718   1.996   2.191  12.979  0.5223 -0.1248  2.2520
 9029SOL     OW38719   0.346   4.193   7.899 -0.1796  0.1216 -0.4449
 9029SOL    HW138720   0.418   4.233   7.850  1.2703 -0.8944  0.8403
 9029SOL    HW238721   0.357   4.104   7.865  0.9763 -0.3345  1.1468
 9030SOL     OW38722   0.742   4.156   6.060 -0.1313 -0.1756 -0.3011
 9030SOL    HW138723   0.699   4.200   5.987 -0.2082 -0.7135 -0.5861
 9030SOL    HW238724   0.685   4.196   6.125 -1.1997 -2.1668  0.0127
 9031SOL     OW38725   1.225   4.142   3.921  0.2834 -0.1175 -0.0489
 9031SOL    HW138726   1.238   4.078   3.851 -0.9638  0.8571 -1.1919
 9031SOL    HW238727   1.168   4.202   3.872 -1.0496 -0.2012  1.4352
 9032SOL     OW38728   3.150   0.056   3.835  0.4157 -0.2063 -0.1450
 9032SOL    HW138729   3.240   0.085   3.853  0.1118 -0.9627  2.6325
 9032SOL    HW238730   3.154   4.711   3.888  2.5909 -0.3769 -0.5431
 9033SOL     OW38731   1.498   3.729   2.230 -0.6846  0.2645  0.8573
 9033SOL    HW138732   1.407   3.698   2.227 -1.1631  1.7736 -0.6911
 9033SOL    HW238733   1.501   3.807   2.285  0.4854 -0.7909  2.2797
 9034SOL     OW38734   1.418   4.720   5.480 -0.2393  0.3431 -0.1356
 9034SOL    HW138735   1.374   4.729   5.565  0.9508 -0.6171  0.5753
 9034SOL    HW238736   1.344   4.729   5.419 -1.7381  0.4466  1.7010
 9035SOL     OW38737   2.579   3.936   1.838 -0.6977  0.5954 -0.0816
 9035SOL    HW138738   2.499   3.904   1.879  0.2971 -1.3797  0.3325
 9035SOL    HW238739   2.634   3.873   1.884  0.6126  1.8225  0.0534
 9036SOL     OW38740   0.182   3.457   1.070 -0.1983 -0.0589 -0.2311
 9036SOL    HW138741   0.264   3.491   1.106 -1.0792  0.7263  1.0539
 9036SOL    HW238742   0.130   3.538   1.067 -0.6709 -0.3840 -0.8355
 9037SOL     OW38743   3.935   4.599   6.058 -0.4362  0.4513 -0.4560
 9037SOL    HW138744   3.916   4.573   5.968 -1.2161  1.7682 -0.6670
 9037SOL    HW238745   3.856   4.649   6.077 -1.7404 -1.9459  0.3941
 9038SOL     OW38746   3.422   3.156   3.153 -0.1162  0.6063 -0.1042
 9038SOL    HW138747   3.501   3.205   3.174 -0.7308  1.3640  0.4590
 9038SOL    HW238748   3.433   3.150   3.058  1.4594  0.0189  0.1265
 9039SOL     OW38749   3.548   1.222   7.713 -0.0612  0.4294 -0.6942
 9039SOL    HW138750   3.641   1.206   7.728 -0.2238 -0.7567 -0.9959
 9039SOL    HW238751   3.532   1.243   7.805  1.0331 -0.2241 -0.3595
 9040SOL     OW38752   2.485   0.721   0.828  0.4883  0.3133 -0.0825
 9040SOL    HW138753   2.505   0.669   0.906  0.4189 -0.2666 -0.4579
 9040SOL    HW238754   2.421   0.664   0.788  0.6810  0.6664 -0.8873
 9041SOL     OW38755   1.028   0.316   0.709  0.0680 -1.0898  0.6543
 9041SOL    HW138756   1.074   0.392   0.744 -0.7574 -0.0408 -0.5509
 9041SOL    HW238757   0.952   0.332   0.765  1.0320 -0.1085  1.6649
 9042SOL     OW38758   1.599   4.151   8.666  0.0273  0.2487 -0.6263
 9042SOL    HW138759   1.652   4.190   8.735 -0.0974  0.3299 -0.5766
 9042SOL    HW238760   1.567   4.230   8.622  1.2104  1.5321  0.8337
 9043SOL     OW38761   4.526   4.717  17.734  0.3407  0.1252  0.3166
 9043SOL    HW138762   4.610   4.676  17.713  1.0441  1.1320  1.1179
 9043SOL    HW238763   4.552   0.061   0.044 -1.2940 -0.1792  1.7293
 9044SOL     OW38764   3.620   0.519   5.431 -0.4410  0.2896  0.6270
 9044SOL    HW138765   3.599   0.478   5.515  0.0840 -1.3670 -0.0553
 9044SOL    HW238766   3.590   0.445   5.378 -2.9217  1.9221 -0.2546
 9045SOL     OW38767   0.458   4.084   7.286  0.1885  0.5509  0.1659
 9045SOL    HW138768   0.467   4.017   7.354 -1.1144  0.1797 -0.0255
 9045SOL    HW238769   0.375   4.049   7.255 -0.5978  1.8141  0.8133
 9046SOL     OW38770   0.141   2.839   5.920 -0.3854 -0.2202 -0.4073
 9046SOL    HW138771   0.141   2.906   5.988 -2.3759  0.3639 -0.9973
 9046SOL    HW238772   0.110   2.756   5.958 -1.0345 -0.3197 -1.1502
 9047SOL     OW38773   4.322   0.503   5.499  0.7270 -0.3632 -0.0168
 9047SOL    HW138774   4.310   0.581   5.553 -1.9258 -1.2534  0.6720
 9047SOL    HW238775   4.356   0.546   5.420  0.1774  0.9940  0.4875
 9048SOL     OW38776   0.575   2.273   1.106 -0.0216  0.2229 -0.0132
 9048SOL    HW138777   0.521   2.312   1.174 -0.9185  0.8952 -1.1208
 9048SOL    HW238778   0.663   2.290   1.139 -0.3732 -1.5779  1.8503
 9049SOL     OW38779   1.505   3.937   4.053 -0.1211 -0.0110  0.4645
 9049SOL    HW138780   1.516   3.868   3.987 -0.9999  1.5377 -1.3169
 9049SOL    HW238781   1.588   3.980   4.033 -1.7987  2.2327 -1.6641
 9050SOL     OW38782   4.269   1.119   6.474  0.2653 -0.1865  0.1434
 9050SOL    HW138783   4.180   1.107   6.507  0.2299 -1.2344 -0.3174
 9050SOL    HW238784   4.245   1.192   6.417 -1.9517  0.4364  1.8820
 9051SOL     OW38785   0.163   0.935   2.824 -0.3186 -0.2850 -0.2380
 9051SOL    HW138786   0.169   1.028   2.849 -1.7471  0.2559 -1.9727
 9051SOL    HW238787   0.255   0.908   2.824 -0.3110 -0.2494  2.0004
 9052SOL     OW38788   3.654   2.425   6.688  0.7341  0.2365  0.3190
 9052SOL    HW138789   3.652   2.344   6.739  1.1418 -0.1843 -0.3237
 9052SOL    HW238790   3.563   2.455   6.690  0.8171  0.5870 -1.1391
 9053SOL     OW38791   2.159   1.440  14.269  0.0386 -0.1862 -0.1353
 9053SOL    HW138792   2.213   1.410  14.342  0.2617 -0.8068 -0.5551
 9053SOL    HW238793   2.083   1.382  14.264 -0.3481  0.1466  1.9067
 9054SOL     OW38794   0.326   3.005   6.069 -0.1656 -0.6839 -0.2497
 9054SOL    HW138795   0.290   3.047   5.991 -0.5739  1.4095  1.0764
 9054SOL    HW238796   0.405   2.963   6.035 -0.3517 -2.8514  1.9662
 9055SOL     OW38797   0.804   4.537   3.518  0.3591 -0.5291 -0.0399
 9055SOL    HW138798   0.787   4.458   3.569 -3.8713 -1.5412 -3.0156
 9055SOL    HW238799   0.860   4.498   3.451 -0.2202 -1.8849  0.2804
 9056SOL     OW38800   1.840   2.050  10.249  0.4209  0.1955  0.0697
 9056SOL    HW138801   1.847   2.145  10.249  1.2876  0.1301 -0.8575
 9056SOL    HW238802   1.759   2.034  10.297  1.1493 -0.6875  1.0130
 9057SOL     OW38803   2.263   1.579   1.801 -0.7454  0.4091  0.7121
 9057SOL    HW138804   2.273   1.487   1.825 -0.9736  0.3369  0.5430
 9057SOL    HW238805   2.327   1.582   1.730  2.0058  2.6356  3.2755
 9058SOL     OW38806   0.863   4.278   1.265 -0.5374 -0.2242  0.1850
 9058SOL    HW138807   0.768   4.289   1.265 -0.2386  2.1251 -3.2507
 9058SOL    HW238808   0.859   4.183   1.252  1.7137 -0.1279 -1.1832
 9059SOL     OW38809   1.925   0.825   7.901  0.7716  0.7823 -0.2859
 9059SOL    HW138810   1.939   0.732   7.920  0.7017  0.6588 -0.8176
 9059SOL    HW238811   2.015   0.850   7.881  1.2020  0.1668  0.8481
 9060SOL     OW38812   2.012   4.719   8.225  0.0002 -0.8542 -0.3074
 9060SOL    HW138813   2.092   0.020   8.187 -1.0915  1.4913 -0.4076
 9060SOL    HW238814   2.027   4.692   8.316  2.3700 -1.0167 -0.7523
 9061SOL     OW38815   2.985   2.455  14.817 -0.4180 -0.2961  0.3917
 9061SOL    HW138816   2.987   2.365  14.786  2.3041  0.1578 -0.7328
 9061SOL    HW238817   3.027   2.495  14.741 -2.6539 -4.2524 -2.9636
 9062SOL     OW38818   1.144   4.561   6.017 -0.0232  0.1726  0.0255
 9062SOL    HW138819   1.158   4.589   5.926 -2.5827 -1.5445 -0.8893
 9062SOL    HW238820   1.193   4.479   6.011  0.7383  0.6310 -0.0474
 9063SOL     OW38821   1.000   0.314   1.775  0.6050  0.0832  0.2149
 9063SOL    HW138822   1.010   0.219   1.766 -2.7319 -0.2949  0.7378
 9063SOL    HW238823   1.008   0.316   1.870  0.0263 -1.7657  0.3051
 9064SOL     OW38824   1.848   2.728   1.313 -0.5446  0.3996 -0.0419
 9064SOL    HW138825   1.838   2.808   1.364 -1.0974  0.7201 -0.6566
 9064SOL    HW238826   1.943   2.715   1.311 -0.7451 -1.2321  0.9654
 9065SOL     OW38827   3.679   1.665   7.527  0.1209  0.3827  0.3080
 9065SOL    HW138828   3.710   1.755   7.536 -0.7692  0.9483 -2.3125
 9065SOL    HW238829   3.584   1.676   7.522 -0.0294 -1.3394 -0.8671
 9066SOL     OW38830   4.112   0.380   5.069  0.2754  0.4557  0.0148
 9066SOL    HW138831   4.042   0.434   5.105 -0.5450 -1.2268  0.9711
 9066SOL    HW238832   4.193   0.427   5.088 -0.1026  1.5465 -1.0660
 9067SOL     OW38833   1.078   3.082   8.611 -0.7268 -0.5193 -0.6110
 9067SOL    HW138834   1.014   3.049   8.674  0.9361  0.6514  1.7090
 9067SOL    HW238835   1.058   3.031   8.533 -1.2192  0.6052 -1.2161
 9068SOL     OW38836   1.919   4.462  12.288 -0.0596 -0.2598 -0.2919
 9068SOL    HW138837   1.999   4.514  12.280 -1.2695  1.5054 -0.7320
 9068SOL    HW238838   1.961   4.381  12.319  1.2716  0.2674 -0.7215
 9069SOL     OW38839   0.966   4.694   0.758 -0.0853 -0.0032 -0.0334
 9069SOL    HW138840   1.015   4.725   0.834  0.6889  0.5728 -0.7638
 9069SOL    HW238841   1.006   4.609   0.740  0.1915  0.0744  0.2268
 9070SOL     OW38842   2.202   1.672   4.274 -0.1726  0.6150 -0.4077
 9070SOL    HW138843   2.127   1.654   4.330  0.1192  1.0182  0.1028
 9070SOL    HW238844   2.154   1.677   4.191 -1.8114 -1.6801  0.4058
 9071SOL     OW38845   2.426   4.695   7.126 -0.5831  0.3644  0.2231
 9071SOL    HW138846   2.503   4.698   7.070 -1.5306 -1.1087 -1.1608
 9071SOL    HW238847   2.460   0.017   7.196 -0.1597 -0.7288  0.8936
 9072SOL     OW38848   0.419   0.087   4.744  0.0129 -0.0608  0.0469
 9072SOL    HW138849   0.461   0.158   4.792 -2.2750  0.1520  1.7667
 9072SOL    HW238850   0.333   0.100   4.785 -0.9539  0.0150 -2.0001
 9073SOL     OW38851   0.780   3.856  16.448  0.2484 -0.4727  0.0796
 9073SOL    HW138852   0.773   3.827  16.540  1.5936 -2.6236 -0.4851
 9073SOL    HW238853   0.686   3.850  16.429  0.1296 -0.1200  0.5396
 9074SOL     OW38854   0.980   0.371  16.430 -0.4449 -0.5764 -0.5152
 9074SOL    HW138855   0.978   0.457  16.389 -0.7307 -0.0293  0.6215
 9074SOL    HW238856   1.064   0.337  16.401  0.4780  0.8486  0.4875
 9075SOL     OW38857   1.556   2.700   8.585  0.5722  0.1166  0.2871
 9075SOL    HW138858   1.463   2.689   8.603  0.4936 -0.3211 -0.4023
 9075SOL    HW238859   1.566   2.795   8.600  1.9408  0.2968 -1.7962
 9076SOL     OW38860   3.512   3.528   1.182 -0.1132 -0.1074 -0.3289
 9076SOL    HW138861   3.483   3.571   1.102  1.2055  1.9503  0.3056
 9076SOL    HW238862   3.434   3.481   1.211  2.1084 -1.3668  3.6284
 9077SOL     OW38863   3.842   4.356   3.119 -0.3472 -0.0154  0.2407
 9077SOL    HW138864   3.836   4.264   3.142 -1.2083 -0.3891 -1.4536
 9077SOL    HW238865   3.788   4.404   3.183 -1.6587 -1.2712  0.0666
 9078SOL     OW38866   1.568   3.824  16.215  0.1277 -0.3193  0.0459
 9078SOL    HW138867   1.531   3.851  16.299 -2.5149  0.3727 -1.3267
 9078SOL    HW238868   1.588   3.732  16.232  1.0619  0.2310  1.9181
 9079SOL     OW38869   2.031   1.345   2.809 -0.0701 -0.1447 -0.0681
 9079SOL    HW138870   1.983   1.420   2.845 -3.0012 -0.7677 -2.7133
 9079SOL    HW238871   1.976   1.306   2.742  0.2412 -0.2213 -0.2781
 9080SOL     OW38872   4.398   1.145   6.130 -0.2556  0.5219  0.0232
 9080SOL    HW138873   4.479   1.114   6.089  0.4464 -0.4554  2.1410
 9080SOL    HW238874   4.415   1.239   6.140  0.4948  0.1910  1.7844
 9081SOL     OW38875   1.970   4.186   6.172 -0.1697 -0.4886  0.7554
 9081SOL    HW138876   2.035   4.193   6.242  0.8681 -0.1037 -0.2554
 9081SOL    HW238877   1.925   4.270   6.157 -0.4119 -0.7915 -0.2073
 9082SOL     OW38878   4.692   0.908  12.135  0.0092 -0.5323 -0.0957
 9082SOL    HW138879   0.052   0.921  12.138  0.0334 -0.7728  0.1548
 9082SOL    HW238880   4.667   0.979  12.194 -2.1106 -0.4764 -1.0782
 9083SOL     OW38881   0.851   4.225   8.675 -0.1101 -0.4366  0.2883
 9083SOL    HW138882   0.820   4.135   8.676 -0.3793 -0.3322  0.9809
 9083SOL    HW238883   0.944   4.207   8.690  0.5894  2.2717 -0.7956
 9084SOL     OW38884   2.181   2.254   9.691  0.0357 -0.3374  0.0671
 9084SOL    HW138885   2.140   2.306   9.760  1.8820  2.2704 -0.7601
 9084SOL    HW238886   2.109   2.249   9.629 -0.1061  2.0542  0.0439
 9085SOL     OW38887   1.078   1.804   6.277  0.2788  0.2727  0.1829
 9085SOL    HW138888   1.161   1.827   6.235  0.0555 -0.4199 -0.6562
 9085SOL    HW238889   1.041   1.885   6.310  0.5093 -0.5293  2.3774
 9086SOL     OW38890   0.617   2.729   5.020  0.5531  0.2414 -0.6673
 9086SOL    HW138891   0.581   2.646   4.990  0.6462  0.0204 -0.1742
 9086SOL    HW238892   0.709   2.704   5.016  0.6531  0.2445  1.3592
 9087SOL     OW38893   2.664   2.402   8.942 -0.0065  0.1664  0.0826
 9087SOL    HW138894   2.652   2.350   9.022 -0.4355  1.1914  0.6824
 9087SOL    HW238895   2.571   2.405   8.921  0.0771 -1.4588 -0.5789
 9088SOL     OW38896   0.992   0.292   6.600 -0.3994 -0.1295  0.2223
 9088SOL    HW138897   0.984   0.302   6.695 -2.9176  1.5081 -0.1512
 9088SOL    HW238898   1.082   0.324   6.609 -0.4279  0.0852 -0.2616
 9089SOL     OW38899   2.080   4.073  16.353 -0.1271  0.3909 -0.1686
 9089SOL    HW138900   2.035   4.097  16.434 -1.4732 -1.6293 -0.3172
 9089SOL    HW238901   2.017   4.027  16.298 -0.6471 -0.3540  1.0468
 9090SOL     OW38902   1.546   2.324   6.614  0.5335  0.1319 -0.8482
 9090SOL    HW138903   1.639   2.345   6.623  0.0049  0.9189  2.8990
 9090SOL    HW238904   1.503   2.407   6.637 -1.7827 -1.2263 -0.2854
 9091SOL     OW38905   4.524   4.646   6.588 -0.2722  0.3184 -0.1010
 9091SOL    HW138906   4.619   4.651   6.600 -0.3275  0.9547  0.0817
 9091SOL    HW238907   4.509   4.560   6.548  2.6834 -0.5760  0.7155
 9092SOL     OW38908   1.161   3.912  17.591  0.0656  0.5770  0.3118
 9092SOL    HW138909   1.227   3.858  17.634  1.5019 -0.8812 -3.7555
 9092SOL    HW238910   1.204   3.924  17.507  0.6476  0.5420  0.6056
 9093SOL     OW38911   4.240   1.626  16.800 -0.3276 -0.2850  0.1935
 9093SOL    HW138912   4.169   1.669  16.848  0.4945  2.1358 -0.7257
 9093SOL    HW238913   4.245   1.672  16.716  0.6843 -1.4290 -0.3730
 9094SOL     OW38914   4.415   4.445   4.741  0.0608 -0.7383 -0.5619
 9094SOL    HW138915   4.454   4.410   4.822  1.7426 -2.8519 -2.2792
 9094SOL    HW238916   4.354   4.375   4.719 -1.1985  0.5514 -1.1748
 9095SOL     OW38917   1.788   4.096   5.934 -0.2432  0.0607  0.3107
 9095SOL    HW138918   1.697   4.069   5.924  0.2026 -2.3402  2.7464
 9095SOL    HW238919   1.781   4.189   5.914 -1.0193 -0.6468 -2.7006
 9096SOL     OW38920   2.375   4.719  13.207  0.0736 -0.2289  0.5179
 9096SOL    HW138921   2.279   4.717  13.205  0.1250 -2.3012 -0.0820
 9096SOL    HW238922   2.386   0.027  13.122 -1.2472  1.2476  1.0860
 9097SOL     OW38923   1.297   1.976  13.524 -0.3334 -0.3326 -0.0301
 9097SOL    HW138924   1.254   1.988  13.439 -0.7097  0.4157  0.2639
 9097SOL    HW238925   1.276   1.886  13.546 -0.2862  0.0834  1.6667
 9098SOL     OW38926   1.742   1.074   4.589 -0.1103  0.4171 -0.4020
 9098SOL    HW138927   1.778   1.141   4.531 -0.1566  0.0214 -0.8827
 9098SOL    HW238928   1.677   1.033   4.533 -0.8461  0.2506  0.5651
 9099SOL     OW38929   2.918   0.738   8.104  0.4517 -0.3879  0.2013
 9099SOL    HW138930   3.009   0.763   8.122  0.4285  0.9562 -1.5053
 9099SOL    HW238931   2.871   0.816   8.136 -1.8434 -1.6347 -0.1535
 9100SOL     OW38932   1.120   1.201   3.201 -0.0348 -0.5701  0.4539
 9100SOL    HW138933   1.029   1.172   3.195 -0.1578 -0.2434  0.7528
 9100SOL    HW238934   1.102   1.294   3.217  1.9619 -0.2487  0.8335
 9101SOL     OW38935   1.942   1.718   4.796 -0.1246  0.0435  0.3612
 9101SOL    HW138936   1.934   1.635   4.750  0.8233 -0.5528  1.2910
 9101SOL    HW238937   2.037   1.724   4.802 -0.3132 -0.1182  3.2379
 9102SOL     OW38938   2.906   1.199   4.522 -0.5689 -0.3558 -0.6076
 9102SOL    HW138939   2.878   1.271   4.579  0.2355 -0.1334 -0.4855
 9102SOL    HW238940   3.001   1.212   4.518 -0.6094  0.1912  0.2019
 9103SOL     OW38941   2.888   0.679  16.716 -0.5244 -0.5784  0.1172
 9103SOL    HW138942   2.963   0.675  16.776 -3.6190  0.2029  4.0893
 9103SOL    HW238943   2.843   0.755  16.752  0.4312 -0.4403  1.0348
 9104SOL     OW38944   0.096   3.719   9.293  0.4008 -0.7327  0.2835
 9104SOL    HW138945   0.178   3.674   9.314  1.5917  1.1756 -0.2946
 9104SOL    HW238946   0.066   3.664   9.220  1.8118 -1.3331  0.1448
 9105SOL     OW38947   4.557   3.124  12.216 -0.1303 -0.6522 -0.3607
 9105SOL    HW138948   4.468   3.141  12.245  0.3056  0.7373  0.1728
 9105SOL    HW238949   4.598   3.210  12.203 -2.1141  0.2599 -0.5811
 9106SOL     OW38950   3.867   2.197  10.648  0.3220 -0.1209 -0.2924
 9106SOL    HW138951   3.783   2.159  10.673  0.4791 -0.3461 -0.1017
 9106SOL    HW238952   3.896   2.252  10.721  1.4238 -0.6134 -0.3541
 9107SOL     OW38953   4.136   0.881  13.248 -0.3493 -0.0278 -0.0210
 9107SOL    HW138954   4.129   0.814  13.180 -3.0846 -2.4982  2.7046
 9107SOL    HW238955   4.067   0.945  13.230 -0.6470  0.0767  1.5041
 9108SOL     OW38956   2.019   1.613   3.206 -0.1419  0.3882  0.3834
 9108SOL    HW138957   2.029   1.651   3.294  0.1938 -1.6024  1.2111
 9108SOL    HW238958   2.112   1.605   3.185  0.3341  2.6145  1.5578
 9109SOL     OW38959   2.392   3.012   8.065  0.5354 -0.1827  0.5821
 9109SOL    HW138960   2.430   3.084   8.116  1.2240 -0.4283  0.4097
 9109SOL    HW238961   2.317   2.990   8.121  1.4343 -0.3243  1.7304
 9110SOL     OW38962   1.223   2.101   4.409 -0.0721 -0.6883 -0.4408
 9110SOL    HW138963   1.153   2.037   4.399  0.4502 -1.2826 -0.2879
 9110SOL    HW238964   1.210   2.139   4.322  0.2811 -0.9643 -0.6150
 9111SOL     OW38965   1.613   3.251   4.820  0.4830  0.1853  0.4318
 9111SOL    HW138966   1.679   3.304   4.862  0.4449 -0.9358  1.8989
 9111SOL    HW238967   1.661   3.218   4.744  1.3658  1.8097  0.3012
 9112SOL     OW38968   3.153   1.304   7.471 -0.0724 -0.4699  0.2533
 9112SOL    HW138969   3.061   1.312   7.494 -0.4830 -1.3599 -1.0916
 9112SOL    HW238970   3.156   1.282   7.378 -0.6301 -0.3346  0.2049
 9113SOL     OW38971   0.686   0.420  16.326  0.6106 -0.1179  1.0184
 9113SOL    HW138972   0.645   0.368  16.257 -0.0840  2.7872 -0.7453
 9113SOL    HW238973   0.727   0.353  16.381 -0.1734 -1.1604  0.3218
 9114SOL     OW38974   0.271   0.552   1.884  0.2102  0.0954 -0.3628
 9114SOL    HW138975   0.233   0.594   1.961  0.1261  0.1640 -0.4398
 9114SOL    HW238976   0.252   0.465   1.916 -0.5526 -0.2952 -1.8494
 9115SOL     OW38977   1.810   3.019   0.682 -0.4512 -0.1515  0.3303
 9115SOL    HW138978   1.878   2.973   0.633 -2.1025 -0.5214 -1.6546
 9115SOL    HW238979   1.738   3.023   0.618  0.9403  3.3970 -1.0138
 9116SOL     OW38980   0.589   0.573   2.878  0.0754 -0.3863  0.4868
 9116SOL    HW138981   0.551   0.632   2.944  1.0715  0.4360  0.3383
 9116SOL    HW238982   0.554   0.599   2.793 -0.9941  0.4577  1.1822
 9117SOL     OW38983   4.015   4.658   9.262  0.1248  1.0482  0.2590
 9117SOL    HW138984   3.984   4.639   9.350 -0.2102  1.5254  0.2416
 9117SOL    HW238985   3.935   4.704   9.238 -0.2041  0.2452 -0.2045
 9118SOL     OW38986   1.340   0.337   2.307 -0.1171  0.0280 -0.1771
 9118SOL    HW138987   1.253   0.301   2.289 -0.0327 -1.3085  2.1300
 9118SOL    HW238988   1.343   0.409   2.244  1.8573 -0.9366 -1.1905
 9119SOL     OW38989   2.341   4.477   4.056  0.4539 -0.1259  0.0294
 9119SOL    HW138990   2.436   4.491   4.052  0.5772 -0.5664  1.7129
 9119SOL    HW238991   2.328   4.446   4.145  0.0589  1.5103  0.5365
 9120SOL     OW38992   2.654   3.451  10.253  0.2247  0.0018  0.0803
 9120SOL    HW138993   2.653   3.363  10.290 -1.2526  0.3238  0.7877
 9120SOL    HW238994   2.573   3.481  10.294 -0.1756 -3.2265  1.6607
 9121SOL     OW38995   4.218   3.691   3.152  0.5671 -0.2557  0.2159
 9121SOL    HW138996   4.286   3.758   3.141  0.6440 -0.6919 -1.9625
 9121SOL    HW238997   4.154   3.728   3.092  0.3227  0.9042  1.1842
 9122SOL     OW38998   3.151   1.195   6.604  0.2657 -0.1833 -0.1298
 9122SOL    HW138999   3.166   1.145   6.684  0.2495  2.5752  1.5942
 9122SOL    HW239000   3.215   1.266   6.614 -0.7074  0.7831 -0.7494
 9123SOL     OW39001   1.664   1.369   3.688  0.6783 -0.8670 -0.0068
 9123SOL    HW139002   1.615   1.346   3.767  0.4468  0.3037  0.1907
 9123SOL    HW239003   1.748   1.375   3.734  0.3707 -0.0399  0.4387
 9124SOL     OW39004   3.251   0.498   2.376 -0.2360 -0.2838  0.0210
 9124SOL    HW139005   3.267   0.457   2.291 -2.4423 -2.4001  0.6285
 9124SOL    HW239006   3.338   0.524   2.406 -0.8232  0.8705  0.7029
 9125SOL     OW39007   4.082   1.956   6.089 -0.1381 -0.2870 -0.1179
 9125SOL    HW139008   4.038   1.993   6.165  1.3320  0.6875  0.2405
 9125SOL    HW239009   4.094   1.868   6.127  2.4154  0.6878  1.3609
 9126SOL     OW39010   4.418   3.039  13.650  0.1829  0.2180  0.5673
 9126SOL    HW139011   4.346   2.981  13.677  0.9755 -0.8316  0.4429
 9126SOL    HW239012   4.424   3.102  13.722  0.2652  1.9649 -0.9646
 9127SOL     OW39013   0.458   1.961   8.190 -0.0298  0.0819  0.3840
 9127SOL    HW139014   0.368   1.984   8.213 -1.0876 -0.2922 -3.2713
 9127SOL    HW239015   0.477   1.897   8.259  1.1597 -2.0922 -1.9551
 9128SOL     OW39016   2.064   0.979   0.332  0.1589  0.1251 -0.8207
 9128SOL    HW139017   2.081   0.885   0.332 -2.8745 -0.4160  0.6459
 9128SOL    HW239018   2.037   1.012   0.247  0.1770  0.9449 -0.5166
 9129SOL     OW39019   2.455   4.592   6.423  0.6982  0.3276  0.1382
 9129SOL    HW139020   2.484   4.501   6.435 -1.0927 -0.3699 -0.8162
 9129SOL    HW239021   2.428   4.608   6.513 -0.6472  2.0901 -0.6047
 9130SOL     OW39022   1.780   2.127   8.853  0.5079  0.7792 -0.7522
 9130SOL    HW139023   1.722   2.165   8.788  0.2459 -1.5691 -1.9000
 9130SOL    HW239024   1.793   2.203   8.909 -0.6828  1.5216 -1.4958
 9131SOL     OW39025   3.141   3.461   1.977  0.3393  0.0507  0.2433
 9131SOL    HW139026   3.173   3.374   1.954  1.1664  0.7523 -1.1936
 9131SOL    HW239027   3.227   3.498   1.995  0.8872 -0.4589 -1.3793
 9132SOL     OW39028   1.242   1.514   0.765  0.1957 -0.9187 -0.3278
 9132SOL    HW139029   1.295   1.447   0.721  0.1122 -1.0244 -0.2685
 9132SOL    HW239030   1.269   1.504   0.856 -0.1971  3.4096  0.2456
 9133SOL     OW39031   2.427   2.387   8.531 -0.3981  0.7255 -0.3840
 9133SOL    HW139032   2.516   2.357   8.511 -0.2432  1.7501 -1.2146
 9133SOL    HW239033   2.446   2.472   8.571 -1.4174  0.2221  1.1878
 9134SOL     OW39034   0.242   4.493  10.113 -0.5237 -0.0721 -0.2841
 9134SOL    HW139035   0.286   4.408  10.099 -0.6906 -0.0061 -1.1974
 9134SOL    HW239036   0.151   4.466  10.111  0.0219 -2.0396  1.0035
 9135SOL     OW39037   1.410   3.978   8.720 -0.3483  0.3702 -0.9670
 9135SOL    HW139038   1.474   4.047   8.704 -0.2852  0.6632  0.5656
 9135SOL    HW239039   1.436   3.911   8.656  2.0798 -0.2250  0.6188
 9136SOL     OW39040   1.922   1.681   7.927 -0.4665 -0.3586  0.6322
 9136SOL    HW139041   1.868   1.722   7.995  0.4591  1.2183  0.4027
 9136SOL    HW239042   1.919   1.748   7.860  0.1867  0.0603  1.0258
 9137SOL     OW39043   0.336   3.240   9.612 -0.1742 -0.0517 -0.0719
 9137SOL    HW139044   0.412   3.278   9.657  0.0169  0.4077 -0.7742
 9137SOL    HW239045   0.275   3.257   9.683 -0.5730  1.9779 -0.9139
 9138SOL     OW39046   4.376   3.851   9.893 -0.1486 -0.4218  0.3729
 9138SOL    HW139047   4.427   3.878   9.816 -1.7574  0.4340 -0.3972
 9138SOL    HW239048   4.309   3.919   9.890 -0.3483 -0.5532  2.1625
 9139SOL     OW39049   3.345   0.696  15.585 -0.2288 -0.5367 -0.4360
 9139SOL    HW139050   3.276   0.742  15.538  0.4100  0.8339 -0.0437
 9139SOL    HW239051   3.319   0.721  15.673 -0.1811  1.5018 -0.9955
 9140SOL     OW39052   0.078   4.403   9.368 -0.4601  0.2478 -0.1252
 9140SOL    HW139053   0.057   4.477   9.426 -0.3720 -0.7024  1.1376
 9140SOL    HW239054   0.119   4.465   9.308  0.2890 -0.6831 -0.5654
 9141SOL     OW39055   0.451   0.634   6.070  0.0698  0.6818 -0.3084
 9141SOL    HW139056   0.376   0.652   6.013  1.2131 -1.4999 -2.4858
 9141SOL    HW239057   0.521   0.623   6.006  0.6130  1.1755  0.2071
 9142SOL     OW39058   3.044   1.510   4.301 -0.3519  0.7620 -0.3195
 9142SOL    HW139059   3.060   1.555   4.218  1.4684 -0.4968 -0.6528
 9142SOL    HW239060   3.005   1.585   4.346  1.3693  0.7541  1.1781
 9143SOL     OW39061   0.152   0.696   8.141 -0.4574 -0.4699  0.2136
 9143SOL    HW139062   0.144   0.771   8.199  1.9155 -0.0559  0.0144
 9143SOL    HW239063   0.059   0.686   8.120 -0.0431  0.2131 -1.9364
 9144SOL     OW39064   4.383   4.063   7.187 -0.2134 -0.4640 -0.1393
 9144SOL    HW139065   4.354   4.066   7.278  1.7036  2.8300  0.3636
 9144SOL    HW239066   4.319   4.128   7.157  1.1521 -0.1189 -2.3196
 9145SOL     OW39067   0.204   0.626   5.244 -0.0922 -0.1926 -0.6651
 9145SOL    HW139068   0.232   0.713   5.217 -1.7649  0.8808  1.0562
 9145SOL    HW239069   0.275   0.598   5.301 -2.1447 -2.4853  0.7587
 9146SOL     OW39070   1.185   4.315  15.148  0.1013  0.6838  0.1723
 9146SOL    HW139071   1.184   4.243  15.211  0.3403  1.0350  0.5779
 9146SOL    HW239072   1.243   4.295  15.076  2.0685  3.6973  0.9183
 9147SOL     OW39073   0.131   0.377   6.881 -0.0626 -0.2266  0.3579
 9147SOL    HW139074   0.071   0.319   6.927 -0.3338 -3.6046 -4.3081
 9147SOL    HW239075   0.078   0.424   6.817 -1.7555 -0.8710  1.3130
 9148SOL     OW39076   0.562   2.336  10.119 -0.0492 -0.3346  0.4352
 9148SOL    HW139077   0.622   2.327  10.044 -0.3926 -0.6610  0.1990
 9148SOL    HW239078   0.477   2.327  10.076 -0.9468  0.7916  1.9798
 9149SOL     OW39079   2.164   1.255   8.511 -0.3218  0.3223  0.0699
 9149SOL    HW139080   2.253   1.260   8.476  0.0020 -1.8766  0.5893
 9149SOL    HW239081   2.131   1.183   8.457  1.6896  0.0457 -0.7590
 9150SOL     OW39082   2.929   4.703  17.175 -0.3059  0.1968 -0.2576
 9150SOL    HW139083   2.888   4.637  17.120 -1.3867  1.8943 -1.5096
 9150SOL    HW239084   2.998   4.648  17.212 -0.4093 -1.0622 -1.9372
 9151SOL     OW39085   1.019   0.085   6.966  0.1561 -0.9333 -0.5827
 9151SOL    HW139086   1.106   0.052   6.943  1.6803  1.7835  1.2444
 9151SOL    HW239087   1.024   0.073   7.061  0.4856 -0.3856 -0.5300
 9152SOL     OW39088   4.240   4.122   1.164  0.0641  0.0139  0.2979
 9152SOL    HW139089   4.202   4.209   1.148  1.8850  0.2228 -2.9883
 9152SOL    HW239090   4.176   4.076   1.109 -1.1544  1.7881  0.2177
 9153SOL     OW39091   0.268   3.636  11.990  0.4589 -0.1480  0.4504
 9153SOL    HW139092   0.208   3.711  11.987 -1.5233 -1.8381 -1.4765
 9153SOL    HW239093   0.347   3.690  11.977  1.0190 -1.0737  0.0550
 9154SOL     OW39094   3.558   0.033   6.278  0.3803 -0.5067  0.0244
 9154SOL    HW139095   3.557   0.005   6.370 -1.9540 -0.3166  0.0489
 9154SOL    HW239096   3.491   4.709   6.243  0.8056 -0.7348 -0.4125
 9155SOL     OW39097   1.603   1.630   2.566  0.4239  0.2727  0.0266
 9155SOL    HW139098   1.633   1.705   2.616 -1.0784  0.1977  1.0156
 9155SOL    HW239099   1.549   1.581   2.627 -0.1584  0.7591 -0.1008
 9156SOL     OW39100   2.815   3.137  12.271  0.2881 -0.0442 -0.5028
 9156SOL    HW139101   2.806   3.200  12.199  0.0859  0.6360  0.1217
 9156SOL    HW239102   2.898   3.158  12.311  0.5548 -2.2717  0.1475
 9157SOL     OW39103   2.791   2.248   6.076  0.2416 -0.0233 -0.2715
 9157SOL    HW139104   2.805   2.187   6.149  0.9049 -1.4604 -1.5843
 9157SOL    HW239105   2.878   2.236   6.039 -0.0427 -0.2376 -0.8722
 9158SOL     OW39106   4.339   0.421   8.064  0.1826  0.2740 -0.5485
 9158SOL    HW139107   4.304   0.417   7.975  1.2423  2.3644 -1.0527
 9158SOL    HW239108   4.320   0.513   8.082 -0.6487 -0.4100  2.0849
 9159SOL     OW39109   3.425   1.249   5.563  0.0808  0.1661  0.4150
 9159SOL    HW139110   3.506   1.300   5.567  0.8372 -1.0160  0.2891
 9159SOL    HW239111   3.429   1.217   5.653  1.6875 -0.9831 -0.0581
 9160SOL     OW39112   4.725   2.386   5.373 -0.1530  0.8901 -0.6863
 9160SOL    HW139113   4.701   2.361   5.284  0.9407 -2.9968  0.1022
 9160SOL    HW239114   0.066   2.327   5.380 -1.4504 -0.7332 -0.1477
 9161SOL     OW39115   3.545   4.202  16.619  0.3189 -0.3116  0.4863
 9161SOL    HW139116   3.491   4.279  16.601  0.4419  0.0171  1.5119
 9161SOL    HW239117   3.499   4.162  16.693 -3.6686  1.1404 -1.2184
 9162SOL     OW39118   2.690   0.547   7.613 -0.0142 -0.1570  0.3075
 9162SOL    HW139119   2.613   0.566   7.667 -0.1578 -0.3991  0.1918
 9162SOL    HW239120   2.759   0.534   7.677 -0.0366  0.0934  0.3804
 9163SOL     OW39121   2.247   2.767   0.600  0.8944  0.8017  0.2523
 9163SOL    HW139122   2.338   2.772   0.571  0.6831 -0.2009 -0.6119
 9163SOL    HW239123   2.234   2.677   0.631  0.9837  0.5128 -0.5278
 9164SOL     OW39124   0.804   2.574   8.805  0.0317 -0.3376 -0.0751
 9164SOL    HW139125   0.762   2.596   8.722 -0.5552  0.5250  0.4568
 9164SOL    HW239126   0.745   2.503   8.830  2.2442 -1.4032  2.1958
 9165SOL     OW39127   4.207   1.826  17.672  0.0006 -0.1250 -0.0722
 9165SOL    HW139128   4.259   1.906  17.665  0.5848 -0.6478 -1.7376
 9165SOL    HW239129   4.276   1.761  17.660 -1.3653 -1.5714 -0.1129
 9166SOL     OW39130   0.403   2.948   8.874  0.2787  0.0018 -0.4910
 9166SOL    HW139131   0.369   2.985   8.792 -3.0840  1.1206  1.4036
 9166SOL    HW239132   0.473   3.007   8.904 -0.6411  0.2027  1.2380
 9167SOL     OW39133   0.331   1.964   1.624 -0.2074 -0.3585 -0.0909
 9167SOL    HW139134   0.399   1.929   1.566 -2.3895 -1.6225 -1.8811
 9167SOL    HW239135   0.269   1.892   1.619  0.0062 -0.6121  0.9308
 9168SOL     OW39136   2.381   0.723   2.842 -0.5532  0.1412  0.0812
 9168SOL    HW139137   2.332   0.804   2.854 -0.7334 -0.2477  2.1178
 9168SOL    HW239138   2.315   0.656   2.863  0.3697 -0.3059  1.6052
 9169SOL     OW39139   0.718   0.466  15.002  0.5428  0.3881 -0.8698
 9169SOL    HW139140   0.781   0.509  14.944  0.4644 -0.6736 -1.7453
 9169SOL    HW239141   0.662   0.417  14.942 -1.1555 -1.2615  2.0440
 9170SOL     OW39142   3.864   3.595   7.696  0.0655  0.2349 -0.9067
 9170SOL    HW139143   3.846   3.657   7.625  0.8763  0.4193 -0.9517
 9170SOL    HW239144   3.928   3.538   7.652  0.6425 -0.7896  1.2877
 9171SOL     OW39145   4.433   2.114   8.913  0.7072  0.4799  0.3384
 9171SOL    HW139146   4.368   2.114   8.984  0.1898  1.2786 -0.1427
 9171SOL    HW239147   4.497   2.180   8.937 -0.7140  2.0355 -0.1512
 9172SOL     OW39148   0.382   4.362  14.622  0.3813  0.2697  0.4016
 9172SOL    HW139149   0.408   4.453  14.612 -0.8233  0.5661 -0.0375
 9172SOL    HW239150   0.332   4.361  14.704  0.3226  0.4725  0.3681
 9173SOL     OW39151   0.318   2.005   7.327  0.7811  0.1346  0.1175
 9173SOL    HW139152   0.350   1.947   7.259  1.3375 -0.5547  0.9725
 9173SOL    HW239153   0.360   1.967   7.404 -1.9635  1.5849  2.3088
 9174SOL     OW39154   1.992   1.549   2.544  0.2176  0.3810 -0.0606
 9174SOL    HW139155   1.978   1.457   2.521  0.9294 -0.1895  1.7683
 9174SOL    HW239156   1.911   1.585   2.508 -0.7898 -3.3880 -1.6360
 9175SOL     OW39157   0.355   0.616   9.911  0.3903 -0.4161 -0.0958
 9175SOL    HW139158   0.293   0.555   9.870 -0.7388  0.4817  0.2551
 9175SOL    HW239159   0.313   0.701   9.900  0.2980 -0.7567 -2.3697
 9176SOL     OW39160   2.683   1.516  11.087 -0.0743 -0.1712 -0.4355
 9176SOL    HW139161   2.708   1.434  11.129  0.2540  0.2276  0.1445
 9176SOL    HW239162   2.633   1.498  11.007 -0.0024  2.2463 -1.0364
 9177SOL     OW39163   2.905   0.514   2.076 -0.9169 -0.0374 -0.1870
 9177SOL    HW139164   2.898   0.471   2.162  0.8370  0.2825  0.1055
 9177SOL    HW239165   2.919   0.604   2.104  0.0543  0.1222 -1.2179
 9178SOL     OW39166   1.913   3.917  17.020 -0.1754  0.6428  0.0427
 9178SOL    HW139167   2.008   3.923  17.027 -0.1886 -0.3100  1.0008
 9178SOL    HW239168   1.895   3.998  16.972 -0.0892  0.8592  0.3721
 9179SOL     OW39169   4.618   3.555   5.584 -0.0911 -0.4689 -0.0171
 9179SOL    HW139170   4.628   3.483   5.522 -0.6607 -1.1484  0.6783
 9179SOL    HW239171   4.660   3.628   5.539 -0.0159  0.9183  2.3179
 9180SOL     OW39172   0.313   0.566  17.010 -0.1071 -0.0256  0.4409
 9180SOL    HW139173   0.378   0.569  16.939  0.3639  2.0095  0.9569
 9180SOL    HW239174   0.345   0.639  17.062 -0.0197 -0.3687  0.8677
 9181SOL     OW39175   3.513   4.188   4.004  0.2977  0.0534  0.1895
 9181SOL    HW139176   3.515   4.148   3.918  0.1830 -0.5352  0.4623
 9181SOL    HW239177   3.517   4.283   3.991  0.0932  0.1638  0.8874
 9182SOL     OW39178   0.881   4.592   1.583 -0.0150 -0.2005 -0.0274
 9182SOL    HW139179   0.924   4.520   1.537 -1.6270 -1.2500  0.0999
 9182SOL    HW239180   0.812   4.538   1.623 -1.0653  1.4421  0.3835
 9183SOL     OW39181   0.475   3.364   2.466  0.1971  0.6435 -0.5031
 9183SOL    HW139182   0.561   3.369   2.424  0.7873  1.3293  0.7681
 9183SOL    HW239183   0.424   3.321   2.398  0.5847  2.2758 -1.8447
 9184SOL     OW39184   0.011   2.728   9.130  0.6856 -0.1727 -0.0835
 9184SOL    HW139185   4.713   2.811   9.167 -0.5048 -0.7069  0.0584
 9184SOL    HW239186   0.099   2.722   9.168  1.0034  0.2266 -0.7622
 9185SOL     OW39187   3.781   2.604  13.944 -0.2794 -0.1318 -0.6909
 9185SOL    HW139188   3.861   2.555  13.925 -1.8806 -2.3662 -1.8390
 9185SOL    HW239189   3.829   2.680  13.977  0.9300 -0.4634 -1.6695
 9186SOL     OW39190   4.530   1.884   3.480  0.2706 -0.2325  0.3998
 9186SOL    HW139191   4.546   1.803   3.431  0.6644  0.0403  0.0802
 9186SOL    HW239192   4.443   1.909   3.450  0.4156 -2.1320 -1.5558
 9187SOL     OW39193   2.352   0.370  13.925  0.9607 -0.3900 -0.2951
 9187SOL    HW139194   2.340   0.304  13.994  0.1784  1.9281  1.7860
 9187SOL    HW239195   2.426   0.420  13.959  0.4816  1.6692 -2.2815
 9188SOL     OW39196   3.182   2.422   7.736  0.4095 -0.3901  0.5159
 9188SOL    HW139197   3.202   2.411   7.829  2.2168 -1.4673  0.0112
 9188SOL    HW239198   3.220   2.502   7.699 -1.3084  0.2227  0.1049
 9189SOL     OW39199   3.568   0.439   6.490  0.0603 -0.0887 -0.0551
 9189SOL    HW139200   3.585   0.532   6.503  0.9379  0.0519 -2.1559
 9189SOL    HW239201   3.574   0.423   6.395 -1.4259  1.7013 -0.4267
 9190SOL     OW39202   3.780   2.990   2.869  0.5451 -0.0930 -0.0420
 9190SOL    HW139203   3.762   2.896   2.873 -0.1178 -0.0618 -2.1194
 9190SOL    HW239204   3.737   3.028   2.946 -0.9083 -0.0523 -0.8634
 9191SOL     OW39205   2.177   2.834   5.512 -0.3037 -0.3977  0.4986
 9191SOL    HW139206   2.113   2.905   5.504 -0.4916 -0.5432  0.7471
 9191SOL    HW239207   2.218   2.850   5.597  0.0169  0.0127  0.2686
 9192SOL     OW39208   0.460   3.367  14.739  0.2513 -0.0822  0.6256
 9192SOL    HW139209   0.367   3.382  14.719  0.9742  1.6707 -1.4345
 9192SOL    HW239210   0.466   3.273  14.720  0.2547 -0.6303  3.3954
 9193SOL     OW39211   2.251   3.314  15.403 -0.2567  0.5110  0.1290
 9193SOL    HW139212   2.334   3.297  15.449 -0.6352  0.1237  0.6646
 9193SOL    HW239213   2.260   3.276  15.315  2.6816 -1.1151  1.0869
 9194SOL     OW39214   1.517   3.376   6.569 -0.0508  0.3189 -0.0241
 9194SOL    HW139215   1.504   3.366   6.475  0.7337 -0.1670 -0.0773
 9194SOL    HW239216   1.521   3.472   6.571 -0.8910  0.3365  0.6299
 9195SOL     OW39217   2.353   1.304   8.322 -0.0131 -0.0359 -0.2286
 9195SOL    HW139218   2.443   1.335   8.332  0.3048 -1.9442  2.8335
 9195SOL    HW239219   2.337   1.287   8.230  1.8470  1.8270 -0.8940
 9196SOL     OW39220   0.274   3.293   1.987 -0.0656  0.0737 -0.3889
 9196SOL    HW139221   0.267   3.373   1.935  1.2940  0.0462 -0.6203
 9196SOL    HW239222   0.182   3.285   2.010  0.5110  1.4309  2.4690
 9197SOL     OW39223   4.511   0.031   3.511  0.6466  0.2214 -0.4338
 9197SOL    HW139224   4.510   0.029   3.607 -0.1705  2.0357 -0.4275
 9197SOL    HW239225   4.537   4.677   3.483 -1.4200 -1.5432  3.2199
 9198SOL     OW39226   1.030   1.650  11.947 -0.5687 -0.2621 -0.2462
 9198SOL    HW139227   0.974   1.573  11.945  1.2792 -1.6969  2.2725
 9198SOL    HW239228   1.008   1.691  11.863 -0.3630  0.4832  0.0592
 9199SOL     OW39229   1.195   1.613   4.442  0.5437  0.0201  0.3414
 9199SOL    HW139230   1.155   1.527   4.452 -2.1885  1.3291  0.4392
 9199SOL    HW239231   1.119   1.671   4.447  0.2018 -0.4620  0.7185
 9200SOL     OW39232   0.844   2.312  10.231 -0.5145 -0.5401  0.0414
 9200SOL    HW139233   0.844   2.408  10.230  1.6367 -0.5113  1.4597
 9200SOL    HW239234   0.779   2.287  10.165 -1.5535  1.3978  0.3175
 9201SOL     OW39235   0.869   3.438   4.693  0.0198 -0.4421  0.1631
 9201SOL    HW139236   0.845   3.429   4.786  1.5742  0.4566  0.6502
 9201SOL    HW239237   0.960   3.462   4.708  0.6598 -2.8558  0.2334
 9202SOL     OW39238   1.132   1.367   9.777  0.2854 -0.2315  0.8673
 9202SOL    HW139239   1.080   1.446   9.790  2.0842  1.2152 -0.6492
 9202SOL    HW239240   1.105   1.318   9.854  2.0609  0.7416  2.1158
 9203SOL     OW39241   2.734   1.800   5.497 -0.4958  0.4848  0.0151
 9203SOL    HW139242   2.701   1.739   5.431  1.8074  0.5688 -1.2243
 9203SOL    HW239243   2.726   1.750   5.578 -1.0387 -0.0092 -0.3489
 9204SOL     OW39244   0.468   2.032   3.927 -0.2807 -0.0202 -0.4602
 9204SOL    HW139245   0.501   1.953   3.883  2.6945  0.1283  1.5278
 9204SOL    HW239246   0.542   2.090   3.937 -0.6716  1.3031 -5.0768
 9205SOL     OW39247   3.394   3.612   2.409  0.1083  0.3779 -0.0309
 9205SOL    HW139248   3.364   3.547   2.472  0.2976 -0.8703 -1.2385
 9205SOL    HW239249   3.305   3.643   2.390  0.3951  1.6149  0.6503
 9206SOL     OW39250   2.112   2.448   6.599  0.3956 -0.3880  0.1256
 9206SOL    HW139251   2.095   2.358   6.629 -0.1989  0.0122  0.9852
 9206SOL    HW239252   2.101   2.429   6.506  0.6216 -3.0563  0.6224
 9207SOL     OW39253   3.340   0.701   5.821  0.0632  0.2468 -0.3439
 9207SOL    HW139254   3.434   0.709   5.835 -0.1415  1.3068  0.4193
 9207SOL    HW239255   3.324   0.784   5.775 -0.8442 -0.4157 -1.2310
 9208SOL     OW39256   4.545   0.959   7.672  0.3145  0.5767 -0.2667
 9208SOL    HW139257   4.636   0.971   7.647  0.8079 -1.4664  0.5903
 9208SOL    HW239258   4.507   0.908   7.600  1.7177 -0.6098 -0.1493
 9209SOL     OW39259   3.519   2.183   8.066 -0.5421  0.8480 -0.1737
 9209SOL    HW139260   3.461   2.110   8.086 -0.7043  0.8005 -0.8452
 9209SOL    HW239261   3.555   2.203   8.153  2.1844  0.7879 -1.2791
 9210SOL     OW39262   2.667   1.153   1.956  0.0516  0.1540 -0.4504
 9210SOL    HW139263   2.685   1.117   2.043 -0.9665  0.6165 -0.0547
 9210SOL    HW239264   2.699   1.080   1.902 -0.1509  0.7990 -1.4365
 9211SOL     OW39265   1.909   1.942   0.438  0.2162 -0.5275 -0.2466
 9211SOL    HW139266   1.895   1.847   0.437  0.0110 -0.5032  0.2163
 9211SOL    HW239267   1.882   1.950   0.529  1.5410  0.2280  0.0736
 9212SOL     OW39268   3.964   0.123   5.175 -0.1717  0.4790 -0.2807
 9212SOL    HW139269   3.882   0.145   5.220 -1.1721 -0.8163 -1.4530
 9212SOL    HW239270   4.015   0.203   5.165  0.6502 -0.3120 -2.4299
 9213SOL     OW39271   1.664   2.929   3.357  0.0009 -0.4680 -0.3757
 9213SOL    HW139272   1.735   2.912   3.419  2.2781 -0.1398 -2.8955
 9213SOL    HW239273   1.595   2.874   3.393 -2.3860  0.7533 -3.0409
 9214SOL     OW39274   4.257   1.248   7.923  0.6633 -0.3174 -0.3513
 9214SOL    HW139275   4.299   1.331   7.946  1.6579 -0.9447  0.1089
 9214SOL    HW239276   4.338   1.200   7.905  1.0667 -0.1379  0.9866
 9215SOL     OW39277   3.012   1.758  10.282 -0.3344  0.2673 -0.0582
 9215SOL    HW139278   2.918   1.768  10.289 -0.3694  0.6173 -1.1015
 9215SOL    HW239279   3.045   1.847  10.286 -0.0926  0.2173 -0.9315
 9216SOL     OW39280   1.125   2.942   1.514  0.4354 -0.1095  0.2497
 9216SOL    HW139281   1.103   2.999   1.441 -1.4971 -1.3939 -0.1875
 9216SOL    HW239282   1.152   3.006   1.579  0.2234 -1.3979  1.6156
 9217SOL     OW39283   3.173   4.269   4.312  0.2021  0.1828  0.1160
 9217SOL    HW139284   3.162   4.248   4.219 -0.9286 -3.1000  0.9938
 9217SOL    HW239285   3.128   4.193   4.349  0.6862  0.7387  1.8061
 9218SOL     OW39286   3.464   4.605   8.458  0.1025  0.0095 -0.0916
 9218SOL    HW139287   3.542   4.598   8.514  1.5375  0.2903 -2.0627
 9218SOL    HW239288   3.390   4.581   8.514  1.1941 -1.5065  0.6978
 9219SOL     OW39289   4.399   0.174   3.298  0.5568  0.1239 -0.6171
 9219SOL    HW139290   4.426   0.127   3.377  0.4151 -1.7939 -1.7339
 9219SOL    HW239291   4.363   0.101   3.248  0.8790 -1.0675  0.8902
 9220SOL     OW39292   0.859   2.755   6.735  0.0984  0.5938  0.1647
 9220SOL    HW139293   0.875   2.806   6.814 -0.7376  3.0296 -1.2358
 9220SOL    HW239294   0.873   2.668   6.774  0.4947  0.2670 -0.7262
 9221SOL     OW39295   2.945   0.905   3.365  0.3091  0.4314 -0.0257
 9221SOL    HW139296   2.950   0.939   3.275 -1.3714  1.1807  0.1557
 9221SOL    HW239297   2.946   0.813   3.342 -1.4783  0.4929 -0.3228
 9222SOL     OW39298   4.010   3.499   9.688 -0.1960 -0.0214  0.4803
 9222SOL    HW139299   4.050   3.553   9.757 -0.0026  3.1577 -2.1329
 9222SOL    HW239300   3.955   3.571   9.658 -0.7807  0.5255  2.8507
 9223SOL     OW39301   2.574   4.611   8.357  0.1365 -0.3169  0.2496
 9223SOL    HW139302   2.516   4.684   8.379 -1.2302 -1.6116  1.0035
 9223SOL    HW239303   2.650   4.663   8.332 -0.0190  0.1050  0.6397
 9224SOL     OW39304   1.064   1.365   3.841 -0.4515  0.4350 -0.5701
 9224SOL    HW139305   1.144   1.358   3.789 -0.1871 -1.7966  0.1254
 9224SOL    HW239306   1.003   1.410   3.783  0.1559 -0.5238 -1.9398
 9225SOL     OW39307   0.578   2.272   6.190 -0.1445 -0.3895  0.1950
 9225SOL    HW139308   0.554   2.354   6.147 -1.4146  0.2200  2.0566
 9225SOL    HW239309   0.673   2.283   6.188 -0.2156  0.0580 -0.6451
 9226SOL     OW39310   3.319   1.793   3.382  0.3019 -0.4333 -0.8418
 9226SOL    HW139311   3.225   1.782   3.401  0.8511 -0.9341  1.5772
 9226SOL    HW239312   3.364   1.731   3.439 -1.4867  0.7790  1.8765
 9227SOL     OW39313   3.601   4.358   5.506 -0.1350 -0.6025  0.0485
 9227SOL    HW139314   3.592   4.270   5.470 -0.0228 -0.9740  0.9355
 9227SOL    HW239315   3.635   4.401   5.428 -1.7935 -0.8608 -0.8340
 9228SOL     OW39316   3.614   0.807   3.175 -0.8620  0.0216  0.2007
 9228SOL    HW139317   3.616   0.716   3.144 -0.9263 -0.7770  2.5130
 9228SOL    HW239318   3.607   0.857   3.093  2.2444  1.5682  0.8899
 9229SOL     OW39319   1.299   2.983  14.483 -0.2286 -0.3567 -0.3258
 9229SOL    HW139320   1.393   2.987  14.497  0.0443 -2.2122 -1.6411
 9229SOL    HW239321   1.307   2.975  14.388 -0.2027  1.3375 -0.4718
 9230SOL     OW39322   2.240   2.336   8.314 -0.5054 -0.1411 -0.3273
 9230SOL    HW139323   2.278   2.373   8.394 -2.7750  0.3377  0.5363
 9230SOL    HW239324   2.269   2.401   8.250 -1.3610  0.4890 -0.0774
 9231SOL     OW39325   4.443   0.037   0.966 -0.5881  0.3755 -0.2287
 9231SOL    HW139326   4.477   4.715   1.035 -2.2179 -1.2385 -0.7560
 9231SOL    HW239327   4.508   0.028   0.896  0.5677  0.4521  0.8461
 9232SOL     OW39328   3.642   1.111  16.383  0.1848 -0.3715  0.0550
 9232SOL    HW139329   3.604   1.116  16.471  0.2077  0.2823  0.0247
 9232SOL    HW239330   3.564   1.094  16.331  0.9880  1.1101 -1.5925
 9233SOL     OW39331   1.383   3.203   8.928  0.5129 -0.2274  0.4687
 9233SOL    HW139332   1.346   3.147   8.860  0.9531  0.7916 -0.6109
 9233SOL    HW239333   1.328   3.167   8.998 -0.6429 -0.1870 -0.4192
 9234SOL     OW39334   0.262   0.100   6.654 -0.2894 -0.3096  0.0449
 9234SOL    HW139335   0.260   0.194   6.670 -0.6090 -0.0887 -1.3360
 9234SOL    HW239336   0.302   0.069   6.735  1.4952  2.7543  0.3398
 9235SOL     OW39337   2.484   3.543   3.165 -0.1403  0.4566  0.0156
 9235SOL    HW139338   2.521   3.520   3.250  0.4171 -0.2458 -0.4124
 9235SOL    HW239339   2.548   3.497   3.109 -0.4967 -0.5306  0.4221
 9236SOL     OW39340   1.616   2.759   7.823 -0.0332 -0.1690  0.0225
 9236SOL    HW139341   1.529   2.797   7.810  0.0587 -0.5195 -1.7116
 9236SOL    HW239342   1.667   2.827   7.777  1.3757 -2.3485 -1.6339
 9237SOL     OW39343   3.250   3.965  14.605  0.3001  0.1885  0.1497
 9237SOL    HW139344   3.222   4.029  14.670 -1.5561  0.1818 -0.6179
 9237SOL    HW239345   3.343   3.967  14.626  1.0288  0.0547 -3.0343
 9238SOL     OW39346   2.761   2.184   7.923  0.2722  0.3757 -0.6720
 9238SOL    HW139347   2.834   2.149   7.871 -0.7668 -1.5936 -0.8216
 9238SOL    HW239348   2.713   2.212   7.845 -0.1748  0.3920 -0.3860
 9239SOL     OW39349   3.186   0.288  14.782 -0.3777  0.4616 -0.0792
 9239SOL    HW139350   3.187   0.293  14.878  0.8646  0.0854 -0.0719
 9239SOL    HW239351   3.272   0.250  14.765 -1.1026 -1.0826 -0.3066
 9240SOL     OW39352   4.466   4.492   1.993 -0.1964  0.5507 -0.6066
 9240SOL    HW139353   4.404   4.471   1.923 -0.6358 -0.7212  0.1539
 9240SOL    HW239354   4.463   4.587   1.987  2.0224  0.7436  1.6582
 9241SOL     OW39355   2.946   2.193  14.757  0.3542  0.2290 -0.0323
 9241SOL    HW139356   2.966   2.106  14.725  0.8675  0.6973 -0.9736
 9241SOL    HW239357   2.870   2.171  14.811 -0.7261 -2.2034 -2.5792
 9242SOL     OW39358   1.575   0.404   6.099  0.2275  0.2062  0.1126
 9242SOL    HW139359   1.570   0.356   6.181  2.1645  1.2593  0.8396
 9242SOL    HW239360   1.565   0.494   6.131 -0.9464  1.3431 -3.3708
 9243SOL     OW39361   1.936   3.115  12.329 -0.1171 -0.2428 -0.0471
 9243SOL    HW139362   1.915   3.028  12.296 -0.9107 -0.0236 -0.1230
 9243SOL    HW239363   1.959   3.093  12.419  0.9918  1.0535 -0.0228
 9244SOL     OW39364   3.220   4.531   6.796 -0.1016  0.4024 -0.2277
 9244SOL    HW139365   3.250   4.474   6.725  1.8208 -0.9602  1.6898
 9244SOL    HW239366   3.197   4.472   6.868 -1.0415  1.8557  0.6661
 9245SOL     OW39367   3.209   4.173  16.131 -0.3634  0.0770  0.6069
 9245SOL    HW139368   3.187   4.244  16.071  0.8585 -0.1628 -0.1091
 9245SOL    HW239369   3.176   4.096  16.085  0.7865  0.2317 -0.4784
 9246SOL     OW39370   0.041   2.423   4.105  0.3433 -0.2493  0.1191
 9246SOL    HW139371   0.111   2.361   4.128  1.4989  0.7055 -0.8132
 9246SOL    HW239372   0.066   2.459   4.020 -1.4080 -0.3590 -0.4436
 9247SOL     OW39373   2.418   3.439   9.069  0.2665  0.1109  0.0011
 9247SOL    HW139374   2.456   3.459   8.983  1.0962 -0.4991  0.2252
 9247SOL    HW239375   2.472   3.373   9.113  0.0315  1.1973  1.9319
 9248SOL     OW39376   3.311   3.646  14.241  0.4529 -0.0558  0.0079
 9248SOL    HW139377   3.402   3.663  14.217  0.1785  0.7113 -0.4788
 9248SOL    HW239378   3.305   3.693  14.324 -0.4373 -0.4341  0.1545
 9249SOL     OW39379   2.241   1.925   6.226 -0.3637  0.3522  0.2394
 9249SOL    HW139380   2.289   1.980   6.289 -0.2288  3.4008 -2.5821
 9249SOL    HW239381   2.192   1.992   6.179 -0.9809  1.0304  1.8300
 9250SOL     OW39382   3.352   3.388   8.063 -0.3970 -0.0624 -0.1186
 9250SOL    HW139383   3.358   3.302   8.104 -0.6808 -0.3814 -0.7431
 9250SOL    HW239384   3.261   3.407   8.083  0.0471  1.5692  0.3182
 9251SOL     OW39385   3.250   2.000  16.665  0.0082  0.3351 -0.1407
 9251SOL    HW139386   3.242   1.926  16.724  3.1384 -1.0764 -1.4457
 9251SOL    HW239387   3.184   1.970  16.603 -0.4108 -2.9986  1.9448
 9252SOL     OW39388   0.517   2.955   2.287  0.6638 -0.1819 -0.3100
 9252SOL    HW139389   0.452   2.890   2.316 -1.2274  2.9249  2.4527
 9252SOL    HW239390   0.563   2.975   2.369  1.7806 -1.8435 -0.5462
 9253SOL     OW39391   0.530   0.472  12.800 -0.1655 -0.4378 -0.2040
 9253SOL    HW139392   0.624   0.453  12.796 -0.1759 -0.3118 -1.0384
 9253SOL    HW239393   0.518   0.490  12.707  3.8402  0.5170 -0.5421
 9254SOL     OW39394   0.901   3.441  11.694  0.1757 -0.3209 -0.3090
 9254SOL    HW139395   0.914   3.427  11.600  0.0416  0.5817 -0.4626
 9254SOL    HW239396   0.885   3.352  11.726  1.5709  0.1504  1.6557
 9255SOL     OW39397   2.274   3.937   7.033  0.1511  0.1777 -0.0297
 9255SOL    HW139398   2.276   3.990   7.113  2.0201 -1.6120  1.1006
 9255SOL    HW239399   2.252   4.010   6.974 -0.4540  1.6343  2.0046
 9256SOL     OW39400   3.329   1.909   2.770 -0.4539 -0.3046 -0.1183
 9256SOL    HW139401   3.399   1.876   2.714  0.6780 -0.4154  1.3962
 9256SOL    HW239402   3.310   1.843   2.836 -2.4499 -0.3454 -0.7110
 9257SOL     OW39403   0.629   2.947  15.115 -0.0356  0.0792 -0.2248
 9257SOL    HW139404   0.639   3.040  15.092 -1.3582  0.1345 -0.5882
 9257SOL    HW239405   0.543   2.952  15.158  0.3035  1.4775  0.2996
 9258SOL     OW39406   2.176   0.875   3.124 -0.0321 -0.0759 -0.3343
 9258SOL    HW139407   2.085   0.897   3.146 -0.6317  1.0188 -3.9498
 9258SOL    HW239408   2.184   0.908   3.035 -2.1409  0.5398 -0.3071
 9259SOL     OW39409   3.318   0.660   0.981  0.2245 -0.0893  0.2203
 9259SOL    HW139410   3.366   0.585   0.946 -1.1197  0.4039 -2.6982
 9259SOL    HW239411   3.261   0.685   0.908 -0.4052  2.0427  1.4635
 9260SOL     OW39412   0.338   3.278   9.076  0.2695 -0.1961 -0.4248
 9260SOL    HW139413   0.295   3.202   9.115  0.6456 -0.3367 -0.2776
 9260SOL    HW239414   0.385   3.319   9.149  1.0574 -0.0491 -1.0164
 9261SOL     OW39415   2.648   0.384   5.590  0.0278  0.1182  0.2381
 9261SOL    HW139416   2.634   0.324   5.664 -1.4305  0.5739  0.3220
 9261SOL    HW239417   2.684   0.331   5.518  1.0006 -1.9407  2.2409
 9262SOL     OW39418   3.370   3.579   5.918 -0.3502 -0.6245 -0.3832
 9262SOL    HW139419   3.450   3.582   5.971 -1.2986 -1.7813  1.1292
 9262SOL    HW239420   3.396   3.581   5.826  1.3260 -0.8427  0.0689
 9263SOL     OW39421   3.905   1.860  12.551  0.6371 -0.3393  0.2673
 9263SOL    HW139422   3.968   1.886  12.619 -0.1391 -0.1486  0.9119
 9263SOL    HW239423   3.830   1.903  12.593 -0.3487 -2.7855  1.0111
 9264SOL     OW39424   1.601   2.111   2.570  0.1730 -0.2642 -0.6584
 9264SOL    HW139425   1.565   2.198   2.587  0.4439 -0.1489 -0.6735
 9264SOL    HW239426   1.605   2.119   2.474  1.0400 -4.2742 -0.9476
 9265SOL     OW39427   3.764   1.529   9.220 -0.1525 -0.3760  0.0700
 9265SOL    HW139428   3.734   1.493   9.137 -2.4781 -2.3124  1.7602
 9265SOL    HW239429   3.857   1.510   9.210 -0.4612 -2.8520  1.9870
 9266SOL     OW39430   2.307   1.158   2.457 -0.8808  0.5846 -0.2014
 9266SOL    HW139431   2.385   1.105   2.469 -0.2994  1.9203  2.0153
 9266SOL    HW239432   2.244   1.094   2.492  0.0715 -1.2374 -1.8325
 9267SOL     OW39433   4.029   1.963   2.806 -0.2363 -0.2979  0.2284
 9267SOL    HW139434   4.093   1.896   2.783  1.6500  0.8566  2.0866
 9267SOL    HW239435   4.078   1.994   2.883  2.9932 -2.4290 -0.9595
 9268SOL     OW39436   4.383   2.815  14.474 -0.1715  0.2196  0.3031
 9268SOL    HW139437   4.427   2.896  14.450  0.1485  0.6969  2.4728
 9268SOL    HW239438   4.294   2.845  14.495 -0.5928 -1.8002  1.4794
 9269SOL     OW39439   4.506   2.895   5.985  0.2564 -0.0267  0.3667
 9269SOL    HW139440   4.514   2.846   5.903 -1.2335  0.5402 -0.1045
 9269SOL    HW239441   4.433   2.948   5.955 -1.0149 -1.3722  1.1025
 9270SOL     OW39442   3.747   1.375   5.906  0.3948  0.0957 -0.1471
 9270SOL    HW139443   3.784   1.449   5.858  0.7151  1.0026  1.4855
 9270SOL    HW239444   3.829   1.336   5.939 -0.7507 -3.1344 -1.1431
 9271SOL     OW39445   1.662   0.753   1.203  0.1993  0.2382 -0.2865
 9271SOL    HW139446   1.736   0.801   1.165 -0.2647 -0.1256 -1.6626
 9271SOL    HW239447   1.607   0.817   1.248 -0.2514 -1.1844  1.1647
 9272SOL     OW39448   4.269   4.174   3.046  0.1558 -0.2049 -0.4176
 9272SOL    HW139449   4.251   4.266   3.060 -0.5285  0.1092 -3.2202
 9272SOL    HW239450   4.307   4.155   3.131  1.3678 -0.1847 -0.9513
 9273SOL     OW39451   2.198   3.787   2.898 -0.1960 -0.4563  0.2223
 9273SOL    HW139452   2.224   3.768   2.988 -0.7868  0.7134  0.6278
 9273SOL    HW239453   2.103   3.779   2.902 -0.0451 -2.6180 -0.2681
 9274SOL     OW39454   4.545   1.614   4.287  0.2535 -0.4279 -0.0253
 9274SOL    HW139455   4.488   1.643   4.216  0.6476  2.7900  0.9695
 9274SOL    HW239456   4.620   1.673   4.282  0.7453 -0.8230  2.7575
 9275SOL     OW39457   2.883   0.551   7.804  0.0220 -0.2970  0.3321
 9275SOL    HW139458   2.973   0.522   7.819  0.5881  0.9770 -0.6075
 9275SOL    HW239459   2.879   0.616   7.874  1.7930 -1.4367  1.5002
 9276SOL     OW39460   3.241   3.965   0.488 -0.0544  0.2384 -0.2815
 9276SOL    HW139461   3.168   3.907   0.467  0.0154  0.8583 -2.2045
 9276SOL    HW239462   3.193   4.026   0.545 -0.5678  0.1726 -0.6417
 9277SOL     OW39463   0.682   3.175   4.255  0.1003 -0.3989 -0.0778
 9277SOL    HW139464   0.603   3.218   4.286  0.7006  0.7391 -0.1460
 9277SOL    HW239465   0.739   3.248   4.278 -0.1585 -0.3248  0.3132
 9278SOL     OW39466   1.568   2.949   8.646 -0.0393  0.0534  0.2088
 9278SOL    HW139467   1.539   3.012   8.712 -1.5501 -1.4922  0.9959
 9278SOL    HW239468   1.658   2.979   8.633 -0.5708  2.5002  2.1418
 9279SOL     OW39469   0.239   2.552   3.393  0.3358  0.2743 -0.1511
 9279SOL    HW139470   0.191   2.478   3.431 -1.1466  0.6352 -1.3278
 9279SOL    HW239471   0.279   2.493   3.329 -0.1322 -1.2702  0.9772
 9280SOL     OW39472   0.518   1.315   3.843 -0.4645 -0.2911 -0.7113
 9280SOL    HW139473   0.606   1.353   3.846  0.5075 -2.7678  1.3514
 9280SOL    HW239474   0.478   1.380   3.901  1.0615  0.4791 -0.5054
 9281SOL     OW39475   2.528   2.068   6.730  0.1218 -1.2141 -0.6607
 9281SOL    HW139476   2.498   1.995   6.677  0.1872 -0.6598 -1.4641
 9281SOL    HW239477   2.488   2.060   6.816  2.2374  0.4007  0.4910
 9282SOL     OW39478   3.285   2.242   6.057  0.3713 -0.1771  0.0224
 9282SOL    HW139479   3.300   2.278   6.145 -0.5329 -0.3574  0.2412
 9282SOL    HW239480   3.211   2.182   6.063 -0.9335  1.5095  0.7331
 9283SOL     OW39481   1.402   3.892   4.567  0.3726 -0.4744 -0.0542
 9283SOL    HW139482   1.424   3.881   4.475 -0.0435  1.1570 -0.3555
 9283SOL    HW239483   1.462   3.964   4.585 -1.7689  1.5134 -0.8529
 9284SOL     OW39484   2.718   1.445   5.079 -0.1199 -0.2524  0.2741
 9284SOL    HW139485   2.725   1.359   5.037  0.1012 -0.0374 -0.1299
 9284SOL    HW239486   2.711   1.503   5.003 -0.3643  0.8543  1.1366
 9285SOL     OW39487   2.304   1.195   0.371  0.6474 -0.3257 -0.1444
 9285SOL    HW139488   2.306   1.153   0.285  1.3848  0.8680 -0.7063
 9285SOL    HW239489   2.375   1.150   0.416 -0.1216 -0.9910  0.4058
 9286SOL     OW39490   3.683   1.780   9.743  0.4583 -0.2074 -0.0847
 9286SOL    HW139491   3.746   1.808   9.677  1.8468  1.0848  1.7974
 9286SOL    HW239492   3.741   1.750   9.814 -1.6487 -1.0224  1.2870
 9287SOL     OW39493   3.346   0.181   4.255  0.4132  0.7857 -0.2196
 9287SOL    HW139494   3.319   0.204   4.344  0.9361  1.5973 -0.2786
 9287SOL    HW239495   3.267   0.200   4.203 -1.0574 -2.1849  0.9379
 9288SOL     OW39496   4.567   0.414   4.427 -0.7221 -0.0693  0.6573
 9288SOL    HW139497   4.531   0.352   4.490 -2.4769  0.4003  0.1127
 9288SOL    HW239498   4.541   0.498   4.465 -1.2934 -0.8575  2.0026
 9289SOL     OW39499   3.114   0.949   8.799 -0.0394  0.4915 -0.3196
 9289SOL    HW139500   3.103   1.019   8.735 -1.5863  0.5450  0.0106
 9289SOL    HW239501   3.130   1.008   8.873  0.2901 -0.5459  0.4468
 9290SOL     OW39502   1.219   2.688   8.016  0.5599 -0.2641  0.1531
 9290SOL    HW139503   1.216   2.762   8.077  0.9989  0.0689 -0.2286
 9290SOL    HW239504   1.137   2.649   8.046 -0.2664  1.2844 -0.0593
 9291SOL     OW39505   2.076   1.977   7.512  0.6116  0.5285 -0.0988
 9291SOL    HW139506   2.134   1.939   7.446  1.1976 -0.2506  0.8734
 9291SOL    HW239507   2.111   1.954   7.598 -1.1637  2.0476  1.0502
 9292SOL     OW39508   3.100   1.838   6.794  0.5334  0.2955  0.4161
 9292SOL    HW139509   3.117   1.746   6.814 -0.0047 -0.0389 -0.6564
 9292SOL    HW239510   3.091   1.872   6.883  0.5937 -2.4319  1.4525
 9293SOL     OW39511   2.027   1.360   5.287 -0.4229 -0.3009  0.2066
 9293SOL    HW139512   2.032   1.421   5.213 -0.5039 -0.7350 -0.1542
 9293SOL    HW239513   1.963   1.297   5.254  1.0228 -2.6129  1.7590
 9294SOL     OW39514   0.190   1.285   7.388  0.5565  0.1327 -0.5586
 9294SOL    HW139515   0.170   1.369   7.429  1.8086  0.9944 -1.7103
 9294SOL    HW239516   0.194   1.309   7.296 -0.8255  1.7035 -0.2133
 9295SOL     OW39517   0.444   0.698   8.613 -0.1106  0.4955 -0.1860
 9295SOL    HW139518   0.402   0.753   8.546 -2.2579  0.4296  1.1261
 9295SOL    HW239519   0.460   0.761   8.683 -1.7798 -0.8136  1.3617
 9296SOL     OW39520   2.280   0.178   3.112  0.8304  0.7036 -0.2425
 9296SOL    HW139521   2.310   0.268   3.096 -2.0200  1.9042  1.0982
 9296SOL    HW239522   2.278   0.166   3.207  0.8683 -2.1391 -0.6106
 9297SOL     OW39523   3.754   3.427   7.427  0.1805  0.0395 -0.2106
 9297SOL    HW139524   3.796   3.345   7.404 -0.1053  0.6842 -3.0679
 9297SOL    HW239525   3.660   3.416   7.410  0.5983 -2.5042 -0.8933
 9298SOL     OW39526   1.013   0.118   9.162 -0.0418  0.8808 -0.6664
 9298SOL    HW139527   0.993   0.105   9.069 -0.5830 -1.7509 -0.1641
 9298SOL    HW239528   0.963   0.200   9.167 -3.4293 -1.2897  0.9556
 9299SOL     OW39529   4.055   2.376   1.444  0.0038  0.7125 -0.3836
 9299SOL    HW139530   4.031   2.461   1.408 -1.0556  0.5249 -0.1290
 9299SOL    HW239531   4.140   2.358   1.404  0.5065 -0.1037  1.0825
 9300SOL     OW39532   4.638   1.511  15.155  0.2118 -0.0760 -0.4799
 9300SOL    HW139533   4.702   1.481  15.091 -0.0227 -0.9633 -0.3040
 9300SOL    HW239534   4.563   1.451  15.150  1.4941 -1.7160 -0.3412
 9301SOL     OW39535   3.003   0.707   5.343 -0.5181 -0.1103  0.3962
 9301SOL    HW139536   3.014   0.800   5.365 -1.9806 -0.0340  0.8291
 9301SOL    HW239537   2.975   0.709   5.252  1.5939  2.1627 -0.2127
 9302SOL     OW39538   1.991   4.617  13.448  0.1075 -0.1681 -0.1392
 9302SOL    HW139539   2.007   4.527  13.419  4.4930  0.1622  1.2814
 9302SOL    HW239540   2.064   4.667  13.411 -0.8243 -0.6415 -2.6128
 9303SOL     OW39541   0.774   4.495   4.559  0.2248 -0.1569  0.1044
 9303SOL    HW139542   0.695   4.458   4.599 -1.3635  0.1508 -2.6842
 9303SOL    HW239543   0.831   4.425   4.589 -0.8298 -1.0871 -0.0376
 9304SOL     OW39544   2.978   4.220   6.366  0.1331  0.3252 -0.2808
 9304SOL    HW139545   3.014   4.209   6.278  0.5594 -1.2227  0.0862
 9304SOL    HW239546   2.912   4.285   6.344  0.6442  0.4893 -1.3114
 9305SOL     OW39547   2.975   2.856   2.259 -0.0883 -0.4442  0.5522
 9305SOL    HW139548   2.968   2.935   2.312 -0.2734  0.7254 -1.2044
 9305SOL    HW239549   2.952   2.793   2.327 -0.9841 -0.6655  0.0360
 9306SOL     OW39550   3.538   2.313   4.875 -0.3789 -0.1285  0.6180
 9306SOL    HW139551   3.523   2.374   4.947 -2.1177 -0.2278  0.3557
 9306SOL    HW239552   3.582   2.370   4.812 -2.9187  2.1565  0.8559
 9307SOL     OW39553   2.037   2.711   6.640  0.2052 -0.1142  0.1896
 9307SOL    HW139554   2.070   2.621   6.649  1.8101  0.4510 -0.0263
 9307SOL    HW239555   1.971   2.697   6.572 -0.2122 -0.2440  0.6229
 9308SOL     OW39556   2.044   1.550  14.943 -0.2789 -0.2258  0.6987
 9308SOL    HW139557   2.117   1.569  14.883  0.2020  1.0626  1.6865
 9308SOL    HW239558   2.092   1.569  15.023 -2.1066  0.1972  1.6631
 9309SOL     OW39559   1.006   1.556   6.705  0.1652  0.1325 -0.0270
 9309SOL    HW139560   1.081   1.615   6.702 -1.1805  1.7371 -2.1868
 9309SOL    HW239561   1.051   1.472   6.701  0.1319  0.0783  0.6544
 9310SOL     OW39562   3.068   1.410  16.613 -0.4415  0.3264 -0.2025
 9310SOL    HW139563   3.161   1.434  16.620 -0.0275 -0.8837 -1.7360
 9310SOL    HW239564   3.073   1.317  16.634 -3.6556  0.0560 -0.7009
 9311SOL     OW39565   0.145   1.775   8.314 -0.1010  0.2701  0.3295
 9311SOL    HW139566   0.153   1.856   8.264 -2.8050 -1.1202 -2.3587
 9311SOL    HW239567   0.103   1.803   8.395 -1.1945  3.6703 -1.4345
 9312SOL     OW39568   0.128   3.076   6.471  0.5706 -0.2436  0.2349
 9312SOL    HW139569   0.061   3.127   6.516  1.6057 -0.5293  2.1188
 9312SOL    HW239570   0.082   2.994   6.492  1.3575 -0.4667  1.1441
 9313SOL     OW39571   0.521   3.746   5.672  0.1823  0.1774  0.2089
 9313SOL    HW139572   0.450   3.771   5.730  0.6656  2.2887 -0.0721
 9313SOL    HW239573   0.550   3.834   5.645 -0.3112  0.3086  0.1034
 9314SOL     OW39574   0.649   1.720   4.244 -0.0896  0.1253  0.0213
 9314SOL    HW139575   0.640   1.696   4.336 -1.5138 -0.3298 -0.2308
 9314SOL    HW239576   0.574   1.778   4.228  0.1511  0.2894 -0.5217
 9315SOL     OW39577   1.618   2.115   5.855  0.2900  0.0235 -0.2113
 9315SOL    HW139578   1.559   2.151   5.788  1.0216  0.1067 -0.8116
 9315SOL    HW239579   1.577   2.148   5.935 -0.0200  0.8589 -0.7085
 9316SOL     OW39580   3.549   1.588   6.573 -0.3604 -0.2275 -0.4343
 9316SOL    HW139581   3.623   1.647   6.557 -1.4874  1.1283 -0.7128
 9316SOL    HW239582   3.600   1.515   6.609 -0.1145  0.6785  1.0894
 9317SOL     OW39583   0.084   0.453   9.509 -0.1080 -0.1328  0.1712
 9317SOL    HW139584   0.088   0.430   9.416 -1.2767 -1.4214  0.4258
 9317SOL    HW239585   0.059   0.544   9.492 -1.0111 -0.5907 -0.9660
 9318SOL     OW39586   1.738   2.536   8.775 -0.2485  0.0302  0.3443
 9318SOL    HW139587   1.741   2.517   8.681  2.0601 -1.5288  0.7365
 9318SOL    HW239588   1.650   2.572   8.784 -1.6763 -2.2339 -4.6580
 9319SOL     OW39589   1.000   3.388   8.837 -0.2573 -0.1896  0.2577
 9319SOL    HW139590   1.011   3.331   8.913  0.0585  0.4093  0.6701
 9319SOL    HW239591   1.048   3.466   8.865  0.1245 -0.1871 -0.4034
 9320SOL     OW39592   4.714   0.012   4.303 -0.4643  1.0305  0.4108
 9320SOL    HW139593   4.726   0.101   4.334 -0.8524  1.1899  0.1019
 9320SOL    HW239594   0.070   4.715   4.300 -0.4290  1.3692 -2.4435
 9321SOL     OW39595   3.775   2.545   2.327 -0.5734  0.3080 -0.2319
 9321SOL    HW139596   3.787   2.479   2.396  0.8455  0.2045 -0.5833
 9321SOL    HW239597   3.866   2.575   2.317 -0.1679  0.0699  2.7491
 9322SOL     OW39598   2.337   0.114   4.613 -0.0297 -0.2566  0.1866
 9322SOL    HW139599   2.338   0.190   4.554  1.3997 -2.4392 -2.5982
 9322SOL    HW239600   2.390   0.140   4.689  0.3544 -0.2826 -0.0721
 9323SOL     OW39601   4.508   4.728   5.158  0.1706 -0.4865  0.6760
 9323SOL    HW139602   4.422   0.020   5.126 -0.1892 -2.0590  0.3701
 9323SOL    HW239603   4.501   4.634   5.176  0.7686 -0.5161  0.7762
 9324SOL     OW39604   2.633   1.694   3.359  0.2552  0.3972 -0.2349
 9324SOL    HW139605   2.596   1.725   3.441 -0.3145 -0.9239 -0.0047
 9324SOL    HW239606   2.655   1.602   3.371  1.4015  0.6932 -0.0518
 9325SOL     OW39607   2.643   0.627   4.040 -0.1253 -0.2531 -0.1207
 9325SOL    HW139608   2.716   0.678   4.074  1.5481 -0.8738 -2.7630
 9325SOL    HW239609   2.624   0.670   3.956  3.9610 -0.8449 -1.3380
 9326SOL     OW39610   4.355   4.137   9.218 -0.0442 -0.4187 -0.0439
 9326SOL    HW139611   4.386   4.093   9.297 -2.2711  0.0827  1.1147
 9326SOL    HW239612   4.371   4.228   9.243 -0.0853 -0.7393  1.1187
 9327SOL     OW39613   1.576   3.733   3.834  0.6069 -0.4969  0.0148
 9327SOL    HW139614   1.556   3.700   3.746 -3.0875 -1.5142  1.2376
 9327SOL    HW239615   1.608   3.654   3.879 -4.0985 -2.0754  0.5013
 9328SOL     OW39616   3.749   1.533   1.172 -0.1631  0.0114 -0.5218
 9328SOL    HW139617   3.748   1.514   1.266 -1.4173 -1.1431 -0.7582
 9328SOL    HW239618   3.697   1.611   1.159 -0.8584 -0.7886 -2.5130
 9329SOL     OW39619   1.433   0.324  10.805 -0.0919 -0.2176 -0.1711
 9329SOL    HW139620   1.445   0.236  10.841  1.0423  0.2079  0.5003
 9329SOL    HW239621   1.339   0.334  10.820 -0.3434 -0.0247 -1.8993
 9330SOL     OW39622   1.196   0.537  15.012  0.2748  0.3848  0.3031
 9330SOL    HW139623   1.169   0.460  15.063  1.4055 -0.6104 -0.5857
 9330SOL    HW239624   1.290   0.537  15.033 -0.0190  3.8856  1.5890
 9331SOL     OW39625   1.839   1.604   6.681 -0.0848  0.2919 -0.8990
 9331SOL    HW139626   1.791   1.549   6.744 -0.9797  0.3866 -1.4986
 9331SOL    HW239627   1.886   1.660   6.742  0.8141 -0.3658 -0.9926
 9332SOL     OW39628   3.454   2.950   0.635  0.3742  0.0240  0.2631
 9332SOL    HW139629   3.510   3.026   0.620 -0.1646  0.6165  1.2443
 9332SOL    HW239630   3.365   2.981   0.652  0.6527 -0.2614  2.2463
 9333SOL     OW39631   1.589   3.397   8.356  0.2791  0.2257  0.3011
 9333SOL    HW139632   1.612   3.489   8.340  1.9228  0.0188  1.3958
 9333SOL    HW239633   1.496   3.409   8.373  0.0972  2.3054 -2.1499
 9334SOL     OW39634   2.085   3.845   4.403 -0.2795 -0.6960  0.0498
 9334SOL    HW139635   2.035   3.767   4.381  1.7223 -1.7165 -0.9005
 9334SOL    HW239636   2.052   3.875   4.488  0.5952  2.1397 -0.6146
 9335SOL     OW39637   4.705   2.782   7.593 -0.1603 -0.1986  0.3364
 9335SOL    HW139638   4.719   2.711   7.529  1.5661 -1.0807  1.6718
 9335SOL    HW239639   4.613   2.768   7.617  0.1308  0.0800  1.6192
 9336SOL     OW39640   2.362   4.490   8.458  0.1832  0.4937  0.7446
 9336SOL    HW139641   2.396   4.419   8.513 -0.8567 -1.6906 -1.4276
 9336SOL    HW239642   2.444   4.523   8.421  0.5650  1.3661  2.3627
 9337SOL     OW39643   0.655   3.230   7.648  0.4133 -0.1812  0.1795
 9337SOL    HW139644   0.703   3.186   7.719  0.3334  2.2692  1.7390
 9337SOL    HW239645   0.588   3.273   7.701  0.8198  0.1856  0.4062
 9338SOL     OW39646   0.563   3.234  11.934  0.1599  0.6473  0.5326
 9338SOL    HW139647   0.652   3.261  11.958 -0.4714  1.1737  2.3435
 9338SOL    HW239648   0.557   3.252  11.841  1.5260  0.1993  0.3665
 9339SOL     OW39649   2.958   3.365  11.569  0.4138  0.0744 -0.1909
 9339SOL    HW139650   2.977   3.307  11.643 -3.3339 -0.9626 -0.0831
 9339SOL    HW239651   2.863   3.375  11.567  0.4156  0.2708  0.6438
 9340SOL     OW39652   3.637   3.620   4.899 -0.1521  0.0681  0.3294
 9340SOL    HW139653   3.583   3.561   4.847  2.1669 -2.1716  0.4169
 9340SOL    HW239654   3.666   3.679   4.830 -0.7247 -0.2489 -0.1806
 9341SOL     OW39655   4.376   2.926   2.056  0.4952  0.4734  0.7052
 9341SOL    HW139656   4.404   2.835   2.064  2.3120  0.9785  0.1323
 9341SOL    HW239657   4.395   2.960   2.144  0.1627  2.1677  0.1285
 9342SOL     OW39658   1.805   4.600   4.566 -0.0074 -0.1892 -0.9276
 9342SOL    HW139659   1.827   4.689   4.593  0.7384 -0.5171 -0.4770
 9342SOL    HW239660   1.723   4.606   4.516 -0.1709  0.0962 -0.6278
 9343SOL     OW39661   3.941   4.450   4.907 -0.2966  0.2121  0.4490
 9343SOL    HW139662   3.946   4.498   4.990  1.0374  0.6520  0.1181
 9343SOL    HW239663   3.846   4.443   4.910 -0.1734 -1.2431  1.0533
 9344SOL     OW39664   0.672   2.592   7.902  0.2317 -0.1360  0.2842
 9344SOL    HW139665   0.580   2.613   7.918  0.5817  0.5552  1.4088
 9344SOL    HW239666   0.683   2.501   7.929 -0.6372 -0.8599 -1.8452
 9345SOL     OW39667   0.902   0.091   8.911 -0.4211  0.3881  0.2263
 9345SOL    HW139668   0.873   0.027   8.846 -0.3265  0.7793 -0.2050
 9345SOL    HW239669   0.841   0.163   8.893  0.4052  1.1203  0.3837
 9346SOL     OW39670   0.475   2.788   6.562 -0.1269 -0.1802  0.5023
 9346SOL    HW139671   0.406   2.786   6.628 -0.0651 -1.9150  0.5056
 9346SOL    HW239672   0.510   2.700   6.556 -0.0712 -0.1365  0.1732
 9347SOL     OW39673   1.902   0.602   7.034 -0.3928  0.3248  0.1039
 9347SOL    HW139674   1.907   0.574   7.126 -0.4126 -1.4028 -0.4100
 9347SOL    HW239675   1.948   0.685   7.045 -2.2920  1.3003  0.6181
 9348SOL     OW39676   3.528   1.803   2.620 -0.0726 -0.0292  0.2329
 9348SOL    HW139677   3.540   1.708   2.623  2.4083  0.2970  0.4365
 9348SOL    HW239678   3.614   1.845   2.621  0.2852 -0.6701 -1.9920
 9349SOL     OW39679   2.592   4.612  14.196  0.4552 -0.1239 -0.4240
 9349SOL    HW139680   2.523   4.575  14.141 -0.4444 -0.0762  0.6848
 9349SOL    HW239681   2.616   4.685  14.137 -0.1055  0.5450  0.1791
 9350SOL     OW39682   3.424   4.670  17.701  0.3327 -0.0437  0.3443
 9350SOL    HW139683   3.358   4.710  17.644  0.3664  0.0413  0.3657
 9350SOL    HW239684   3.382   4.587  17.723 -2.9464  1.7241  0.8003
 9351SOL     OW39685   3.621   0.305   6.260  0.3553 -0.2316 -0.0206
 9351SOL    HW139686   3.714   0.289   6.277 -0.0068 -0.1893  2.0153
 9351SOL    HW239687   3.584   0.217   6.266 -2.5588  1.0160  0.5484
 9352SOL     OW39688   0.051   1.709   5.774  0.1491  0.3228 -0.6749
 9352SOL    HW139689   0.075   1.801   5.769 -0.3613  0.5531  1.1504
 9352SOL    HW239690   0.050   1.699   5.869  0.2540 -2.1082 -0.9262
 9353SOL     OW39691   4.063   3.621   9.927 -0.2073 -0.2072  0.5521
 9353SOL    HW139692   4.047   3.548   9.987  1.0338  0.1653  1.3310
 9353SOL    HW239693   4.003   3.681   9.971  0.6851  1.6032 -0.7333
 9354SOL     OW39694   1.776   4.712  17.127  0.4547 -0.3441 -0.4717
 9354SOL    HW139695   1.709   4.648  17.151 -1.1592  1.5675  0.0322
 9354SOL    HW239696   1.841   4.646  17.101  0.8343  0.1651 -0.7972
 9355SOL     OW39697   2.480   0.604   7.094  0.3892  0.5960 -0.1124
 9355SOL    HW139698   2.427   0.591   7.016  2.3928 -2.2953 -1.0124
 9355SOL    HW239699   2.411   0.618   7.158  0.7437 -1.1429  0.6580
 9356SOL     OW39700   0.601   0.976   5.246 -0.1215 -0.4958  0.0904
 9356SOL    HW139701   0.611   1.026   5.165  0.4394  0.1806  0.5740
 9356SOL    HW239702   0.691   0.974   5.279 -0.4780 -2.7912  0.9004
 9357SOL     OW39703   2.012   4.698   7.582  0.0210  0.5836 -0.3370
 9357SOL    HW139704   2.093   4.711   7.533 -0.4885  1.2960 -0.9812
 9357SOL    HW239705   2.017   0.037   7.643  1.9139 -0.7241  1.0880
 9358SOL     OW39706   1.837   1.175   2.595  0.3138 -0.2681  0.2915
 9358SOL    HW139707   1.891   1.232   2.540  1.3863 -1.5349  0.0094
 9358SOL    HW239708   1.868   1.086   2.574  2.0375  0.8543 -1.9976
 9359SOL     OW39709   2.040   2.550   4.940  0.5651  0.0992 -0.1062
 9359SOL    HW139710   2.048   2.473   4.996 -0.8044 -0.9896 -1.3789
 9359SOL    HW239711   1.980   2.529   4.868  1.6792 -1.2003 -0.6668
 9360SOL     OW39712   0.180   1.335   7.982  1.0860 -0.3526  0.3806
 9360SOL    HW139713   0.133   1.394   8.042  1.4098  0.9075 -0.6042
 9360SOL    HW239714   0.106   1.279   7.960 -2.8438  3.2707  4.3186
 9361SOL     OW39715   2.418   3.002  12.896 -0.6261 -0.1643 -0.3544
 9361SOL    HW139716   2.417   2.988  12.801 -2.9438 -0.9468 -0.2157
 9361SOL    HW239717   2.445   2.913  12.919  0.1526  0.5395  1.4519
 9362SOL     OW39718   4.065   3.298   8.833  0.2862 -0.2112  0.2234
 9362SOL    HW139719   4.066   3.394   8.825  1.4174 -0.2606 -0.2496
 9362SOL    HW239720   4.036   3.307   8.924 -1.5401 -0.4064 -0.3340
 9363SOL     OW39721   1.480   1.946   1.836  0.6048 -0.4906 -0.1933
 9363SOL    HW139722   1.408   1.887   1.811 -0.7626  0.3863  1.6758
 9363SOL    HW239723   1.485   2.002   1.758  0.4820  1.3847  1.1650
 9364SOL     OW39724   1.464   4.663   8.527 -0.4067  0.3542 -0.0276
 9364SOL    HW139725   1.500   4.711   8.453 -0.6461  1.6611  0.7033
 9364SOL    HW239726   1.372   4.690   8.528 -0.8169 -1.0232  0.0831
 9365SOL     OW39727   3.545   0.991   4.864 -0.2882 -0.9800 -0.5675
 9365SOL    HW139728   3.464   1.011   4.818  0.7263  0.6215 -1.6657
 9365SOL    HW239729   3.536   1.054   4.936  0.1726 -2.8133  1.1029
 9366SOL     OW39730   1.454   0.320  13.540  0.1237  0.0120 -0.2131
 9366SOL    HW139731   1.456   0.415  13.531  3.4178  0.0388  1.0059
 9366SOL    HW239732   1.430   0.315  13.448 -1.7908 -1.5431  0.3496
 9367SOL     OW39733   2.978   1.202   7.860 -0.2392  0.4112 -0.8151
 9367SOL    HW139734   3.003   1.113   7.886  2.2699  1.5483  0.6539
 9367SOL    HW239735   2.939   1.198   7.772  0.4207  1.7575 -1.1764
 9368SOL     OW39736   3.400   2.629   7.863  0.4999 -0.0935  0.0658
 9368SOL    HW139737   3.334   2.629   7.932 -1.1289  0.4809 -1.4793
 9368SOL    HW239738   3.453   2.555   7.890  0.7630  0.1171  0.1223
 9369SOL     OW39739   3.018   4.707  14.074 -0.4181  0.2109 -0.0224
 9369SOL    HW139740   3.036   4.623  14.118  0.1405  0.7941  0.8667
 9369SOL    HW239741   2.986   0.028  14.146 -1.7722 -1.4115  0.6411
 9370SOL     OW39742   2.330   3.808   9.308  0.0688 -0.0134 -0.0775
 9370SOL    HW139743   2.283   3.845   9.382  0.4595 -2.8108  1.5694
 9370SOL    HW239744   2.261   3.807   9.243 -0.0058 -2.8360  0.0656
 9371SOL     OW39745   2.599   1.288  10.872 -0.3287  0.0058  0.2777
 9371SOL    HW139746   2.599   1.205  10.919  2.4252 -0.9221 -1.3863
 9371SOL    HW239747   2.657   1.282  10.796  0.4688 -0.8078  0.9592
 9372SOL     OW39748   3.175   0.801   8.138 -0.4858  0.2160  0.0122
 9372SOL    HW139749   3.260   0.791   8.096 -0.4346  2.1978 -0.3590
 9372SOL    HW239750   3.203   0.837   8.222  1.1098  1.1775 -0.9313
 9373SOL     OW39751   2.024   2.898   0.535 -0.2964 -0.9404 -0.3984
 9373SOL    HW139752   2.075   2.927   0.459 -0.5042  1.4124  0.3794
 9373SOL    HW239753   2.088   2.838   0.572 -1.3019 -0.5296  2.0124
 9374SOL     OW39754   0.254   0.092   8.272 -0.1277 -0.4696  0.2968
 9374SOL    HW139755   0.306   0.054   8.342  4.4779  3.4336 -0.9992
 9374SOL    HW239756   0.311   0.146   8.218 -1.1951  0.4301  0.0531
 9375SOL     OW39757   0.598   1.144  12.244  0.2422 -0.3995 -0.5807
 9375SOL    HW139758   0.566   1.190  12.322  0.2699  1.3458 -1.5992
 9375SOL    HW239759   0.518   1.138  12.191  0.9376 -0.3343 -1.6404
 9376SOL     OW39760   1.987   4.104   0.631  0.3931 -0.4051 -0.1545
 9376SOL    HW139761   2.047   4.146   0.692  1.2960 -1.6739 -0.1707
 9376SOL    HW239762   2.046   4.040   0.591 -0.2055 -0.9078 -0.2398
 9377SOL     OW39763   3.921   3.895   2.569  0.3310  0.0505  0.3854
 9377SOL    HW139764   3.952   3.844   2.644  0.5062 -0.2956  0.0773
 9377SOL    HW239765   3.996   3.953   2.556  1.6606 -0.9147  3.6567
 9378SOL     OW39766   4.401   0.546   7.278 -0.8212 -0.2258 -0.7921
 9378SOL    HW139767   4.432   0.614   7.219 -1.0390 -0.0341 -0.6864
 9378SOL    HW239768   4.330   0.510   7.225 -0.9824 -2.4231  0.9142
 9379SOL     OW39769   4.634   0.140  16.186 -0.3519 -0.2801  0.1849
 9379SOL    HW139770   4.682   0.150  16.268  0.2711 -0.8540 -0.1108
 9379SOL    HW239771   4.577   0.066  16.204 -1.2525  0.7647  1.6207
 9380SOL     OW39772   2.481   0.023   3.835 -0.7068 -0.2497  0.1250
 9380SOL    HW139773   2.403   0.057   3.789  1.3233  2.6414 -1.1972
 9380SOL    HW239774   2.476   4.667   3.804 -1.7157 -0.1867  0.0812
 9381SOL     OW39775   4.593   3.529   4.539  0.3724  0.6072  0.7454
 9381SOL    HW139776   4.623   3.551   4.628 -0.9123 -0.0593  1.3399
 9381SOL    HW239777   4.540   3.450   4.547 -0.2473  0.8538 -0.8526
 9382SOL     OW39778   2.874   1.811  17.466 -0.1776 -0.3647  0.2907
 9382SOL    HW139779   2.830   1.799  17.382  0.6162 -2.0373  0.1051
 9382SOL    HW239780   2.793   1.833  17.513 -0.7474 -1.3845 -0.1997
 9383SOL     OW39781   3.080   2.292   4.769 -0.7008  0.0840  0.1937
 9383SOL    HW139782   3.037   2.375   4.789  2.2686  2.3955 -3.0129
 9383SOL    HW239783   3.157   2.298   4.827  0.6332 -1.0894 -1.4753
 9384SOL     OW39784   4.224   2.377   1.894 -0.0747 -0.1003  0.0248
 9384SOL    HW139785   4.162   2.318   1.939 -2.5095  0.3090 -2.8085
 9384SOL    HW239786   4.168   2.444   1.854 -1.1120 -0.2374  1.2112
 9385SOL     OW39787   1.045   2.554   5.412  0.2540 -0.6155  0.1448
 9385SOL    HW139788   0.975   2.587   5.357  1.1312 -0.8378 -1.0917
 9385SOL    HW239789   1.060   2.467   5.375  2.2032  0.1339 -0.7923
 9386SOL     OW39790   0.837   2.344   6.116  0.1104 -0.1276 -0.4922
 9386SOL    HW139791   0.917   2.310   6.076  0.6276 -0.0651  0.5066
 9386SOL    HW239792   0.804   2.405   6.050 -0.1574 -0.0606 -0.2972
 9387SOL     OW39793   2.588   3.988  14.907 -0.3373  0.1898 -0.1572
 9387SOL    HW139794   2.529   4.063  14.898  1.7365  1.8211  0.0065
 9387SOL    HW239795   2.565   3.937  14.829  1.2252  1.8152 -1.6715
 9388SOL     OW39796   1.891   3.452   8.211 -0.3068  0.6327  0.2790
 9388SOL    HW139797   1.812   3.401   8.227 -0.0891  0.4787  0.8635
 9388SOL    HW239798   1.912   3.431   8.120  1.4876 -3.1137  1.5959
 9389SOL     OW39799   1.238   2.195   1.767  0.0770  0.1833  0.3297
 9389SOL    HW139800   1.309   2.207   1.705 -1.8397 -2.2426 -2.3367
 9389SOL    HW239801   1.286   2.163   1.844  1.6727  0.2201 -0.6622
 9390SOL     OW39802   0.770   0.099   3.966 -0.5601 -0.2173 -0.3114
 9390SOL    HW139803   0.679   0.127   3.980  0.8225  4.2959 -0.3322
 9390SOL    HW239804   0.771   0.006   3.986  1.2267  0.3284  2.0988
 9391SOL     OW39805   0.305   0.860   8.443 -0.4319 -0.1478 -0.0633
 9391SOL    HW139806   0.218   0.821   8.428 -1.0611  0.3841  2.1655
 9391SOL    HW239807   0.283   0.915   8.518 -0.9549  1.0327 -1.0866
 9392SOL     OW39808   1.402   2.331  14.220 -0.8126 -0.0520 -0.5165
 9392SOL    HW139809   1.346   2.285  14.282  1.9284 -0.2326  1.8217
 9392SOL    HW239810   1.343   2.341  14.146 -0.9378  1.0382 -0.2731
 9393SOL     OW39811   1.636   4.077  16.477  0.6018  0.4111  0.3555
 9393SOL    HW139812   1.581   4.156  16.473  0.2218  0.1598  0.6180
 9393SOL    HW239813   1.574   4.016  16.439  1.8130 -1.5724  1.5547
 9394SOL     OW39814   2.680   4.634   7.985 -0.1618 -0.0866  0.1132
 9394SOL    HW139815   2.698   4.602   8.074 -0.7596  1.0812  0.6567
 9394SOL    HW239816   2.585   4.642   7.984 -0.1576  0.1166  0.8861
 9395SOL     OW39817   4.559   1.601   5.972 -0.5583 -0.4465 -0.0474
 9395SOL    HW139818   4.615   1.602   6.050  1.5134 -0.1159 -1.5231
 9395SOL    HW239819   4.533   1.690   5.948  1.0435  0.1613  0.4772
 9396SOL     OW39820   2.105   1.142   6.328  0.4630  0.4653 -0.3120
 9396SOL    HW139821   2.070   1.153   6.417  0.8869  1.2236 -0.2363
 9396SOL    HW239822   2.073   1.054   6.310  1.6907  0.3513 -1.9009
 9397SOL     OW39823   3.471   2.725  10.571  0.3915 -0.1946  0.0795
 9397SOL    HW139824   3.436   2.664  10.506 -1.4099  0.1781  0.6968
 9397SOL    HW239825   3.444   2.675  10.648  1.8528  0.3563  0.9621
 9398SOL     OW39826   2.018   2.284   7.933  0.5897 -0.2253  0.5917
 9398SOL    HW139827   1.980   2.296   8.020 -0.3698  1.7919 -0.1134
 9398SOL    HW239828   2.089   2.223   7.955  1.1779 -0.0142 -0.7140
 9399SOL     OW39829   2.668   3.435   4.066  0.8895  0.2220 -0.0512
 9399SOL    HW139830   2.733   3.376   4.105  0.5797  0.7607  1.2786
 9399SOL    HW239831   2.594   3.409   4.121  0.4605  1.3910 -0.0846
 9400SOL     OW39832   1.565   3.979  17.275  0.5578  0.6156 -0.0190
 9400SOL    HW139833   1.481   3.933  17.273 -0.0257  1.8082 -2.8057
 9400SOL    HW239834   1.608   3.936  17.202  0.6320 -0.2210  0.5213
 9401SOL     OW39835   3.744   3.580   5.178  0.6347 -0.2680 -0.3957
 9401SOL    HW139836   3.700   3.636   5.114 -2.1432  0.5481  2.2545
 9401SOL    HW239837   3.803   3.539   5.115  2.0182  1.3566 -0.1578
 9402SOL     OW39838   1.767   4.049   1.694 -0.3357  0.3343  0.4084
 9402SOL    HW139839   1.769   3.958   1.667  4.7367  0.1494  1.3660
 9402SOL    HW239840   1.724   4.044   1.780 -1.8636  0.6755 -0.3409
 9403SOL     OW39841   3.979   2.954   4.548  0.9846 -0.7018 -0.2602
 9403SOL    HW139842   4.030   2.999   4.480 -0.1365 -0.3818 -0.8839
 9403SOL    HW239843   3.891   2.982   4.521  1.4011  1.9690  1.0965
 9404SOL     OW39844   3.403   3.115   8.802 -0.4572  0.1396  0.5384
 9404SOL    HW139845   3.342   3.177   8.842  1.2326  2.1100  0.0703
 9404SOL    HW239846   3.470   3.179   8.777 -2.1938  1.9044  0.3473
 9405SOL     OW39847   1.176   4.456   0.818  0.0181 -0.0769 -0.2576
 9405SOL    HW139848   1.148   4.405   0.894  1.3853 -0.1669  0.1854
 9405SOL    HW239849   1.229   4.522   0.862 -0.4097 -0.8264  1.3802
 9406SOL     OW39850   0.815   3.602   8.658 -0.3091 -0.7826 -0.6701
 9406SOL    HW139851   0.891   3.637   8.705 -0.4193  0.7399 -1.6225
 9406SOL    HW239852   0.848   3.594   8.568  1.4675 -0.8097 -0.0144
 9407SOL     OW39853   0.107   3.334   4.692 -0.7770  0.4645  0.0502
 9407SOL    HW139854   0.149   3.275   4.754 -4.1153 -1.5617  0.3854
 9407SOL    HW239855   0.131   3.421   4.722  0.2107 -0.6211  2.3956
 9408SOL     OW39856   1.996   4.238   1.610  0.1000 -0.3794  0.3507
 9408SOL    HW139857   1.965   4.180   1.679 -0.0459  1.0197  1.4807
 9408SOL    HW239858   1.945   4.203   1.537  1.8208  0.4415 -1.2376
 9409SOL     OW39859   3.917   0.952   4.852 -0.5604 -0.1999 -0.5138
 9409SOL    HW139860   3.889   1.026   4.798 -0.7896 -0.1017 -0.2593
 9409SOL    HW239861   3.850   0.884   4.846 -0.6466 -0.2772  1.3099
 9410SOL     OW39862   4.218   0.780  12.008  0.2465  0.6627  0.3613
 9410SOL    HW139863   4.265   0.848  11.961 -0.6234 -0.0911 -1.5984
 9410SOL    HW239864   4.287   0.761  12.072 -1.0129  0.4031  1.6418
 9411SOL     OW39865   3.951   3.992   6.362  0.4070  0.2060  0.0563
 9411SOL    HW139866   4.020   3.964   6.423 -0.3369 -0.4303  0.6076
 9411SOL    HW239867   3.965   4.086   6.375  1.1789 -0.2278  2.4680
 9412SOL     OW39868   3.556   0.390  12.635  0.0781  0.0747 -0.0913
 9412SOL    HW139869   3.515   0.331  12.572  0.8083 -2.8137  2.1239
 9412SOL    HW239870   3.607   0.333  12.692  1.9719  1.1527 -0.7323
 9413SOL     OW39871   2.360   3.130   0.834  0.7975 -0.4190 -0.2595
 9413SOL    HW139872   2.280   3.182   0.827  1.0710 -0.0767 -0.8531
 9413SOL    HW239873   2.378   3.123   0.928  0.7923  1.2912 -0.1249
 9414SOL     OW39874   0.576   4.016   4.993 -0.4032  0.3304  0.6323
 9414SOL    HW139875   0.639   4.015   5.065  2.3314 -0.2233 -1.7658
 9414SOL    HW239876   0.564   3.923   4.974  2.0645 -0.1304  1.2090
 9415SOL     OW39877   2.962   3.468   6.384  0.3656  0.1304  0.4152
 9415SOL    HW139878   3.054   3.442   6.387  0.1141 -0.7849  0.2729
 9415SOL    HW239879   2.933   3.477   6.475 -1.7704  1.7437 -0.4324
 9416SOL     OW39880   2.371   2.323   7.004  0.0552 -0.2453 -0.4573
 9416SOL    HW139881   2.369   2.233   7.038 -1.0550 -0.1500 -0.2768
 9416SOL    HW239882   2.450   2.319   6.950  1.3818 -0.4664  1.4766
 9417SOL     OW39883   1.068   2.360   7.524  0.4103 -0.4501 -1.2226
 9417SOL    HW139884   1.063   2.318   7.439 -1.8989 -3.2681  0.3085
 9417SOL    HW239885   1.158   2.338   7.548  0.0751 -1.3405 -0.8017
 9418SOL     OW39886   0.372   4.318   5.996  0.0765 -0.4530 -0.5174
 9418SOL    HW139887   0.460   4.301   5.963 -0.2865 -2.2133 -0.5935
 9418SOL    HW239888   0.322   4.263   5.935 -0.0829 -2.4026  1.3993
 9419SOL     OW39889   3.629   0.928   2.578  0.3587  0.3063  0.1539
 9419SOL    HW139890   3.588   0.846   2.549  0.0878  1.0949 -1.6712
 9419SOL    HW239891   3.573   0.970   2.643  0.7184 -0.7464  1.1623
 9420SOL     OW39892   2.593   1.039   8.937 -0.0292 -0.5193 -0.1984
 9420SOL    HW139893   2.604   1.009   8.846  1.6662 -1.7632  0.4145
 9420SOL    HW239894   2.639   0.963   8.973  1.9183  0.2413 -1.0906
 9421SOL     OW39895   1.905   4.296   2.381  0.0863 -0.0843  0.5113
 9421SOL    HW139896   1.925   4.377   2.428 -1.0038 -0.6000  1.8718
 9421SOL    HW239897   1.927   4.332   2.296 -0.2480 -3.3035 -0.9440
 9422SOL     OW39898   3.897   2.003   2.256 -0.7645 -0.2179  0.3600
 9422SOL    HW139899   3.866   1.925   2.302 -2.2100 -0.3288 -0.8075
 9422SOL    HW239900   3.992   1.994   2.266 -0.7353 -0.1099  0.1757
 9423SOL     OW39901   3.156   0.070   9.409  0.8130  0.6433 -0.0774
 9423SOL    HW139902   3.114   0.148   9.373  0.3452 -0.0758 -1.0740
 9423SOL    HW239903   3.207   0.117   9.474  0.1719  0.4847  0.5369
 9424SOL     OW39904   2.892   3.952   6.455 -0.4768  0.1381 -0.0903
 9424SOL    HW139905   2.921   4.038   6.425  1.3562 -0.6449 -0.5766
 9424SOL    HW239906   2.941   3.896   6.394  3.0008 -0.5118  3.2479
 9425SOL     OW39907   0.034   0.924   2.237 -0.2636 -0.4564  0.2070
 9425SOL    HW139908   4.707   0.860   2.202 -1.0831 -0.0339  0.8818
 9425SOL    HW239909   0.000   0.918   2.326 -0.8952  1.4474  0.1047
 9426SOL     OW39910   0.250   1.752   3.938  0.0226  0.5916  0.2896
 9426SOL    HW139911   0.184   1.799   3.886 -1.9141 -1.0860  1.2859
 9426SOL    HW239912   0.242   1.804   4.018 -1.6777 -1.6483  1.5546
 9427SOL     OW39913   2.429   4.176   5.095 -0.0193 -0.0329  0.4831
 9427SOL    HW139914   2.487   4.105   5.067  3.6619  2.7008  1.1266
 9427SOL    HW239915   2.384   4.212   5.018  0.9762  0.0080 -0.0841
 9428SOL     OW39916   0.105   3.660   6.952 -0.1590  0.9147 -0.1938
 9428SOL    HW139917   0.102   3.673   6.858  1.4428  2.0708 -0.0907
 9428SOL    HW239918   0.172   3.591   6.955 -0.4845  0.5832 -0.6475
 9429SOL     OW39919   2.955   3.879   6.727  0.5065  0.1343  0.7351
 9429SOL    HW139920   2.949   3.899   6.634 -0.2943  0.4195  0.8501
 9429SOL    HW239921   2.912   3.950   6.775  1.0199 -0.2250  1.7287
 9430SOL     OW39922   3.942   4.132  12.438 -0.2390  0.3618 -0.3965
 9430SOL    HW139923   4.035   4.133  12.418 -0.3198  1.1428 -0.6992
 9430SOL    HW239924   3.902   4.195  12.379  0.9378  1.3707 -0.0997
 9431SOL     OW39925   0.702   3.111  15.580  0.0374 -0.0624  0.4663
 9431SOL    HW139926   0.697   3.163  15.660 -1.7067  0.8214 -0.2175
 9431SOL    HW239927   0.611   3.120  15.553  0.0978 -0.7237  0.0388
 9432SOL     OW39928   2.668   4.585   7.597  0.0078 -0.0995  0.2437
 9432SOL    HW139929   2.681   4.678   7.619  0.5478 -0.3510  0.9913
 9432SOL    HW239930   2.760   4.561   7.608  0.9610  2.8234 -1.2738
 9433SOL     OW39931   3.907   2.025   6.268 -0.1407 -0.2303 -0.0630
 9433SOL    HW139932   3.888   2.118   6.280  1.4648  0.1235 -0.2494
 9433SOL    HW239933   3.855   2.000   6.344  0.8818  3.6988  1.9292
 9434SOL     OW39934   1.837   1.335   7.657 -0.3000 -0.3809 -0.0848
 9434SOL    HW139935   1.793   1.349   7.741 -0.3955 -0.5029 -0.1129
 9434SOL    HW239936   1.870   1.245   7.663 -1.1034 -0.5766  1.7414
 9435SOL     OW39937   2.280   3.806   5.000 -0.1438 -0.0958  0.4414
 9435SOL    HW139938   2.263   3.725   5.047 -0.2748 -2.3557 -3.5446
 9435SOL    HW239939   2.213   3.863   5.036 -0.3797  0.0098 -0.1550
 9436SOL     OW39940   2.021   2.326   2.132  0.0008  0.0438  0.6733
 9436SOL    HW139941   1.984   2.349   2.047 -1.9062 -1.2224  1.1723
 9436SOL    HW239942   2.056   2.412   2.153  0.7270 -0.3894  1.2334
 9437SOL     OW39943   0.676   0.001   7.039 -0.0254 -0.2182 -0.1854
 9437SOL    HW139944   0.739   0.043   7.098  0.1414 -1.5733  0.6082
 9437SOL    HW239945   0.609   4.706   7.102 -0.3911  0.1741 -0.3924
 9438SOL     OW39946   3.636   4.488   3.276 -0.4751  0.1565 -0.2048
 9438SOL    HW139947   3.622   4.563   3.218  0.4520 -0.9943 -1.9025
 9438SOL    HW239948   3.667   4.532   3.356  0.3435 -0.7877 -0.0163
 9439SOL     OW39949   0.384   2.417   7.522  0.4646  0.2922 -0.8687
 9439SOL    HW139950   0.455   2.480   7.537  2.1952 -1.4862 -1.5529
 9439SOL    HW239951   0.333   2.466   7.458  0.3054  0.4984 -0.5841
 9440SOL     OW39952   0.734   2.582   7.324 -0.0326 -0.7469  0.2548
 9440SOL    HW139953   0.753   2.582   7.231 -3.9913 -2.2821 -0.5725
 9440SOL    HW239954   0.748   2.492   7.354 -1.5556 -1.0643  0.0536
 9441SOL     OW39955   0.093   2.242   7.998 -0.3279  0.3262  0.2619
 9441SOL    HW139956   0.003   2.272   8.000 -0.4901 -0.1702  0.3158
 9441SOL    HW239957   0.079   2.169   7.937  0.8787  0.8272 -0.6202
 9442SOL     OW39958   2.729   3.571   4.452  0.0075 -0.0994  0.8742
 9442SOL    HW139959   2.789   3.512   4.407 -0.9260 -1.1513  1.0067
 9442SOL    HW239960   2.673   3.601   4.380  1.4137  2.1947  0.7445
 9443SOL     OW39961   3.274   0.502   4.438 -0.0215 -0.2919 -0.4372
 9443SOL    HW139962   3.225   0.548   4.370 -2.0215  0.9142  1.8155
 9443SOL    HW239963   3.318   0.578   4.477 -0.5597 -0.1254 -0.1535
 9444SOL     OW39964   3.025   0.848   9.622  0.6496 -0.1849 -0.1201
 9444SOL    HW139965   2.997   0.888   9.705  2.5689 -0.3782  0.6205
 9444SOL    HW239966   3.104   0.901   9.609  0.7659 -0.2757  0.2057
 9445SOL     OW39967   2.552   0.946  13.546  0.0500 -0.3273  0.1634
 9445SOL    HW139968   2.487   0.947  13.476 -0.6753  0.3041  0.8450
 9445SOL    HW239969   2.592   1.033  13.546 -1.0759  0.1969  0.6982
 9446SOL     OW39970   3.051   1.883   3.471  0.2301 -0.4237 -0.3736
 9446SOL    HW139971   3.037   1.978   3.462 -0.5804 -0.3195  1.9456
 9446SOL    HW239972   3.095   1.885   3.556 -1.1412  2.5193  0.2819
 9447SOL     OW39973   0.856   4.035  17.606 -0.1176 -0.2971 -0.0450
 9447SOL    HW139974   0.835   3.968  17.540 -1.0677  0.0826 -0.1329
 9447SOL    HW239975   0.936   4.006  17.648 -0.5159  0.8645  1.4835
 9448SOL     OW39976   2.662   0.444   8.324 -0.0481 -0.3811 -0.4032
 9448SOL    HW139977   2.655   0.409   8.413 -0.7883 -0.1661 -0.3788
 9448SOL    HW239978   2.753   0.426   8.302  1.1570  3.2401  1.7052
 9449SOL     OW39979   2.238   0.529   1.816  0.0434 -0.4899 -0.3157
 9449SOL    HW139980   2.154   0.570   1.836 -1.0080 -2.4672 -0.6206
 9449SOL    HW239981   2.238   0.474   1.894 -2.1122 -1.1530 -0.7742
 9450SOL     OW39982   3.010   2.738   4.651  0.0071  0.0466 -0.0651
 9450SOL    HW139983   3.019   2.690   4.568  0.3023 -1.4037  0.7935
 9450SOL    HW239984   3.094   2.783   4.651 -0.2905  0.6055 -0.8459
 9451SOL     OW39985   4.095   1.909   2.016 -0.2169 -0.0216 -0.1825
 9451SOL    HW139986   4.141   1.866   1.944  0.1760  2.3557 -1.3375
 9451SOL    HW239987   4.081   1.836   2.077 -0.8237  1.1890  1.1437
 9452SOL     OW39988   0.811   0.423   4.949 -0.0612 -0.2692  0.3037
 9452SOL    HW139989   0.905   0.426   4.964 -0.1198  2.4290  0.2887
 9452SOL    HW239990   0.795   0.376   4.867 -0.3885  2.4641 -1.2176
 9453SOL     OW39991   3.849   2.430   9.678 -0.0823 -0.0569  0.2231
 9453SOL    HW139992   3.929   2.453   9.631 -0.2519 -1.1257 -0.5777
 9453SOL    HW239993   3.880   2.350   9.721  2.6545  0.1587 -1.3674
 9454SOL     OW39994   4.515   1.854  10.811 -0.3244 -0.1401 -0.1137
 9454SOL    HW139995   4.531   1.765  10.844 -1.3446  0.3748  1.7626
 9454SOL    HW239996   4.423   1.869  10.834 -1.2876 -4.1260 -1.4444
 9455SOL     OW39997   3.409   0.128  12.787  0.5024 -0.1617  0.6003
 9455SOL    HW139998   3.398   0.161  12.698 -1.3697 -0.0073  0.8888
 9455SOL    HW239999   3.370   0.194  12.845 -1.4526 -1.3713  0.6691
 9456SOL     OW40000   1.112   2.263   4.628  0.7639 -0.1008 -0.1787
 9456SOL    HW140001   1.102   2.225   4.540 -1.6092  0.4020 -0.1242
 9456SOL    HW240002   1.082   2.188   4.679 -0.8625  1.3316  0.9312
 9457SOL     OW40003   1.145   0.984   7.112 -0.1956 -0.1852 -0.1900
 9457SOL    HW140004   1.208   1.009   7.045  0.1385  1.5318  0.7595
 9457SOL    HW240005   1.144   0.890   7.095 -0.2715 -0.0738 -0.7850
 9458SOL     OW40006   3.010   3.986   5.536  0.3464  0.7204 -0.2707
 9458SOL    HW140007   2.953   4.063   5.529  0.2235  0.5770 -0.8878
 9458SOL    HW240008   2.963   3.935   5.602  0.4845  1.4668  0.4029
 9459SOL     OW40009   4.537   0.339   6.747  0.1721  0.4660 -0.3137
 9459SOL    HW140010   4.490   0.282   6.808  1.7722 -0.1016  0.3949
 9459SOL    HW240011   4.543   0.417   6.802 -0.8290 -0.2156  0.7719
 9460SOL     OW40012   2.453   3.439   7.347  0.2475  0.0770  0.1150
 9460SOL    HW140013   2.476   3.437   7.254  1.2945  1.6507  0.3423
 9460SOL    HW240014   2.540   3.440   7.387 -0.0317  1.9314  0.6675
 9461SOL     OW40015   0.265   0.509   3.339 -0.0952 -0.5193  0.6661
 9461SOL    HW140016   0.285   0.454   3.263  0.1022  0.7835 -0.2264
 9461SOL    HW240017   0.338   0.492   3.399  0.9443 -0.4534 -0.5777
 9462SOL     OW40018   2.103   2.449   6.305  0.4463  1.1919 -0.1151
 9462SOL    HW140019   2.173   2.508   6.280  2.4537 -1.4389 -0.7608
 9462SOL    HW240020   2.097   2.404   6.221 -0.7442 -0.3724  0.7885
 9463SOL     OW40021   0.838   0.300   7.273  0.1989  0.4208 -0.2418
 9463SOL    HW140022   0.925   0.341   7.279 -0.2230  1.4273 -1.0843
 9463SOL    HW240023   0.851   0.206   7.280  1.7961  0.6585  0.0696
 9464SOL     OW40024   0.653   0.248  17.511  0.6348  0.5538  0.5657
 9464SOL    HW140025   0.707   0.202  17.576 -0.3480 -2.6778 -0.8837
 9464SOL    HW240026   0.653   0.332  17.556  2.3051  0.3650  0.9278
 9465SOL     OW40027   4.456   2.918  10.709 -0.5831  0.5874 -0.1709
 9465SOL    HW140028   4.463   2.863  10.632  2.5476  1.7414 -0.6949
 9465SOL    HW240029   4.513   2.867  10.766  0.9312  2.5708  0.0803
 9466SOL     OW40030   3.996   2.791   7.488  0.3529  0.3122  0.2603
 9466SOL    HW140031   3.970   2.804   7.397 -0.1909 -0.6464  0.2752
 9466SOL    HW240032   3.967   2.873   7.527 -0.3656  0.6271 -0.9346
 9467SOL     OW40033   4.265   3.453  16.780 -0.5326  0.1275 -0.2341
 9467SOL    HW140034   4.233   3.521  16.840 -2.7905  1.2047 -2.6398
 9467SOL    HW240035   4.268   3.500  16.696  1.9201  0.0423 -0.1897
 9468SOL     OW40036   2.728   0.041   8.895 -0.1449 -0.3915 -0.0749
 9468SOL    HW140037   2.777   4.699   8.866  1.7822  1.3938 -1.5777
 9468SOL    HW240038   2.652   0.029   8.838 -1.2724 -1.0621  1.5777
 9469SOL     OW40039   2.745   1.063  10.184 -0.0413  0.3503  0.2720
 9469SOL    HW140040   2.764   0.969  10.179 -3.1187 -0.2732  0.3370
 9469SOL    HW240041   2.833   1.100  10.186 -0.8659  2.3552 -0.4309
 9470SOL     OW40042   1.766   0.159   1.109  0.3960 -0.1924  0.2516
 9470SOL    HW140043   1.834   0.195   1.166 -0.4715  1.7532  0.0498
 9470SOL    HW240044   1.705   0.230   1.127  0.1068 -0.7171  1.3298
 9471SOL     OW40045   4.143   4.577  13.871  0.4696  0.5688 -1.0602
 9471SOL    HW140046   4.112   4.612  13.955  0.2888  0.3589 -1.0403
 9471SOL    HW240047   4.071   4.617  13.823 -0.4848 -0.0638 -0.1415
 9472SOL     OW40048   3.341   0.615   6.856 -0.7724 -0.1182  0.3721
 9472SOL    HW140049   3.307   0.616   6.945 -1.9550  0.5282 -0.1013
 9472SOL    HW240050   3.371   0.524   6.852  0.9048  0.4522 -0.0323
 9473SOL     OW40051   2.530   4.048   7.772  0.1257 -0.0309 -0.3260
 9473SOL    HW140052   2.593   3.996   7.820  0.6844  0.0141 -1.0040
 9473SOL    HW240053   2.471   3.983   7.734  0.9055 -0.7847 -0.2442
 9474SOL     OW40054   2.843   3.870   2.375 -0.3351 -0.3454 -0.3866
 9474SOL    HW140055   2.826   3.948   2.429 -2.0741  0.8358 -2.6182
 9474SOL    HW240056   2.936   3.888   2.363 -0.4137 -0.3106 -0.9594
 9475SOL     OW40057   4.094   3.877   2.237  0.4694 -0.2358 -0.2987
 9475SOL    HW140058   4.101   3.931   2.316 -2.4013 -0.7008  0.2770
 9475SOL    HW240059   4.011   3.830   2.248  0.3796  0.3774  1.5519
 9476SOL     OW40060   1.459   2.699   0.767  0.3195  0.7100 -0.5538
 9476SOL    HW140061   1.554   2.704   0.757  0.6636 -2.1608  1.2658
 9476SOL    HW240062   1.436   2.737   0.682  1.9164 -1.7951 -2.1224
 9477SOL     OW40063   1.411   4.104   3.207 -0.7542 -0.5242  0.5310
 9477SOL    HW140064   1.361   4.175   3.245 -0.2502 -0.6885  1.4919
 9477SOL    HW240065   1.349   4.034   3.227 -1.5046  0.0516  0.1824
 9478SOL     OW40066   3.870   0.621   4.925 -0.0236 -0.0381  0.0543
 9478SOL    HW140067   3.829   0.537   4.906 -1.5884  0.6878  0.2485
 9478SOL    HW240068   3.825   0.678   4.863 -1.5930 -0.1069  1.1336
 9479SOL     OW40069   2.576   3.980   0.370  0.2346 -0.3619 -0.3691
 9479SOL    HW140070   2.549   3.900   0.325  0.0306 -2.1036  2.8762
 9479SOL    HW240071   2.507   4.042   0.346 -0.5620 -0.6884  1.1451
 9480SOL     OW40072   2.449   4.512   3.717 -0.1358  0.6623 -0.3995
 9480SOL    HW140073   2.472   4.501   3.625  0.8651 -1.1042  0.0486
 9480SOL    HW240074   2.358   4.481   3.720  0.6526 -1.5578  0.8436
 9481SOL     OW40075   3.305   2.747   3.260  0.4756 -0.2442  0.7343
 9481SOL    HW140076   3.345   2.803   3.327  0.3076  0.2594  0.4131
 9481SOL    HW240077   3.251   2.816   3.222 -2.2979 -1.9027  1.5757
 9482SOL     OW40078   4.084   3.141   9.224  0.2822  0.1687 -0.4085
 9482SOL    HW140079   4.031   3.115   9.299  1.4032  1.8684  0.9707
 9482SOL    HW240080   4.107   3.054   9.190 -1.5556  0.2484 -1.8591
 9483SOL     OW40081   1.295   2.631  14.372  0.1665 -0.2836  0.1832
 9483SOL    HW140082   1.208   2.611  14.407 -0.0110  0.0880 -0.0517
 9483SOL    HW240083   1.298   2.717  14.331  0.7865 -0.6996 -0.6449
 9484SOL     OW40084   3.109   0.473   8.548  0.2427  0.2084  0.1239
 9484SOL    HW140085   3.163   0.549   8.528 -1.5994  1.2918 -0.7876
 9484SOL    HW240086   3.050   0.513   8.612  1.1005 -1.6640  2.0951
 9485SOL     OW40087   0.330   4.224   9.191  0.2328  0.2369 -0.2111
 9485SOL    HW140088   0.260   4.200   9.251  0.6787  1.5550  0.8339
 9485SOL    HW240089   0.287   4.290   9.135 -0.6826  0.1123  0.3554
 9486SOL     OW40090   2.664   1.842   5.057  0.0085 -0.1433 -0.9943
 9486SOL    HW140091   2.714   1.922   5.039 -1.2197  1.0176  0.7952
 9486SOL    HW240092   2.575   1.875   5.068  0.6301  1.2845 -0.2730
 9487SOL     OW40093   0.819   4.019   6.782 -0.1339  0.1991  0.0568
 9487SOL    HW140094   0.774   3.967   6.850 -1.4079 -0.4963 -1.3244
 9487SOL    HW240095   0.911   3.996   6.795 -0.4504  1.1954  4.0625
 9488SOL     OW40096   2.864   3.181  17.219 -0.3305 -0.5815 -0.1956
 9488SOL    HW140097   2.844   3.147  17.132  0.8287  0.6120 -0.9412
 9488SOL    HW240098   2.801   3.252  17.233 -1.3445 -0.9535 -2.9731
 9489SOL     OW40099   0.382   3.033  15.225 -0.6511  0.0628 -0.0885
 9489SOL    HW140100   0.349   3.061  15.140  1.4082  0.0476 -0.8914
 9489SOL    HW240101   0.438   3.108  15.244 -0.6656  0.2705 -0.8833
 9490SOL     OW40102   2.118   2.066   4.531 -0.0514  0.2458  0.0155
 9490SOL    HW140103   2.024   2.074   4.547 -0.4987 -1.0124 -1.9239
 9490SOL    HW240104   2.123   2.128   4.458  1.1865 -0.3452 -0.4012
 9491SOL     OW40105   0.560   1.577   4.871  0.2739  0.4001 -0.1049
 9491SOL    HW140106   0.527   1.489   4.851 -0.9186  0.7194  0.5179
 9491SOL    HW240107   0.495   1.621   4.817 -1.1300 -0.0709  1.1892
 9492SOL     OW40108   3.590   3.862  16.563  0.4924  0.1084 -0.3382
 9492SOL    HW140109   3.648   3.874  16.638 -0.5375  2.8757  0.0204
 9492SOL    HW240110   3.508   3.847  16.610  1.7315 -2.9093  0.8559
 9493SOL     OW40111   3.432   0.687   9.476  0.3390  0.3203 -0.3745
 9493SOL    HW140112   3.432   0.680   9.381  0.3508 -2.0535 -0.2065
 9493SOL    HW240113   3.381   0.768   9.484 -0.7450 -0.5030  1.2022
 9494SOL     OW40114   4.104   0.699  10.922  0.1039 -0.4051 -0.1975
 9494SOL    HW140115   4.177   0.661  10.970  0.2933 -1.0858 -1.0450
 9494SOL    HW240116   4.095   0.632  10.855  3.7577  1.5052 -2.6223
 9495SOL     OW40117   0.793   2.997   6.199  0.0281  0.0843 -0.0728
 9495SOL    HW140118   0.874   2.982   6.249 -0.9752  0.7139  1.7212
 9495SOL    HW240119   0.746   3.064   6.248  2.0576  1.0746  0.5498
 9496SOL     OW40120   0.586   4.594  10.466  0.6488 -0.0802  0.6099
 9496SOL    HW140121   0.645   4.564  10.398 -0.9012 -1.2363 -0.2275
 9496SOL    HW240122   0.505   4.605  10.416  1.6727 -0.9079 -1.2023
 9497SOL     OW40123   2.686   0.781  10.177 -0.0820  0.0210 -0.0692
 9497SOL    HW140124   2.620   0.720  10.209  1.0382  0.6066  3.2811
 9497SOL    HW240125   2.749   0.726  10.130  1.5971 -1.2351  3.6306
 9498SOL     OW40126   1.749   2.790   6.596 -0.1710  0.4017 -0.1484
 9498SOL    HW140127   1.724   2.790   6.688 -0.1330 -1.0841 -0.1447
 9498SOL    HW240128   1.758   2.699   6.567  0.4098  0.8717 -1.4372
 9499SOL     OW40129   0.828   3.432   2.131  0.7007  1.0165  0.3655
 9499SOL    HW140130   0.850   3.377   2.056 -0.1951  0.9067  0.1850
 9499SOL    HW240131   0.758   3.492   2.105  0.5748  1.7602  2.3825
 9500SOL     OW40132   1.743   0.860   6.273  0.4584  0.4128  0.2995
 9500SOL    HW140133   1.680   0.924   6.307  1.3052 -0.0523  2.7116
 9500SOL    HW240134   1.692   0.793   6.228  1.0381 -0.3856  0.8344
 9501SOL     OW40135   3.533   0.515   7.469  0.1710 -0.1078  0.3710
 9501SOL    HW140136   3.564   0.541   7.383  1.0451  0.1669  0.7668
 9501SOL    HW240137   3.508   0.424   7.451  0.9962 -0.1544 -0.4920
 9502SOL     OW40138   1.497   3.120  16.862 -0.3146 -0.0838 -0.0588
 9502SOL    HW140139   1.405   3.092  16.867 -0.1276 -0.8595 -0.9793
 9502SOL    HW240140   1.521   3.129  16.954  0.2846  1.2353 -0.3400
 9503SOL     OW40141   1.016   3.035   8.325 -0.0811 -0.0269  0.7014
 9503SOL    HW140142   0.949   3.100   8.302  1.6828  2.5655  2.7965
 9503SOL    HW240143   0.969   2.968   8.276 -0.0961 -0.5184  1.3980
 9504SOL     OW40144   0.745   4.003   5.450  0.1458 -0.1251  0.3647
 9504SOL    HW140145   0.693   4.055   5.511 -0.9331  0.6113 -1.1742
 9504SOL    HW240146   0.683   3.949   5.402 -0.3830 -0.1376  1.0656
 9505SOL     OW40147   3.958   0.531   5.712  0.2720  0.3215 -0.3876
 9505SOL    HW140148   3.957   0.514   5.618  2.3984  0.3238 -0.4074
 9505SOL    HW240149   3.885   0.476   5.742  0.6692  0.6864  1.2524
 9506SOL     OW40150   3.293   1.358  12.202  0.0886 -0.0272  0.0171
 9506SOL    HW140151   3.233   1.423  12.238  2.2594  1.2392  1.3829
 9506SOL    HW240152   3.240   1.278  12.201  0.4485 -0.2460 -0.9720
 9507SOL     OW40153   2.131   0.532  17.562 -0.2091  0.5408  0.3190
 9507SOL    HW140154   2.194   0.509  17.493  2.9874  4.2901  2.0122
 9507SOL    HW240155   2.054   0.478  17.546 -0.1854  0.5544  0.1604
 9508SOL     OW40156   2.875   4.057   5.248 -0.3055  0.1635  0.2652
 9508SOL    HW140157   2.793   4.100   5.226 -0.9449 -0.7002  0.9466
 9508SOL    HW240158   2.852   3.964   5.255  1.7168 -0.3434  0.3723
 9509SOL     OW40159   2.986   2.684   6.443 -0.2058 -0.1934  0.0478
 9509SOL    HW140160   2.914   2.720   6.392 -1.0434 -1.8660  0.0374
 9509SOL    HW240161   3.040   2.639   6.377  1.2582  0.3234  0.9019
 9510SOL     OW40162   2.538   0.833   5.665  0.2412 -0.8526  0.4310
 9510SOL    HW140163   2.446   0.850   5.688 -0.4101  0.2468 -3.1092
 9510SOL    HW240164   2.525   0.738   5.654  0.9100 -1.3248  3.6214
 9511SOL     OW40165   1.467   2.419   8.315  0.3238  0.0876  0.1501
 9511SOL    HW140166   1.430   2.393   8.230 -1.7286  1.6772  0.5569
 9511SOL    HW240167   1.407   2.491   8.333  1.2060  1.6490 -3.1727
 9512SOL     OW40168   3.447   4.151   9.394  0.2242  0.4899  0.1555
 9512SOL    HW140169   3.531   4.156   9.441  1.6189 -0.7170 -2.2061
 9512SOL    HW240170   3.435   4.240   9.361  0.7660  1.1034  1.5731
 9513SOL     OW40171   3.058   1.995   7.047 -0.4650  0.1426 -0.2981
 9513SOL    HW140172   2.987   1.942   7.011 -0.2202  0.3789 -1.1215
 9513SOL    HW240173   3.050   1.969   7.139 -0.3332 -0.1782 -0.3773
 9514SOL     OW40174   2.932   3.258   8.185  0.3453  0.4161  0.3871
 9514SOL    HW140175   3.006   3.224   8.134  1.2232  1.6996  0.8012
 9514SOL    HW240176   2.979   3.283   8.265 -0.0864  1.1726  0.3996
 9515SOL     OW40177   2.213   3.326   5.184  0.4769 -0.0597  0.7881
 9515SOL    HW140178   2.249   3.259   5.242  0.6720  2.7830  3.9712
 9515SOL    HW240179   2.244   3.292   5.100  2.3154  0.1849  1.3588
 9516SOL     OW40180   3.731   0.755   7.017  0.0273  0.2505  0.1009
 9516SOL    HW140181   3.798   0.692   6.992  0.3909  0.2453  1.1020
 9516SOL    HW240182   3.781   0.818   7.068  2.4538 -0.5139 -1.3337
 9517SOL     OW40183   4.039   2.303   9.912  0.0264 -0.1295 -0.7542
 9517SOL    HW140184   4.061   2.368   9.980 -1.0685 -0.9897  0.4336
 9517SOL    HW240185   4.084   2.332   9.833  0.1833  1.3625 -0.1186
 9518SOL     OW40186   2.371   2.191   2.316  0.0599  0.1544  0.5638
 9518SOL    HW140187   2.275   2.188   2.323  0.1370 -1.0455  1.0722
 9518SOL    HW240188   2.383   2.212   2.223  0.5389 -2.5224  0.0245
 9519SOL     OW40189   2.681   1.881  13.114 -0.7801  0.0582 -0.4355
 9519SOL    HW140190   2.603   1.887  13.059 -0.0236 -0.7233 -1.6026
 9519SOL    HW240191   2.733   1.924  13.046  1.2282  0.5166  1.3948
 9520SOL     OW40192   0.499   4.311   5.010 -0.1504  0.6655  0.7706
 9520SOL    HW140193   0.588   4.320   4.976  0.3100  1.8544  2.2773
 9520SOL    HW240194   0.507   4.240   5.073 -2.0724  0.0943  0.3865
 9521SOL     OW40195   1.036   0.133   4.735 -0.6157 -0.1062 -0.3876
 9521SOL    HW140196   1.100   0.085   4.788  0.7327  2.2187  0.1072
 9521SOL    HW240197   1.084   0.196   4.682 -0.1411 -0.6546 -0.6145
 9522SOL     OW40198   2.573   2.797  13.011  0.0277  0.3131  0.0532
 9522SOL    HW140199   2.633   2.850  13.064 -1.0718 -0.7183  2.2987
 9522SOL    HW240200   2.509   2.778  13.079  1.6239 -1.1316  1.1531
 9523SOL     OW40201   1.109   2.970   2.535 -0.0300 -0.0602 -0.1084
 9523SOL    HW140202   1.112   2.896   2.474 -1.9860  0.7413 -1.1734
 9523SOL    HW240203   1.068   2.929   2.611 -0.8428 -0.0818 -0.5631
 9524SOL     OW40204   1.727   3.093   4.151  0.0840  0.8040 -0.5087
 9524SOL    HW140205   1.677   3.027   4.104 -2.2386  1.8802  0.4267
 9524SOL    HW240206   1.662   3.163   4.162  0.7846  1.2139  0.9702
 9525SOL     OW40207   1.367   2.467   7.326 -0.1007 -0.4083 -0.1368
 9525SOL    HW140208   1.323   2.517   7.395 -0.1574 -1.9687  0.9552
 9525SOL    HW240209   1.346   2.513   7.245 -0.2914 -1.4564 -0.6818
 9526SOL     OW40210   0.824   3.093   6.811  0.1870  0.0195 -0.0632
 9526SOL    HW140211   0.866   3.017   6.851 -1.5540 -1.4518 -1.0065
 9526SOL    HW240212   0.810   3.153   6.884 -1.6671  0.0398 -0.4235
 9527SOL     OW40213   4.540   3.822   3.583 -0.2252 -0.8346  0.2750
 9527SOL    HW140214   4.498   3.907   3.573 -1.5632 -1.6887 -1.3588
 9527SOL    HW240215   4.518   3.793   3.672  1.7797 -0.8479  0.7763
 9528SOL     OW40216   3.161   4.352   6.987 -0.4427 -0.2741  0.5161
 9528SOL    HW140217   3.213   4.381   7.063  0.4781 -2.1506  0.6095
 9528SOL    HW240218   3.109   4.285   7.031  0.5917 -0.9761  0.6925
 9529SOL     OW40219   2.135   2.180   6.610 -0.1300  0.5139  0.0263
 9529SOL    HW140220   2.225   2.191   6.581  1.0305 -3.2146  2.2288
 9529SOL    HW240221   2.146   2.096   6.653  0.9449 -0.1388 -1.5262
 9530SOL     OW40222   1.361   3.186   5.706  0.2506 -0.3115 -0.2538
 9530SOL    HW140223   1.456   3.173   5.705  0.7959  3.7070 -1.6783
 9530SOL    HW240224   1.350   3.277   5.677 -0.5452 -0.9834 -2.0801
 9531SOL     OW40225   1.330   4.336  11.543  0.1529 -0.0378 -0.3440
 9531SOL    HW140226   1.362   4.314  11.456 -0.3102 -0.6936 -0.3459
 9531SOL    HW240227   1.412   4.369  11.579  1.6156 -1.8453 -2.0544
 9532SOL     OW40228   2.930   2.919   7.157  0.2702 -0.3503  0.1624
 9532SOL    HW140229   2.978   2.838   7.137 -2.7689 -1.7833 -1.2576
 9532SOL    HW240230   2.952   2.947   7.067 -0.0070  0.6750  0.4117
 9533SOL     OW40231   1.954   0.704   2.900  0.0460 -0.0510  0.2825
 9533SOL    HW140232   1.961   0.705   2.805 -0.0513  1.8081  0.2799
 9533SOL    HW240233   1.878   0.650   2.920  0.6476 -0.6963  0.8019
 9534SOL     OW40234   1.201   3.667   3.407 -0.0570 -0.0517  0.2301
 9534SOL    HW140235   1.279   3.615   3.385 -0.3233 -0.5464  0.4635
 9534SOL    HW240236   1.214   3.673   3.502  2.9495 -0.4878 -0.1308
 9535SOL     OW40237   0.517   2.228   9.238  0.1585 -0.3633 -0.2944
 9535SOL    HW140238   0.425   2.251   9.246  0.0293 -0.9287 -0.1470
 9535SOL    HW240239   0.547   2.313   9.208 -0.0814  0.1753  1.0018
 9536SOL     OW40240   2.166   1.893   6.668 -0.5254  0.3910  0.3276
 9536SOL    HW140241   2.179   1.857   6.756 -2.6314 -0.9445  0.1053
 9536SOL    HW240242   2.234   1.857   6.612 -0.3963  1.4603 -0.1993
 9537SOL     OW40243   2.548   4.527   5.963 -0.0311  0.2791 -0.1493
 9537SOL    HW140244   2.559   4.471   6.040  0.7523 -0.1010 -0.5334
 9537SOL    HW240245   2.471   4.487   5.924  0.9290 -2.4615  0.7059
 9538SOL     OW40246   2.985   1.231   7.087 -0.3503  0.4599  0.4225
 9538SOL    HW140247   2.931   1.153   7.080 -0.2541  0.4767 -0.4106
 9538SOL    HW240248   3.070   1.200   7.117 -1.6124 -0.1763  3.3233
 9539SOL     OW40249   1.412   0.893   9.046 -0.3827 -0.7810 -0.0693
 9539SOL    HW140250   1.443   0.982   9.031  1.0461 -1.5088 -1.3759
 9539SOL    HW240251   1.495   0.845   9.044 -0.8095 -1.6519  2.9102
 9540SOL     OW40252   1.803   1.147  12.755 -0.3240  0.6902 -0.8928
 9540SOL    HW140253   1.876   1.105  12.799 -1.0213  1.1234  0.6743
 9540SOL    HW240254   1.830   1.158  12.664  1.2217 -0.3825 -0.5500
 9541SOL     OW40255   4.082   3.161  16.525  0.5561 -0.0653  0.0181
 9541SOL    HW140256   3.991   3.159  16.554 -0.1303  2.9382 -1.8444
 9541SOL    HW240257   4.098   3.069  16.505 -3.6941 -1.0009  0.9803
 9542SOL     OW40258   2.119   4.153   9.398 -0.3490  0.0235  0.2881
 9542SOL    HW140259   2.140   4.113   9.482 -1.3830 -2.5779 -0.6673
 9542SOL    HW240260   2.160   4.240   9.401 -0.5072  0.1725 -1.4907
 9543SOL     OW40261   4.049   4.272  14.282 -0.4225 -0.2839  0.0377
 9543SOL    HW140262   4.066   4.332  14.355  1.5270  1.6655 -2.0034
 9543SOL    HW240263   4.139   4.259  14.252  0.0662  2.2781  0.3672
 9544SOL     OW40264   4.202   3.330   5.124 -0.4316 -0.3777 -0.0725
 9544SOL    HW140265   4.218   3.240   5.097 -1.8308 -1.3503  2.3253
 9544SOL    HW240266   4.294   3.355   5.128 -1.0921  1.8635  0.9461
 9545SOL     OW40267   3.522   4.514   2.591  0.3577 -0.2478  0.0464
 9545SOL    HW140268   3.598   4.533   2.647 -0.9962  1.1976  1.3791
 9545SOL    HW240269   3.558   4.443   2.538 -1.3951  0.4994 -2.1604
 9546SOL     OW40270   1.451   3.982   8.150 -0.4390 -0.3577 -0.3065
 9546SOL    HW140271   1.473   4.004   8.241 -0.2937  0.3212 -0.5039
 9546SOL    HW240272   1.377   4.042   8.146  0.0223  0.1960 -0.5553
 9547SOL     OW40273   4.377   2.462   4.829 -0.1790  0.4857  0.6775
 9547SOL    HW140274   4.405   2.546   4.791  0.2144 -0.1289 -0.4042
 9547SOL    HW240275   4.291   2.484   4.865  0.9724  1.4986  2.7893
 9548SOL     OW40276   4.565   2.742   8.003 -0.5523  0.1895 -0.0109
 9548SOL    HW140277   4.498   2.758   8.070 -3.2973 -1.7473 -2.2979
 9548SOL    HW240278   4.533   2.798   7.933 -0.2244 -1.1454 -1.2221
 9549SOL     OW40279   0.764   0.015  11.728  0.0644 -0.1847  0.0694
 9549SOL    HW140280   0.741   0.077  11.660  0.2689  1.6520  1.6773
 9549SOL    HW240281   0.832   4.703  11.679  0.6035  1.2379 -0.5244
 9550SOL     OW40282   3.677   1.274  16.991  0.2623  0.1103  0.1094
 9550SOL    HW140283   3.584   1.289  17.009 -0.1956 -0.1764 -1.9382
 9550SOL    HW240284   3.716   1.329  17.059 -0.5257 -1.5069  1.8596
 9551SOL     OW40285   0.505   1.812   7.938  0.4575 -0.6524 -0.7274
 9551SOL    HW140286   0.495   1.884   7.876  0.2333  1.6955  2.0169
 9551SOL    HW240287   0.488   1.865   8.016 -0.9313  0.4915 -1.8339
 9552SOL     OW40288   1.577   0.105   2.021 -0.3371  0.7397  0.1086
 9552SOL    HW140289   1.549   0.053   1.946  0.4106  2.4077 -1.3289
 9552SOL    HW240290   1.556   0.053   2.098 -0.4475  0.0072 -0.4171
 9553SOL     OW40291   0.477   4.247   6.645  0.5957 -0.1449 -0.2203
 9553SOL    HW140292   0.529   4.306   6.699 -2.5507  0.1983  2.4687
 9553SOL    HW240293   0.441   4.308   6.582 -0.3759 -2.4740 -1.9330
 9554SOL     OW40294   3.934   2.197   8.036 -0.3285  0.0054  0.2741
 9554SOL    HW140295   3.940   2.255   7.960 -0.7110  0.0348  0.2690
 9554SOL    HW240296   3.993   2.242   8.097 -0.6625 -1.0724  1.3966
 9555SOL     OW40297   2.885   3.702   7.796  0.0996 -0.2301 -0.3190
 9555SOL    HW140298   2.955   3.647   7.759  1.1358  0.6513  0.3195
 9555SOL    HW240299   2.938   3.772   7.835 -0.5258 -0.8680  1.6536
 9556SOL     OW40300   3.813   2.276   3.505  0.3496  0.3472  0.1563
 9556SOL    HW140301   3.794   2.367   3.526  2.0489  0.3060  1.8644
 9556SOL    HW240302   3.737   2.236   3.461 -0.8018  0.6136  1.8921
 9557SOL     OW40303   1.522   2.214  14.494 -0.2264 -0.2748  0.1032
 9557SOL    HW140304   1.611   2.219  14.460 -0.4528 -2.2651 -0.7819
 9557SOL    HW240305   1.471   2.205  14.414 -0.7218  2.8296  0.0567
 9558SOL     OW40306   2.028   2.045   1.344 -0.3265 -0.1471  0.0684
 9558SOL    HW140307   2.084   2.076   1.273  0.7182 -0.3383  0.7952
 9558SOL    HW240308   2.058   1.955   1.358 -0.8709 -0.3187  0.1492
 9559SOL     OW40309   2.864   0.454   4.440  0.5566  0.3690 -0.3920
 9559SOL    HW140310   2.841   0.430   4.351  1.3761 -0.1461 -0.4590
 9559SOL    HW240311   2.857   0.550   4.437  1.7110  0.4150 -1.5794
 9560SOL     OW40312   4.469   0.850   5.305  0.4144  0.9260 -0.2714
 9560SOL    HW140313   4.557   0.884   5.291  0.5885 -0.8865 -3.4687
 9560SOL    HW240314   4.477   0.763   5.266  1.7812  1.0738 -0.3208
 9561SOL     OW40315   4.013   0.617  11.518  0.1698 -0.3629  0.3088
 9561SOL    HW140316   4.081   0.582  11.461  0.8986  0.2531  0.8064
 9561SOL    HW240317   4.049   0.603  11.605  0.6247  2.0623  0.5217
 9562SOL     OW40318   2.293   4.453   7.210  0.4178  0.0002 -0.3459
 9562SOL    HW140319   2.339   4.525   7.167 -1.2251  1.9052  1.0992
 9562SOL    HW240320   2.317   4.476   7.299 -2.6910 -0.2492  0.5384
 9563SOL     OW40321   3.919   2.698   0.217 -0.2096 -0.5562  0.1808
 9563SOL    HW140322   3.957   2.759   0.280  2.9407 -2.9186  0.5445
 9563SOL    HW240323   3.874   2.635   0.273  0.8400 -2.3231 -0.9640
 9564SOL     OW40324   0.571   0.428   8.656 -0.0404  0.2827 -0.5055
 9564SOL    HW140325   0.661   0.458   8.671  0.7457 -2.5411  0.5025
 9564SOL    HW240326   0.537   0.510   8.620 -1.2008 -0.2817 -0.6877
 9565SOL     OW40327   3.095   0.493   9.153 -0.7190  0.6820  0.5159
 9565SOL    HW140328   3.081   0.546   9.075 -0.6625  0.8585  0.6260
 9565SOL    HW240329   3.180   0.529   9.178 -0.5874 -0.2257  1.3765
 9566SOL     OW40330   3.529   0.370   4.607  0.0634 -0.1934 -0.3015
 9566SOL    HW140331   3.571   0.406   4.529 -0.4663  0.3552 -0.3348
 9566SOL    HW240332   3.451   0.340   4.559 -0.6730 -0.9547  1.3823
 9567SOL     OW40333   0.862   1.973   5.462  0.1900 -0.0512 -0.4622
 9567SOL    HW140334   0.929   1.920   5.506  1.2500  0.7277 -1.1490
 9567SOL    HW240335   0.809   1.909   5.414 -0.6703 -1.5134  2.4033
 9568SOL     OW40336   2.056   2.508  12.351  0.0207  0.3350  0.1410
 9568SOL    HW140337   2.024   2.458  12.276 -0.3169  0.2239  0.3543
 9568SOL    HW240338   2.079   2.437  12.411  0.7999 -0.0109 -0.5681
 9569SOL     OW40339   2.701   3.196   8.841 -0.7364 -0.4037  0.5163
 9569SOL    HW140340   2.636   3.132   8.813 -0.1342 -0.2358 -1.2876
 9569SOL    HW240341   2.769   3.184   8.775 -0.7691  0.1906  0.3743
 9570SOL     OW40342   1.329   1.441   1.006  0.2064 -0.0974 -0.3112
 9570SOL    HW140343   1.240   1.450   1.041  0.1449 -2.2169  0.0784
 9570SOL    HW240344   1.381   1.458   1.085  2.4377 -0.6081 -1.6830
 9571SOL     OW40345   3.721   4.137  11.783  0.0069  0.2089  0.1168
 9571SOL    HW140346   3.705   4.229  11.760  0.2991  0.3296  0.3826
 9571SOL    HW240347   3.814   4.136  11.807 -0.7628  0.9286  3.2123
   4.73451   4.73451  17.73705
