Membrane in water
40347
    1TMC1    C1    1   3.438   3.742  11.976 -0.5790 -0.3677 -0.7695
    1TMC1    C2    2   3.574   3.709  11.963  0.1128 -0.1041 -0.1461
    1TMC1    C3    3   3.650   3.784  11.881 -0.1904 -0.1844  0.8150
    1TMC1    C4    4   3.390   3.848  11.908 -0.4640 -0.1482 -0.6635
    1TMC1    C5    5   3.474   3.925  11.839 -0.1865 -0.3455  0.0331
    1TMC1    C6    6   3.606   3.894  11.816 -0.0424 -0.5363 -0.6031
    1TMC1     C    7   3.353   3.690  12.081  0.1320  0.8348  0.0010
    1TMC1     O    8   3.235   3.713  12.077 -0.7691  0.3991 -0.6165
    1TMC1     H    9   3.612   3.618  12.009 -1.4270 -0.3720  0.5769
    1TMC1    H1   10   3.284   3.869  11.912 -0.1783  0.7977  1.6173
    1TMC1    H2   11   3.672   3.970  11.775  2.5452 -0.5813  3.4704
    1TMC1    C7   12   3.418   4.033  11.765 -0.0539 -0.8005  0.2722
    1TMC1    C8   13   3.791   3.747  11.876  0.1156 -0.0370  0.3670
    1TMC1    O1   14   3.491   4.115  11.714  0.5472  0.4535  0.7560
    1TMC1    O2   15   3.820   3.640  11.928 -0.0846 -0.0755  0.1265
    1TMC1    O3   16   3.309   3.980  11.711  0.1646 -0.2056  0.1731
    1TMC1    H3   17   3.248   3.906  11.731  0.1645 -0.2952 -0.1580
    1TMC1    O5   18   3.832   3.787  11.755  0.7859  0.1461  0.1158
    1TMC1    H5   19   3.800   3.873  11.722 -1.0837 -0.9761 -1.0026
    2MPD2     C   20   3.288   3.455  12.538 -0.9599 -0.6567  0.1804
    2MPD2    C1   21   3.192   3.489  12.438 -0.0248  0.6194  0.0933
    2MPD2    C2   22   3.247   3.535  12.315  0.1470  0.5407 -0.0822
    2MPD2    C3   23   3.380   3.567  12.296 -0.8327 -0.8577  0.4241
    2MPD2    C4   24   3.470   3.528  12.397  0.6382  0.2249 -0.4018
    2MPD2    C5   25   3.423   3.468  12.512 -0.4215  0.2861 -0.5753
    2MPD2     H   26   3.173   3.565  12.241 -1.1373  0.7396  1.2757
    2MPD2    H1   27   3.576   3.550  12.393  0.3651  1.2394 -2.4484
    2MPD2    H2   28   3.263   3.421  12.638 -0.0467 -0.1570  0.5780
    2MPD2    H3   29   3.486   3.435  12.594  0.8422 -0.6754 -1.9233
    2MPD2     N   30   3.429   3.640  12.180 -0.2424  0.7631  0.0298
    2MPD2    H5   31   3.529   3.654  12.177  0.1764 -2.1624  0.3852
    2MPD2    N1   32   3.053   3.480  12.465  0.2760  0.2241 -0.4005
    2MPD2    H7   33   2.999   3.492  12.379  0.9455 -0.1658 -0.8757
    3TMC1    C1   34   2.520   0.273  10.553 -0.8122 -0.3843 -0.6633
    3TMC1    C2   35   2.568   0.400  10.586 -0.8993 -0.2611  0.2714
    3TMC1    C3   36   2.621   0.481  10.489  0.1987  0.2058  0.0875
    3TMC1    C4   37   2.529   0.223  10.425 -0.3510 -0.2696  0.5921
    3TMC1    C5   38   2.599   0.299  10.338  0.0956  0.4368 -0.4963
    3TMC1    C6   39   2.634   0.427  10.368  0.8000  0.2452  0.3523
    3TMC1     C   40   2.419   0.216  10.635 -0.0734 -0.4388  0.9242
    3TMC1     O   41   2.398   0.098  10.626  0.7116 -0.1319  0.1352
    3TMC1     H   42   2.568   0.443  10.685  0.2080 -0.1495  0.2239
    3TMC1    H1   43   2.506   0.119  10.406 -1.2064 -0.3518  2.0351
    3TMC1    H2   44   2.679   0.494  10.295  1.6394 -0.9609 -0.2473
    3TMC1    C7   45   2.621   0.242  10.213  0.0529 -1.3814  0.2801
    3TMC1    C8   46   2.706   0.599  10.526  0.6686  0.4074 -0.1602
    3TMC1    O1   47   2.574   0.136  10.167 -0.4632  0.7562 -0.1733
    3TMC1    O2   48   2.667   0.679  10.608 -0.2929 -0.0064 -0.0011
    3TMC1    O3   49   2.713   0.309  10.143 -0.6614 -0.3915  0.2983
    3TMC1    H3   50   2.758   0.376  10.200  0.6163 -1.2638  0.2972
    3TMC1    O5   51   2.829   0.601  10.455  0.0474 -0.5963 -0.8620
    3TMC1    H5   52   2.830   0.528  10.389  1.3849  1.2394 -2.8615
    4MPD2     C   53   2.017   0.281  10.972 -0.3053 -0.8179  0.1976
    4MPD2    C1   54   2.108   0.382  10.993  0.5598 -0.4513  0.8826
    4MPD2    C2   55   2.221   0.388  10.909  0.0642 -0.3477  0.1785
    4MPD2    C3   56   2.252   0.294  10.812  0.4078 -0.4933 -0.5143
    4MPD2    C4   57   2.161   0.185  10.804 -0.7087  0.1553  0.0218
    4MPD2    C5   58   2.044   0.182  10.881 -0.3538  0.1061  0.0336
    4MPD2     H   59   2.282   0.477  10.917 -0.9841  0.4296 -0.5076
    4MPD2    H1   60   2.164   0.102  10.734  0.6104  0.0288  0.2343
    4MPD2    H2   61   1.939   0.264  11.045 -0.9820  3.9691  0.5874
    4MPD2    H3   62   1.978   0.098  10.862 -0.8477  0.4631  0.1812
    4MPD2     N   63   2.363   0.311  10.720 -0.0094  0.2648  0.2260
    4MPD2    H5   64   2.415   0.397  10.705 -0.7513  0.5773 -0.5182
    4MPD2    N1   65   2.085   0.495  11.071  0.0105  0.1273  0.3601
    4MPD2    H7   66   2.156   0.568  11.064  0.3535 -0.1160  1.3071
    5TCq1    O1   67   3.488   1.987  12.088 -0.3675 -0.1033  1.1505
    5TCq1    C1   68   3.478   1.862  12.034  0.6486 -0.0567  0.7173
    5TCq1    O2   69   3.570   1.791  11.995 -0.5670  0.0858  0.2002
    5TCq1    C2   70   3.344   1.861  11.979 -0.1069  0.3282 -0.3459
    5TCq1    C3   71   3.239   1.929  12.033  0.0281  0.4901  0.1787
    5TCq1    C4   72   3.128   1.953  11.954  0.2303  0.4222 -0.2977
    5TCq1    C5   73   3.121   1.909  11.827  0.1255  0.4437 -0.1352
    5TCq1    C6   74   3.225   1.838  11.768 -0.9667 -0.2049  0.7428
    5TCq1    C7   75   3.338   1.819  11.843 -0.5610 -0.3088 -0.1292
    5TCq1    C8   76   3.225   1.792  11.630  0.8543 -0.2869  0.0765
    5TCq1    O4   77   3.312   1.713  11.608  0.1237  0.2254 -0.1163
    5TCq1    C9   78   3.017   2.019  12.019 -0.0549 -0.7639  0.1208
    5TCq1    O5   79   2.912   2.035  11.946  0.4932 -0.5509 -0.1464
    5TCq1    O6   80   3.032   2.060  12.135  0.0260 -0.0087  0.0829
    5TCq1    H1   81   3.411   2.046  12.072 -0.0523  0.0377  0.1857
    5TCq1    H2   82   3.245   1.972  12.132 -0.3450  0.2694  0.2965
    5TCq1    H3   83   3.033   1.936  11.770  0.4075  0.8726 -0.3629
    5TCq1    H4   84   3.427   1.773  11.802  1.0053  0.7747  2.0085
    6MPD2     C   85   2.987   1.829  11.357 -0.3379 -0.1278 -0.6588
    6MPD2    C1   86   3.103   1.793  11.413  0.6366  0.5909  0.7058
    6MPD2    C2   87   3.196   1.728  11.336  0.0459  0.2436  0.8668
    6MPD2    C3   88   3.166   1.710  11.198  0.4786 -0.6887  0.0345
    6MPD2    C4   89   3.050   1.763  11.141 -0.2690  0.1587 -0.3651
    6MPD2    C5   90   2.960   1.817  11.226 -0.3577 -0.1994 -0.5706
    6MPD2     H   91   3.292   1.703  11.378  0.1853  2.9547  2.1661
    6MPD2    H1   92   3.026   1.766  11.035 -1.4671  0.7162 -0.0771
    6MPD2    H2   93   2.894   1.864  11.402  1.0014  0.9743  1.2651
    6MPD2    H3   94   2.864   1.850  11.190 -0.2155  0.1923 -0.5821
    6MPD2     N   95   3.253   1.637  11.114  0.4867  0.0040  0.2990
    6MPD2    H5   96   3.346   1.621  11.152  0.3463 -1.4117  0.0506
    6MPD2    N1   97   3.116   1.824  11.555  0.7843 -0.7586  0.2163
    6MPD2    H7   98   3.035   1.872  11.594  1.3265  1.0531 -0.8754
    7TCq1    O1   99   0.107   1.523  13.398  0.1910 -0.3129  0.2079
    7TCq1    C1  100   0.191   1.579  13.306  0.1438  0.0379  0.2182
    7TCq1    O2  101   0.269   1.676  13.323 -0.5834 -0.3519  0.3985
    7TCq1    C2  102   0.174   1.521  13.178 -0.3844 -0.0113  0.7206
    7TCq1    C3  103   0.160   1.603  13.066 -0.1276 -0.4261  0.4587
    7TCq1    C4  104   0.147   1.542  12.945  0.2112 -0.4878 -0.4949
    7TCq1    C5  105   0.122   1.405  12.934  0.3732 -0.3520 -0.3718
    7TCq1    C6  106   0.121   1.330  13.050  0.2440  0.4405 -0.0176
    7TCq1    C7  107   0.147   1.385  13.171 -0.8688 -0.0151 -0.1554
    7TCq1    C8  108   0.064   1.201  13.043  0.3385  0.4490  0.2233
    7TCq1    O4  109   0.088   1.127  13.136  0.0368  0.2147  0.1697
    7TCq1    C9  110   0.139   1.621  12.824  0.1767 -0.1398  0.2129
    7TCq1    O5  111   0.188   1.733  12.832 -0.1874  0.0873 -0.2590
    7TCq1    O6  112   0.126   1.563  12.712 -0.4362 -0.0322  0.4695
    7TCq1    H1  113   0.040   1.460  13.366  0.3462 -0.9897  1.2450
    7TCq1    H2  114   0.174   1.710  13.070  3.1142 -0.8656  0.4335
    7TCq1    H3  115   0.119   1.358  12.836 -0.2119 -0.6060 -0.2342
    7TCq1    H4  116   0.150   1.318  13.255  3.8365  2.5915  1.7375
    8MPD2     C  117   4.494   0.850  12.853 -0.4247  0.0772  0.0091
    8MPD2    C1  118   4.601   0.833  12.942 -0.1730 -0.0178 -0.3323
    8MPD2    C2  119   4.674   0.943  12.967 -0.2668 -0.0267 -0.0891
    8MPD2    C3  120   4.635   1.070  12.931 -0.5834  0.9724  0.1409
    8MPD2    C4  121   4.521   1.086  12.857 -0.1234  0.0986 -0.0706
    8MPD2    C5  122   4.452   0.973  12.818 -0.3664  0.4693 -0.8477
    8MPD2     H  123   0.014   0.926  13.039  0.4207 -0.1262 -0.8679
    8MPD2    H1  124   4.494   1.180  12.811  2.1105 -0.0116 -1.6269
    8MPD2    H2  125   4.436   0.773  12.804  0.1920 -0.8272  0.6911
    8MPD2    H3  126   4.381   0.972  12.736 -0.7035  1.4330 -0.5647
    8MPD2     N  127   4.706   1.187  12.954  0.0084 -0.6255  0.2545
    8MPD2    H5  128   4.670   1.268  12.904 -0.0831  0.5659  2.2193
    8MPD2    N1  129   4.640   0.702  12.975 -0.0938  0.2825  0.1181
    8MPD2    H7  130   4.583   0.629  12.933 -0.0806  0.3287  0.0179
    9TMC1    C1  131   3.052   4.439  10.865 -0.1069 -0.5013 -0.0885
    9TMC1    C2  132   3.165   4.412  10.945 -0.3058  0.0594 -0.1379
    9TMC1    C3  133   3.290   4.409  10.893 -0.3558 -0.2067 -0.2926
    9TMC1    C4  134   3.070   4.458  10.731  0.5235  1.1168 -0.5965
    9TMC1    C5  135   3.196   4.454  10.685  0.5171  0.0690 -0.0733
    9TMC1    C6  136   3.309   4.429  10.760 -0.4833 -0.2593 -0.3966
    9TMC1     C  137   2.915   4.430  10.908  0.4352  0.8702 -0.1779
    9TMC1     O  138   2.836   4.482  10.830  0.3224 -0.3062  0.0907
    9TMC1     H  139   3.151   4.385  11.050 -0.2240 -0.2149 -0.1961
    9TMC1    H1  140   2.985   4.463  10.664  0.4550 -0.4885 -0.6286
    9TMC1    H2  141   3.396   4.395  10.705  0.0390  1.6786 -0.7812
    9TMC1    C7  142   3.206   4.465  10.536  0.0677  0.0173 -0.2483
    9TMC1    C8  143   3.419   4.371  10.960  0.1681  0.1521  0.2940
    9TMC1    O1  144   3.110   4.468  10.464 -0.1082  0.3695  0.3638
    9TMC1    O2  145   3.526   4.365  10.902  0.7046  0.4953 -0.3731
    9TMC1    O3  146   3.311   4.535  10.507  0.6043 -0.0738 -0.1147
    9TMC1    H3  147   3.363   4.566  10.584 -0.8842 -0.1994  0.9374
    9TMC1    O5  148   3.395   4.344  11.085  0.2386 -0.3301  0.6494
    9TMC1    H5  149   3.317   4.391  11.120  1.8704  2.9651 -0.1603
   10MPD2     C  150   2.642   4.336  11.016 -0.4557 -0.7468  0.5101
   10MPD2    C1  151   2.762   4.343  11.089  0.3420 -0.2653  0.0270
   10MPD2    C2  152   2.756   4.307  11.221 -0.5416 -0.2443 -0.5652
   10MPD2    C3  153   2.644   4.248  11.277  0.5823 -0.6097  0.0583
   10MPD2    C4  154   2.525   4.241  11.209 -0.0309  0.0961  0.6803
   10MPD2    C5  155   2.527   4.290  11.079  0.8295 -0.2362 -0.2501
   10MPD2     H  156   2.845   4.333  11.277 -1.3380  0.9498  0.1372
   10MPD2    H1  157   2.432   4.202  11.248 -0.2665  1.8766  1.9275
   10MPD2    H2  158   2.639   4.366  10.912  1.5431  0.0765  0.6915
   10MPD2    H3  159   2.437   4.276  11.022  0.8416  0.5086 -0.4468
   10MPD2     N  160   2.650   4.187  11.403 -0.0342 -0.0335 -0.4809
   10MPD2    H5  161   2.562   4.156  11.443 -0.1441 -0.1612 -0.8269
   10MPD2    N1  162   2.893   4.381  11.035  0.3553  0.3320 -0.5661
   10MPD2    H7  163   2.966   4.358  11.101 -0.3750 -0.5102 -0.0391
   11TCq1    O1  164   3.180   4.185  14.767  0.4907 -0.1979  0.6904
   11TCq1    C1  165   3.160   4.237  14.644 -0.0257  0.0098  0.4449
   11TCq1    O2  166   3.114   4.346  14.607  0.4241  1.1103  0.2036
   11TCq1    C2  167   3.192   4.133  14.546 -0.2359 -0.5536  0.6080
   11TCq1    C3  168   3.291   4.046  14.562  0.3600  0.4440  0.3221
   11TCq1    C4  169   3.325   3.973  14.454  0.1336  0.1463  0.2495
   11TCq1    C5  170   3.269   3.989  14.331 -0.0152 -0.0803  0.6126
   11TCq1    C6  171   3.170   4.073  14.315  0.7788 -0.2607  0.2333
   11TCq1    C7  172   3.127   4.148  14.422  0.4584 -0.0764  0.3019
   11TCq1    C8  173   3.092   4.079  14.196  0.0370 -0.1979 -0.1285
   11TCq1    O4  174   3.082   4.194  14.146  0.3709 -0.3407  0.0445
   11TCq1    C9  175   3.415   3.864  14.478  0.3396 -0.2825  0.2449
   11TCq1    O5  176   3.451   3.845  14.594  0.8144  0.3753 -0.3098
   11TCq1    O6  177   3.404   3.774  14.395  0.2715 -0.0868  0.7452
   11TCq1    H1  178   3.199   4.090  14.758  0.8916 -0.2015  1.5688
   11TCq1    H2  179   3.356   4.050  14.649  1.5721  1.0780 -0.6060
   11TCq1    H3  180   3.303   3.928  14.248  0.9340 -0.7097  1.4565
   11TCq1    H4  181   3.032   4.199  14.417  0.2091 -0.7657 -1.6553
   12MPD2     C  182   2.937   4.007  13.948 -0.4931 -0.0566 -0.0253
   12MPD2    C1  183   2.978   3.913  14.045 -0.3484 -0.8020  0.2094
   12MPD2    C2  184   2.968   3.774  14.024  0.0372 -0.0592 -0.5738
   12MPD2    C3  185   2.908   3.729  13.903  0.0275 -0.4098 -0.3252
   12MPD2    C4  186   2.864   3.816  13.813 -0.2632  0.4370  0.3913
   12MPD2    C5  187   2.879   3.954  13.835  0.1404  0.5006  0.6406
   12MPD2     H  188   3.001   3.695  14.091 -0.7896 -1.8310 -2.2345
   12MPD2    H1  189   2.847   3.792  13.709 -2.1712 -0.3786  0.8944
   12MPD2    H2  190   2.960   4.112  13.958  1.3201 -0.4343 -0.2140
   12MPD2    H3  191   2.868   4.018  13.748 -0.1353  1.7786  1.6125
   12MPD2     N  192   2.922   3.595  13.861  0.6335  0.7824  0.0198
   12MPD2    H5  193   2.869   3.566  13.779  0.5658  1.9554 -0.3481
   12MPD2    N1  194   3.048   3.956  14.159  0.0704 -0.4335 -0.4109
   12MPD2    H7  195   3.062   3.885  14.230 -0.1628 -1.2471 -1.1793
   13TCq1    O1  196   3.113   4.639  10.012 -0.3867 -0.2816  0.3980
   13TCq1    C1  197   3.200   4.727  10.064 -0.3297 -0.6572 -0.1778
   13TCq1    O2  198   3.289   0.043   9.995 -0.3514 -0.1493  0.0879
   13TCq1    C2  199   3.129   0.051  10.172 -0.3477  0.0255 -0.3347
   13TCq1    C3  200   3.141   0.190  10.181  0.0232 -0.2183  0.1728
   13TCq1    C4  201   3.051   0.250  10.272  0.3805  0.2092 -0.4449
   13TCq1    C5  202   2.966   0.178  10.345  0.5376 -0.6293  0.2616
   13TCq1    C6  203   2.961   0.039  10.343  0.6205  0.7753  0.8219
   13TCq1    C7  204   3.042   4.708  10.249 -0.1584  0.1837  0.3857
   13TCq1    C8  205   2.862   4.714  10.421  0.6313  0.3664  0.5032
   13TCq1    O4  206   2.795   0.049  10.486  0.0611  0.2084 -0.0217
   13TCq1    C9  207   3.020   0.394  10.255 -0.6429 -0.0741 -0.4136
   13TCq1    O5  208   3.078   0.444  10.161  0.8073 -0.0375 -0.3818
   13TCq1    O6  209   2.904   0.429  10.288  0.2508  0.7649 -0.2234
   13TCq1    H1  210   3.029   4.636  10.062 -0.8384  1.6479 -0.2607
   13TCq1    H2  211   3.200   0.255  10.117 -1.6360  2.5171  1.4267
   13TCq1    H3  212   2.895   0.230  10.408  0.7608  2.2366 -1.8876
   13TCq1    H4  213   3.054   4.601  10.265 -0.6657 -0.1043 -1.0777
   14MPD2     C  214   2.798   4.364  10.488  0.2448  0.3759 -0.1894
   14MPD2    C1  215   2.771   4.496  10.486 -0.2625 -0.6286 -0.2500
   14MPD2    C2  216   2.659   4.545  10.548 -0.1369 -0.1774 -0.4475
   14MPD2    C3  217   2.580   4.458  10.615  0.7919  0.3101  0.8622
   14MPD2    C4  218   2.605   4.319  10.616 -0.2222  0.4771  0.1868
   14MPD2    C5  219   2.717   4.274  10.551 -0.0372 -0.6224  0.0203
   14MPD2     H  220   2.632   4.649  10.561  0.1601  0.0361 -1.5177
   14MPD2    H1  221   2.551   4.247  10.678 -0.9501  1.3058  0.5209
   14MPD2    H2  222   2.891   4.324  10.448  0.1803 -2.3344  2.2965
   14MPD2    H3  223   2.746   4.171  10.567  0.0759 -0.4429  0.9566
   14MPD2     N  224   2.473   4.518  10.689  0.0459 -0.5291 -0.1241
   14MPD2    H5  225   2.448   4.617  10.689  1.6941 -0.1063  0.0065
   14MPD2    N1  226   2.868   4.580  10.418  0.1150  0.5775  0.2109
   14MPD2    H7  227   2.955   4.537  10.391  1.5819  1.9588  2.7081
   15TCq1    O1  228   0.398   3.598   1.824 -0.1717  0.3736  0.1534
   15TCq1    C1  229   0.304   3.693   1.802 -0.1787  0.3499 -0.6984
   15TCq1    O2  230   0.302   3.797   1.869  0.2767  0.3585  0.1243
   15TCq1    C2  231   0.196   3.634   1.738 -0.2538 -0.1892 -0.2771
   15TCq1    C3  232   0.079   3.716   1.733  0.5148  0.5004 -0.4157
   15TCq1    C4  233   4.734   3.699   1.626  0.1105  0.3638 -0.5576
   15TCq1    C5  234   0.019   3.603   1.533  0.2709 -0.5450  0.6574
   15TCq1    C6  235   0.130   3.517   1.549 -0.5287 -0.0757 -0.2676
   15TCq1    C7  236   0.217   3.528   1.653 -0.1756  0.1062  0.4432
   15TCq1    C8  237   0.146   3.403   1.463  0.2689 -0.0604  0.4525
   15TCq1    O4  238   0.257   3.357   1.448 -0.2398  0.0299  0.1015
   15TCq1    C9  239   4.608   3.777   1.623 -0.6095 -0.8589 -0.3253
   15TCq1    O5  240   4.534   3.759   1.526 -0.1620  0.2382  0.6124
   15TCq1    O6  241   4.581   3.837   1.725  0.2367 -0.2058 -0.6653
   15TCq1    H1  242   0.389   3.507   1.788 -0.3200  0.3347  0.2913
   15TCq1    H2  243   0.072   3.806   1.793  0.1797  1.2532 -1.5819
   15TCq1    H3  244   4.695   3.599   1.446  0.4541  2.0896  0.3899
   15TCq1    H4  245   0.310   3.474   1.640 -0.6927 -1.0638  1.5534
   16MPD2     C  246   4.633   3.273   1.220  0.0384  1.0361 -1.4354
   16MPD2    C1  247   0.010   3.263   1.300 -0.4788 -0.4921 -0.2499
   16MPD2    C2  248   0.106   3.162   1.269 -0.4963  0.1181  0.3597
   16MPD2    C3  249   0.070   3.064   1.189  0.2504 -0.5418 -0.2669
   16MPD2    C4  250   4.680   3.061   1.132  0.0684  0.2576  0.2453
   16MPD2    C5  251   4.603   3.168   1.137 -0.3410  0.1350 -0.0075
   16MPD2     H  252   0.204   3.167   1.315 -1.0536 -1.7860  1.7840
   16MPD2    H1  253   4.637   2.978   1.077 -1.0778  0.7740  0.3621
   16MPD2    H2  254   4.565   3.355   1.240 -1.7338 -1.0170  1.0572
   16MPD2    H3  255   4.504   3.165   1.091 -1.4367  1.1476  2.2789
   16MPD2     N  256   0.155   2.951   1.186 -0.1538 -0.4289  0.4012
   16MPD2    H5  257   0.230   2.941   1.253 -0.3129  0.3529  0.6956
   16MPD2    N1  258   0.032   3.374   1.389  0.1607  0.2261 -0.4699
   16MPD2    H7  259   4.698   3.440   1.414 -1.3515 -0.8334 -2.1447
   17TMC1    C1  260   2.067   3.483  11.087  0.9361 -0.5279  0.3469
   17TMC1    C2  261   2.092   3.482  11.218  0.4103  0.5706  0.4134
   17TMC1    C3  262   2.045   3.374  11.296  0.0771  0.2129 -0.3508
   17TMC1    C4  263   1.988   3.392  11.029  0.0167 -0.5561 -0.0938
   17TMC1    C5  264   1.939   3.290  11.110  0.3632 -0.0138  0.6748
   17TMC1    C6  265   1.974   3.270  11.242  0.0917 -0.1946  0.1254
   17TMC1     C  266   2.094   3.607  11.012  0.6302 -0.2297  0.5717
   17TMC1     O  267   2.003   3.642  10.940  0.2371 -0.1921 -0.0398
   17TMC1     H  268   2.164   3.553  11.257  0.9418  1.1926 -1.6663
   17TMC1    H1  269   1.963   3.401  10.924 -1.3445  0.1792  0.2892
   17TMC1    H2  270   1.937   3.194  11.310 -2.3325  0.2813 -0.6374
   17TMC1    C7  271   1.859   3.189  11.041  0.3766 -0.1101 -0.3514
   17TMC1    C8  272   2.028   3.411  11.436  0.1935 -0.1416 -0.0142
   17TMC1    O1  273   1.886   3.163  10.927 -0.2026 -0.0088 -0.2926
   17TMC1    O2  274   2.066   3.335  11.524 -0.1484 -0.0546 -0.3218
   17TMC1    O3  275   1.759   3.144  11.116  0.5416 -0.2367 -0.3371
   17TMC1    H3  276   1.752   3.177  11.208  0.3778  2.2018 -1.2171
   17TMC1    O5  277   2.035   3.543  11.441  0.7172 -0.1809  0.0503
   17TMC1    H5  278   1.976   3.576  11.370 -0.2093 -0.5204  0.6691
   18MPD2     C  279   2.205   3.838  10.868  0.6702 -0.4140 -0.1765
   18MPD2    C1  280   2.270   3.777  10.976 -0.4427 -0.4059  0.1827
   18MPD2    C2  281   2.396   3.822  11.022  0.2770  0.2104  0.3247
   18MPD2    C3  282   2.454   3.938  10.965 -0.5852  0.3041 -0.2123
   18MPD2    C4  283   2.376   3.999  10.870  0.0400  0.0238  0.3836
   18MPD2    C5  284   2.260   3.948  10.814 -0.0714 -0.0078  0.4435
   18MPD2     H  285   2.447   3.766  11.099  0.2817 -0.3025 -0.0534
   18MPD2    H1  286   2.417   4.084  10.818 -0.3987 -0.6396 -1.0365
   18MPD2    H2  287   2.109   3.804  10.832  0.3776  1.8985 -1.5513
   18MPD2    H3  288   2.223   4.002  10.727 -1.1001  2.3686  2.3496
   18MPD2     N  289   2.586   3.980  11.000 -0.2479  0.2804  0.0275
   18MPD2    H5  290   2.630   4.054  10.946  0.2786 -0.6987 -0.8817
   18MPD2    N1  291   2.213   3.665  11.040 -0.5637  0.4123 -0.2645
   18MPD2    H7  292   2.261   3.612  11.112 -0.1462  1.7803  0.4704
   19TMC2    C1  293   4.536   4.046  13.619 -0.6268 -0.3490  0.1009
   19TMC2    C2  294   4.467   4.096  13.517 -0.1568  0.2290 -0.0108
   19TMC2    C3  295   4.340   4.136  13.539  0.6827  0.2496  0.6979
   19TMC2    C4  296   4.472   4.020  13.740 -0.6332 -0.7091  0.1820
   19TMC2    C5  297   4.340   4.045  13.746  0.0433  0.0515 -0.6697
   19TMC2    C6  298   4.271   4.109  13.651 -0.6683 -0.5116 -0.4620
   19TMC2     C  299   4.656   3.967  13.587  0.1267  0.3537 -0.6191
   19TMC2     O  300   4.689   3.952  13.470 -0.0723  0.5252 -0.2725
   19TMC2     H  301   4.500   4.095  13.413 -0.1390  1.2511 -0.0217
   19TMC2    H1  302   4.514   3.970  13.827 -0.1880 -1.1380 -0.2771
   19TMC2    H2  303   4.164   4.129  13.652 -0.4251  0.6350  3.0058
   19TMC2    C7  304   4.264   3.952  13.831  0.2216 -0.3048 -0.7533
   19TMC2    C8  305   4.270   4.186  13.425 -0.1577 -0.4539 -0.5398
   19TMC2    O1  306   4.331   3.861  13.872 -0.1846  0.1598  0.8057
   19TMC2    O2  307   4.147   4.186  13.428 -0.1854  0.1313 -0.5791
   19TMC2    O5  308   4.342   4.229  13.317 -0.3027 -0.3665  0.1368
   19TMC2    H5  309   4.438   4.248  13.322 -0.3378  0.0719 -0.7750
   20MPD2     C  310   0.123   3.761  13.597  0.0541 -0.0676  0.2349
   20MPD2    C1  311   0.075   3.822  13.711  0.5323  0.2330 -0.7826
   20MPD2    C2  312   0.126   3.805  13.840  0.2049  0.6252 -0.0394
   20MPD2    C3  313   0.243   3.731  13.850 -0.1565 -0.3889  0.5734
   20MPD2    C4  314   0.296   3.675  13.734  0.0564 -0.1274  0.4450
   20MPD2    C5  315   0.241   3.691  13.609  0.4733 -1.2030 -0.5813
   20MPD2     H  316   0.075   3.856  13.921 -0.2947  2.6652 -1.6174
   20MPD2    H1  317   0.387   3.615  13.741  0.1073 -0.0115  0.7392
   20MPD2    H2  318   0.081   3.772  13.498  0.8366 -0.5295 -0.1451
   20MPD2    H3  319   0.279   3.635  13.525 -1.3745 -1.6051 -1.1641
   20MPD2     N  320   0.315   3.721  13.969  0.1291  0.0926  0.5471
   20MPD2    H5  321   0.375   3.639  13.979 -0.4240 -0.4393 -0.5189
   20MPD2    N1  322   4.691   3.898  13.696  0.0253  0.2425  0.0688
   20MPD2    H7  323   4.644   3.922  13.783  1.9164  1.2805  0.8025
   21TMC2    C1  324   2.026   4.164  13.908  0.3054 -0.4379 -0.2826
   21TMC2    C2  325   2.131   4.098  13.841  0.0504  0.2809  0.5974
   21TMC2    C3  326   2.255   4.108  13.908  0.3055 -0.1988 -0.6694
   21TMC2    C4  327   2.037   4.219  14.033 -0.2453 -0.6413 -0.2629
   21TMC2    C5  328   2.160   4.208  14.099 -0.8904 -0.2387 -0.3976
   21TMC2    C6  329   2.269   4.160  14.037 -1.1896  0.2891 -0.0311
   21TMC2     C  330   1.900   4.188  13.838 -0.5626 -0.7614 -0.1976
   21TMC2     O  331   1.842   4.087  13.820  0.6227 -0.1957  0.1663
   21TMC2     H  332   2.137   4.061  13.740  1.5852 -0.7988  1.0901
   21TMC2    H1  333   1.949   4.258  14.083  1.0488 -1.3578  2.5289
   21TMC2    H2  334   2.364   4.164  14.088 -1.6146 -0.7907  0.8682
   21TMC2    C7  335   2.187   4.298  14.212  0.4510  0.5409  0.3699
   21TMC2    C8  336   2.358   4.024  13.848  0.0090  0.7570 -0.3662
   21TMC2    O1  337   2.299   4.285  14.268 -0.2863  0.3649 -0.3514
   21TMC2    O2  338   2.336   3.924  13.775 -0.1485  0.6290  0.0070
   21TMC2    O5  339   2.483   4.056  13.899 -0.4769  0.7098 -0.5999
   21TMC2    H5  340   2.487   4.146  13.939  0.1460  0.2018  0.4718
   22MPD2     C  341   2.028   4.675  13.961  0.0506  0.0395  0.1330
   22MPD2    C1  342   2.115   4.572  13.937  0.7137 -0.2125  0.1756
   22MPD2    C2  343   2.061   4.454  13.878  0.8245 -0.0189 -0.0801
   22MPD2    C3  344   1.921   4.441  13.868  0.2044  0.2258  0.6584
   22MPD2    C4  345   1.845   4.543  13.887  0.0911 -0.7276  0.2013
   22MPD2    C5  346   1.892   4.662  13.928  0.1293 -0.2168 -0.6755
   22MPD2     H  347   2.133   4.374  13.871 -1.8969 -2.3749 -1.5406
   22MPD2    H1  348   1.737   4.532  13.883  0.0190  0.7861 -2.4010
   22MPD2    H2  349   2.049   0.021  14.024  1.0695  0.5404 -0.8871
   22MPD2    H3  350   1.825   0.002  13.960 -1.8995 -2.7242  1.2245
   22MPD2     N  351   1.850   4.316  13.838  0.4279 -0.3283 -0.0227
   22MPD2    H5  352   1.749   4.323  13.841  0.4492  0.1840 -0.5900
   22MPD2    N1  353   2.252   4.571  13.973  0.6358 -0.1149 -0.3598
   22MPD2    H7  354   2.304   4.483  13.965 -0.4856 -0.8746  0.6766
   23TMC2    C1  355   3.334   0.902  14.966 -0.0355 -0.1628  0.0922
   23TMC2    C2  356   3.337   1.001  14.865 -0.1330 -0.2108 -0.0422
   23TMC2    C3  357   3.241   0.988  14.762 -0.0817 -0.0218  0.1372
   23TMC2    C4  358   3.243   0.799  14.969  0.6219  0.5686  0.0688
   23TMC2    C5  359   3.147   0.801  14.875  0.4686 -0.1658  1.2033
   23TMC2    C6  360   3.151   0.890  14.769  0.3392  0.2327  0.6838
   23TMC2     C  361   3.412   0.935  15.088 -0.2766 -0.4907  0.1172
   23TMC2     O  362   3.412   0.862  15.187  0.0167  0.0774 -0.4353
   23TMC2     H  363   3.432   1.049  14.842  0.2625  0.3125  2.6904
   23TMC2    H1  364   3.229   0.737  15.057 -2.1971  1.0303 -0.0675
   23TMC2    H2  365   3.097   0.874  14.677 -1.3128 -1.2256  1.9091
   23TMC2    C7  366   3.021   0.733  14.902  0.1400 -0.1705  0.0972
   23TMC2    C8  367   3.276   1.043  14.638  0.0894 -0.8293 -0.0309
   23TMC2    O1  368   3.028   0.621  14.946  0.2041  0.5679  0.1375
   23TMC2    O2  369   3.381   1.105  14.621 -0.4717  0.4077 -0.0409
   23TMC2    O5  370   3.152   1.072  14.586  0.1297 -0.1346  0.0701
   23TMC2    H5  371   3.086   1.049  14.655 -1.1392  0.2093 -1.0469
   24MPD2     C  372   3.805   1.168  15.311  0.3707  0.3560 -0.2936
   24MPD2    C1  373   3.746   1.043  15.333 -0.4420  0.0480 -0.3515
   24MPD2    C2  374   3.643   0.995  15.254  0.6305 -0.4545 -0.3018
   24MPD2    C3  375   3.584   1.090  15.173  0.1150  0.4842  0.5412
   24MPD2    C4  376   3.641   1.211  15.148  0.0388  0.8183 -0.2325
   24MPD2    C5  377   3.749   1.248  15.222  0.1453 -0.4107  0.4026
   24MPD2     H  378   3.608   0.893  15.269 -0.7577  0.2692  1.4521
   24MPD2    H1  379   3.597   1.287  15.084 -0.3849  1.9619  1.4044
   24MPD2    H2  380   3.898   1.197  15.359 -0.0108  0.0880  0.6179
   24MPD2    H3  381   3.802   1.342  15.209  0.3796 -0.3335  1.8806
   24MPD2     N  382   3.489   1.049  15.080 -0.3302 -0.0673 -0.3863
   24MPD2    H5  383   3.490   1.104  14.995 -1.2115 -3.3419 -2.5015
   24MPD2    N1  384   3.797   0.959  15.436 -0.0090 -0.6414 -0.0414
   24MPD2    H7  385   3.846   1.008  15.510  1.1728 -1.2162 -0.4564
   25TMC2    C1  386   2.373   3.511  11.583  0.0073  0.4479  0.6640
   25TMC2    C2  387   2.357   3.629  11.524  0.5419  0.1986 -0.2470
   25TMC2    C3  388   2.306   3.735  11.598 -0.6582 -0.0187 -0.1492
   25TMC2    C4  389   2.329   3.485  11.706  0.3810 -0.0761  0.0619
   25TMC2    C5  390   2.263   3.584  11.769 -0.3475  0.1959  1.1473
   25TMC2    C6  391   2.253   3.711  11.719  0.4877  0.0939  0.5157
   25TMC2     C  392   2.420   3.391  11.504  0.3226 -0.2587 -0.1234
   25TMC2     O  393   2.509   3.415  11.419  0.0598 -0.5436  0.1183
   25TMC2     H  394   2.398   3.647  11.425  1.3081  0.4169  0.1134
   25TMC2    H1  395   2.327   3.386  11.751 -0.6514 -0.7994 -1.5565
   25TMC2    H2  396   2.202   3.793  11.770  1.4298  0.0720  1.4854
   25TMC2    C7  397   2.181   3.543  11.880  0.0170  0.1361  0.2231
   25TMC2    C8  398   2.250   3.845  11.519 -0.4340  0.2161 -0.0373
   25TMC2    O1  399   2.222   3.448  11.949 -0.0207  0.3246  0.8218
   25TMC2    O2  400   2.140   3.893  11.538  0.0622  0.5337  0.5669
   25TMC2    O5  401   2.325   3.880  11.414  0.3684 -0.2777  0.3734
   25TMC2    H5  402   2.412   3.833  11.418  1.2801  1.3202 -0.7040
   26MPD2     C  403   2.441   2.899  11.429 -0.7492  0.4914 -0.1445
   26MPD2    C1  404   2.313   2.929  11.422  0.1143 -0.1965 -0.0987
   26MPD2    C2  405   2.271   3.060  11.437 -0.1965  0.2876 -0.5852
   26MPD2    C3  406   2.370   3.153  11.459 -0.5134  0.3231  0.2601
   26MPD2    C4  407   2.502   3.124  11.446  0.5530  0.3630 -0.0825
   26MPD2    C5  408   2.537   2.995  11.431  0.2269 -0.0258  0.1694
   26MPD2     H  409   2.172   3.102  11.429 -0.6727 -0.9252 -1.0468
   26MPD2    H1  410   2.580   3.198  11.434  0.8814  0.0303  0.0165
   26MPD2    H2  411   2.474   2.796  11.427  0.4677  0.8511  1.0909
   26MPD2    H3  412   2.644   2.980  11.428  0.1444 -0.4344 -0.7025
   26MPD2     N  413   2.332   3.288  11.499  0.7987 -0.8508  0.1003
   26MPD2    H5  414   2.238   3.300  11.537  0.3377  3.0932 -2.1778
   26MPD2    N1  415   2.222   2.821  11.412 -0.0137 -0.3927 -0.5329
   26MPD2    H7  416   2.270   2.731  11.420 -0.8945 -0.6969  1.3130
   27TMC2    C1  417   1.319   0.296  11.891  0.0105  0.5525 -0.2107
   27TMC2    C2  418   1.261   0.332  11.771 -0.0980 -0.3042 -0.0349
   27TMC2    C3  419   1.216   0.464  11.774  0.0093  0.9281  0.2044
   27TMC2    C4  420   1.361   0.386  11.988 -0.4991 -0.6475  0.0723
   27TMC2    C5  421   1.318   0.517  11.978  0.0507  0.1419 -0.0877
   27TMC2    C6  422   1.243   0.556  11.869 -0.2559 -0.5355  0.5919
   27TMC2     C  423   1.250   0.182  11.948 -0.5952  0.2248  0.6906
   27TMC2     O  424   1.255   0.074  11.887 -0.0556 -1.0427  0.4491
   27TMC2     H  425   1.204   0.267  11.705 -2.9769  1.2980  0.8672
   27TMC2    H1  426   1.412   0.352  12.077 -0.1565  1.5780  0.7142
   27TMC2    H2  427   1.196   0.654  11.869  0.9774  0.0536 -1.2596
   27TMC2    C7  428   1.314   0.582  12.106 -0.2050 -0.4027 -0.1970
   27TMC2    C8  429   1.114   0.499  11.678  0.3594 -0.6202 -0.5182
   27TMC2    O1  430   1.361   0.522  12.200 -0.2799  0.7309 -0.2236
   27TMC2    O2  431   1.129   0.495  11.555  0.3146  0.1038  0.1035
   27TMC2    O5  432   1.002   0.463  11.742 -0.0549  0.4917 -0.1485
   27TMC2    H5  433   1.010   0.474  11.839 -0.4189  0.5868 -0.1310
   28MPD2     C  434   0.931   4.714  12.284 -0.2641 -0.5524  0.2567
   28MPD2    C1  435   0.924   0.112  12.296 -0.1157  0.2679  1.1411
   28MPD2    C2  436   1.013   0.196  12.223 -0.4406 -0.4846 -0.2309
   28MPD2    C3  437   1.106   0.136  12.142 -0.0476  0.3431 -0.2137
   28MPD2    C4  438   1.115   0.001  12.124  0.0920  0.4300  0.1073
   28MPD2    C5  439   1.027   4.665  12.197 -0.3963 -0.1883  0.1242
   28MPD2     H  440   1.014   0.303  12.236  2.1922 -0.4842 -0.6304
   28MPD2    H1  441   1.190   4.688  12.067 -0.6881 -1.3067  0.6867
   28MPD2    H2  442   0.862   4.650  12.337  0.7397  0.2760  2.5541
   28MPD2    H3  443   1.045   4.559  12.188  0.0762  0.0676 -1.7401
   28MPD2     N  444   1.196   0.223  12.070 -0.4734 -0.4738 -0.1012
   28MPD2    H5  445   1.184   0.323  12.087  1.7584 -0.3841  0.9712
   28MPD2    N1  446   0.818   0.162  12.369  0.1211 -0.0065 -0.4463
   28MPD2    H7  447   0.754   0.088  12.397  0.2235  0.9423  2.2786
   29TMC2    C1  448   0.727   2.781  14.313  0.6753  0.5857 -0.8151
   29TMC2    C2  449   0.757   2.773  14.445  0.1389 -0.3665 -0.7007
   29TMC2    C3  450   0.741   2.895  14.505 -0.1665  0.3889  0.4292
   29TMC2    C4  451   0.669   2.883  14.255 -0.3122 -0.1622 -0.1143
   29TMC2    C5  452   0.651   2.997  14.325  0.6874  0.0930 -0.1470
   29TMC2    C6  453   0.692   3.013  14.450  0.7354  0.1723  0.7100
   29TMC2     C  454   0.743   2.657  14.230 -0.0405 -0.1719  0.0069
   29TMC2     O  455   0.770   2.550  14.286  0.1140  0.4912 -0.0168
   29TMC2     H  456   0.801   2.684  14.487  1.2286  0.1296 -0.7747
   29TMC2    H1  457   0.630   2.883  14.154  0.8390  1.6596 -0.5500
   29TMC2    H2  458   0.701   3.104  14.507  0.9264 -0.0724  1.0726
   29TMC2    C7  459   0.630   3.121  14.254  0.0274  0.4066 -0.2968
   29TMC2    C8  460   0.775   2.897  14.646 -0.6750  0.0940  0.0690
   29TMC2    O1  461   0.545   3.110  14.162  0.1984  0.8425 -0.0201
   29TMC2    O2  462   0.834   2.987  14.706 -0.2656  0.1629  0.1016
   29TMC2    O5  463   0.696   2.812  14.703 -0.2014 -0.0994  0.3375
   29TMC2    H5  464   0.637   2.765  14.640 -0.0748 -1.4152  1.1759
   30MPD2     C  465   0.880   2.477  13.772 -0.1506 -0.2686  0.1589
   30MPD2    C1  466   0.878   2.411  13.895 -0.0334  0.4215  0.3920
   30MPD2    C2  467   0.830   2.481  14.007  0.3476  0.3292  0.1834
   30MPD2    C3  468   0.773   2.607  13.994  0.3767  0.8069 -0.9348
   30MPD2    C4  469   0.783   2.667  13.873  0.4061  0.5306  0.3828
   30MPD2    C5  470   0.839   2.607  13.760  0.2627  0.0747  0.6060
   30MPD2     H  471   0.841   2.437  14.105  1.2854 -1.1138 -0.5608
   30MPD2    H1  472   0.757   2.772  13.867 -1.5863  0.0201  0.1092
   30MPD2    H2  473   0.923   2.431  13.684 -0.9098 -0.1395 -0.2825
   30MPD2    H3  474   0.826   2.661  13.667 -2.1165 -1.1226  0.2380
   30MPD2     N  475   0.740   2.690  14.095  0.6873  0.0959 -0.0850
   30MPD2    H5  476   0.722   2.785  14.064  2.6547  0.1275 -1.0642
   30MPD2    N1  477   0.929   2.281  13.915  0.3343  0.0195  0.2322
   30MPD2    H7  478   0.934   2.243  14.009  2.1864 -2.3713 -0.8507
   31TMC2    C1  479   3.141   1.689  15.396  0.1806 -0.0675 -0.1479
   31TMC2    C2  480   3.010   1.707  15.433  0.4475  0.3439  0.6562
   31TMC2    C3  481   2.988   1.738  15.562 -0.2972  0.7680  0.5689
   31TMC2    C4  482   3.243   1.691  15.490  0.0361 -0.8190 -0.6138
   31TMC2    C5  483   3.212   1.717  15.621 -0.1435 -0.2055 -0.5065
   31TMC2    C6  484   3.085   1.734  15.656  0.0005  0.5283 -0.0961
   31TMC2     C  485   3.168   1.675  15.252 -0.6498  0.3223  0.3584
   31TMC2     O  486   3.077   1.712  15.179 -0.3535  0.6138 -0.1604
   31TMC2     H  487   2.933   1.689  15.359  0.7839 -0.8703  0.5953
   31TMC2    H1  488   3.349   1.671  15.475  0.8689  2.5082  0.7382
   31TMC2    H2  489   3.071   1.740  15.764  0.9023 -0.5046  0.0817
   31TMC2    C7  490   3.298   1.663  15.722 -0.2640  0.3936  0.6069
   31TMC2    C8  491   2.858   1.721  15.608 -0.0866 -0.6974 -0.0001
   31TMC2    O1  492   3.322   1.538  15.714 -0.2279 -0.1885  0.1494
   31TMC2    O2  493   2.838   1.653  15.710 -0.6413 -0.0356  0.1428
   31TMC2    O5  494   2.767   1.780  15.531  0.3698 -0.3933 -0.3124
   31TMC2    H5  495   2.814   1.837  15.467  0.6376 -0.7865 -0.4629
   32MPD2     C  496   3.520   1.624  14.868  0.7406  0.0539 -0.9039
   32MPD2    C1  497   3.394   1.682  14.860  0.4332 -0.7209 -0.5435
   32MPD2    C2  498   3.313   1.681  14.979 -0.0539  0.6280  0.0986
   32MPD2    C3  499   3.365   1.635  15.101  0.3847 -0.3752 -0.0818
   32MPD2    C4  500   3.490   1.582  15.105  0.0930  0.3567 -0.2600
   32MPD2    C5  501   3.567   1.579  14.989 -0.0104  0.1755 -0.1805
   32MPD2     H  502   3.213   1.722  14.985 -0.2662 -0.0404  1.2142
   32MPD2    H1  503   3.541   1.556  15.197  0.9532  2.7212 -0.0717
   32MPD2    H2  504   3.580   1.618  14.779  2.5957 -1.0378  0.4259
   32MPD2    H3  505   3.665   1.533  14.992 -0.0937  0.2634  4.2576
   32MPD2     N  506   3.294   1.630  15.227 -0.1481 -0.0962  0.1018
   32MPD2    H5  507   3.352   1.605  15.306 -0.4389 -1.0019  0.0235
   32MPD2    N1  508   3.353   1.748  14.746  0.4716  0.0384  0.8181
   32MPD2    H7  509   3.254   1.770  14.752 -0.0765 -1.7259 -1.5475
   33TMC2    C1  510   3.043   4.159  10.127  0.3854  0.2016  0.0711
   33TMC2    C2  511   2.949   4.073  10.068 -0.2598  0.6057 -0.3253
   33TMC2    C3  512   2.949   4.083   9.932  0.6417  0.1187 -0.0957
   33TMC2    C4  513   3.121   4.246  10.055 -0.7639  0.0590  0.2635
   33TMC2    C5  514   3.108   4.259   9.920 -0.3662 -0.1592 -0.4813
   33TMC2    C6  515   3.020   4.178   9.854  0.0682  0.5363  0.2635
   33TMC2     C  516   3.066   4.136  10.273  0.4699 -0.0643 -0.2873
   33TMC2     O  517   2.976   4.069  10.331 -0.0307 -0.2950  0.5235
   33TMC2     H  518   2.889   4.009  10.130  0.2571  0.1960 -0.2465
   33TMC2    H1  519   3.198   4.311  10.096  0.5329 -2.1115  1.3271
   33TMC2    H2  520   3.004   4.181   9.747  0.8499 -0.3041  0.1286
   33TMC2    C7  521   3.186   4.370   9.865 -0.6475  0.1103  0.1862
   33TMC2    C8  522   2.849   4.008   9.869  0.4804  0.1041 -0.2160
   33TMC2    O1  523   3.288   4.406   9.927 -0.1851  0.2518  0.3990
   33TMC2    O2  524   2.850   3.989   9.751  0.5854 -0.3912 -0.1101
   33TMC2    O5  525   2.742   4.000   9.951 -0.2883  0.2874  0.7506
   33TMC2    H5  526   2.738   4.054  10.032 -2.6713 -0.5615  1.1860
   34MPD2     C  527   3.379   4.117  10.693  0.4076  0.3738  0.4293
   34MPD2    C1  528   3.243   4.089  10.681  0.2935 -0.0801 -0.2564
   34MPD2    C2  529   3.175   4.093  10.557 -0.3279 -0.2482 -0.0133
   34MPD2    C3  530   3.247   4.133  10.446 -0.3140  0.9268 -0.3079
   34MPD2    C4  531   3.387   4.157  10.462 -0.1929  0.0692  0.0407
   34MPD2    C5  532   3.453   4.145  10.580 -0.0195  0.7673 -0.7211
   34MPD2     H  533   3.071   4.065  10.549 -1.5749  3.6976  2.0253
   34MPD2    H1  534   3.444   4.193  10.376  1.6687 -2.8063  0.0961
   34MPD2    H2  535   3.433   4.090  10.782 -1.0010 -0.8474  0.9202
   34MPD2    H3  536   3.561   4.158  10.585 -0.1696  1.4781  0.7302
   34MPD2     N  537   3.195   4.163  10.316  0.3047  0.3158 -0.3030
   34MPD2    H5  538   3.252   4.213  10.249 -2.8899  2.7853 -1.1508
   34MPD2    N1  539   3.176   4.050  10.804  0.1143  0.3252 -0.4461
   34MPD2    H7  540   3.242   4.019  10.876  1.4691 -2.1897 -2.7821
   35TMC2    C1  541   4.610   0.269  11.614 -0.2250  0.8736 -0.2046
   35TMC2    C2  542   4.659   0.332  11.503  0.1896 -0.7075 -0.4426
   35TMC2    C3  543   4.589   0.441  11.462  0.2616  0.7819  0.1536
   35TMC2    C4  544   4.492   0.303  11.672  0.0668  0.3540 -0.3381
   35TMC2    C5  545   4.426   0.415  11.624 -0.0157 -0.2635 -0.2693
   35TMC2    C6  546   4.470   0.481  11.513  0.0487  0.6427  0.7160
   35TMC2     C  547   4.638   0.133  11.612  0.5821  0.6171 -1.0395
   35TMC2     O  548   4.548   0.053  11.631  0.0278  0.2925  0.0926
   35TMC2     H  549   0.008   0.299  11.448 -0.1811 -0.1675 -1.3541
   35TMC2    H1  550   4.459   0.248  11.760  0.4534  0.3539 -0.1954
   35TMC2    H2  551   4.422   0.567  11.466  1.0128  1.0956  0.5556
   35TMC2    C7  552   4.287   0.416  11.656  0.2634  0.1049 -0.0161
   35TMC2    C8  553   4.614   0.495  11.330  0.4617  0.4886 -0.3988
   35TMC2    O1  554   4.247   0.343  11.743  0.1989 -0.3465  0.0624
   35TMC2    O2  555   4.676   0.439  11.246  0.0243  0.5527 -0.2792
   35TMC2    O5  556   4.631   0.625  11.363 -0.7237  0.2546  0.1519
   35TMC2    H5  557   4.600   0.644  11.454 -1.4565 -1.7681  0.3222
   36MPD2     C  558   0.277   4.520  11.618  0.4360  0.3387  0.2303
   36MPD2    C1  559   0.336   4.648  11.629  0.1564 -0.6983  0.1921
   36MPD2    C2  560   0.242   0.010  11.620 -1.1530  0.6026 -0.0309
   36MPD2    C3  561   0.109   4.734  11.618 -0.5043  0.4925  0.6020
   36MPD2    C4  562   0.055   4.610  11.617 -0.1584 -0.5557 -0.6618
   36MPD2    C5  563   0.145   4.505  11.604 -0.5425 -0.2455 -0.2293
   36MPD2     H  564   0.281   0.111  11.612 -0.4746  0.3465  0.0359
   36MPD2    H1  565   4.691   4.579  11.607 -0.2137 -1.1064  1.6294
   36MPD2    H2  566   0.337   4.431  11.633 -0.8573 -0.3752  1.1128
   36MPD2    H3  567   0.116   4.401  11.602 -1.2656 -0.0425 -0.3973
   36MPD2     N  568   0.036   0.108  11.612  0.0259 -0.4782 -0.8070
   36MPD2    H5  569   0.083   0.197  11.625  0.1992 -1.0742  2.4731
   36MPD2    N1  570   0.469   4.682  11.650 -0.6043 -0.1559 -0.1543
   36MPD2    H7  571   0.495   0.041  11.654 -2.7526  0.4252  0.0180
   37TMC2    C1  572   2.384   1.245  11.491  0.3397 -0.0102 -0.0833
   37TMC2    C2  573   2.361   1.374  11.459  0.1514 -1.0018 -0.0934
   37TMC2    C3  574   2.468   1.462  11.475 -0.0080  0.0122  0.9942
   37TMC2    C4  575   2.510   1.199  11.516  0.2900 -0.2838 -0.5204
   37TMC2    C5  576   2.611   1.287  11.515  0.3325 -0.7315  0.3575
   37TMC2    C6  577   2.589   1.421  11.508 -0.3016  0.3923 -0.0690
   37TMC2     C  578   2.268   1.162  11.529 -0.0491 -0.2758  0.0106
   37TMC2     O  579   2.162   1.188  11.474  0.3768 -0.7574  0.4048
   37TMC2     H  580   2.258   1.404  11.446 -0.3369 -1.8753  1.8105
   37TMC2    H1  581   2.527   1.092  11.510 -0.7265 -0.5191  0.7919
   37TMC2    H2  582   2.665   1.492  11.535  0.5148 -0.5812  0.1900
   37TMC2    C7  583   2.748   1.252  11.552  0.9479 -0.1969 -0.0941
   37TMC2    C8  584   2.453   1.597  11.429 -0.4581 -0.2958 -0.2052
   37TMC2    O1  585   2.766   1.141  11.602 -0.3435  0.3440 -0.5738
   37TMC2    O2  586   2.507   1.691  11.484 -0.3459 -0.9215  0.4380
   37TMC2    O5  587   2.343   1.607  11.351 -0.2595 -0.2054 -0.3641
   37TMC2    H5  588   2.325   1.524  11.302 -0.0180 -0.4566 -0.0322
   38MPD2     C  589   2.035   0.790  11.798 -0.8142 -0.9341 -0.0600
   38MPD2    C1  590   2.172   0.781  11.816 -0.0115 -0.3637  0.1108
   38MPD2    C2  591   2.255   0.873  11.747  0.1645  0.2953  0.4951
   38MPD2    C3  592   2.203   0.983  11.682  0.3676 -0.1059  0.3475
   38MPD2    C4  593   2.067   0.994  11.677  0.6322  0.0359  0.2866
   38MPD2    C5  594   1.985   0.897  11.728  0.3904 -0.3847 -0.2994
   38MPD2     H  595   2.361   0.871  11.769  0.1655 -1.2839  0.3765
   38MPD2    H1  596   2.019   1.077  11.627  1.1668 -0.2051 -0.6200
   38MPD2    H2  597   1.968   0.718  11.844 -3.9205  1.6272 -0.5872
   38MPD2    H3  598   1.877   0.907  11.726  0.3999 -0.1351  0.4304
   38MPD2     N  599   2.298   1.070  11.633 -0.2825  0.3006 -0.0857
   38MPD2    H5  600   2.395   1.067  11.664  0.2600  1.0554 -1.7027
   38MPD2    N1  601   2.233   0.673  11.887 -0.1174  0.3367 -0.5709
   38MPD2    H7  602   2.333   0.677  11.905 -0.2968  2.5463 -0.0179
   39TMC2    C1  603   0.595   2.238   1.413  0.4764  0.2910 -0.0629
   39TMC2    C2  604   0.667   2.168   1.318  0.7669  0.1265 -0.5962
   39TMC2    C3  605   0.786   2.117   1.360  0.2595 -0.8040  0.8784
   39TMC2    C4  606   0.638   2.257   1.543  0.5261 -0.3352  0.2861
   39TMC2    C5  607   0.763   2.215   1.578 -0.0228  0.9016  0.3630
   39TMC2    C6  608   0.842   2.155   1.479  0.0103 -0.5433 -0.1381
   39TMC2     C  609   0.486   2.323   1.367 -0.0263  0.7514 -0.3693
   39TMC2     O  610   0.427   2.279   1.269  0.3105  0.1746  0.4339
   39TMC2     H  611   0.618   2.126   1.231  1.5848 -0.2513 -0.8769
   39TMC2    H1  612   0.570   2.294   1.619  1.8631 -0.6435  1.6404
   39TMC2    H2  613   0.942   2.122   1.504 -0.9079 -2.1565  1.3405
   39TMC2    C7  614   0.825   2.269   1.697 -0.3888  0.1506 -0.1273
   39TMC2    C8  615   0.893   2.111   1.266 -0.5110  1.2835  0.1488
   39TMC2    O1  616   0.762   2.276   1.801 -0.4526 -0.1278 -0.5246
   39TMC2    O2  617   1.007   2.065   1.288 -0.5916  0.0388  0.3315
   39TMC2    O5  618   0.872   2.226   1.193 -0.2427 -0.4221 -0.3366
   39TMC2    H5  619   0.782   2.262   1.183 -0.0661 -0.4051 -1.8126
   40MPD2     C  620   0.337   2.603   1.545  0.0160  0.0522 -0.7483
   40MPD2    C1  621   0.342   2.500   1.449  0.1535 -0.5473  0.4239
   40MPD2    C2  622   0.233   2.490   1.356 -0.5033 -0.1729  0.3946
   40MPD2    C3  623   0.131   2.581   1.362  0.3729 -0.5830 -0.3134
   40MPD2    C4  624   0.125   2.679   1.461  0.0193 -0.2323 -0.0793
   40MPD2    C5  625   0.228   2.689   1.554  0.1616 -0.3571  0.6810
   40MPD2     H  626   0.230   2.405   1.290 -1.6403 -0.3684  0.7042
   40MPD2    H1  627   0.046   2.752   1.471  2.9578  2.6028  2.2887
   40MPD2    H2  628   0.419   2.609   1.616 -0.5872 -1.4699  0.0874
   40MPD2    H3  629   0.232   2.773   1.623  0.2225 -0.5455  0.9035
   40MPD2     N  630   0.008   2.573   1.295  0.1372 -0.4634  0.0923
   40MPD2    H5  631   4.678   2.637   1.332  0.3006  1.1422 -2.3147
   40MPD2    N1  632   0.451   2.416   1.452  0.0287  0.2702  0.5007
   40MPD2    H7  633   0.522   2.436   1.522  2.2169 -1.6075 -1.1896
   41TMC2    C1  634   4.005   0.386  12.963  0.1423  0.1008 -0.5943
   41TMC2    C2  635   3.900   0.359  12.873 -0.3366 -0.3302  0.0280
   41TMC2    C3  636   3.921   0.368  12.742  0.4653  0.5158 -0.1004
   41TMC2    C4  637   4.127   0.425  12.918 -0.0277 -0.3351  0.7016
   41TMC2    C5  638   4.151   0.440  12.784 -0.2566  0.0171 -0.1868
   41TMC2    C6  639   4.049   0.405  12.702 -0.0668 -0.1212 -0.2773
   41TMC2     C  640   3.988   0.314  13.088  0.0838 -0.2422 -0.1218
   41TMC2     O  641   3.905   0.222  13.092  0.3909 -0.3997  0.1271
   41TMC2     H  642   3.802   0.357  12.919 -1.7753 -0.0307 -3.0170
   41TMC2    H1  643   4.204   0.457  12.987  0.7255 -0.4853 -0.0811
   41TMC2    H2  644   4.064   0.419  12.595 -3.8187 -1.4286 -0.9809
   41TMC2    C7  645   4.285   0.477  12.746 -0.2578  0.3063 -0.7027
   41TMC2    C8  646   3.822   0.338  12.647 -0.1363  0.1964 -0.5763
   41TMC2    O1  647   4.359   0.525  12.826 -0.2467  0.2659  0.2960
   41TMC2    O2  648   3.843   0.372  12.533  0.4432 -1.2277  0.4369
   41TMC2    O5  649   3.707   0.326  12.711  0.3060  0.0903 -0.2503
   41TMC2    H5  650   3.720   0.266  12.788  2.5065 -1.7198 -2.0366
   42MPD2     C  651   4.046   0.182  13.353  0.3471  0.1988  0.2965
   42MPD2    C1  652   4.068   0.317  13.326  0.3739  0.4138 -0.5043
   42MPD2    C2  653   4.122   0.393  13.433  0.1315 -0.1283 -0.0695
   42MPD2    C3  654   4.135   0.348  13.564  0.4718  0.1311  0.6874
   42MPD2    C4  655   4.102   0.212  13.586  0.3481  0.1308 -0.1736
   42MPD2    C5  656   4.054   0.142  13.485 -0.7183 -0.4592  0.0170
   42MPD2     H  657   4.139   0.498  13.413 -1.2574  0.2899  0.8954
   42MPD2    H1  658   4.100   0.155  13.678  0.2052 -0.8815 -0.8076
   42MPD2    H2  659   4.011   0.115  13.276  0.9086  1.5729 -1.1637
   42MPD2    H3  660   4.041   0.037  13.507  2.5361 -0.6910  0.8105
   42MPD2     N  661   4.185   0.430  13.666 -0.0057 -0.6749 -0.0359
   42MPD2    H5  662   4.209   0.393  13.757  1.8161 -0.9956 -0.6485
   42MPD2    N1  663   4.048   0.375  13.194  0.1226  0.1488  0.3831
   42MPD2    H7  664   4.073   0.472  13.182 -0.7699  0.3365  0.0023
   43TMC2    C1  665   1.066   3.613   0.884  0.9179  0.4134  0.7063
   43TMC2    C2  666   1.104   3.539   0.995 -0.1042  0.7444 -0.4676
   43TMC2    C3  667   1.083   3.590   1.113 -0.4519 -0.3333 -0.0527
   43TMC2    C4  668   0.991   3.728   0.906 -0.1601 -0.1976  0.6990
   43TMC2    C5  669   0.958   3.771   1.031  0.3957  0.6683 -0.2446
   43TMC2    C6  670   1.013   3.702   1.137  0.2161  1.0229 -0.5774
   43TMC2     C  671   1.112   3.570   0.749  0.8077  0.1224  0.4374
   43TMC2     O  672   1.224   3.516   0.739 -0.1536 -0.4519 -0.5384
   43TMC2     H  673   1.147   3.440   0.988 -2.2011 -0.1105 -1.4304
   43TMC2    H1  674   0.947   3.776   0.820 -2.2520  0.5658  2.2019
   43TMC2    H2  675   1.006   3.738   1.239  1.2981  1.0808 -0.5237
   43TMC2    C7  676   0.927   3.904   1.043  0.1282 -0.3803 -0.0867
   43TMC2    C8  677   1.120   3.520   1.230 -0.0198 -0.3651 -0.0226
   43TMC2    O1  678   0.960   3.970   0.945 -0.2635 -0.6465  0.2193
   43TMC2    O2  679   1.056   3.520   1.334  0.1556 -0.4804  0.2240
   43TMC2    O5  680   1.231   3.444   1.211  0.3969  0.4146 -0.2292
   43TMC2    H5  681   1.272   3.473   1.127  3.0439 -2.1111  0.1524
   44MPD2     C  682   1.072   3.464   0.261 -0.3501 -0.1005 -0.2120
   44MPD2    C1  683   1.179   3.457   0.345  0.0810 -0.0093 -0.7574
   44MPD2    C2  684   1.158   3.514   0.467 -0.7245  0.6240  0.1380
   44MPD2    C3  685   1.040   3.563   0.514  0.0556  0.5063  1.0999
   44MPD2    C4  686   0.937   3.574   0.422  0.1494  0.5607 -0.6639
   44MPD2    C5  687   0.954   3.527   0.294  0.0236  0.5606 -0.2219
   44MPD2     H  688   1.247   3.511   0.529 -0.9987 -0.6952  0.4884
   44MPD2    H1  689   0.841   3.618   0.445  0.1415  0.3925 -0.3721
   44MPD2    H2  690   1.067   3.422   0.162 -0.6557 -1.1508  0.2479
   44MPD2    H3  691   0.873   3.540   0.223 -0.7873 -1.2224  0.3636
   44MPD2     N  692   1.017   3.598   0.651  0.4748  0.9768  0.0185
   44MPD2    H5  693   0.926   3.618   0.692 -0.3463  1.4159 -2.0555
   44MPD2    N1  694   1.295   3.386   0.323 -0.2329 -0.3975  0.5667
   44MPD2    H7  695   1.347   3.350   0.402 -2.4333 -4.2330  0.2595
   45TMC2    C1  696   0.898   1.488   9.750 -0.0137 -0.0403 -0.2543
   45TMC2    C2  697   0.793   1.528   9.830  0.1933 -0.2805 -0.1140
   45TMC2    C3  698   0.810   1.624   9.925 -0.2985  0.8114  0.6956
   45TMC2    C4  699   1.020   1.549   9.772 -0.3603  1.0977 -0.1776
   45TMC2    C5  700   1.031   1.645   9.875 -0.2807 -0.8774 -0.0221
   45TMC2    C6  701   0.927   1.687   9.952 -0.6979  0.2067  0.2723
   45TMC2     C  702   0.903   1.366   9.679  0.0960  0.6267 -0.0748
   45TMC2     O  703   0.994   1.346   9.601  0.0361  0.1259  0.2208
   45TMC2     H  704   0.691   1.508   9.801  0.2752 -0.5470 -0.2171
   45TMC2    H1  705   1.104   1.517   9.711 -1.7475 -1.0434 -0.9942
   45TMC2    H2  706   0.937   1.768  10.023  1.6506 -1.0361  1.3500
   45TMC2    C7  707   1.164   1.696   9.913 -0.3806  0.9928 -0.1939
   45TMC2    C8  708   0.688   1.658  10.002  0.2903  0.3277 -0.2007
   45TMC2    O1  709   1.169   1.738  10.027  0.2731 -0.5007 -0.3470
   45TMC2    O2  710   0.604   1.740   9.969 -0.6237  0.1206  0.4143
   45TMC2    O5  711   0.737   1.646  10.129  0.4444 -0.2289  0.1735
   45TMC2    H5  712   0.799   1.570  10.128  0.0809 -0.5178 -0.2165
   46MPD2     C  713   0.799   1.134   9.519 -0.1134 -0.0724 -0.0535
   46MPD2    C1  714   0.738   1.185   9.638  0.1064 -0.2758  0.3518
   46MPD2    C2  715   0.622   1.125   9.675 -1.2220  0.2237 -0.2737
   46MPD2    C3  716   0.564   1.021   9.609 -1.0631  0.3543 -0.0517
   46MPD2    C4  717   0.615   0.990   9.489 -0.1362 -0.5661  0.1503
   46MPD2    C5  718   0.728   1.051   9.439  0.7113 -0.4468  0.0629
   46MPD2     H  719   0.569   1.161   9.762 -0.0589  0.3649  0.3814
   46MPD2    H1  720   0.563   0.925   9.419 -0.8820  2.6601 -2.3027
   46MPD2    H2  721   0.896   1.167   9.484 -0.9312 -0.4909 -2.7511
   46MPD2    H3  722   0.758   1.024   9.338 -3.0025  2.4017 -1.8114
   46MPD2     N  723   0.443   0.966   9.660 -0.1565 -0.1894  0.3268
   46MPD2    H5  724   0.414   1.006   9.748 -2.5485 -0.1589 -0.4716
   46MPD2    N1  725   0.784   1.293   9.705  0.0907  0.3857  0.3936
   46MPD2    H7  726   0.739   1.326   9.790 -0.4527  0.5477  0.0382
   47TMC2    C1  727   3.515   2.027   9.262  0.3549  0.1950 -0.2174
   47TMC2    C2  728   3.480   1.908   9.208  0.5871  0.4409 -0.2949
   47TMC2    C3  729   3.399   1.913   9.102  0.5916 -0.5238  0.5933
   47TMC2    C4  730   3.461   2.142   9.220 -1.2810  0.3317 -0.1540
   47TMC2    C5  731   3.374   2.141   9.112 -0.2773  0.0710 -1.0791
   47TMC2    C6  732   3.339   2.026   9.051  0.4768  0.1819 -0.3936
   47TMC2     C  733   3.577   2.028   9.397 -0.7219 -0.2495 -0.0894
   47TMC2     O  734   3.559   2.126   9.469 -0.3581  0.2133 -0.2923
   47TMC2     H  735   3.492   1.812   9.257  1.8210 -0.5452 -2.5656
   47TMC2    H1  736   3.495   2.231   9.272  0.7505 -1.2528  1.2460
   47TMC2    H2  737   3.277   2.023   8.962 -0.3637  0.9551  0.1681
   47TMC2    C7  738   3.293   2.254   9.076  0.2166  0.5595  0.2354
   47TMC2    C8  739   3.372   1.785   9.040  0.7448 -0.9172  0.4333
   47TMC2    O1  740   3.233   2.253   8.970  0.2681 -0.0327 -0.2036
   47TMC2    O2  741   3.276   1.754   8.975  0.1994 -0.3552  0.2786
   47TMC2    O5  742   3.492   1.720   9.038 -0.4233 -0.1008 -0.9365
   47TMC2    H5  743   3.567   1.737   9.100 -1.4004 -0.9209  0.4725
   48MPD2     C  744   3.723   1.951   9.646  0.0489 -0.1568  0.6874
   48MPD2    C1  745   3.718   1.873   9.533 -0.2484  0.2283  0.0918
   48MPD2    C2  746   3.783   1.757   9.527 -1.1758 -0.0835 -0.3567
   48MPD2    C3  747   3.855   1.706   9.632 -0.0615  0.2099 -0.3074
   48MPD2    C4  748   3.856   1.778   9.749  0.1288 -0.2388  0.2090
   48MPD2    C5  749   3.786   1.901   9.752 -0.3999  0.5621  0.0063
   48MPD2     H  750   3.779   1.687   9.445 -1.8656 -0.7830  0.2693
   48MPD2    H1  751   3.919   1.753   9.833  1.2785  1.4432 -0.1606
   48MPD2    H2  752   3.665   2.043   9.657 -0.7770 -0.6866  0.7557
   48MPD2    H3  753   3.781   1.952   9.847 -0.4844 -0.3506  0.4883
   48MPD2     N  754   3.914   1.576   9.623  0.0440 -0.0813  0.0097
   48MPD2    H5  755   3.885   1.517   9.545  0.9275 -0.9728  0.3465
   48MPD2    N1  756   3.643   1.910   9.419 -0.1933  0.5632  0.0716
   48MPD2    H7  757   3.660   1.848   9.341 -1.3175 -0.5520  0.7253
   49TMC2    C1  758   2.750   3.574   9.858 -0.1301 -0.0425 -0.3005
   49TMC2    C2  759   2.642   3.633   9.791  0.6492 -0.2261  0.1817
   49TMC2    C3  760   2.666   3.697   9.674  0.4580  0.3338 -0.2738
   49TMC2    C4  761   2.875   3.593   9.801 -0.8416  0.5574  0.2886
   49TMC2    C5  762   2.892   3.668   9.686 -0.8847  0.2439  0.2118
   49TMC2    C6  763   2.790   3.716   9.613  0.3810 -0.0139 -0.6327
   49TMC2     C  764   2.752   3.542  10.000  0.4682 -0.2707 -0.2912
   49TMC2     O  765   2.854   3.559  10.062 -0.0575  0.0655 -0.1502
   49TMC2     H  766   2.551   3.637   9.850  0.6156 -0.1669  0.1249
   49TMC2    H1  767   2.966   3.562   9.851  0.3362  1.1693 -1.4860
   49TMC2    H2  768   2.788   3.782   9.527  1.7170 -0.0872 -0.7166
   49TMC2    C7  769   3.029   3.704   9.659 -0.6826  0.4482 -0.1525
   49TMC2    C8  770   2.552   3.739   9.599  0.3314 -1.0285 -0.0344
   49TMC2    O1  771   3.108   3.698   9.756 -0.0175  0.8702 -0.1563
   49TMC2    O2  772   2.442   3.737   9.651  1.1249  0.0189  0.0350
   49TMC2    O5  773   2.580   3.694   9.478 -0.8154 -0.2167  0.2727
   49TMC2    H5  774   2.677   3.697   9.464 -0.9992 -1.3726 -1.1898
   50MPD2     C  775   2.686   3.447  10.273 -0.2555 -0.3169  0.5947
   50MPD2    C1  776   2.598   3.440  10.169  0.4797  0.5685  0.2262
   50MPD2    C2  777   2.478   3.369  10.179  0.0942 -0.0872  0.3416
   50MPD2    C3  778   2.442   3.314  10.299 -0.5454 -0.2153 -0.1364
   50MPD2    C4  779   2.531   3.327  10.402  0.3501 -0.0640  0.1590
   50MPD2    C5  780   2.646   3.399  10.389 -0.2941  0.0047 -0.0361
   50MPD2     H  781   2.414   3.369  10.091  0.7732  3.6181 -0.1380
   50MPD2    H1  782   2.517   3.291  10.504  0.1984  3.1769  1.2877
   50MPD2    H2  783   2.777   3.506  10.271 -1.2696  1.1472 -3.2072
   50MPD2    H3  784   2.718   3.401  10.470 -0.3804 -0.0021  0.0416
   50MPD2     N  785   2.321   3.251  10.331  0.5598  1.0063  0.5379
   50MPD2    H5  786   2.310   3.220  10.427 -1.1246  2.2877  0.7572
   50MPD2    N1  787   2.633   3.487  10.039 -0.1253 -0.6220 -0.0172
   50MPD2    H7  788   2.568   3.462   9.965 -0.0925 -0.0747 -0.2254
   51TMC2    C1  789   1.966   3.077   0.824 -0.1665 -0.1908 -0.1085
   51TMC2    C2  790   1.865   3.125   0.742 -0.4912  0.3569 -0.1833
   51TMC2    C3  791   1.899   3.163   0.617  0.1201 -0.7126 -0.5340
   51TMC2    C4  792   2.093   3.087   0.784  0.5390  0.2723 -0.0444
   51TMC2    C5  793   2.123   3.135   0.659 -0.2467 -0.2475  0.1304
   51TMC2    C6  794   2.025   3.163   0.572 -1.0308 -0.0730  1.0620
   51TMC2     C  795   1.939   2.978   0.923  0.1216 -0.9597 -0.3104
   51TMC2     O  796   2.027   2.926   0.989 -0.5414 -0.1892 -0.2760
   51TMC2     H  797   1.760   3.119   0.768 -0.2567 -1.3942  0.4016
   51TMC2    H1  798   2.172   3.072   0.858  1.8363 -2.9002 -2.0998
   51TMC2    H2  799   2.059   3.203   0.477 -0.6213 -2.2556  0.2737
   51TMC2    C7  800   2.249   3.079   0.612 -0.1315 -0.5983 -0.1044
   51TMC2    C8  801   1.798   3.238   0.548  0.0798  0.1738  0.2084
   51TMC2    O1  802   2.322   3.021   0.693  0.2136 -0.4490  0.0254
   51TMC2    O2  803   1.684   3.243   0.585  0.0906  0.1846 -0.5095
   51TMC2    O5  804   1.819   3.217   0.415 -0.4195 -0.1313 -0.3636
   51TMC2    H5  805   1.907   3.183   0.386 -0.2827 -1.3091  1.4297
   52MPD2     C  806   1.626   2.670   1.191 -0.3001  0.4734  0.1956
   52MPD2    C1  807   1.758   2.657   1.154  0.1214  0.1656 -0.2907
   52MPD2    C2  808   1.812   2.751   1.072  1.1815  0.3542  0.5061
   52MPD2    C3  809   1.746   2.867   1.037  0.1018  0.6586  0.3443
   52MPD2    C4  810   1.619   2.884   1.080 -0.1866  0.4914  0.3502
   52MPD2    C5  811   1.559   2.790   1.164 -0.3899 -0.3732  0.2567
   52MPD2     H  812   1.915   2.743   1.039  1.1052  2.3978 -0.2591
   52MPD2    H1  813   1.564   2.974   1.054 -2.3397 -0.0980  2.9615
   52MPD2    H2  814   1.585   2.608   1.270 -1.5696  3.0376  1.5383
   52MPD2    H3  815   1.460   2.805   1.205 -0.2561  0.6627  0.1923
   52MPD2     N  816   1.806   2.967   0.954  0.7768  0.2380 -0.0176
   52MPD2    H5  817   1.740   3.024   0.901  0.5971 -0.9300 -1.0679
   52MPD2    N1  818   1.846   2.549   1.183  0.4250  0.1954  0.4640
   52MPD2    H7  819   1.929   2.539   1.126 -1.1704  0.4343 -1.9305
   53TMC2    C1  820   3.316   1.175  12.027 -0.4712 -0.2924 -0.3858
   53TMC2    C2  821   3.440   1.153  12.084 -0.0261  0.5268  0.3718
   53TMC2    C3  822   3.447   1.097  12.209  0.2917 -0.7181  0.5786
   53TMC2    C4  823   3.204   1.154  12.101  0.7398  0.5760 -0.1794
   53TMC2    C5  824   3.214   1.096  12.223  0.2157 -0.3813 -0.8048
   53TMC2    C6  825   3.335   1.067  12.285  0.2190 -0.2880  0.5353
   53TMC2     C  826   3.307   1.215  11.893 -1.6614  1.3508 -0.3624
   53TMC2     O  827   3.413   1.251  11.836  0.3836 -0.4681 -0.1316
   53TMC2     H  828   3.531   1.166  12.028  0.4278  0.2623  1.0554
   53TMC2    H1  829   3.107   1.170  12.055  0.5386 -1.5400 -0.5007
   53TMC2    H2  830   3.355   1.009  12.375  2.3334  3.3826  2.4211
   53TMC2    C7  831   3.082   1.071  12.281 -0.2910 -0.2536 -0.4374
   53TMC2    C8  832   3.573   1.034  12.229  0.0736  0.5141  0.0088
   53TMC2    O1  833   2.985   1.136  12.244  0.1328  0.0984  0.3013
   53TMC2    O2  834   3.663   1.017  12.147  0.0949 -0.1802 -0.8037
   53TMC2    O5  835   3.589   1.031  12.364  0.1826 -0.2558 -0.0847
   53TMC2    H5  836   3.512   1.057  12.420  0.2564 -1.3872  0.5447
   54MPD2     C  837   3.231   1.381  11.652  0.1433  0.5964  0.4869
   54MPD2    C1  838   3.137   1.305  11.725  0.1083 -0.7441  0.0897
   54MPD2    C2  839   3.005   1.295  11.680  0.3627  0.1792 -0.8563
   54MPD2    C3  840   2.966   1.348  11.556  0.0908 -0.2265 -0.0215
   54MPD2    C4  841   3.060   1.432  11.493 -0.2224  0.1643 -0.1227
   54MPD2    C5  842   3.185   1.449  11.546 -0.2017 -0.4192 -0.4457
   54MPD2     H  843   2.936   1.245  11.747  1.0385 -1.5353 -1.4251
   54MPD2    H1  844   3.024   1.489  11.408  0.2432  1.3666  0.4789
   54MPD2    H2  845   3.334   1.394  11.685 -0.0633 -1.3251  1.8603
   54MPD2    H3  846   3.257   1.514  11.499 -0.3974  0.4732  0.4968
   54MPD2     N  847   2.836   1.346  11.508  0.2441  0.3068 -0.2156
   54MPD2    H5  848   2.802   1.408  11.436  0.9718  0.9672  0.0077
   54MPD2    N1  849   3.174   1.233  11.846  0.3566 -0.6187  0.1681
   54MPD2    H7  850   3.096   1.192  11.897 -1.2262  2.8971  0.5339
   55TMC2    C1  851   3.821   3.473  17.172 -0.1147  0.0361  0.2531
   55TMC2    C2  852   3.799   3.466  17.037 -0.4438  1.1619  0.3176
   55TMC2    C3  853   3.819   3.342  16.981  0.7634  0.0731  0.5145
   55TMC2    C4  854   3.851   3.365  17.245  0.0023 -0.0500 -0.4656
   55TMC2    C5  855   3.855   3.242  17.184  0.5772  0.3222  0.7598
   55TMC2    C6  856   3.844   3.227  17.054 -0.1205 -0.2234  0.0494
   55TMC2     C  857   3.815   3.602  17.237 -0.1545  0.4179 -0.1354
   55TMC2     O  858   3.863   3.596  17.350 -0.2886  0.0970  0.4819
   55TMC2     H  859   3.804   3.553  16.973 -1.0994  0.1753 -1.0700
   55TMC2    H1  860   3.842   3.356  17.353  1.6084  1.0461 -0.2444
   55TMC2    H2  861   3.847   3.127  17.011 -1.3127 -1.1715  2.1540
   55TMC2    C7  862   3.874   3.122  17.266  0.6621  0.7562  0.3131
   55TMC2    C8  863   3.809   3.310  16.837  0.2071 -0.4427  0.2569
   55TMC2    O1  864   3.817   3.020  17.235  0.3267 -0.7852 -0.1943
   55TMC2    O2  865   3.854   3.204  16.794 -0.3804  0.3906 -0.4033
   55TMC2    O5  866   3.790   3.414  16.766 -0.2377 -0.5110  0.2298
   55TMC2    H5  867   3.742   3.477  16.824  0.9126  0.3366  0.2703
   56MPD2     C  868   3.731   3.936  17.092 -0.4368 -0.3826 -1.2147
   56MPD2    C1  869   3.756   3.849  17.198  0.5018 -0.8140 -0.5838
   56MPD2    C2  870   3.758   3.891  17.326 -0.2089  0.1518 -0.1690
   56MPD2    C3  871   3.728   4.023  17.353 -0.2746  0.0655 -0.9711
   56MPD2    C4  872   3.699   4.112  17.251 -0.3578 -0.2618 -0.2881
   56MPD2    C5  873   3.695   4.065  17.123 -0.8163  0.3925 -0.2760
   56MPD2     H  874   3.778   3.820  17.405  0.9516  1.6273  0.8571
   56MPD2    H1  875   3.675   4.214  17.275  0.3131 -0.2274  0.2269
   56MPD2    H2  876   3.732   3.911  16.987 -0.1738 -0.0195 -1.3010
   56MPD2    H3  877   3.658   4.134  17.048 -1.4908  0.2445 -0.0786
   56MPD2     N  878   3.713   4.045  17.496 -0.0212  0.4230 -0.0564
   56MPD2    H5  879   3.729   3.971  17.564 -2.5506 -0.9269 -0.9510
   56MPD2    N1  880   3.772   3.711  17.158  0.1524 -0.3632  0.2420
   56MPD2    H7  881   3.769   3.689  17.060  1.9179  0.8981 -0.1018
   57TMC2    C1  882   3.204   4.269  13.801  0.1861 -0.0917  0.4893
   57TMC2    C2  883   3.277   4.220  13.905 -0.5097  0.6929  0.3469
   57TMC2    C3  884   3.359   4.117  13.878  0.1231 -0.1131  0.0292
   57TMC2    C4  885   3.218   4.218  13.675  0.4771  0.8196 -0.0725
   57TMC2    C5  886   3.296   4.111  13.650  0.8274  0.6185 -0.2500
   57TMC2    C6  887   3.374   4.065  13.750 -0.0573  0.1917 -0.3173
   57TMC2     C  888   3.084   4.349  13.817 -0.2740 -0.5274  0.5738
   57TMC2     O  889   3.020   4.376  13.713 -0.4224  0.2510 -0.2415
   57TMC2     H  890   3.247   4.245  14.006 -0.4610 -1.2510  0.8357
   57TMC2    H1  891   3.162   4.255  13.590 -1.2338  0.2331  0.8094
   57TMC2    H2  892   3.448   3.989  13.731 -0.2819 -0.1936  0.3543
   57TMC2    C7  893   3.333   4.094  13.512  0.0923  0.0378 -0.0906
   57TMC2    C8  894   3.408   4.034  13.990  0.4733 -0.1828  0.4911
   57TMC2    O1  895   3.306   4.182  13.432 -0.4046 -0.4349 -0.0369
   57TMC2    O2  896   3.465   3.929  13.969 -0.4894  0.5159  0.4615
   57TMC2    O5  897   3.428   4.119  14.092 -0.5726  0.1653  0.4467
   57TMC2    H5  898   3.379   4.204  14.086  0.0283  0.6185  1.7926
   58MPD2     C  899   2.819   4.738  14.033 -0.0629 -0.1496 -0.2765
   58MPD2    C1  900   2.799   4.677  13.911 -0.9091 -0.8081  0.3325
   58MPD2    C2  901   2.878   4.573  13.876  0.1905  0.2845  0.1143
   58MPD2    C3  902   2.963   4.504  13.965 -0.0294 -0.6410 -0.1370
   58MPD2    C4  903   2.975   4.573  14.085  0.3957  0.0981  0.1937
   58MPD2    C5  904   2.920   4.692  14.118  0.3715  0.3471 -0.0313
   58MPD2     H  905   2.870   4.526  13.779  0.5307  2.7524 -1.1183
   58MPD2    H1  906   3.040   4.535  14.163 -0.0399 -2.0788 -0.5194
   58MPD2    H2  907   2.771   0.089  14.068 -0.2048 -0.3768  0.1123
   58MPD2    H3  908   2.938   4.726  14.220  0.2198 -0.0030  0.1115
   58MPD2     N  909   3.064   4.398  13.938  0.0725 -0.4979 -0.1851
   58MPD2    H5  910   3.132   4.369  14.007  0.2778 -2.1054 -1.0537
   58MPD2    N1  911   2.698   4.725  13.817 -0.0362 -0.0439  1.3204
   58MPD2    H7  912   2.681   4.661  13.741  2.6771  1.3517 -0.4485
   59TMC2    C1  913   0.265   4.694  12.871 -0.6498 -0.6510  0.0918
   59TMC2    C2  914   0.236   4.607  12.972  0.2114  0.1997  0.4034
   59TMC2    C3  915   0.194   4.482  12.946  0.3685  0.3278 -0.2735
   59TMC2    C4  916   0.258   4.651  12.740  0.1532 -0.0953 -0.7084
   59TMC2    C5  917   0.213   4.520  12.722 -0.8093 -0.0160 -0.2967
   59TMC2    C6  918   0.175   4.439  12.824  0.2339  0.1599 -0.2792
   59TMC2     C  919   0.279   0.097  12.885  0.1163 -0.2484 -0.5562
   59TMC2     O  920   0.264   0.174  12.793  0.1346 -0.1505 -0.3412
   59TMC2     H  921   0.213   4.652  13.068 -1.2734  1.0238 -0.3354
   59TMC2    H1  922   0.286   4.722  12.663  2.5768  0.2980  0.5438
   59TMC2    H2  923   0.135   4.341  12.800  2.3581 -0.7539 -0.0796
   59TMC2    C7  924   0.185   4.472  12.587 -0.3446  0.2366  1.0373
   59TMC2    C8  925   0.195   4.392  13.054  0.1858  0.7823  0.3260
   59TMC2    O1  926   0.073   4.422  12.567  0.0416 -0.0939  0.1827
   59TMC2    O2  927   0.154   4.277  13.036 -0.2443 -0.3439  0.3191
   59TMC2    O5  928   0.303   4.417  13.138  0.6278 -0.0978  0.1362
   59TMC2    H5  929   0.327   4.512  13.144 -1.0931  0.2987  0.4691
   60MPD2     C  930   0.326   0.362  13.006  0.6934  0.4221 -0.2541
   60MPD2    C1  931   0.372   0.248  13.061 -0.2036 -0.0828  0.2125
   60MPD2    C2  932   0.466   0.254  13.163  0.2025  0.2798  0.6509
   60MPD2    C3  933   0.509   0.373  13.222  0.0087 -0.0536  0.1274
   60MPD2    C4  934   0.455   0.487  13.170  0.1637  0.0504 -0.5120
   60MPD2    C5  935   0.357   0.477  13.070  1.0695 -0.5716  0.2521
   60MPD2     H  936   0.506   0.158  13.193 -0.1227  0.2627  1.0413
   60MPD2    H1  937   0.489   0.584  13.203  1.4249 -0.3372 -0.6717
   60MPD2    H2  938   0.269   0.367  12.915  2.2146  0.8269 -1.1816
   60MPD2    H3  939   0.323   0.576  13.041  2.0335  0.1578  1.5995
   60MPD2     N  940   0.615   0.379  13.320  0.1305 -0.1353 -0.0301
   60MPD2    H5  941   0.650   0.472  13.340  1.7579 -0.5232 -1.1141
   60MPD2    N1  942   0.349   0.124  13.001  0.6295  0.1963 -0.2577
   60MPD2    H7  943   0.380   0.043  13.053  0.7978 -0.2188 -1.0149
   61TMC2    C1  944   0.081   1.017  15.246 -0.5423  0.0654  0.3414
   61TMC2    C2  945   0.031   0.966  15.361  0.2396  0.0845 -0.7879
   61TMC2    C3  946   4.720   1.052  15.452 -1.1825  0.3211  0.0226
   61TMC2    C4  947   0.073   1.152  15.212  0.3714  0.1487 -0.3321
   61TMC2    C5  948   0.021   1.232  15.312 -0.1575 -0.2369 -0.0190
   61TMC2    C6  949   4.725   1.185  15.434 -0.2117  0.0093  0.7945
   61TMC2     C  950   0.122   0.919  15.144 -0.7680  0.7845 -0.6279
   61TMC2     O  951   0.105   0.800  15.172  0.0544  0.4634  0.0803
   61TMC2     H  952   0.034   0.860  15.384 -1.5278  0.5832  1.8383
   61TMC2    H1  953   0.108   1.197  15.120  0.6860  1.1899  0.2973
   61TMC2    H2  954   4.679   1.254  15.504  0.1124  0.9241  0.1051
   61TMC2    C7  955   0.009   1.370  15.285  0.2249 -0.2938 -0.0916
   61TMC2    C8  956   4.676   0.990  15.578  0.8071 -0.3906  0.1612
   61TMC2    O1  957   0.006   1.449  15.377 -0.2113  0.5848 -0.0091
   61TMC2    O2  958   4.622   0.877  15.568 -0.4040 -0.4495 -0.1829
   61TMC2    O5  959   4.644   1.087  15.669 -0.0808 -0.3277  0.5857
   61TMC2    H5  960   4.704   1.164  15.663 -0.5776  0.1774  1.9808
   62MPD2     C  961   0.166   0.795  14.883 -1.1343  0.0303 -0.2984
   62MPD2    C1  962   0.219   0.922  14.919 -0.6482 -0.6783 -0.6115
   62MPD2    C2  963   0.288   0.995  14.831 -0.5465 -0.6599  0.3093
   62MPD2    C3  964   0.324   0.937  14.704  0.5305 -0.0888 -0.9623
   62MPD2    C4  965   0.262   0.822  14.664  0.5023  0.0564 -0.0126
   62MPD2    C5  966   0.201   0.738  14.762 -0.2393 -0.8408 -0.4736
   62MPD2     H  967   0.337   1.090  14.850 -1.5176 -0.0617 -0.1779
   62MPD2    H1  968   0.276   0.787  14.563  1.0009 -1.4768  0.5824
   62MPD2    H2  969   0.113   0.726  14.948 -0.2442  1.2694  1.7462
   62MPD2    H3  970   0.178   0.633  14.748  2.0251 -1.2763 -0.8989
   62MPD2     N  971   0.391   1.004  14.599 -0.4457 -0.4312 -0.5852
   62MPD2    H5  972   0.373   0.946  14.518  0.2413 -0.5666 -0.6380
   62MPD2    N1  973   0.189   0.984  15.044  0.1815 -1.1244  0.4006
   62MPD2    H7  974   0.211   1.083  15.056 -0.1669 -0.8036 -1.6983
   63TMC2    C1  975   3.895   1.470  10.416 -0.3102  0.3176  0.8691
   63TMC2    C2  976   4.021   1.481  10.468 -0.2677 -0.2428 -0.3435
   63TMC2    C3  977   4.087   1.597  10.464 -0.0358  0.3498  0.1781
   63TMC2    C4  978   3.830   1.572  10.354 -0.1497  0.2643  0.3834
   63TMC2    C5  979   3.903   1.687  10.354  0.2378  0.1706 -0.5907
   63TMC2    C6  980   4.031   1.700  10.394 -0.5765  0.2940 -0.4177
   63TMC2     C  981   3.807   1.355  10.440 -0.2012 -1.3708 -0.1759
   63TMC2     O  982   3.685   1.381  10.446 -0.3809 -0.1444 -0.0321
   63TMC2     H  983   4.064   1.407  10.534 -0.4501 -1.0032 -1.0790
   63TMC2    H1  984   3.740   1.571  10.293 -0.7624  2.9499  1.2346
   63TMC2    H2  985   4.088   1.789  10.373  0.4330 -0.9345 -2.8931
   63TMC2    C7  986   3.850   1.798  10.281 -0.6648  0.5325 -0.6568
   63TMC2    C8  987   4.229   1.577  10.427  0.0057  0.3923 -0.0500
   63TMC2    O1  988   3.761   1.771  10.207 -0.6832 -0.1992 -0.6115
   63TMC2    O2  989   4.269   1.464  10.397 -0.9617  0.1875 -0.1002
   63TMC2    O5  990   4.301   1.687  10.451  0.5771  0.2076 -0.0795
   63TMC2    H5  991   4.259   1.770  10.482 -1.4003 -1.0951  0.7267
   64MPD2     C  992   3.705   0.869  10.334 -0.1271  0.6910 -0.6436
   64MPD2    C1  993   3.834   0.902  10.293  0.2728 -0.5851 -0.3282
   64MPD2    C2  994   3.892   1.023  10.338  0.2775 -0.3291  0.5365
   64MPD2    C3  995   3.824   1.117  10.402 -0.0882 -1.1258  0.6009
   64MPD2    C4  996   3.689   1.089  10.434  0.5391 -0.1144  0.0474
   64MPD2    C5  997   3.639   0.964  10.403  0.3182 -0.5733  0.6396
   64MPD2     H  998   3.994   1.039  10.304  1.1038  0.4835  3.4003
   64MPD2    H1  999   3.624   1.161  10.482  1.8461  0.5781  0.7956
   64MPD2    H2 1000   3.661   0.771  10.316  0.3373  0.4216 -0.3136
   64MPD2    H3 1001   3.538   0.936  10.431  1.0156 -2.9317  0.7612
   64MPD2     N 1002   3.882   1.239  10.432  0.8200  0.4053 -1.1019
   64MPD2    H5 1003   3.982   1.251  10.417  1.2775 -1.3738  0.5559
   64MPD2    N1 1004   3.906   0.818  10.208 -0.4244  0.0106  0.0776
   64MPD2    H7 1005   3.998   0.850  10.179  0.0592 -0.2909  1.2511
   65TMC2    C1 1006   0.511   0.840  15.289 -0.2233 -0.2478  0.5201
   65TMC2    C2 1007   0.591   0.787  15.189  0.2465  0.3648 -0.2257
   65TMC2    C3 1008   0.602   0.864  15.080 -0.0512 -0.0059  0.3693
   65TMC2    C4 1009   0.468   0.970  15.301 -0.6375  0.7515 -0.6550
   65TMC2    C5 1010   0.483   1.036  15.184 -0.4416 -0.2907 -0.6755
   65TMC2    C6 1011   0.557   0.990  15.075  0.1976 -0.7361 -0.3254
   65TMC2     C 1012   0.500   0.762  15.411  0.0727  1.0228 -0.5077
   65TMC2     O 1013   0.489   0.808  15.523 -0.0496  0.5538 -0.1643
   65TMC2     H 1014   0.633   0.687  15.178 -1.3334 -0.2232 -0.8248
   65TMC2    H1 1015   0.403   1.006  15.380 -3.0156 -1.0908 -1.7787
   65TMC2    H2 1016   0.584   1.047  14.987  0.1507  1.7565  1.2550
   65TMC2    C7 1017   0.451   1.173  15.172  0.9738 -0.5279 -0.6028
   65TMC2    C8 1018   0.689   0.820  14.978  0.0515  0.5985  0.9573
   65TMC2    O1 1019   0.397   1.197  15.061  0.2396 -0.3965 -0.5607
   65TMC2    O2 1020   0.783   0.883  14.939 -0.0275  0.0568 -0.2566
   65TMC2    O5 1021   0.598   0.765  14.901  0.2911  0.0374  0.2055
   65TMC2    H5 1022   0.535   0.716  14.958  1.3908 -1.1991  0.3543
   66MPD2     C 1023   0.475   0.524  15.605 -0.0078  0.2303  0.4098
   66MPD2    C1 1024   0.496   0.518  15.467  0.9143  0.4088  0.0871
   66MPD2    C2 1025   0.526   0.393  15.411  0.6326 -1.1985 -0.0127
   66MPD2    C3 1026   0.533   0.272  15.478 -0.1738  0.2104 -0.0330
   66MPD2    C4 1027   0.505   0.281  15.612 -0.2636 -1.2033  1.1576
   66MPD2    C5 1028   0.486   0.400  15.676 -0.1696  0.0995 -0.3554
   66MPD2     H 1029   0.561   0.410  15.310 -2.1455 -1.9288 -1.1065
   66MPD2    H1 1030   0.505   0.195  15.678  1.2425 -1.4959  0.7599
   66MPD2    H2 1031   0.440   0.619  15.645  2.1785  1.0912  0.2616
   66MPD2    H3 1032   0.465   0.390  15.782 -0.4476  3.9594 -0.0195
   66MPD2     N 1033   0.561   0.147  15.416 -0.9423  0.2080 -0.9524
   66MPD2    H5 1034   0.531   0.067  15.470 -0.6485  0.4542 -0.4277
   66MPD2    N1 1035   0.498   0.627  15.382  0.3082  0.5734  0.5416
   66MPD2    H7 1036   0.498   0.599  15.285 -0.4239 -0.2165  0.7674
   67TMC2    C1 1037   0.696   0.101  14.043 -0.3903  1.0321 -0.2941
   67TMC2    C2 1038   0.624   0.219  14.076 -0.0022  0.2437 -0.0202
   67TMC2    C3 1039   0.671   0.290  14.186 -0.8684  0.5260  0.4485
   67TMC2    C4 1040   0.814   0.065  14.120  0.7313  0.1598 -0.6009
   67TMC2    C5 1041   0.856   0.142  14.225  0.0568  0.2295 -0.3362
   67TMC2    C6 1042   0.785   0.251  14.256 -0.7409  0.9204 -0.2676
   67TMC2     C 1043   0.679   0.042  13.914 -0.7500 -0.9785 -0.3735
   67TMC2     O 1044   0.564   0.066  13.872  0.0786  0.2796 -0.1026
   67TMC2     H 1045   0.538   0.255  14.021 -0.8053 -1.2439  0.2484
   67TMC2    H1 1046   0.869   4.716  14.090 -1.2886 -1.5549  0.8138
   67TMC2    H2 1047   0.808   0.308  14.345  3.0553 -0.5432 -0.2718
   67TMC2    C7 1048   0.983   0.114  14.284  0.1473 -0.0136  0.6490
   67TMC2    C8 1049   0.586   0.387  14.246 -0.4871  0.2204  0.7630
   67TMC2    O1 1050   1.063   0.047  14.216  0.1906 -0.1896  0.0919
   67TMC2    O2 1051   0.485   0.430  14.183 -0.1374  0.5023 -1.0189
   67TMC2    O5 1052   0.593   0.375  14.386  0.5257 -0.1741 -0.0866
   67TMC2    H5 1053   0.672   0.320  14.405  0.6044 -0.5512 -1.4696
   68MPD2     C 1054   0.860   4.530  13.721 -0.1468  0.3633 -0.2870
   68MPD2    C1 1055   0.746   4.593  13.768 -0.0016 -0.0545 -0.9005
   68MPD2    C2 1056   0.624   4.557  13.717  0.2580 -0.2625  0.1897
   68MPD2    C3 1057   0.619   4.464  13.615 -0.3649 -0.0607 -0.1860
   68MPD2    C4 1058   0.733   4.399  13.571  0.8664 -0.2841  0.4714
   68MPD2    C5 1059   0.860   4.436  13.619 -0.1154 -0.0656  0.5207
   68MPD2     H 1060   0.539   4.618  13.745 -0.1529 -0.5533 -0.4221
   68MPD2    H1 1061   0.734   4.319  13.498  2.3181  1.3054 -1.2510
   68MPD2    H2 1062   0.959   4.559  13.754  0.6885 -1.4596 -1.1876
   68MPD2    H3 1063   0.948   4.388  13.578 -0.2652 -0.5487  0.7691
   68MPD2     N 1064   0.495   4.419  13.549  0.2580  0.2014 -0.0810
   68MPD2    H5 1065   0.509   4.355  13.471 -0.1815 -0.2618  0.2144
   68MPD2    N1 1066   0.766   4.687  13.870 -0.0049  0.3830 -0.3410
   68MPD2    H7 1067   0.862   4.697  13.902 -0.2373  1.2806  0.0448
   69TMC2    C1 1068   2.961   1.203  12.754  0.4975 -0.8055 -0.5594
   69TMC2    C2 1069   2.871   1.299  12.784  0.1949 -0.2636 -0.0016
   69TMC2    C3 1070   2.892   1.425  12.736 -0.1537 -0.9868  0.5887
   69TMC2    C4 1071   3.058   1.223  12.662  0.4602  0.2313 -0.1110
   69TMC2    C5 1072   3.085   1.350  12.621  0.2424 -0.2192 -0.0430
   69TMC2    C6 1073   2.996   1.451  12.657  0.5798  0.1335  0.3357
   69TMC2     C 1074   2.941   1.067  12.794  0.1331 -0.4769  0.3503
   69TMC2     O 1075   3.043   1.001  12.825  1.1073  0.1908 -0.0081
   69TMC2     H 1076   2.791   1.271  12.850 -1.4947  0.5037 -1.7169
   69TMC2    H1 1077   3.112   1.137  12.624  1.5265  0.8936 -0.0917
   69TMC2    H2 1078   3.009   1.555  12.630  1.5500  0.1964  1.0454
   69TMC2    C7 1079   3.162   1.366  12.501 -0.0316 -0.0512  0.3086
   69TMC2    C8 1080   2.779   1.517  12.723 -0.2877  0.8769  0.0813
   69TMC2    O1 1081   3.251   1.285  12.493  0.7516 -0.6863  0.4744
   69TMC2    O2 1082   2.776   1.627  12.772  0.5270 -0.0762 -0.6450
   69TMC2    O5 1083   2.670   1.440  12.703 -0.4273 -0.4101 -0.6204
   69TMC2    H5 1084   2.694   1.350  12.670 -0.8611 -0.0660 -1.8832
   70MPD2     C 1085   2.845   0.816  12.927 -0.2478  0.0534  0.5352
   70MPD2    C1 1086   2.773   0.893  12.836  0.9680 -0.5924  1.0874
   70MPD2    C2 1087   2.643   0.853  12.804  0.1520  0.2455  0.1970
   70MPD2    C3 1088   2.587   0.741  12.854 -0.5667 -0.2782  0.0327
   70MPD2    C4 1089   2.660   0.656  12.938 -0.6262 -0.4518 -0.8628
   70MPD2    C5 1090   2.781   0.699  12.980  0.0061 -0.3145 -0.5154
   70MPD2     H 1091   2.586   0.909  12.731  0.8149 -2.0301 -2.0710
   70MPD2    H1 1092   2.627   0.559  12.974  1.1137 -0.8726 -0.4155
   70MPD2    H2 1093   2.939   0.844  12.973 -0.1013 -1.6627  1.2716
   70MPD2    H3 1094   2.831   0.636  13.052 -1.5696 -0.0686  0.8041
   70MPD2     N 1095   2.462   0.687  12.815 -0.9597  0.1791  0.1311
   70MPD2    H5 1096   2.448   0.591  12.843  0.9004 -0.8523 -2.5945
   70MPD2    N1 1097   2.819   1.013  12.775  0.4068 -0.0167  0.0053
   70MPD2    H7 1098   2.745   1.064  12.728 -0.5089  0.3750  1.8525
   71TMC2    C1 1099   3.839   2.660   0.982 -0.1198  0.6957 -0.0165
   71TMC2    C2 1100   3.907   2.764   0.920 -0.4178  0.4943 -0.6202
   71TMC2    C3 1101   3.837   2.871   0.899 -0.1201 -0.0498  0.1530
   71TMC2    C4 1102   3.709   2.666   1.030 -0.6135 -0.2778 -0.2249
   71TMC2    C5 1103   3.648   2.787   1.011 -0.1935  0.6556  0.1196
   71TMC2    C6 1104   3.712   2.889   0.946 -0.3004  0.5894  0.0674
   71TMC2     C 1105   3.904   2.530   0.959  0.2289 -0.3048 -0.4389
   71TMC2     O 1106   4.020   2.532   0.922  0.3321  0.4049  0.5320
   71TMC2     H 1107   4.010   2.757   0.889 -0.7536 -2.2461 -1.1618
   71TMC2    H1 1108   3.655   2.593   1.088  1.1072 -1.6453 -0.3422
   71TMC2    H2 1109   3.663   2.986   0.938 -1.1910  0.0758 -0.7314
   71TMC2    C7 1110   3.502   2.794   1.001 -0.6912  0.4387  0.3323
   71TMC2    C8 1111   3.907   2.984   0.832  0.2260  0.2587 -0.2708
   71TMC2    O1 1112   3.447   2.903   1.020  0.2320 -0.1654  0.2455
   71TMC2    O2 1113   4.030   2.997   0.824  0.2448 -0.2397 -0.0532
   71TMC2    O5 1114   3.822   3.036   0.746  0.3535 -0.3428  0.0225
   71TMC2    H5 1115   3.725   3.021   0.754  0.1716  0.0263 -1.3855
   72MPD2     C 1116   3.863   2.030   0.995 -0.8416  0.2373 -0.5716
   72MPD2    C1 1117   3.977   2.101   0.954 -0.6730 -0.5229 -0.0351
   72MPD2    C2 1118   3.958   2.238   0.951  0.0609 -0.0212 -0.0643
   72MPD2    C3 1119   3.834   2.293   0.974 -0.4948 -0.7597  0.2359
   72MPD2    C4 1120   3.724   2.217   0.992  0.0532  0.6660  0.2640
   72MPD2    C5 1121   3.742   2.083   1.012  0.4281 -0.2546  0.2808
   72MPD2     H 1122   4.046   2.298   0.929  0.5948  0.5293  3.6481
   72MPD2    H1 1123   3.623   2.254   1.003 -0.4779 -1.2150  1.7945
   72MPD2    H2 1124   3.871   1.922   1.000 -2.6847  0.0538 -1.7066
   72MPD2    H3 1125   3.649   2.031   1.031 -0.0887  0.3708 -0.5340
   72MPD2     N 1126   3.816   2.433   0.973  0.0499 -0.2208  0.1091
   72MPD2    H5 1127   3.722   2.473   0.968  0.7009  1.6182  2.2318
   72MPD2    N1 1128   4.105   2.038   0.924  0.8307  0.3471 -0.2609
   72MPD2    H7 1129   4.183   2.100   0.903  2.9863 -1.8462  1.3130
   73TMC2    C1 1130   4.507   3.457  13.957 -0.2761 -0.3105  0.3353
   73TMC2    C2 1131   4.496   3.574  14.031  0.0333 -0.7615 -0.8079
   73TMC2    C3 1132   4.593   3.608  14.120 -0.1405  1.2469 -0.7394
   73TMC2    C4 1133   4.612   3.366  13.996 -0.5859  0.2721 -0.3221
   73TMC2    C5 1134   4.713   3.405  14.082  0.5266  0.5467  0.4354
   73TMC2    C6 1135   4.704   3.527  14.146 -0.6503 -0.1547  0.0676
   73TMC2     C 1136   4.508   3.461  13.807  0.3555  0.9009 -1.1917
   73TMC2     O 1137   4.590   3.386  13.752  0.8346 -0.0258 -0.6246
   73TMC2     H 1138   4.409   3.640  14.027  1.2671  0.8051 -1.7471
   73TMC2    H1 1139   4.620   3.273  13.942 -0.1377  0.4231 -0.5182
   73TMC2    H2 1140   0.042   3.566  14.211  0.0223 -0.8771 -0.2969
   73TMC2    C7 1141   0.108   3.375  14.031  0.0078  0.9454  0.3909
   73TMC2    C8 1142   4.596   3.746  14.166  0.3952  0.1568  0.0066
   73TMC2    O1 1143   0.205   3.415  14.092 -0.3000  0.0709  0.3342
   73TMC2    O2 1144   4.694   3.771  14.238 -0.2661 -0.5281  0.0215
   73TMC2    O5 1145   4.552   3.828  14.063 -0.1043 -0.1543  0.1897
   73TMC2    H5 1146   4.458   3.810  14.038 -0.1567  0.7395 -0.2262
   74MPD2     C 1147   4.398   3.726  13.384 -0.3325  0.3288  0.6926
   74MPD2    C1 1148   4.500   3.633  13.411  0.1057 -0.1125 -0.3956
   74MPD2    C2 1149   4.504   3.575  13.535  0.0508 -0.2542  0.1926
   74MPD2    C3 1150   4.403   3.603  13.629  0.6014  0.1223 -0.2127
   74MPD2    C4 1151   4.297   3.686  13.597  0.6981  0.4933  0.4331
   74MPD2    C5 1152   4.294   3.749  13.476 -0.3948  0.0328  0.6240
   74MPD2     H 1153   4.589   3.511  13.560  1.2944  0.5522 -1.9949
   74MPD2    H1 1154   4.214   3.694  13.667  2.2817 -0.8683  2.4612
   74MPD2    H2 1155   4.375   3.771  13.288  2.0016 -0.0683 -0.0485
   74MPD2    H3 1156   4.215   3.817  13.446 -2.4952 -1.6500  2.3590
   74MPD2     N 1157   4.406   3.548  13.761  0.5759  0.1708  0.1294
   74MPD2    H5 1158   4.339   3.573  13.834 -0.0690  0.1497 -0.4561
   74MPD2    N1 1159   4.595   3.604  13.306 -0.6520 -0.4469 -0.0328
   74MPD2    H7 1160   4.582   3.660  13.222  2.5842 -0.2569 -0.4168
   75TMC2    C1 1161   0.275   4.371  13.524 -0.2185 -0.7274  0.5415
   75TMC2    C2 1162   0.303   4.248  13.476 -0.2205 -0.4153 -0.8777
   75TMC2    C3 1163   0.209   4.188  13.405  0.8716  0.2342  0.3535
   75TMC2    C4 1164   0.148   4.417  13.516 -0.3254 -0.7469  0.2876
   75TMC2    C5 1165   0.052   4.342  13.447 -0.3965  0.1877 -0.0620
   75TMC2    C6 1166   0.084   4.222  13.389 -0.2561 -0.7396  0.3043
   75TMC2     C 1167   0.370   4.451  13.594  0.7555 -0.1970 -0.5673
   75TMC2     O 1168   0.334   4.539  13.677 -0.2655  0.1333  0.0216
   75TMC2     H 1169   0.401   4.204  13.491 -0.5247 -1.2975 -1.4588
   75TMC2    H1 1170   0.117   4.508  13.567  1.9234  0.1958 -0.0077
   75TMC2    H2 1171   0.005   4.174  13.332 -1.3008 -1.2749  2.1835
   75TMC2    C7 1172   4.666   4.407  13.403 -0.2216  0.2093 -0.2397
   75TMC2    C8 1173   0.255   4.087  13.312  0.3030 -0.5133 -0.0326
   75TMC2    O1 1174   4.601   4.344  13.322 -0.3977  0.2733 -0.0042
   75TMC2    O2 1175   0.371   4.090  13.270  0.8695  0.6997  0.4888
   75TMC2    O5 1176   0.188   3.970  13.347  0.4424 -0.4437 -0.7866
   75TMC2    H5 1177   0.103   3.980  13.395  0.8087 -0.4453 -0.1447
   76TMC2    C1 1178   3.840   0.455  11.817 -0.5623  0.1246 -0.0962
   76TMC2    C2 1179   3.712   0.453  11.758 -0.3617  0.5566 -0.1882
   76TMC2    C3 1180   3.673   0.333  11.720  0.7236 -0.0010  0.2230
   76TMC2    C4 1181   3.915   0.348  11.856 -0.6451 -0.5040  0.0571
   76TMC2    C5 1182   3.868   0.226  11.817  0.9612 -0.0127 -0.6390
   76TMC2    C6 1183   3.747   0.218  11.757  0.0289 -0.3251  0.0107
   76TMC2     C 1184   3.885   0.593  11.841 -0.5288 -0.5535 -0.2025
   76TMC2     O 1185   3.817   0.676  11.785  0.2354  0.4199  0.9517
   76TMC2     H 1186   3.645   0.537  11.742 -1.1268  0.8081  4.2560
   76TMC2    H1 1187   4.000   0.358  11.921 -0.2482 -2.4141 -0.1537
   76TMC2    H2 1188   3.705   0.119  11.751  2.0005 -1.1314 -0.4038
   76TMC2    C7 1189   3.949   0.106  11.840 -0.5531 -0.0381 -0.4917
   76TMC2    C8 1190   3.536   0.330  11.678  0.8387 -0.3698 -0.4710
   76TMC2    O1 1191   3.881   0.004  11.837 -0.3006  0.2544 -0.5007
   76TMC2    O2 1192   3.508   0.413  11.595 -0.6123  0.0663 -0.4242
   76TMC2    O5 1193   3.463   0.310  11.792 -0.3910 -0.3011 -0.4260
   76TMC2    H5 1194   3.518   0.254  11.851 -0.7312  0.5662  0.7201
   77MPD2     C 1195   4.155   0.960  12.084  0.0391  0.2849  0.8290
   77MPD2    C1 1196   4.031   0.969  12.018 -0.0054  0.4476  0.4651
   77MPD2    C2 1197   3.979   0.848  11.970  0.1028 -0.5419  0.1715
   77MPD2    C3 1198   4.044   0.732  11.973  0.9672 -0.3604 -1.1343
   77MPD2    C4 1199   4.154   0.728  12.054  0.1556 -0.1259 -0.0407
   77MPD2    C5 1200   4.214   0.837  12.106  0.3443 -0.1431  0.1519
   77MPD2     H 1201   3.883   0.848  11.920 -2.3871  0.3034  5.0012
   77MPD2    H1 1202   4.196   0.633  12.086  0.5148 -0.4926 -1.6155
   77MPD2    H2 1203   4.206   1.050  12.119 -1.2393  0.9067  1.1094
   77MPD2    H3 1204   4.301   0.829  12.170  0.0880  0.1748  0.5416
   77MPD2     N 1205   3.998   0.609  11.929  0.3748  0.2306 -0.3098
   77MPD2    H5 1206   4.051   0.527  11.957  0.2897  0.1323 -0.4339
   77MPD2    N1 1207   3.950   1.082  11.989  0.6382 -0.1729  0.3297
   77MPD2    H7 1208   3.878   1.075  11.918 -0.5540  0.1094  1.5238
   78TMC2    C1 1209   0.085   2.180   1.407  1.4065  0.2080 -0.0876
   78TMC2    C2 1210   4.691   2.209   1.384 -0.0845  0.2642  0.1422
   78TMC2    C3 1211   4.615   2.140   1.292  0.2718  0.1516 -0.2367
   78TMC2    C4 1212   0.152   2.085   1.335 -0.0512 -0.2150 -0.2168
   78TMC2    C5 1213   0.084   2.015   1.245 -0.0501 -0.0838  0.2739
   78TMC2    C6 1214   4.686   2.043   1.226  0.2663 -0.7643 -0.4412
   78TMC2     C 1215   0.144   2.224   1.527 -0.3996 -0.2128 -0.5487
   78TMC2     O 1216   0.084   2.313   1.589  0.3011 -0.2345  0.1103
   78TMC2     H 1217   4.631   2.273   1.449  1.2378  0.4478  1.1727
   78TMC2    H1 1218   0.260   2.074   1.337  0.1287  2.0339  1.8005
   78TMC2    H2 1219   4.637   1.980   1.152  0.8495 -0.0323 -1.4558
   78TMC2    C7 1220   0.157   1.913   1.171  0.1431 -0.8511  0.0451
   78TMC2    C8 1221   4.477   2.110   1.310 -0.2940 -0.1535 -0.8198
   78TMC2    O1 1222   0.280   1.921   1.153 -0.0484 -0.1278 -0.2363
   78TMC2    O2 1223   4.411   2.153   1.405 -0.8867  0.0542 -0.0706
   78TMC2    O5 1224   4.422   2.082   1.187 -0.4213  0.4763 -0.0155
   78TMC2    H5 1225   4.483   2.079   1.110 -2.0330  2.5501 -1.3784
   79MPD1     C 1226   0.491   2.185   1.893 -0.6099 -0.4708 -0.0342
   79MPD1    C1 1227   0.406   2.284   1.871  0.9135  0.6289 -0.0330
   79MPD1    C2 1228   0.316   2.265   1.768  0.1911 -0.2810 -0.3272
   79MPD1    C3 1229   0.318   2.157   1.682 -0.4268 -0.6062 -0.0577
   79MPD1    C4 1230   0.414   2.059   1.707 -0.2088  0.2834 -0.0078
   79MPD1    C5 1231   0.490   2.073   1.816 -0.1151 -0.1890  0.9223
   79MPD1     H 1232   0.245   2.347   1.763  1.2007  0.5115 -2.0242
   79MPD1    H1 1233   0.426   1.969   1.647 -1.9370  0.5905 -0.8181
   79MPD1    H2 1234   0.554   2.192   1.980  1.1824  1.1152 -1.4540
   79MPD1    H3 1235   0.569   2.002   1.838  0.8158  0.2163 -1.0964
   79MPD1     N 1236   0.239   2.135   1.568  0.1762 -0.0057 -0.1191
   79MPD1    H5 1237   0.251   2.052   1.511  3.3861  0.1374  0.3201
   79MPD1    N1 1238   0.390   2.395   1.959  0.1861  0.2678 -0.5941
   79MPD1    H6 1239   0.479   2.431   1.993  0.2836  0.5342 -1.1398
   79MPD1    H7 1240   0.350   2.479   1.919  0.0798  0.6229  0.2668
   80TMC2    C1 1241   3.090   4.672  11.914  0.4623  0.2462  0.4806
   80TMC2    C2 1242   3.175   4.678  11.809  0.2666 -0.1677 -0.0023
   80TMC2    C3 1243   3.147   4.611  11.696 -0.1927  0.4469 -0.8436
   80TMC2    C4 1244   2.971   4.608  11.913  0.5216 -0.1383  0.4536
   80TMC2    C5 1245   2.942   4.539  11.800 -0.4609  0.2851 -0.0882
   80TMC2    C6 1246   3.026   4.538  11.692 -0.5386 -0.4626 -0.0056
   80TMC2     C 1247   3.105   0.036  12.018  0.5401  0.0888 -0.8342
   80TMC2     O 1248   3.217   0.048  12.065 -0.8738  0.1491 -0.3422
   80TMC2     H 1249   3.253   0.014  11.815  3.8467 -3.9880  0.9234
   80TMC2    H1 1250   2.893   4.624  11.987  0.9770 -0.0666  0.9149
   80TMC2    H2 1251   2.997   4.500  11.594 -0.5389 -0.3809 -0.0376
   80TMC2    C7 1252   2.813   4.469  11.786 -0.3756  0.1314 -0.6307
   80TMC2    C8 1253   3.227   4.620  11.577  0.4772 -0.1286 -0.1959
   80TMC2    O1 1254   2.782   4.440  11.674 -0.0292 -0.0361  0.4446
   80TMC2    O2 1255   3.279   4.721  11.531  0.4410 -0.0176 -0.4181
   80TMC2    O5 1256   3.237   4.505  11.511 -0.2619  0.0266 -0.0529
   80TMC2    H5 1257   3.209   4.424  11.560 -2.7711  0.0855 -1.4160
   81MPD2     C 1258   3.054   0.241  12.219 -0.5432 -0.6152 -0.4631
   81MPD2    C1 1259   2.984   0.234  12.100 -0.5612  1.0123 -0.0698
   81MPD2    C2 1260   2.869   0.310  12.088 -0.1180 -0.2944  0.3858
   81MPD2    C3 1261   2.835   0.413  12.175  0.3133  0.2258  0.4123
   81MPD2    C4 1262   2.912   0.424  12.290 -0.1225 -0.1660 -0.2490
   81MPD2    C5 1263   3.020   0.336  12.309  0.5555  0.0001 -0.0558
   81MPD2     H 1264   2.797   0.287  12.011 -0.9515 -1.2549  1.4648
   81MPD2    H1 1265   2.878   0.484  12.375  0.3435  0.8758 -0.7980
   81MPD2    H2 1266   3.130   0.166  12.235 -0.1383 -0.3157 -0.9826
   81MPD2    H3 1267   3.075   0.335  12.403 -0.7709 -1.2862  0.7063
   81MPD2     N 1268   2.704   0.468  12.170  0.1642  0.5599 -0.2180
   81MPD2    H5 1269   2.677   0.512  12.258  0.6825 -0.7573  0.5899
   81MPD2    N1 1270   3.002   0.121  12.014  0.2248  0.6166 -0.0195
   81MPD2    H7 1271   2.930   0.103  11.944  0.0420  1.4568 -0.0576
   82TMC2    C1 1272   1.133   4.206  10.977 -0.6570  1.1452  0.3586
   82TMC2    C2 1273   1.261   4.242  10.953 -0.0740  0.0906 -0.7723
   82TMC2    C3 1274   1.354   4.147  10.969  0.0265  0.5563 -0.0984
   82TMC2    C4 1275   1.099   4.077  11.014 -0.0050  0.8093  0.2374
   82TMC2    C5 1276   1.200   3.987  11.044  1.1601 -0.8581  0.6062
   82TMC2    C6 1277   1.333   4.024  11.033  0.4100  0.5842 -0.1689
   82TMC2     C 1278   1.029   4.301  10.966  0.6533  0.1667 -0.0373
   82TMC2     O 1279   0.911   4.274  10.940 -0.8298  0.4576  0.7575
   82TMC2     H 1280   1.288   4.338  10.911 -1.4366  0.2543 -1.2666
   82TMC2    H1 1281   0.997   4.044  11.026  0.4162 -0.9396 -0.8629
   82TMC2    H2 1282   1.408   3.945  11.029  0.4860  0.8139 -3.2544
   82TMC2    C7 1283   1.164   3.880  11.133 -0.6720 -0.0767 -0.4604
   82TMC2    C8 1284   1.492   4.181  10.936  0.5597 -0.2517 -0.2337
   82TMC2    O1 1285   1.042   3.853  11.135  0.0229 -0.2880 -0.1657
   82TMC2    O2 1286   1.577   4.101  10.904 -0.2421 -0.5337 -0.0878
   82TMC2    O5 1287   1.510   4.298  10.992 -0.2847  0.2677  0.4722
   82TMC2    H5 1288   1.434   4.337  11.040 -1.5880 -1.5660 -0.0764
   83MPD2     C 1289   0.856   0.042  11.089 -0.6244  0.6390  0.2083
   83MPD2    C1 1290   0.795   4.674  11.028 -0.3121  0.1789 -0.5991
   83MPD2    C2 1291   0.865   4.554  11.012  0.6046 -0.3139 -0.3518
   83MPD2    C3 1292   1.000   4.545  11.047  0.2084  0.1126  0.0856
   83MPD2    C4 1293   1.054   4.652  11.111  0.2065  0.0409 -0.5155
   83MPD2    C5 1294   0.986   0.029  11.145 -0.0138  0.2586  0.3249
   83MPD2     H 1295   0.819   4.469  10.964  0.0984 -1.0525  1.4154
   83MPD2    H1 1296   1.149   4.649  11.164 -1.1712  0.2068  1.9850
   83MPD2    H2 1297   0.802   0.136  11.096  1.4728  1.8412  0.1141
   83MPD2    H3 1298   1.040   0.113  11.187 -0.6303  1.7677 -1.9034
   83MPD2     N 1299   1.077   4.423  11.021 -0.2152 -0.7920 -0.2079
   83MPD2    H5 1300   1.171   4.426  11.057  0.2725  0.5058 -1.5598
   83MPD2    N1 1301   0.660   4.697  10.983 -0.1836  0.4238 -0.5473
   83MPD2    H7 1302   0.604   0.041  10.995 -2.3114 -0.8855 -1.3706
   84TMC2    C1 1303   1.956   3.199  10.491 -0.6208  0.0228 -0.1744
   84TMC2    C2 1304   1.868   3.124  10.420 -0.5463  0.3765 -0.7637
   84TMC2    C3 1305   1.897   3.076  10.296  0.1235  0.6838 -0.6886
   84TMC2    C4 1306   2.066   3.250  10.437  0.6074  0.8285  0.4407
   84TMC2    C5 1307   2.101   3.192  10.315 -0.5325 -0.3649  0.3038
   84TMC2    C6 1308   2.021   3.104  10.245  0.1617 -0.0274 -0.0945
   84TMC2     C 1309   1.914   3.264  10.618  0.5269  0.2246 -0.1103
   84TMC2     O 1310   2.002   3.319  10.683  0.5609  0.1578  0.0503
   84TMC2     H 1311   1.768   3.108  10.459  0.1774 -2.1895  0.0364
   84TMC2    H1 1312   2.129   3.325  10.482  2.4395  0.1388 -0.9897
   84TMC2    H2 1313   2.046   3.068  10.146 -0.5087  1.3132 -0.7467
   84TMC2    C7 1314   2.212   3.245  10.246  0.1769  0.4660  0.9323
   84TMC2    C8 1315   1.840   2.949  10.252 -0.5183  0.3261  0.0628
   84TMC2    O1 1316   2.190   3.277  10.130  0.2276  0.8090 -0.1283
   84TMC2    O2 1317   1.843   2.929  10.132 -0.6003 -0.4383 -0.4961
   84TMC2    O5 1318   1.732   2.924  10.329  0.2673 -0.5454 -0.1005
   84TMC2    H5 1319   1.757   2.924  10.424 -3.5741  3.5876  0.9521
   85TMC2    C1 1320   3.114   2.216  15.715 -0.0228  0.1860 -0.0881
   85TMC2    C2 1321   3.011   2.308  15.726 -0.1691  0.5898  0.7558
   85TMC2    C3 1322   3.023   2.435  15.672 -0.3201 -0.2132  0.2089
   85TMC2    C4 1323   3.235   2.258  15.659 -0.5006 -0.4195 -0.2950
   85TMC2    C5 1324   3.244   2.391  15.617  0.7606  0.2750 -0.5708
   85TMC2    C6 1325   3.140   2.479  15.616  0.1596  0.2290  0.8330
   85TMC2     C 1326   3.112   2.097  15.804  0.0386  0.7769  0.3753
   85TMC2     O 1327   3.224   2.060  15.843  1.0255  0.0566 -0.5764
   85TMC2     H 1328   2.915   2.269  15.758 -1.5551  2.7762 -0.7235
   85TMC2    H1 1329   3.306   2.176  15.655 -0.7316 -0.5819 -1.0510
   85TMC2    H2 1330   3.134   2.566  15.552  1.9109 -1.9655 -2.2871
   85TMC2    C7 1331   3.342   2.416  15.512  0.2285  0.3983 -0.3045
   85TMC2    C8 1332   2.924   2.540  15.708 -0.2572 -0.4530 -0.0062
   85TMC2    O1 1333   3.404   2.315  15.478  0.1825  0.3438  0.0811
   85TMC2    O2 1334   2.812   2.518  15.740  0.2518  0.1695  0.1473
   85TMC2    O5 1335   2.997   2.652  15.747 -0.5383 -0.1396 -0.1640
   85TMC2    H5 1336   3.095   2.651  15.745 -0.5369  1.5409 -0.9944
   86MPD2     C 1337   2.911   1.727  16.097  0.5639  0.7447  0.0718
   86MPD2    C1 1338   2.810   1.764  16.019 -0.3646 -0.1736 -0.3240
   86MPD2    C2 1339   2.830   1.874  15.929 -0.3574 -0.0821 -0.6525
   86MPD2    C3 1340   2.958   1.940  15.922 -0.1506  0.5298  0.2934
   86MPD2    C4 1341   3.057   1.890  16.009  0.0399 -0.1494 -0.4725
   86MPD2    C5 1342   3.034   1.783  16.087  0.1448  0.8465  0.2215
   86MPD2     H 1343   2.751   1.904  15.861 -0.2267 -2.3188 -1.7650
   86MPD2    H1 1344   3.148   1.945  16.032  0.2103 -0.0418 -1.3978
   86MPD2    H2 1345   2.902   1.639  16.161 -1.9229  1.1476  0.2758
   86MPD2    H3 1346   3.115   1.764  16.156 -1.3018 -0.4441  1.5460
   86MPD2     N 1347   2.986   2.050  15.837  0.0033  0.2541 -1.0832
   86MPD2    H5 1348   2.910   2.089  15.783 -1.0108  0.6509  0.6475
   86MPD2    N1 1349   2.689   1.685  16.001 -0.1704 -0.5507  0.1574
   86MPD2    H7 1350   2.644   1.690  15.910 -0.3828  1.2917  0.3515
   87TMC2    C1 1351   0.838   4.434   0.833 -0.9293  0.1336 -0.5322
   87TMC2    C2 1352   0.844   4.373   0.953 -0.5324  0.9506  0.1966
   87TMC2    C3 1353   0.818   4.453   1.057 -0.8369 -0.0942  0.1073
   87TMC2    C4 1354   0.819   4.568   0.799 -0.2352 -0.1019  0.3424
   87TMC2    C5 1355   0.802   4.640   0.913 -0.1602 -0.2037 -0.2718
   87TMC2    C6 1356   0.798   4.589   1.037 -0.1220  0.3930 -0.0056
   87TMC2     C 1357   0.863   4.353   0.712  0.1861 -0.4355  0.0272
   87TMC2     O 1358   0.879   4.403   0.603 -0.1566 -0.7932  0.2589
   87TMC2     H 1359   0.865   4.268   0.970 -2.0689  0.7441  0.8497
   87TMC2    H1 1360   0.822   4.614   0.701  1.1054  2.1029  1.4092
   87TMC2    H2 1361   0.777   4.656   1.120  0.5618  1.8935 -1.0477
   87TMC2    C7 1362   0.882   0.024   0.903 -0.0539 -0.0597  0.2887
   87TMC2    C8 1363   0.720   4.408   1.156  0.3556 -0.4775 -0.4683
   87TMC2    O1 1364   0.860   0.083   0.798 -0.2454 -0.2114 -0.9889
   87TMC2    O2 1365   0.684   4.485   1.248 -0.0622  0.4087 -0.2442
   87TMC2    O5 1366   0.629   4.356   1.073 -0.2753 -0.0232  0.3508
   87TMC2    H5 1367   0.667   4.282   1.021 -0.7704 -1.6846  2.3692
   88MPD2     C 1368   1.130   0.203   1.089  0.1489 -0.0486  0.1286
   88MPD2    C1 1369   1.071   0.145   0.984 -0.2873 -0.1208  0.2714
   88MPD2    C2 1370   1.137   0.180   0.863  0.3433  0.0098 -0.3572
   88MPD2    C3 1371   1.239   0.263   0.847 -0.2093 -0.3856  0.3353
   88MPD2    C4 1372   1.289   0.326   0.960  0.5425  0.7263  0.0600
   88MPD2    C5 1373   1.239   0.283   1.079 -0.7838 -0.6795  0.1571
   88MPD2     H 1374   1.096   0.133   0.774 -1.6044 -1.4274  1.3074
   88MPD2    H1 1375   1.371   0.396   0.968  1.7673 -0.5853 -0.9257
   88MPD2    H2 1376   1.088   0.180   1.186  1.9353  1.4049  1.2605
   88MPD2    H3 1377   1.279   0.322   1.172  0.7630  1.4118 -1.3761
   88MPD2     N 1378   1.300   0.303   0.726 -0.0096 -0.1856 -0.3888
   88MPD2    H5 1379   1.355   0.388   0.721 -2.2728  1.3787  1.6267
   88MPD2    N1 1380   0.959   0.059   1.008  0.4933 -0.5778 -0.4335
   88MPD2    H7 1381   0.961   0.015   1.099  2.4928 -0.2436 -0.3178
   89TMC2    C1 1382   1.612   2.541   1.738  0.7639 -0.1652 -0.4297
   89TMC2    C2 1383   1.737   2.498   1.709 -0.3072 -0.7935 -0.2634
   89TMC2    C3 1384   1.810   2.557   1.608 -0.0478  0.0123  0.4507
   89TMC2    C4 1385   1.556   2.641   1.676  0.3074 -0.3663 -0.4815
   89TMC2    C5 1386   1.634   2.713   1.585  0.3766  0.0114  0.3845
   89TMC2    C6 1387   1.764   2.672   1.547  0.4762 -0.2006 -1.0919
   89TMC2     C 1388   1.529   2.461   1.823 -0.5719 -0.0234 -0.0671
   89TMC2     O 1389   1.576   2.409   1.921 -0.8162 -0.8451 -0.1734
   89TMC2     H 1390   1.793   2.431   1.774  1.5749  1.3183  0.3017
   89TMC2    H1 1391   1.469   2.683   1.725  0.0252 -0.7225 -0.6756
   89TMC2    H2 1392   1.822   2.714   1.465  1.3275 -0.3652 -0.5703
   89TMC2    C7 1393   1.562   2.818   1.515 -0.3901 -0.1690 -0.1668
   89TMC2    C8 1394   1.941   2.504   1.577  0.5638  0.4350  0.4593
   89TMC2    O1 1395   1.441   2.811   1.514  0.1508 -0.3053 -0.2294
   89TMC2    O2 1396   1.954   2.389   1.607 -0.3996  0.1352  0.2565
   89TMC2    O5 1397   2.034   2.596   1.592  0.0586  0.1055  0.1987
   89TMC2    H5 1398   1.994   2.685   1.591  2.3377  1.1151 -1.4409
   90MPD2     C 1399   1.031   2.331   1.904  0.2187 -0.0436  0.9735
   90MPD2    C1 1400   1.057   2.330   1.770 -0.3016 -0.0457 -0.1068
   90MPD2    C2 1401   1.184   2.361   1.733  0.1857 -0.4976  0.0426
   90MPD2    C3 1402   1.285   2.394   1.822 -0.1301 -0.6268 -0.4890
   90MPD2    C4 1403   1.254   2.400   1.955 -1.0524 -0.0943 -0.5454
   90MPD2    C5 1404   1.133   2.361   1.990 -0.1330  0.0997 -0.4540
   90MPD2     H 1405   1.219   2.377   1.632 -0.2302 -1.7186 -0.2965
   90MPD2    H1 1406   1.325   2.419   2.035 -1.3367  1.6712 -0.7168
   90MPD2    H2 1407   0.937   2.303   1.950 -1.0835  1.9122 -0.5249
   90MPD2    H3 1408   1.098   2.364   2.092  0.6459  0.4255 -0.2014
   90MPD2     N 1409   1.412   2.429   1.759 -0.5230 -0.8103  0.0765
   90MPD2    H5 1410   1.410   2.441   1.658 -0.9872  0.3536  0.2207
   90MPD2    N1 1411   0.961   2.295   1.671 -0.2742  0.1257 -0.1238
   90MPD2    H7 1412   0.981   2.308   1.572 -1.1063 -0.7833 -0.4064
   91TMC2    C1 1413   2.827   2.564  16.223  0.3187  0.4827  0.2552
   91TMC2    C2 1414   2.859   2.652  16.321 -0.1511 -0.5414 -0.9610
   91TMC2    C3 1415   2.751   2.695  16.397  0.4432  0.0610 -0.1996
   91TMC2    C4 1416   2.701   2.519  16.194  0.1172  0.1380  0.2611
   91TMC2    C5 1417   2.597   2.563  16.273 -0.0366 -0.1480 -0.0085
   91TMC2    C6 1418   2.623   2.655  16.372  0.9273 -0.0135 -0.1897
   91TMC2     C 1419   2.936   2.494  16.160  0.7508  0.2760  0.2918
   91TMC2     O 1420   2.924   2.381  16.116  0.3576 -0.3408  0.5163
   91TMC2     H 1421   2.958   2.676  16.359 -0.3579  0.7023 -1.1996
   91TMC2    H1 1422   2.682   2.449  16.114  0.2962  0.6450 -0.2242
   91TMC2    H2 1423   2.546   2.698  16.433  0.4241 -2.5352  0.9671
   91TMC2    C7 1424   2.459   2.513  16.258 -0.0291  0.4682  0.0937
   91TMC2    C8 1425   2.792   2.782  16.501  0.2706 -0.1163  0.3418
   91TMC2    O1 1426   2.406   2.485  16.367 -0.5220  0.0121  0.0784
   91TMC2    O2 1427   2.856   2.884  16.484  0.2531  0.6876 -0.4099
   91TMC2    O5 1428   2.705   2.755  16.603  0.2469  0.0338 -0.5091
   91TMC2    H5 1429   2.660   2.668  16.609  1.7001 -0.6501  0.3964
   92MPD2     C 1430   3.230   2.444  16.043  0.0819 -0.5925 -0.1153
   92MPD2    C1 1431   3.186   2.544  16.129 -0.5849  0.5863 -0.8079
   92MPD2    C2 1432   3.282   2.634  16.165  0.1853  0.1069  0.1823
   92MPD2    C3 1433   3.416   2.629  16.122 -0.2042 -0.4849  0.1418
   92MPD2    C4 1434   3.460   2.526  16.037  0.5341  0.4875 -0.1718
   92MPD2    C5 1435   3.363   2.431  16.009 -0.0067  0.2130 -0.3538
   92MPD2     H 1436   3.254   2.718  16.227  0.3889 -0.3782  0.9278
   92MPD2    H1 1437   3.560   2.512  15.998  1.4503  2.4068  1.5110
   92MPD2    H2 1438   3.159   2.366  16.016 -1.2747  1.5082 -2.5755
   92MPD2    H3 1439   3.399   2.341  15.961  0.1147  0.8618 -1.4801
   92MPD2     N 1440   3.501   2.728  16.172  0.0756  0.2014  0.1694
   92MPD2    H5 1441   3.481   2.790  16.249  0.7322 -0.4094  0.8370
   92MPD2    N1 1442   3.052   2.568  16.172 -0.2463  0.2743 -0.5171
   92MPD2    H7 1443   3.042   2.652  16.228  0.6510 -0.5723  0.9138
   93TMC2    C1 1444   4.653   2.898  13.715  0.3775  0.6481  0.4066
   93TMC2    C2 1445   4.641   2.901  13.853  0.0415  0.0109 -0.4091
   93TMC2    C3 1446   0.005   2.944  13.926 -0.6705 -0.3836  0.0827
   93TMC2    C4 1447   0.025   2.925  13.649  0.9582 -1.1871  0.0943
   93TMC2    C5 1448   0.129   2.961  13.728  1.0932  0.3434 -0.3161
   93TMC2    C6 1449   0.121   2.976  13.866  0.7226  0.5372  0.5626
   93TMC2     C 1450   4.541   2.840  13.638 -0.2752 -0.4182  0.3926
   93TMC2     O 1451   4.566   2.793  13.529  0.1155  0.0094 -0.2546
   93TMC2     H 1452   4.548   2.887  13.907  1.3535 -1.4164  1.5036
   93TMC2    H1 1453   0.045   2.876  13.555 -0.5947  2.4161 -2.1197
   93TMC2    H2 1454   0.210   3.018  13.912  1.1178 -0.2979  0.5772
   93TMC2    C7 1455   0.263   2.985  13.677 -0.7055  0.2805 -0.9478
   93TMC2    C8 1456   4.715   3.000  14.053 -1.0676 -0.3902 -0.2864
   93TMC2    O1 1457   0.354   2.982  13.760  0.1104 -0.0138 -0.3973
   93TMC2    O2 1458   4.604   3.050  14.068 -0.1449  0.1358  0.0377
   93TMC2    O5 1459   0.087   3.060  14.095  0.3465  0.4786  0.0871
   93TMC2    H5 1460   0.173   3.015  14.078 -0.0321  0.7001 -2.3510
   94MPD2     C 1461   4.327   2.664  13.597 -0.0885  0.1447  0.3839
   94MPD2    C1 1462   4.322   2.773  13.686 -0.2843  1.1126 -0.5454
   94MPD2    C2 1463   4.207   2.803  13.754  0.8275 -0.1222 -0.4450
   94MPD2    C3 1464   4.096   2.726  13.728 -0.0434 -0.1483  0.3922
   94MPD2    C4 1465   4.099   2.622  13.641 -0.3923  0.3791 -0.2058
   94MPD2    C5 1466   4.216   2.595  13.570  0.3937 -0.2740 -0.3034
   94MPD2     H 1467   4.202   2.887  13.824  1.1801  0.2247 -0.8384
   94MPD2    H1 1468   4.007   2.568  13.619 -0.0176 -0.4334  0.2278
   94MPD2    H2 1469   4.412   2.632  13.538  0.9328  2.3973  0.6555
   94MPD2    H3 1470   4.221   2.516  13.496  4.0217  2.1486 -2.6794
   94MPD2     N 1471   3.966   2.755  13.784  0.1313  0.8542 -0.4183
   94MPD2    H5 1472   3.881   2.704  13.761  1.5118 -0.1782 -3.3195
   94MPD2    N1 1473   4.431   2.857  13.711  0.3769 -0.0204  0.5064
   94MPD2    H7 1474   4.422   2.932  13.778 -0.5133 -0.6255  1.0701
   95TMC2    C1 1475   4.687   4.133  15.617 -0.0818 -0.0944  0.0086
   95TMC2    C2 1476   4.683   4.010  15.674  0.4197  0.0135 -0.3772
   95TMC2    C3 1477   4.619   4.013  15.791  0.1444  0.2565 -0.3159
   95TMC2    C4 1478   4.630   4.248  15.665 -0.6299  0.4272 -0.6915
   95TMC2    C5 1479   4.551   4.234  15.771  0.8683  0.1384 -0.3964
   95TMC2    C6 1480   4.556   4.115  15.847 -0.1208 -0.6022  0.0616
   95TMC2     C 1481   0.048   4.153  15.507  0.1427  0.4091 -0.0826
   95TMC2     O 1482   0.038   4.257  15.444  0.0417 -1.2710 -0.0687
   95TMC2     H 1483   4.717   3.920  15.625  0.2752  0.4003 -1.1811
   95TMC2    H1 1484   4.645   4.348  15.626  0.7787 -0.1152 -1.5460
   95TMC2    H2 1485   4.527   4.104  15.951 -1.1440 -0.0500 -0.1573
   95TMC2    C7 1486   4.504   4.352  15.840 -0.0860  0.5453 -0.9022
   95TMC2    C8 1487   4.625   3.899  15.878  0.0526 -0.1084 -0.2336
   95TMC2    O1 1488   4.560   4.452  15.795  0.1953 -0.1709 -0.1589
   95TMC2    O2 1489   4.563   3.891  15.980  0.3972 -0.1248  0.2971
   95TMC2    O5 1490   4.724   3.815  15.845 -0.1560  0.4908  0.2370
   95TMC2    H5 1491   0.063   3.855  15.802 -1.0311  0.2461 -1.5582
   96MPD2     C 1492   0.524   4.072  15.305  0.0635 -0.0758 -0.1907
   96MPD2    C1 1493   0.440   4.181  15.309 -0.3690  0.2228 -0.4716
   96MPD2    C2 1494   0.317   4.187  15.371 -0.5759 -0.1477 -0.3902
   96MPD2    C3 1495   0.265   4.063  15.419 -0.2748 -0.8810 -0.8403
   96MPD2    C4 1496   0.336   3.948  15.401 -0.2093  0.4347 -0.7441
   96MPD2    C5 1497   0.469   3.951  15.352 -0.4732 -0.9464  0.6824
   96MPD2     H 1498   0.272   4.280  15.403 -0.5634 -0.5426  0.7521
   96MPD2    H1 1499   0.301   3.856  15.445  0.0164 -0.0095 -1.5010
   96MPD2    H2 1500   0.617   4.079  15.250  0.5852 -0.0035  0.7137
   96MPD2    H3 1501   0.527   3.860  15.353 -0.3922 -0.8897  1.1177
   96MPD2     N 1502   0.148   4.054  15.494  0.3836  0.2162  0.0107
   96MPD2    H5 1503   0.149   3.964  15.540  3.4793 -0.7390 -1.8756
   96MPD2    N1 1504   0.505   4.302  15.269 -0.8415 -0.2218 -0.3310
   96MPD2    H7 1505   0.600   4.283  15.239 -1.3272  1.5288 -2.9728
   97TMC2    C1 1506   2.396   2.225  17.689 -0.4250 -0.3286 -0.2709
   97TMC2    C2 1507   2.366   2.145  17.586 -0.0598 -0.3337 -0.8514
   97TMC2    C3 1508   2.400   2.195  17.468 -0.4044  0.0519  0.4057
   97TMC2    C4 1509   2.464   2.344  17.673 -0.3763 -0.0727 -0.8272
   97TMC2    C5 1510   2.492   2.389  17.550  0.4659 -0.6248 -0.1166
   97TMC2    C6 1511   2.442   2.320  17.445  0.3468 -0.0219 -0.3507
   97TMC2     C 1512   2.354   2.175   0.065  0.4658 -0.4657  0.5559
   97TMC2     O 1513   2.345   2.058   0.078  0.2259 -0.2652 -0.7898
   97TMC2     H 1514   2.317   2.049  17.599 -1.1716  0.1821 -1.2092
   97TMC2    H1 1515   2.493   2.411  17.753 -1.8622  1.1816 -1.3384
   97TMC2    H2 1516   2.471   2.347  17.344 -0.7441 -0.7356 -0.8562
   97TMC2    C7 1517   2.559   2.514  17.526 -0.2406 -0.2269  0.5486
   97TMC2    C8 1518   2.352   2.131  17.346  0.0083  0.1432 -0.4695
   97TMC2    O1 1519   2.637   2.548  17.614 -0.3888 -0.1747  0.0408
   97TMC2    O2 1520   2.306   2.201  17.261 -0.6475  0.2017 -0.2305
   97TMC2    O5 1521   2.401   2.006  17.339 -0.1571 -0.5627  0.1205
   97TMC2    H5 1522   2.425   1.968  17.426  1.6910 -0.0177 -0.1582
   98MPD2     C 1523   2.336   2.264   0.571  0.4989 -0.2972  0.2636
   98MPD2    C1 1524   2.303   2.154   0.498  0.0204 -0.4018  0.1786
   98MPD2    C2 1525   2.306   2.151   0.357 -0.7646 -0.1905  0.1032
   98MPD2    C3 1526   2.362   2.261   0.296 -0.7181  0.4260  0.2287
   98MPD2    C4 1527   2.402   2.369   0.369  0.3571 -0.2719 -0.6319
   98MPD2    C5 1528   2.393   2.374   0.509  0.2730  0.1163  0.2594
   98MPD2     H 1529   2.270   2.066   0.301 -1.8615 -0.0482  0.5905
   98MPD2    H1 1530   2.432   2.456   0.312 -1.6097  0.9467  0.1924
   98MPD2    H2 1531   2.331   2.257   0.679 -0.6970  1.8354  0.3437
   98MPD2    H3 1532   2.420   2.460   0.569 -3.2328  0.6133  1.1150
   98MPD2     N 1533   2.372   2.275   0.157 -0.2132 -0.2743  0.4339
   98MPD2    H5 1534   2.410   2.363   0.122  1.1729  0.0480  2.7302
   98MPD2    N1 1535   2.267   2.037   0.568  0.4994 -0.0243 -0.6546
   98MPD2    H7 1536   2.287   2.035   0.668 -0.2579  2.5780 -0.4470
   99TMC2    C1 1537   0.872   4.300   1.787 -0.2874  0.0272  0.3606
   99TMC2    C2 1538   0.930   4.376   1.887  0.0056  0.5728  0.0093
   99TMC2    C3 1539   0.842   4.398   1.992 -0.9381  0.0991  0.5474
   99TMC2    C4 1540   0.744   4.247   1.792  0.2247 -0.8622 -0.0527
   99TMC2    C5 1541   0.672   4.257   1.909  0.5131  0.1572  0.4536
   99TMC2    C6 1542   0.716   4.339   2.010  0.4500 -0.1735 -0.1858
   99TMC2     C 1543   0.935   4.303   1.658 -0.4611  0.5856  0.4835
   99TMC2     O 1544   1.030   4.377   1.653  0.3940  0.1077  0.1212
   99TMC2     H 1545   1.027   4.424   1.886  0.7188 -0.8843  0.2975
   99TMC2    H1 1546   0.696   4.208   1.702 -0.6506 -0.1505  0.1010
   99TMC2    H2 1547   0.652   4.352   2.097  0.0774 -2.1868 -0.1670
   99TMC2    C7 1548   0.530   4.218   1.911  0.0756  0.0833  0.1161
   99TMC2    C8 1549   0.855   4.518   2.069  0.2097 -0.5263  0.2392
   99TMC2    O1 1550   0.452   4.245   2.001 -0.6826 -0.3740 -0.1031
   99TMC2    O2 1551   0.753   4.582   2.092 -0.2352  0.3770 -0.0738
   99TMC2    O5 1552   0.970   4.582   2.051  0.0507  0.0027 -0.6579
   99TMC2    H5 1553   1.044   4.517   2.062  0.3839  0.2914 -1.2161
  100MPD2     C 1554   1.026   4.283   1.368 -0.5299  0.3817  0.1423
  100MPD2    C1 1555   0.933   4.196   1.428  0.1624  0.5548  0.5179
  100MPD2    C2 1556   0.891   4.085   1.360 -0.7592 -0.5184  0.2967
  100MPD2    C3 1557   0.928   4.056   1.235 -0.3709 -0.8946 -0.6602
  100MPD2    C4 1558   1.012   4.151   1.174  0.4797 -0.2221  0.9063
  100MPD2    C5 1559   1.063   4.259   1.237  0.1715  0.3287  0.5782
  100MPD2     H 1560   0.834   4.005   1.405  1.1140 -1.0043  1.8157
  100MPD2    H1 1561   1.054   4.137   1.075 -1.0892 -2.2512  0.5074
  100MPD2    H2 1562   1.059   4.373   1.419  0.7341 -0.0220  0.0392
  100MPD2    H3 1563   1.138   4.324   1.194  0.9610 -0.7799  0.2867
  100MPD2     N 1564   0.895   3.934   1.176 -0.0192  0.2567  0.0768
  100MPD2    H5 1565   0.858   3.864   1.239 -1.6956  0.9607 -0.1163
  100MPD2    N1 1566   0.887   4.213   1.560  0.6716  0.2211 -0.3126
  100MPD2    H7 1567   0.823   4.140   1.589 -2.5430  2.8962 -0.6673
  101TMC2    C1 1568   1.328   0.713  12.755  0.1488 -0.7112  0.2315
  101TMC2    C2 1569   1.267   0.837  12.764 -0.0936  0.5864  0.2972
  101TMC2    C3 1570   1.290   0.936  12.668 -0.7563 -0.2234 -0.0825
  101TMC2    C4 1571   1.426   0.694  12.659 -0.3640  0.3975  0.2095
  101TMC2    C5 1572   1.434   0.792  12.561 -0.0622 -0.3140 -0.3173
  101TMC2    C6 1573   1.381   0.918  12.569  0.0117 -0.5328 -0.6968
  101TMC2     C 1574   1.297   0.609  12.861 -0.0692  0.5532 -0.0095
  101TMC2     O 1575   1.208   0.653  12.933 -0.3691  0.0290 -0.2277
  101TMC2     H 1576   1.199   0.868  12.842 -2.3108 -1.6338 -0.7295
  101TMC2    H1 1577   1.487   0.604  12.657 -3.0804 -1.4247 -1.3159
  101TMC2    H2 1578   1.391   0.992  12.491  0.0396  0.1355 -0.0589
  101TMC2    C7 1579   1.542   0.785  12.463  0.1087  0.2665 -0.1315
  101TMC2    C8 1580   1.229   1.062  12.700 -0.0342 -0.6807  0.2038
  101TMC2    O1 1581   1.640   0.712  12.478 -0.1963 -0.3345  0.5266
  101TMC2    O2 1582   1.119   1.079  12.751 -0.0855 -0.6259  0.8833
  101TMC2    O5 1583   1.323   1.160  12.693  0.2961  0.5137  0.4387
  101TMC2    H5 1584   1.409   1.123  12.666 -0.0058  0.4568 -0.4496
  102MPD2     C 1585   1.351   0.248  12.845  0.1465  0.7118  0.4160
  102MPD2    C1 1586   1.295   0.366  12.889 -0.0593 -0.0855  0.3383
  102MPD2    C2 1587   1.213   0.370  13.005 -0.7630  0.4590 -0.7373
  102MPD2    C3 1588   1.181   0.251  13.068  0.7249 -0.3841  0.5017
  102MPD2    C4 1589   1.229   0.130  13.011 -0.0136 -0.0666 -0.7374
  102MPD2    C5 1590   1.307   0.128  12.893  0.0130  0.2940 -0.1017
  102MPD2     H 1591   1.169   0.457  13.052 -0.2309  1.0330 -1.3087
  102MPD2    H1 1592   1.192   0.037  13.052 -0.5049  0.5669  0.2537
  102MPD2    H2 1593   1.408   0.245  12.753 -0.5592  0.8361 -0.0293
  102MPD2    H3 1594   1.344   0.034  12.855 -1.9156 -0.4331 -0.2158
  102MPD2     N 1595   1.104   0.259  13.182 -0.2295 -0.4317  0.1847
  102MPD2    H5 1596   1.059   0.348  13.197  0.3822  0.0543 -0.8321
  102MPD2    N1 1597   1.347   0.485  12.832 -0.6547  0.0601 -0.2304
  102MPD2    H7 1598   1.417   0.480  12.759 -1.9662  0.6270 -1.5225
  103TMC2    C1 1599   0.012   0.053  12.048 -0.2505  0.3244  0.6824
  103TMC2    C2 1600   0.135   0.041  11.997  0.5631 -0.5642  0.0366
  103TMC2    C3 1601   0.213   0.155  12.003  0.4524 -0.4071 -0.2882
  103TMC2    C4 1602   4.707   0.167  12.107  0.3236 -0.5870 -0.1744
  103TMC2    C5 1603   0.048   0.275  12.113  0.3141  0.1422  0.5747
  103TMC2    C6 1604   0.170   0.274  12.050 -0.3669  0.0831 -0.1207
  103TMC2     C 1605   4.650   4.705  12.002  0.2425 -0.0158 -0.7487
  103TMC2     O 1606   4.674   4.585  11.992 -0.7552  0.5874 -1.0596
  103TMC2     H 1607   0.170   4.695  11.941 -2.3326 -0.5198 -1.8117
  103TMC2    H1 1608   4.621   0.156  12.172  1.7262  1.3850  2.0580
  103TMC2    H2 1609   0.236   0.358  12.029  0.8159 -1.1611 -1.3861
  103TMC2    C7 1610   0.019   0.399  12.191 -0.6017 -0.0068  0.1371
  103TMC2    C8 1611   0.348   0.141  11.955  0.5490 -0.8074 -0.9075
  103TMC2    O1 1612   0.114   0.476  12.201 -0.6457  0.2919 -0.0738
  103TMC2    O2 1613   0.381   0.175  11.843 -0.7799  0.2329  0.5575
  103TMC2    O5 1614   0.424   0.155  12.063  0.0828  0.0068 -0.4142
  103TMC2    H5 1615   0.390   0.107  12.141 -2.5275  0.3195 -1.3473
  104MPD2     C 1616   4.378   4.580  11.948 -0.3100  0.2269  0.4001
  104MPD2    C1 1617   4.406   4.717  11.947  0.8056 -0.3175 -0.3789
  104MPD2    C2 1618   4.308   0.058  11.911 -0.4146 -0.6961 -0.6097
  104MPD2    C3 1619   4.179   0.017  11.897 -0.3541  0.4079 -0.7532
  104MPD2    C4 1620   4.143   4.621  11.914 -0.4394  0.4569  1.1496
  104MPD2    C5 1621   4.250   4.538  11.931  0.3080  0.1851 -0.3612
  104MPD2     H 1622   4.330   0.164  11.914 -1.1725 -0.5338 -0.6639
  104MPD2    H1 1623   4.043   4.581  11.902 -0.5595  0.8522  0.8418
  104MPD2    H2 1624   4.456   4.507  11.964  1.3027  1.8709  0.0487
  104MPD2    H3 1625   4.241   4.430  11.928 -1.2285  0.2011  3.3059
  104MPD2     N 1626   4.081   0.118  11.864 -0.5109 -0.1156  0.5957
  104MPD2    H5 1627   4.123   0.208  11.841  1.2469 -1.0403  0.1405
  104MPD2    N1 1628   4.533   0.035  11.974 -0.4089  0.0604  0.2793
  104MPD2    H7 1629   4.530   0.136  11.969 -2.3067  0.0768  2.0246
  105TMC2    C1 1630   1.023   4.260  17.618 -0.3097  0.4542 -0.2214
  105TMC2    C2 1631   0.923   4.185  17.554  0.3855 -0.5417 -0.3455
  105TMC2    C3 1632   0.852   4.092  17.627  0.4010 -0.0196  0.5309
  105TMC2    C4 1633   1.039   4.250  17.753  0.3166  0.2667  0.2399
  105TMC2    C5 1634   0.957   4.164   0.070  0.1626 -0.4250 -0.4804
  105TMC2    C6 1635   0.865   4.079   0.004 -0.3016  0.3238 -0.2463
  105TMC2     C 1636   1.126   4.330  17.547  0.3826  0.1280 -0.1820
  105TMC2     O 1637   1.233   4.342  17.608 -0.0412  0.4138  0.7423
  105TMC2     H 1638   0.913   4.185  17.446  0.1487  0.8221 -0.3163
  105TMC2    H1 1639   1.099   4.330   0.040  0.8495 -0.3844  0.7193
  105TMC2    H2 1640   0.796   4.011   0.053  2.1480 -0.1625  2.5639
  105TMC2    C7 1641   0.953   4.167   0.217 -0.2931 -0.4704 -0.2488
  105TMC2    C8 1642   0.747   4.013  17.561 -0.7844  0.5020 -0.4364
  105TMC2    O1 1643   1.009   4.264   0.265  0.6262 -0.1864  0.5607
  105TMC2    O2 1644   0.628   4.014  17.590  0.5871 -0.1922  0.5147
  105TMC2    O5 1645   0.814   3.916  17.509  0.0445 -0.1262  0.0995
  105TMC2    H5 1646   0.908   3.930  17.484 -0.1592 -0.0310 -0.6216
  106MPD2     C 1647   1.338   4.522  17.120 -0.0134  0.5475  0.3489
  106MPD2    C1 1648   1.202   4.551  17.119 -0.2395  0.0561 -0.1311
  106MPD2    C2 1649   1.127   4.506  17.225 -0.1844  0.1366 -0.3550
  106MPD2    C3 1650   1.173   4.416  17.320 -0.5915  0.6322 -0.0405
  106MPD2    C4 1651   1.304   4.381  17.319  0.3053 -0.1194 -0.1766
  106MPD2    C5 1652   1.389   4.433  17.216 -0.8382 -0.2641 -0.3367
  106MPD2     H 1653   1.023   4.535  17.230 -0.0275  0.5203  0.7687
  106MPD2    H1 1654   1.344   4.317  17.397  2.7413 -0.1158 -1.4163
  106MPD2    H2 1655   1.414   4.557  17.052 -0.3366  0.3321 -0.1323
  106MPD2    H3 1656   1.496   4.421  17.225 -1.1225 -0.9166  2.1751
  106MPD2     N 1657   1.090   4.368  17.421  0.2053 -0.1397  0.0097
  106MPD2    H5 1658   0.990   4.373  17.402 -0.0105 -1.3623  0.7768
  106MPD2    N1 1659   1.153   4.644  17.026 -0.3825 -0.0745 -0.1888
  106MPD2    H7 1660   1.066   4.687  17.058 -0.3370  0.5508 -0.8977
  107TMC2    C1 1661   1.752   4.046  11.194 -0.3534 -0.5128 -0.0631
  107TMC2    C2 1662   1.851   4.107  11.116  0.1900 -0.7325  0.6753
  107TMC2    C3 1663   1.891   4.042  11.006  0.5295  1.4464 -1.3824
  107TMC2    C4 1664   1.707   3.922  11.166 -0.5993  0.3368  0.5030
  107TMC2    C5 1665   1.748   3.856  11.056  0.4326  0.5571  0.3203
  107TMC2    C6 1666   1.840   3.917  10.973 -0.1250 -0.0108  0.1459
  107TMC2     C 1667   1.688   4.127  11.297 -0.0235  0.4686 -0.0986
  107TMC2     O 1668   1.616   4.071  11.376  0.6141  0.0651  0.2942
  107TMC2     H 1669   1.896   4.205  11.128  1.4401 -1.3302  0.9603
  107TMC2    H1 1670   1.628   3.878  11.226 -0.3683  0.4752  0.9040
  107TMC2    H2 1671   1.867   3.876  10.877 -1.1151 -0.3002 -0.0130
  107TMC2    C7 1672   1.656   3.761  11.002  0.4217 -0.6161  0.3362
  107TMC2    C8 1673   1.944   4.117  10.892 -0.1339  0.6604  0.3715
  107TMC2    O1 1674   1.546   3.756  11.057  0.1335  0.2348  0.3417
  107TMC2    O2 1675   1.866   4.187  10.834 -0.2963  0.5548 -0.2225
  107TMC2    O5 1676   2.051   4.174  10.951  0.4656  0.5843 -0.1254
  107TMC2    H5 1677   2.092   4.119  11.020  3.4913  0.8877 -1.6824
  108MPD2     C 1678   1.746   4.498  11.325  0.1456 -1.0804  0.2803
  108MPD2    C1 1679   1.698   4.376  11.357 -0.5210  0.1754  0.7874
  108MPD2    C2 1680   1.627   4.362  11.474 -0.4404 -0.3225 -0.3143
  108MPD2    C3 1681   1.598   4.471  11.561  0.4019 -0.2249 -0.1294
  108MPD2    C4 1682   1.625   4.598  11.510 -0.2713 -0.1279 -0.1435
  108MPD2    C5 1683   1.716   4.608  11.407 -0.4716  0.7541  0.2552
  108MPD2     H 1684   1.592   4.263  11.502 -2.5747  0.4015 -0.4145
  108MPD2    H1 1685   1.603   4.688  11.565  0.8114  0.8622 -1.3247
  108MPD2    H2 1686   1.809   4.506  11.238 -1.5565  2.9012 -0.5882
  108MPD2    H3 1687   1.759   4.706  11.389  3.2431 -0.7043  1.1816
  108MPD2     N 1688   1.516   4.456  11.677  0.0065 -0.4478  0.3250
  108MPD2    H5 1689   1.474   4.542  11.711 -2.1629 -0.9963 -0.9572
  108MPD2    N1 1690   1.720   4.263  11.274 -0.0155 -0.5848 -0.0439
  108MPD2    H7 1691   1.781   4.287  11.196  0.0202  0.4368  0.2917
  109TMC2    C1 1692   1.530   2.138   0.618  0.1843  0.6005  0.6044
  109TMC2    C2 1693   1.600   2.241   0.562 -0.0318  0.1211  0.3792
  109TMC2    C3 1694   1.733   2.227   0.534  0.2967  0.3254  1.7679
  109TMC2    C4 1695   1.588   2.015   0.646  0.1582  0.8432 -0.9525
  109TMC2    C5 1696   1.719   2.005   0.592 -0.3147  0.1751  0.4515
  109TMC2    C6 1697   1.796   2.107   0.543 -0.6727  0.0818 -0.4292
  109TMC2     C 1698   1.403   2.170   0.687  0.0406 -0.3680  0.1283
  109TMC2     O 1699   1.367   2.287   0.682  0.0898 -0.1485  0.1763
  109TMC2     H 1700   1.560   2.339   0.535 -0.5623 -0.7496 -1.9838
  109TMC2    H1 1701   1.536   1.928   0.684  0.8370  1.6197  1.7491
  109TMC2    H2 1702   1.897   2.093   0.509 -0.5974 -0.5341  0.0635
  109TMC2    C7 1703   1.770   1.872   0.571 -0.0459 -0.1794 -0.2835
  109TMC2    C8 1704   1.816   2.346   0.531  0.4756 -0.3759  0.0163
  109TMC2    O1 1705   1.889   1.869   0.547  0.0648 -0.1677  0.0649
  109TMC2    O2 1706   1.769   2.455   0.511  0.0254  0.2042  0.1800
  109TMC2    O5 1707   1.934   2.325   0.596  0.5338 -0.3304 -0.1453
  109TMC2    H5 1708   1.942   2.237   0.639 -0.8251  0.3520  1.5427
  110MPD2     C 1709   0.964   2.056   0.925  0.2369 -0.5096  0.1312
  110MPD2    C1 1710   1.015   1.946   0.865 -0.2140  0.0304 -0.3829
  110MPD2    C2 1711   1.128   1.953   0.787  0.3192  0.6541 -1.1640
  110MPD2    C3 1712   1.197   2.064   0.775  0.0655 -0.7833 -0.3778
  110MPD2    C4 1713   1.153   2.174   0.844  0.0745  0.1017 -0.1529
  110MPD2    C5 1714   1.032   2.172   0.911 -0.1138  0.4744 -0.3858
  110MPD2     H 1715   1.169   1.866   0.736  2.1245  2.2466 -2.4467
  110MPD2    H1 1716   1.204   2.269   0.847  0.4036  0.0326 -3.4425
  110MPD2    H2 1717   0.875   2.050   0.986 -1.3145  0.8292 -2.0090
  110MPD2    H3 1718   0.988   2.259   0.959 -1.6684  0.1863 -1.2822
  110MPD2     N 1719   1.326   2.060   0.711  0.1466  1.0378  0.3280
  110MPD2    H5 1720   1.353   1.967   0.682 -0.0206  1.3876 -0.9557
  110MPD2    N1 1721   0.934   1.829   0.875 -0.2658  0.0241 -0.0880
  110MPD2    H7 1722   0.836   1.842   0.898 -0.2812 -0.4461  0.1187
  111TMC2    C1 1723   1.997   1.752  11.615 -0.0594 -0.0031  0.1160
  111TMC2    C2 1724   2.068   1.831  11.538  0.6180 -0.2805  0.0622
  111TMC2    C3 1725   2.196   1.852  11.565  0.5123 -0.7361  0.3302
  111TMC2    C4 1726   2.059   1.683  11.716 -0.9208  0.3138 -0.8088
  111TMC2    C5 1727   2.198   1.706  11.738  0.1465  0.3412  1.4573
  111TMC2    C6 1728   2.272   1.790  11.661  0.2748  0.1070 -0.0052
  111TMC2     C 1729   1.857   1.756  11.597 -0.5845 -0.5772  0.4283
  111TMC2     O 1730   1.827   1.754  11.477  0.3972 -0.4169 -0.0559
  111TMC2     H 1731   2.014   1.883  11.459  0.5514 -0.7550 -0.2023
  111TMC2    H1 1732   1.996   1.620  11.778  1.5161 -1.8066 -0.4955
  111TMC2    H2 1733   2.372   1.826  11.684  0.0434 -0.6266  2.1273
  111TMC2    C7 1734   2.260   1.605  11.819 -0.3407  0.2428  0.7082
  111TMC2    C8 1735   2.259   1.962  11.499 -0.7557  0.9619 -0.1764
  111TMC2    O1 1736   2.190   1.534  11.887  0.6954  0.3868 -0.1631
  111TMC2    O2 1737   2.196   2.047  11.442  0.2148 -0.1813 -0.0450
  111TMC2    O5 1738   2.386   1.933  11.456 -0.5160 -0.5922  0.0815
  111TMC2    H5 1739   2.429   1.849  11.484  0.3005 -0.5175 -0.9617
  112MPD2     C 1740   1.371   1.795  11.757  0.6907  0.8658 -0.0465
  112MPD2    C1 1741   1.419   1.763  11.638 -0.0295 -0.1531 -0.2115
  112MPD2    C2 1742   1.553   1.732  11.627 -0.2076  0.4892  0.9887
  112MPD2    C3 1743   1.644   1.743  11.731  0.1996  0.4348  0.8580
  112MPD2    C4 1744   1.591   1.772  11.855 -0.2348  0.6961  0.3907
  112MPD2    C5 1745   1.454   1.792  11.865  0.4650 -0.2804  0.6470
  112MPD2     H 1746   1.583   1.696  11.529 -0.3472 -0.6050  1.3465
  112MPD2    H1 1747   1.655   1.779  11.942  1.8575 -0.1051 -1.0681
  112MPD2    H2 1748   1.268   1.824  11.777  0.2698 -0.5172 -0.2048
  112MPD2    H3 1749   1.400   1.835  11.949  0.3578  0.9184 -0.0497
  112MPD2     N 1750   1.786   1.748  11.716  0.1379  0.1124 -0.3090
  112MPD2    H5 1751   1.841   1.758  11.801  0.6939  1.4300 -0.8353
  112MPD2    N1 1752   1.345   1.754  11.522  0.0817 -0.0122 -0.0293
  112MPD2    H7 1753   1.393   1.738  11.435 -2.9765  0.8540 -1.8655
  113TMC2    C1 1754   0.136   3.818   0.689 -0.1900 -0.0719  0.2389
  113TMC2    C2 1755   0.046   3.905   0.625  0.3562  0.2837 -0.1565
  113TMC2    C3 1756   4.670   3.857   0.573  0.2742 -0.2171  0.2128
  113TMC2    C4 1757   0.113   3.688   0.712 -0.0582  0.4793 -0.1994
  113TMC2    C5 1758   4.725   3.651   0.673 -0.0755  0.4443 -0.0981
  113TMC2    C6 1759   4.632   3.731   0.609 -0.9144  0.0861  0.0169
  113TMC2     C 1760   0.220   3.890   0.783  0.1636 -0.2898  0.2763
  113TMC2     O 1761   0.200   4.012   0.780  0.0497  0.2339 -0.6879
  113TMC2     H 1762   0.076   4.002   0.586  0.6397  0.3717  0.2848
  113TMC2    H1 1763   0.189   3.629   0.762 -1.3227  0.5981  1.8713
  113TMC2    H2 1764   4.544   3.685   0.568  0.1008 -0.6770 -1.3001
  113TMC2    C7 1765   4.691   3.519   0.727  0.0836  0.5697  0.5543
  113TMC2    C8 1766   4.580   3.931   0.489  0.1437 -0.4662  0.5515
  113TMC2    O1 1767   0.046   3.443   0.750 -0.2601 -0.3947 -0.0467
  113TMC2    O2 1768   4.609   4.036   0.433 -0.2727  0.3868 -0.3595
  113TMC2    O5 1769   4.461   3.915   0.551  0.5581  0.1711 -0.3233
  113TMC2    H5 1770   4.446   3.828   0.594 -1.0926  0.4302 -0.3971
  114MPD2     C 1771   0.547   3.911   1.191  0.2322 -0.8000 -0.4758
  114MPD2    C1 1772   0.449   3.998   1.153 -0.1725  0.9078 -0.0488
  114MPD2    C2 1773   0.374   3.974   1.038 -0.1800 -0.1012  0.6384
  114MPD2    C3 1774   0.395   3.859   0.969  0.3840  0.0328 -0.2081
  114MPD2    C4 1775   0.491   3.770   1.005 -0.0786  0.0932  0.4199
  114MPD2    C5 1776   0.558   3.791   1.120 -0.4375 -0.1179 -0.0387
  114MPD2     H 1777   0.298   4.044   1.005 -0.1697 -0.2537  0.2903
  114MPD2    H1 1778   0.501   3.670   0.966  1.1293 -0.1509  1.3644
  114MPD2    H2 1779   0.613   3.922   1.277  0.8550  1.1433 -1.2086
  114MPD2    H3 1780   0.636   3.723   1.153 -1.0702  0.1529  1.9953
  114MPD2     N 1781   0.313   3.816   0.856  0.2879  0.2844 -0.1053
  114MPD2    H5 1782   0.335   3.721   0.829 -1.4228 -0.3048  0.6165
  114MPD2    N1 1783   0.427   4.125   1.219 -0.0663  0.8836  0.3612
  114MPD2    H7 1784   0.369   4.190   1.168  0.1466  0.0337 -0.9579
  115TMC2    C1 1785   1.124   2.030   0.078 -0.9585 -0.5018 -0.1100
  115TMC2    C2 1786   1.244   1.968   0.044  0.5093 -0.3784  0.0689
  115TMC2    C3 1787   1.332   2.057  17.746  0.2770 -0.0575 -0.0206
  115TMC2    C4 1788   1.100   2.170   0.075  0.3567 -0.0506  0.6787
  115TMC2    C5 1789   1.201   2.243   0.025  0.1721  0.4028  0.2827
  115TMC2    C6 1790   1.315   2.189  17.732 -0.5033  0.7793 -0.7573
  115TMC2     C 1791   1.012   1.943   0.115 -0.0085  0.7825 -0.0257
  115TMC2     O 1792   1.029   1.824   0.089 -0.2138  0.5076 -0.5142
  115TMC2     H 1793   1.256   1.860   0.046  0.6874 -0.3514  0.6067
  115TMC2    H1 1794   1.005   2.219   0.093 -0.7050 -2.4143  1.5808
  115TMC2    H2 1795   1.403   2.247  17.705  0.3235 -0.6229 -1.0518
  115TMC2    C7 1796   1.189   2.389   0.029  0.1736  0.5900 -0.4405
  115TMC2    C8 1797   1.449   2.008  17.684  0.0131 -0.8546  0.1679
  115TMC2    O1 1798   1.128   2.439   0.124 -0.5152  0.1716  0.1250
  115TMC2    O2 1799   1.507   2.063  17.590 -0.4289  0.2829 -0.9182
  115TMC2    O5 1800   1.468   1.882  17.720 -0.8406  0.3636 -0.7499
  115TMC2    H5 1801   1.437   1.884   0.058 -0.1877 -1.1388 -0.5077
  116MPD2     C 1802   0.520   1.821   0.196 -0.2563  1.3802 -0.5870
  116MPD2    C1 1803   0.619   1.752   0.135  0.0769  0.2417  0.3087
  116MPD2    C2 1804   0.741   1.814   0.121  0.1308 -0.1462 -0.2307
  116MPD2    C3 1805   0.768   1.942   0.172  0.2380 -0.1809  0.1451
  116MPD2    C4 1806   0.670   2.011   0.234 -0.9815  0.5708  0.3696
  116MPD2    C5 1807   0.547   1.945   0.246 -0.6068 -0.8375 -0.0683
  116MPD2     H 1808   0.820   1.758   0.072 -0.6252 -0.4179 -1.1448
  116MPD2    H1 1809   0.686   2.110   0.276 -0.4405  0.4308  0.4894
  116MPD2    H2 1810   0.422   1.785   0.225 -0.0193 -0.0677 -1.6055
  116MPD2    H3 1811   0.475   2.005   0.301 -0.7589 -0.7254 -0.3869
  116MPD2     N 1812   0.896   2.006   0.156  0.8572  0.6320 -0.0339
  116MPD2    H5 1813   0.901   2.104   0.183 -1.8134  0.1539  2.1295
  116MPD2    N1 1814   0.591   1.630   0.077 -0.5230 -0.2771 -0.0057
  116MPD2    H7 1815   0.498   1.589   0.077 -0.4041 -0.5874  2.1914
  117TMC2    C1 1816   3.997   3.170  14.119  0.0725 -0.3456 -0.3678
  117TMC2    C2 1817   4.113   3.105  14.105  0.4890  0.3161  0.9356
  117TMC2    C3 1818   4.222   3.155  14.042  0.0744  0.2837 -0.4364
  117TMC2    C4 1819   3.976   3.296  14.069 -0.7536  1.2758 -0.5271
  117TMC2    C5 1820   4.088   3.345  14.012  0.3046  0.5831 -0.6093
  117TMC2    C6 1821   4.208   3.279  13.985 -0.2340 -0.1768  0.1457
  117TMC2     C 1822   3.884   3.093  14.151  0.3240 -0.0772 -0.3561
  117TMC2     O 1823   3.907   3.010  14.233 -0.2655  0.0765  0.7792
  117TMC2     H 1824   4.116   3.007  14.151  1.1627  0.6896  1.6873
  117TMC2    H1 1825   3.885   3.346  14.099 -1.6949 -1.1962  0.6963
  117TMC2    H2 1826   4.283   3.320  13.918 -1.4301  0.2536 -0.9324
  117TMC2    C7 1827   4.086   3.486  13.986  0.3961 -0.6924  0.1679
  117TMC2    C8 1828   4.301   3.054  13.979  0.0628 -0.1936  0.2241
  117TMC2    O1 1829   4.199   3.539  13.966  0.2043  0.1515 -0.0453
  117TMC2    O2 1830   4.306   2.940  14.018 -0.1659  0.3045 -0.0690
  117TMC2    O5 1831   4.333   3.088  13.851  0.6153  0.1458  0.1032
  117TMC2    H5 1832   4.281   3.160  13.809  0.8208 -1.0046 -2.1269
  118MPD2     C 1833   3.816   3.721  13.965  0.3055 -0.1519 -0.2828
  118MPD2    C1 1834   3.942   3.672  13.954 -0.3847 -0.6751  0.4503
  118MPD2    C2 1835   4.046   3.768  13.931  0.3196 -0.6217  0.0739
  118MPD2    C3 1836   4.026   3.903  13.908  0.3100  0.1790  0.2803
  118MPD2    C4 1837   3.896   3.948  13.922  0.0122  0.5972  0.1542
  118MPD2    C5 1838   3.794   3.860  13.957  0.8197 -0.4213 -0.0227
  118MPD2     H 1839   4.142   3.728  13.901 -0.1291 -1.5901 -0.0634
  118MPD2    H1 1840   3.873   4.053  13.908 -0.6567  0.6961  2.0257
  118MPD2    H2 1841   3.734   3.651  13.977  0.9061 -0.2548  3.1202
  118MPD2    H3 1842   3.697   3.905  13.977  0.8370 -0.5301  0.2935
  118MPD2     N 1843   4.133   3.992  13.863 -0.5578  0.1870  0.3834
  118MPD2    H5 1844   4.105   4.086  13.836  0.3538  0.3191 -0.1020
  118MPD2    N1 1845   3.961   3.535  13.964 -0.0297 -0.2515  0.5997
  118MPD2    H7 1846   3.877   3.478  13.972 -0.2600 -0.2254 -1.5621
  119TMC2    C1 1847   2.063   4.114  13.130  0.8056  0.0758 -0.0623
  119TMC2    C2 1848   2.075   4.108  12.994 -0.1155  0.0241  0.0020
  119TMC2    C3 1849   1.961   4.136  12.930 -0.1226  0.1698  0.2040
  119TMC2    C4 1850   1.941   4.120  13.193 -0.2854  0.3387 -0.0979
  119TMC2    C5 1851   1.827   4.147  13.124 -0.9698  0.2913  0.1968
  119TMC2    C6 1852   1.842   4.168  12.996  0.1700 -0.6586 -0.1275
  119TMC2     C 1853   2.178   4.172  13.199 -0.0955 -0.9843 -0.3147
  119TMC2     O 1854   2.170   4.184  13.320  0.1044 -0.4226  0.1766
  119TMC2     H 1855   2.166   4.083  12.941 -0.7320 -1.9815 -0.1109
  119TMC2    H1 1856   1.933   4.137  13.300  0.9326  0.0313  0.0498
  119TMC2    H2 1857   1.756   4.204  12.941  1.4432  0.6215 -1.2709
  119TMC2    C7 1858   1.749   4.251  13.191 -0.0794  1.0259  0.2760
  119TMC2    C8 1859   1.956   4.092  12.792 -0.4638  0.4041 -0.7380
  119TMC2    O1 1860   1.779   4.364  13.163 -0.5457  0.5419 -0.3707
  119TMC2    O2 1861   2.048   4.026  12.743  0.0667  0.2566 -0.5131
  119TMC2    O5 1862   1.850   4.135  12.725 -0.1841  0.0690 -0.1225
  119TMC2    H5 1863   1.809   4.206  12.779  0.3618 -1.0469  1.7248
  120MPD2     C 1864   2.598   4.446  13.283  0.1305 -0.5412 -0.2358
  120MPD2    C1 1865   2.467   4.470  13.326  0.2936 -0.1277 -0.0581
  120MPD2    C2 1866   2.365   4.391  13.277 -0.5387 -0.1029 -0.0240
  120MPD2    C3 1867   2.383   4.294  13.180  0.2710 -0.1699  0.0822
  120MPD2    C4 1868   2.512   4.284  13.124  0.1166 -0.4829  0.5308
  120MPD2    C5 1869   2.616   4.360  13.178  0.6296  0.8894  0.2442
  120MPD2     H 1870   2.265   4.427  13.293 -0.7896  0.2856 -2.4264
  120MPD2    H1 1871   2.535   4.206  13.053  1.5098  0.0243  0.4245
  120MPD2    H2 1872   2.686   4.499  13.319  1.0982 -2.6652  0.4782
  120MPD2    H3 1873   2.716   4.348  13.137  0.9734  0.0163  1.3293
  120MPD2     N 1874   2.288   4.206  13.126 -0.2230  0.2761  1.0372
  120MPD2    H5 1875   2.311   4.154  13.041  2.5070 -0.5035  2.2376
  120MPD2    N1 1876   2.449   4.580  13.416  0.5572 -0.5244  0.7936
  120MPD2    H7 1877   2.528   4.640  13.437 -0.2203  0.0947  1.9742
  121TMC2    C1 1878   3.688   1.549  14.405  0.1068  0.3692  0.0387
  121TMC2    C2 1879   3.711   1.479  14.523 -0.5054  0.3370 -0.0699
  121TMC2    C3 1880   3.639   1.363  14.546  0.8313 -0.6876  0.1649
  121TMC2    C4 1881   3.617   1.490  14.307  0.0255 -0.3613 -0.2995
  121TMC2    C5 1882   3.576   1.360  14.325 -0.4958  0.5483 -0.6690
  121TMC2    C6 1883   3.574   1.292  14.443  0.8161  0.3994 -0.8390
  121TMC2     C 1884   3.772   1.664  14.387  0.4286  0.4403  0.1932
  121TMC2     O 1885   3.849   1.697  14.479  0.1248  0.3362  0.3219
  121TMC2     H 1886   3.774   1.517  14.602 -1.0534 -1.3076  1.1573
  121TMC2    H1 1887   3.595   1.543  14.215 -1.4030 -0.8357 -0.2158
  121TMC2    H2 1888   3.515   1.202  14.459  1.6298 -0.2058 -1.2722
  121TMC2    C7 1889   3.483   1.312  14.224 -0.1899  0.6640  0.1406
  121TMC2    C8 1890   3.672   1.306  14.679 -0.4030  0.4449  0.4143
  121TMC2    O1 1891   3.385   1.253  14.263  0.1354 -0.0400  0.0978
  121TMC2    O2 1892   3.748   1.360  14.758 -0.5661  0.1381  0.0575
  121TMC2    O5 1893   3.552   1.264  14.730  0.6409 -0.2901 -0.2269
  121TMC2    H5 1894   3.503   1.217  14.659  1.2443 -0.3774 -0.5943
  122MPD2     C 1895   3.836   1.939  14.323  0.0517  0.5794 -0.2600
  122MPD2    C1 1896   3.800   1.851  14.231  0.1350 -0.1961 -1.0863
  122MPD2    C2 1897   3.797   1.888  14.092  0.1326 -0.4013  0.2837
  122MPD2    C3 1898   3.864   2.006  14.049 -0.2157 -0.0207  0.1488
  122MPD2    C4 1899   3.928   2.075  14.148  0.2595  0.3240  0.5856
  122MPD2    C5 1900   3.896   2.054  14.279  0.0921  0.1211  0.0685
  122MPD2     H 1901   3.760   1.816  14.021 -1.7731  0.0605  0.8063
  122MPD2    H1 1902   3.989   2.159  14.116  1.3415  0.2195  2.4056
  122MPD2    H2 1903   3.825   1.923  14.430  0.6453  0.4609 -0.2201
  122MPD2    H3 1904   3.941   2.115  14.357 -2.3700  2.5573 -0.4300
  122MPD2     N 1905   3.888   2.048  13.917  0.2211 -0.7094 -0.2910
  122MPD2    H5 1906   3.930   2.140  13.909 -2.4370  0.6205  0.8807
  122MPD2    N1 1907   3.753   1.723  14.267 -0.0817 -0.2868 -0.4792
  122MPD2    H7 1908   3.713   1.677  14.186 -1.9950 -1.5094  1.1695
  123TMC2    C1 1909   1.461   4.723  10.431  0.2080  0.3381  0.0097
  123TMC2    C2 1910   1.417   0.106  10.390  0.1426  0.7565  0.3581
  123TMC2    C3 1911   1.496   0.213  10.414 -0.0594 -0.4954  0.2585
  123TMC2    C4 1912   1.584   4.710  10.487 -0.8340 -0.1237 -0.6820
  123TMC2    C5 1913   1.665   0.084  10.499 -1.2217  0.3361 -0.6043
  123TMC2    C6 1914   1.627   0.205  10.461 -0.5633  0.4603 -0.0263
  123TMC2     C 1915   1.395   4.602  10.386 -0.7694 -0.1242  0.1502
  123TMC2     O 1916   1.434   4.506  10.454  0.2816 -0.4502  0.7851
  123TMC2     H 1917   1.329   0.113  10.326 -0.2949  2.5853  1.1674
  123TMC2    H1 1918   1.623   4.612  10.510 -1.0774  0.0009  0.2577
  123TMC2    H2 1919   1.676   0.295  10.496  0.7529 -0.5805  0.7503
  123TMC2    C7 1920   1.807   0.066  10.526  0.1659 -0.1131 -0.6344
  123TMC2    C8 1921   1.485   0.326  10.326  0.8229 -0.6433 -1.0069
  123TMC2    O1 1922   1.834   4.695  10.569 -0.5317  0.6666  0.8710
  123TMC2    O2 1923   1.580   0.372  10.259  0.3413 -0.0747  0.6611
  123TMC2    O5 1924   1.355   0.362  10.327 -0.5316  0.4667 -0.1137
  123TMC2    H5 1925   1.288   0.313  10.380 -1.7969  1.1191 -1.1098
  124MPD2     C 1926   1.125   4.322  10.060  0.6316 -0.0986  0.5475
  124MPD2    C1 1927   1.152   4.443  10.001 -0.1957  0.0034 -0.1346
  124MPD2    C2 1928   1.219   4.546  10.071 -0.6201  0.3209 -1.1593
  124MPD2    C3 1929   1.266   4.519  10.192 -0.1531 -0.3287  0.0693
  124MPD2    C4 1930   1.231   4.404  10.254  0.5961  0.2657 -0.2683
  124MPD2    C5 1931   1.166   4.307  10.187  0.4928 -0.1010 -0.3328
  124MPD2     H 1932   1.241   4.641  10.023 -0.0160  0.0544 -1.4055
  124MPD2    H1 1933   1.257   4.380  10.357  2.2588 -0.4173 -0.8410
  124MPD2    H2 1934   1.058   4.246  10.020 -3.4593  1.8426  3.6799
  124MPD2    H3 1935   1.137   4.219  10.242  1.8877 -1.6401 -2.0566
  124MPD2     N 1936   1.334   4.618  10.263 -0.1305 -0.3640  0.5397
  124MPD2    H5 1937   1.349   4.707  10.216 -0.6463 -1.4694 -1.7073
  124MPD2    N1 1938   1.102   4.462   9.868 -0.0793 -0.5754  0.6894
  124MPD2    H7 1939   1.050   4.386   9.823  0.2220 -0.0885 -0.4847
  125TMC2    C1 1940   2.901   3.001   8.605  0.3670 -0.1823 -0.1665
  125TMC2    C2 1941   2.938   2.924   8.496 -0.3387  0.0415 -0.2151
  125TMC2    C3 1942   2.986   2.801   8.528  0.2713 -0.1607  0.6867
  125TMC2    C4 1943   2.918   2.961   8.736  0.4283  0.1724  0.3143
  125TMC2    C5 1944   2.963   2.833   8.754 -0.1340  0.0573  0.0150
  125TMC2    C6 1945   3.003   2.755   8.656 -0.1183 -0.5701  0.4153
  125TMC2     C 1946   2.842   3.129   8.576 -0.2359  0.5492 -0.3321
  125TMC2     O 1947   2.842   3.163   8.459 -0.1298  0.6996 -0.4222
  125TMC2     H 1948   2.920   2.957   8.394  1.8586 -0.5571 -0.8090
  125TMC2    H1 1949   2.909   3.024   8.823  0.4669  0.0985  0.3721
  125TMC2    H2 1950   3.037   2.654   8.670  0.4254 -0.7377 -2.1694
  125TMC2    C7 1951   2.960   2.779   8.889 -0.1649  0.2740  0.3198
  125TMC2    C8 1952   2.994   2.701   8.416  0.1865 -0.1842  0.5267
  125TMC2    O1 1953   2.909   2.850   8.973 -0.4995  0.1967 -1.0728
  125TMC2    O2 1954   2.978   2.741   8.304 -0.1593  0.2451  0.0598
  125TMC2    O5 1955   2.931   2.588   8.462 -0.6494 -0.0953 -0.0243
  125TMC2    H5 1956   2.920   2.576   8.558  2.3974 -1.9365  0.0857
  126MPD1     C 1957   2.784   3.614   8.763  0.0807  0.1436 -0.1444
  126MPD1    C1 1958   2.736   3.529   8.854 -0.3597  0.3223 -0.0637
  126MPD1    C2 1959   2.747   3.396   8.834  0.1378  0.4261  0.4722
  126MPD1    C3 1960   2.782   3.344   8.709 -0.1646  0.1848 -0.3653
  126MPD1    C4 1961   2.815   3.433   8.609  0.0300 -0.1334 -0.3360
  126MPD1    C5 1962   2.824   3.566   8.642  0.6098  0.5313  0.2635
  126MPD1     H 1963   2.737   3.329   8.919  0.8240 -0.0635  0.1734
  126MPD1    H1 1964   2.835   3.415   8.505  2.0905 -0.5805  0.1369
  126MPD1    H2 1965   2.782   3.721   8.779  2.0538  0.4989 -2.2414
  126MPD1    H3 1966   2.870   3.629   8.567 -0.8703  0.2780 -0.8612
  126MPD1     N 1967   2.795   3.201   8.690  0.3141 -0.3415 -0.5257
  126MPD1    H5 1968   2.782   3.144   8.773 -1.6176 -0.3235 -0.8231
  126MPD1    N1 1969   2.714   3.571   8.990 -0.3259  1.3122 -0.2165
  126MPD1    H6 1970   2.660   3.504   9.045  3.5180 -1.8724 -0.3034
  126MPD1    H7 1971   2.667   3.661   9.002 -0.3363  1.4748 -1.4677
  127TMC2    C1 1972   3.805   0.325   9.665 -0.0624  0.2217 -0.1511
  127TMC2    C2 1973   3.887   0.233   9.723  1.1024 -0.5876 -0.0763
  127TMC2    C3 1974   3.865   0.099   9.714 -0.2191  0.1540 -0.1755
  127TMC2    C4 1975   3.681   0.275   9.619 -0.4510  0.2855 -0.9088
  127TMC2    C5 1976   3.651   0.138   9.621 -0.2103 -0.7066 -0.0734
  127TMC2    C6 1977   3.744   0.048   9.671  0.2337  0.0090 -0.2271
  127TMC2     C 1978   3.860   0.452   9.617 -0.6324  0.2557  0.1132
  127TMC2     O 1979   3.949   0.494   9.684 -0.5285  0.0965  0.1372
  127TMC2     H 1980   3.983   0.271   9.757  0.3470  0.1804  1.2106
  127TMC2    H1 1981   3.606   0.346   9.587 -1.3172  1.0333  2.7104
  127TMC2    H2 1982   3.725   4.681   9.659 -0.4296 -0.0042  0.9750
  127TMC2    C7 1983   3.529   0.093   9.559  0.2044  0.4776  1.2317
  127TMC2    C8 1984   3.977   0.018   9.690 -0.6655 -0.6288 -0.2323
  127TMC2    O1 1985   3.485   0.164   9.472 -0.6251  0.0084 -0.3807
  127TMC2    O2 1986   4.085   0.068   9.662 -0.6580 -0.5359 -0.4203
  127TMC2    O5 1987   3.958   4.636   9.753 -0.0714  0.3406 -0.0281
  127TMC2    H5 1988   3.866   4.628   9.787  0.6089 -2.3375  1.2434
  128MPD2     C 1989   3.714   0.660   9.340  0.6512  0.1289  0.1925
  128MPD2    C1 1990   3.794   0.628   9.455  0.2846 -0.5405 -0.4891
  128MPD2    C2 1991   3.881   0.727   9.502 -0.7531 -0.3085  0.6056
  128MPD2    C3 1992   3.889   0.852   9.447  0.1835  0.1014  0.2163
  128MPD2    C4 1993   3.822   0.878   9.333  0.1757 -0.1255 -1.0319
  128MPD2    C5 1994   3.737   0.782   9.276 -0.4895  0.4715  0.9874
  128MPD2     H 1995   3.932   0.707   9.595  1.0841 -0.5098 -0.4391
  128MPD2    H1 1996   3.827   0.974   9.283  0.3406  1.9990  3.0706
  128MPD2    H2 1997   3.644   0.586   9.303  1.3792  0.4820 -1.8936
  128MPD2    H3 1998   3.682   0.811   9.188  2.7347 -0.2164 -1.2615
  128MPD2     N 1999   3.950   0.962   9.519  0.1508  0.2947  0.0123
  128MPD2    H5 2000   4.006   0.940   9.601 -1.7205 -0.7505  1.0212
  128MPD2    N1 2001   3.782   0.505   9.515 -0.0564 -0.3186 -0.1336
  128MPD2    H7 2002   3.711   0.447   9.471  0.2688  0.2247 -1.3653
  129TMC2    C1 2003   2.310   1.257   1.212 -0.7402  0.2420  0.6061
  129TMC2    C2 2004   2.409   1.339   1.263  0.1907  0.1403 -0.5041
  129TMC2    C3 2005   2.514   1.277   1.333 -0.1792 -0.3283 -0.0558
  129TMC2    C4 2006   2.320   1.120   1.224  0.8049  0.5372  0.2261
  129TMC2    C5 2007   2.424   1.060   1.289  0.6808  0.2782  0.6738
  129TMC2    C6 2008   2.524   1.138   1.341 -0.8870 -0.7571 -0.1100
  129TMC2     C 2009   2.176   1.304   1.215 -0.5717  0.5042 -0.5489
  129TMC2     O 2010   2.089   1.225   1.179 -0.2135  0.3824 -0.3312
  129TMC2     H 2011   2.404   1.446   1.249 -0.5799 -0.1812 -2.6258
  129TMC2    H1 2012   2.240   1.055   1.188 -0.7839  1.1801  2.5700
  129TMC2    H2 2013   2.606   1.092   1.394 -1.2968  0.4869  1.6141
  129TMC2    C7 2014   2.398   0.934   1.353  0.2851  0.2119  0.3579
  129TMC2    C8 2015   2.602   1.368   1.399  0.2360 -0.1369 -0.3776
  129TMC2    O1 2016   2.279   0.900   1.360 -0.5938 -0.4743 -0.2178
  129TMC2    O2 2017   2.596   1.483   1.370 -0.6014  0.8674 -0.0473
  129TMC2    O5 2018   2.663   1.309   1.504 -0.2815  0.6952  0.2151
  129TMC2    H5 2019   2.625   1.223   1.534 -3.0067  2.8696  2.9383
  130MPD2     C 2020   1.927   1.480   1.237 -0.1421 -0.3312  0.0594
  130MPD2    C1 2021   2.058   1.525   1.237 -0.6146 -0.3510  0.6520
  130MPD2    C2 2022   2.081   1.657   1.255  0.1154 -0.0863 -0.2050
  130MPD2    C3 2023   1.973   1.748   1.261  0.0239  0.2258 -0.8581
  130MPD2    C4 2024   1.848   1.695   1.231 -0.3895  1.1316 -0.8548
  130MPD2    C5 2025   1.819   1.562   1.239  0.3072  0.2624  0.2574
  130MPD2     H 2026   2.178   1.703   1.266 -0.5483  1.4691 -0.8642
  130MPD2    H1 2027   1.768   1.763   1.206 -1.3113  0.4388  0.2484
  130MPD2    H2 2028   1.897   1.375   1.242 -0.0110 -0.4259 -1.1027
  130MPD2    H3 2029   1.715   1.531   1.230  1.0081 -1.7215 -1.0901
  130MPD2     N 2030   1.999   1.886   1.274  0.4926  0.3830  0.3742
  130MPD2    H5 2031   2.094   1.920   1.286  0.9466 -0.3745 -1.1191
  130MPD2    N1 2032   2.165   1.442   1.238 -0.4140 -0.3700 -0.0104
  130MPD2    H7 2033   2.259   1.474   1.257 -0.7361 -0.4171  1.6872
  131TMC2    C1 2034   1.562   0.545   9.874 -0.6034  0.2073  0.8319
  131TMC2    C2 2035   1.634   0.476   9.968  1.1160 -0.2002 -0.3126
  131TMC2    C3 2036   1.727   0.548  10.038  0.0516  0.4067 -0.4492
  131TMC2    C4 2037   1.591   0.673   9.842  0.2417  0.0424  0.0335
  131TMC2    C5 2038   1.685   0.744   9.918 -0.1494 -0.9901 -0.0013
  131TMC2    C6 2039   1.763   0.679  10.013  0.2199  0.3729 -0.0281
  131TMC2     C 2040   1.475   0.463   9.782 -0.3008  0.1070 -0.7835
  131TMC2     O 2041   1.471   0.340   9.793 -0.4303 -0.3132 -0.2396
  131TMC2     H 2042   1.609   0.371   9.980  2.9277 -0.6463 -0.5373
  131TMC2    H1 2043   1.543   0.721   9.757 -0.6991 -0.1493  0.4567
  131TMC2    H2 2044   1.835   0.726  10.078  0.5625  1.5228 -1.2448
  131TMC2    C7 2045   1.676   0.889   9.903  0.2056 -0.6672  0.0758
  131TMC2    C8 2046   1.844   0.479  10.075 -0.2115  0.7123 -0.4925
  131TMC2    O1 2047   1.591   0.933   9.826  0.0331  0.1555  0.5251
  131TMC2    O2 2048   1.959   0.512  10.045 -0.5915  0.1947  0.6231
  131TMC2    O5 2049   1.802   0.357  10.129  0.5253 -0.7218  0.4120
  131TMC2    H5 2050   1.712   0.364  10.167  1.5159  2.6274  2.0805
  132MPD2     C 2051   1.203   0.596   9.564 -0.4627 -0.3844  0.2563
  132MPD2    C1 2052   1.283   0.503   9.624 -0.4056 -0.8956  0.5726
  132MPD2    C2 2053   1.256   0.372   9.600 -0.5447 -0.5402 -0.7030
  132MPD2    C3 2054   1.147   0.336   9.529  0.1445 -0.4141  0.3392
  132MPD2    C4 2055   1.062   0.431   9.473 -0.0709  0.1775 -0.4782
  132MPD2    C5 2056   1.093   0.564   9.489  0.5620 -0.5733  0.2449
  132MPD2     H 2057   1.311   0.287   9.637  1.6087  0.6066 -1.2485
  132MPD2    H1 2058   0.970   0.408   9.421 -1.4476  4.5269  0.0097
  132MPD2    H2 2059   1.221   0.702   9.576  1.9116 -0.7307 -0.2154
  132MPD2    H3 2060   1.020   0.638   9.458  0.8393 -0.9417 -1.3166
  132MPD2     N 2061   1.122   0.195   9.518 -0.0680  0.4982  0.0538
  132MPD2    H5 2062   1.174   0.134   9.580 -1.5771 -1.1565 -0.3239
  132MPD2    N1 2063   1.391   0.543   9.705 -0.7374 -0.0171  0.5336
  132MPD2    H7 2064   1.405   0.641   9.730 -0.0715 -0.6181  2.5372
  133TMC2    C1 2065   4.110   0.367   9.382  0.6242  0.0701 -0.5971
  133TMC2    C2 2066   4.070   0.453   9.292 -0.3539 -1.0807  0.1741
  133TMC2    C3 2067   3.956   0.419   9.224 -0.0772 -0.2642  0.2595
  133TMC2    C4 2068   4.047   0.248   9.388  0.0142  0.1241 -0.3419
  133TMC2    C5 2069   3.934   0.218   9.317  0.6594  0.7761  0.5247
  133TMC2    C6 2070   3.875   0.306   9.233 -0.7603 -0.6315  0.3302
  133TMC2     C 2071   4.230   0.403   9.455 -0.0654  0.3066  0.5750
  133TMC2     O 2072   4.298   0.499   9.430  0.2765 -0.2541 -0.1079
  133TMC2     H 2073   4.124   0.544   9.269  1.2918 -1.7323  1.4514
  133TMC2    H1 2074   4.095   0.159   9.425  1.3424  0.2087 -1.8751
  133TMC2    H2 2075   3.793   0.291   9.164 -0.4316 -1.2069  0.0643
  133TMC2    C7 2076   3.879   0.088   9.330  0.2144 -0.2068 -0.0581
  133TMC2    C8 2077   3.904   0.511   9.120 -0.3145 -0.3105  0.2085
  133TMC2    O1 2078   3.947   0.003   9.383  0.2261 -0.9206  0.0829
  133TMC2    O2 2079   3.792   0.508   9.078  1.0842  0.4913 -0.1269
  133TMC2    O5 2080   4.008   0.543   9.037 -0.0438  0.0366 -0.8516
  133TMC2    H5 2081   4.092   0.506   9.070 -0.2028  2.0088  1.7599
  134MPD2     C 2082   4.360   0.226   9.760  0.2000 -0.4777  0.1015
  134MPD2    C1 2083   4.350   0.323   9.658 -0.1046  0.0848 -0.0801
  134MPD2    C2 2084   4.439   0.429   9.666 -0.0230  0.3091 -0.5094
  134MPD2    C3 2085   4.525   0.448   9.772 -0.8860 -0.4115  0.8129
  134MPD2    C4 2086   4.516   0.355   9.873 -0.5765 -0.5070  0.2890
  134MPD2    C5 2087   4.439   0.246   9.867  0.1492 -0.2921 -0.3743
  134MPD2     H 2088   4.444   0.512   9.596  0.4327 -0.4337 -1.3681
  134MPD2    H1 2089   4.584   0.370   9.956 -0.0180  0.0857 -0.2766
  134MPD2    H2 2090   4.301   0.135   9.756  1.1706 -1.0507 -1.3386
  134MPD2    H3 2091   4.446   0.171   9.944 -1.2362 -0.9161 -0.8617
  134MPD2     N 2092   4.629   0.545   9.791 -0.1989  0.5769 -0.6449
  134MPD2    H5 2093   4.687   0.533   9.874  0.8583  1.2082 -1.2940
  134MPD2    N1 2094   4.255   0.308   9.553 -0.0374  0.4404  0.0446
  134MPD2    H7 2095   4.199   0.223   9.555  1.1590 -0.3319  0.8203
  135TMC2    C1 2096   2.786   2.720   9.858  0.0748  0.3991 -0.0783
  135TMC2    C2 2097   2.671   2.655   9.895 -0.1858 -0.0010  0.1689
  135TMC2    C3 2098   2.670   2.596  10.017  0.4766  0.6826  0.0252
  135TMC2    C4 2099   2.901   2.722   9.926  0.0073  0.2535  0.4556
  135TMC2    C5 2100   2.901   2.648  10.050  0.3245 -0.7413 -0.5417
  135TMC2    C6 2101   2.786   2.590  10.095 -1.5346 -0.2765 -0.2995
  135TMC2     C 2102   2.787   2.801   9.737  0.1972 -0.8574  0.6253
  135TMC2     O 2103   2.687   2.853   9.693  0.4503 -0.0077  0.2107
  135TMC2     H 2104   2.584   2.658   9.830 -0.0098  1.5732  0.0234
  135TMC2    H1 2105   2.982   2.786   9.895 -0.6550  1.7276  1.7226
  135TMC2    H2 2106   2.785   2.532  10.186 -1.6277  0.2977  0.0599
  135TMC2    C7 2107   3.027   2.628  10.115 -0.1799  0.4082  0.2259
  135TMC2    C8 2108   2.557   2.519  10.073  0.2309 -0.1840 -0.5867
  135TMC2    O1 2109   3.087   2.730  10.153 -0.1009  0.3627 -0.4559
  135TMC2    O2 2110   2.579   2.413  10.134 -0.1877 -0.6422 -0.1595
  135TMC2    O5 2111   2.438   2.552  10.022  0.1092 -0.3480  0.0108
  135TMC2    H5 2112   2.433   2.632   9.965 -0.6678  0.4187  1.1623
  136MPD2     C 2113   2.865   2.962   9.495  0.1508  0.2960  0.0719
  136MPD2    C1 2114   2.943   2.857   9.558 -0.1903  0.0867  0.2210
  136MPD2    C2 2115   3.069   2.825   9.509  0.7832  0.6981  0.5270
  136MPD2    C3 2116   3.109   2.881   9.384 -0.9391 -0.2712 -0.4392
  136MPD2    C4 2117   3.037   2.978   9.320 -0.9896  0.5825  0.3176
  136MPD2    C5 2118   2.917   3.019   9.379  0.5521 -0.3308  0.5234
  136MPD2     H 2119   3.128   2.748   9.557  0.4707 -0.9202 -1.6509
  136MPD2    H1 2120   3.061   3.017   9.222 -3.4897 -1.6854 -1.1893
  136MPD2    H2 2121   2.766   2.998   9.523  0.0387 -1.4348  1.9298
  136MPD2    H3 2122   2.866   3.107   9.340  1.4583 -0.0915 -0.1246
  136MPD2     N 2123   3.227   2.854   9.322  0.1412 -0.0956  0.3299
  136MPD2    H5 2124   3.236   2.921   9.247 -0.3296  0.6465  0.9369
  136MPD2    N1 2125   2.906   2.785   9.669 -0.1214 -0.0944 -0.4021
  136MPD2    H7 2126   2.977   2.720   9.701  0.4607  0.6672 -0.1499
  137TMC2    C1 2127   2.326   1.239   8.974  0.3461 -0.8822 -0.5828
  137TMC2    C2 2128   2.332   1.254   8.834  0.4109 -0.2662  1.0985
  137TMC2    C3 2129   2.288   1.373   8.778  0.0370 -0.5318 -0.3987
  137TMC2    C4 2130   2.253   1.330   9.042 -0.2490  0.3587  0.0219
  137TMC2    C5 2131   2.220   1.453   8.977 -0.3117 -0.6356  0.0956
  137TMC2    C6 2132   2.233   1.477   8.844 -0.4977  0.5225  0.7579
  137TMC2     C 2133   2.428   1.169   9.047 -0.2814 -0.4555 -0.7028
  137TMC2     O 2134   2.459   1.240   9.145  0.6257  0.1689 -0.5039
  137TMC2     H 2135   2.384   1.179   8.775 -0.1680 -1.2442  1.8161
  137TMC2    H1 2136   2.256   1.338   9.150 -3.3497 -1.9392  0.2695
  137TMC2    H2 2137   2.188   1.565   8.799 -0.4902 -0.6050 -1.4531
  137TMC2    C7 2138   2.204   1.580   9.051 -0.0813 -0.0813 -0.2074
  137TMC2    C8 2139   2.334   1.402   8.646  0.0762  0.4972  0.7252
  137TMC2    O1 2140   2.228   1.686   8.994  0.2020 -0.5438 -0.9430
  137TMC2    O2 2141   2.435   1.366   8.587  0.0312 -0.2544  0.0173
  137TMC2    O5 2142   2.245   1.485   8.593 -0.2692 -0.2507 -0.2457
  137TMC2    H5 2143   2.154   1.477   8.629  0.2311  0.6387  1.1792
  138MPD2     C 2144   2.621   0.864   9.022 -0.8506  0.5977 -0.0425
  138MPD2    C1 2145   2.599   0.992   9.050 -1.2833  0.3256 -0.4160
  138MPD2    C2 2146   2.684   1.056   9.139 -0.4510  0.3659  0.5069
  138MPD2    C3 2147   2.790   0.994   9.202 -0.3601 -0.4186 -0.7932
  138MPD2    C4 2148   2.805   0.859   9.172  0.0783  0.5805  0.2987
  138MPD2    C5 2149   2.716   0.793   9.083  0.8506 -0.2452 -0.7706
  138MPD2     H 2150   2.662   1.159   9.165 -3.4981 -0.3069  0.5298
  138MPD2    H1 2151   2.888   0.808   9.219 -0.9673 -1.2465  0.1287
  138MPD2    H2 2152   2.554   0.818   8.951  2.1127 -0.7901 -1.9190
  138MPD2    H3 2153   2.715   0.685   9.081  0.0784 -0.2228 -2.1481
  138MPD2     N 2154   2.866   1.067   9.291 -0.1505  0.0599 -0.5852
  138MPD2    H5 2155   2.833   1.163   9.299  0.3751  0.0755  1.2726
  138MPD2    N1 2156   2.480   1.053   9.001 -0.5593 -0.0674 -0.6787
  138MPD2    H7 2157   2.433   1.003   8.925  0.2827 -0.6117 -0.8466
  139TMC2    C1 2158   3.837   3.957  13.266 -0.7112 -0.1119 -0.1447
  139TMC2    C2 2159   3.898   4.023  13.158  0.3194 -0.1037 -0.0370
  139TMC2    C3 2160   3.872   4.152  13.136 -0.3536 -0.5002 -0.5585
  139TMC2    C4 2161   3.764   4.031  13.357 -0.1506  0.6205  0.2475
  139TMC2    C5 2162   3.738   4.161  13.327 -0.5535  0.0622  0.4373
  139TMC2    C6 2163   3.785   4.228  13.211 -0.6149  0.2498 -0.1450
  139TMC2     C 2164   3.897   3.825  13.294  0.2029 -0.3664 -0.0095
  139TMC2     O 2165   3.953   3.771  13.200  0.2588 -0.1078  0.0750
  139TMC2     H 2166   3.965   3.976  13.088 -0.1275 -0.8786  0.0526
  139TMC2    H1 2167   3.718   3.991  13.447  2.9195  0.6680  1.8485
  139TMC2    H2 2168   3.742   4.324  13.184  1.0559  1.8164  2.7881
  139TMC2    C7 2169   3.649   4.229  13.422  0.2892  0.5651 -0.0089
  139TMC2    C8 2170   3.941   4.217  13.030  0.0249 -0.1373 -0.7251
  139TMC2    O1 2171   3.586   4.322  13.374  0.4984  0.4119 -0.3831
  139TMC2    O2 2172   4.051   4.184  12.993  0.1398  0.2811  0.1198
  139TMC2    O5 2173   3.870   4.319  12.973 -0.0721 -0.0897  0.2032
  139TMC2    H5 2174   3.775   4.323  12.999  0.2214  0.6327  1.1646
  140MPD2     C 2175   3.827   3.612  13.585 -0.9979  0.3984 -0.0167
  140MPD2    C1 2176   3.898   3.650  13.474  0.6814  0.4255  0.9009
  140MPD2    C2 2177   4.011   3.582  13.434  0.7034 -0.0202 -0.1977
  140MPD2    C3 2178   4.054   3.471  13.499 -0.7423  0.2450 -0.3319
  140MPD2    C4 2179   3.986   3.433  13.615  0.2283  0.7017  0.5603
  140MPD2    C5 2180   3.869   3.496  13.651 -0.8119 -0.0485  0.3461
  140MPD2     H 2181   4.066   3.614  13.346  0.5780 -1.2318 -0.7190
  140MPD2    H1 2182   4.037   3.379  13.694 -0.6505  1.7072  1.8126
  140MPD2    H2 2183   3.742   3.663  13.629  1.7875  3.4865  1.7667
  140MPD2    H3 2184   3.826   3.464  13.745 -1.2280 -1.1681 -0.2213
  140MPD2     N 2185   4.170   3.404  13.460  0.3237  0.7796 -0.3425
  140MPD2    H5 2186   4.205   3.427  13.368 -1.4287  0.5637 -1.0693
  140MPD2    N1 2187   3.858   3.771  13.413 -0.2852  0.3678 -0.7726
  140MPD2    H7 2188   3.778   3.813  13.459 -0.5942 -0.7800 -0.2591
  141TMC2    C1 2189   4.282   0.614  13.772 -0.1043 -0.9547 -0.7834
  141TMC2    C2 2190   4.272   0.547  13.891 -0.1787  0.7620  0.6797
  141TMC2    C3 2191   4.338   0.593  14.001 -0.3676  0.6622 -0.1596
  141TMC2    C4 2192   4.386   0.707  13.754  0.6816  0.0740  0.4077
  141TMC2    C5 2193   4.444   0.758  13.870 -0.2542  0.0243  0.0989
  141TMC2    C6 2194   4.416   0.708  13.997  0.0880 -0.2183 -0.0638
  141TMC2     C 2195   4.207   0.566  13.661  0.1924  0.2860 -0.0903
  141TMC2     O 2196   4.213   0.640  13.565  1.1636  0.3164  0.6234
  141TMC2     H 2197   4.180   0.491  13.907  0.7067 -0.8859 -0.0636
  141TMC2    H1 2198   4.429   0.728  13.657 -2.6567 -0.7270 -1.2438
  141TMC2    H2 2199   4.451   0.753  14.090  1.1255 -0.0636 -0.5343
  141TMC2    C7 2200   4.516   0.881  13.854  0.6085  0.2444 -0.4565
  141TMC2    C8 2201   4.297   0.540  14.132  0.1149 -0.2379  0.1031
  141TMC2    O1 2202   4.506   0.938  13.744  0.1199 -0.1818 -0.0863
  141TMC2    O2 2203   4.343   0.604  14.230  0.0911 -0.3473 -0.3070
  141TMC2    O5 2204   4.256   0.407  14.129  0.4059  0.5386 -0.4850
  141TMC2    H5 2205   4.249   0.362  14.042  3.3743 -0.0930 -0.4095
  142TMC2    C1 2206   2.319   4.142  10.466  0.7737 -0.3847  0.4692
  142TMC2    C2 2207   2.430   4.133  10.377  0.0792  0.3579  0.2081
  142TMC2    C3 2208   2.462   4.248  10.309 -0.6239  0.0493  0.6190
  142TMC2    C4 2209   2.271   4.261  10.502 -0.1935 -0.7487  0.1326
  142TMC2    C5 2210   2.311   4.374  10.432 -0.2445  0.8348  0.5436
  142TMC2    C6 2211   2.400   4.369  10.329 -0.2435  0.5235 -0.2857
  142TMC2     C 2212   2.217   4.043  10.459 -0.3354  0.4403 -0.2391
  142TMC2     O 2213   2.104   4.079  10.488  0.5104  0.0519  0.3773
  142TMC2     H 2214   2.476   4.041  10.344 -0.2809 -0.4410  1.9427
  142TMC2    H1 2215   2.204   4.271  10.587 -0.9579  1.1044 -0.6874
  142TMC2    H2 2216   2.415   4.445  10.254 -2.1098  0.9371 -0.2357
  142TMC2    C7 2217   2.224   4.494  10.451  0.5783 -0.3596 -0.4238
  142TMC2    C8 2218   2.568   4.232  10.218  0.1302  0.0858 -0.0260
  142TMC2    O1 2219   2.128   4.479  10.523  0.0249  0.3039  0.2842
  142TMC2    O2 2220   2.617   4.125  10.184 -0.1821 -0.0797  0.5795
  142TMC2    O5 2221   2.630   4.341  10.184 -0.3884  0.1515  0.6519
  142TMC2    H5 2222   2.588   4.429  10.198 -1.1177  0.0037 -0.5569
  143MPD2     C 2223   2.063   3.591  10.313 -0.0960 -0.3365 -0.1172
  143MPD2    C1 2224   1.983   3.688  10.379  0.1736 -0.5489  0.2135
  143MPD2    C2 2225   2.053   3.801  10.432 -0.2203  1.2980 -0.3288
  143MPD2    C3 2226   2.187   3.815  10.395  0.7002 -0.1877 -0.1815
  143MPD2    C4 2227   2.263   3.715  10.345 -0.6405 -0.4592 -0.0489
  143MPD2    C5 2228   2.200   3.606  10.312 -0.0242 -0.3990 -0.0304
  143MPD2     H 2229   1.999   3.876  10.489 -1.8194  0.4810 -0.7851
  143MPD2    H1 2230   2.370   3.728  10.333 -0.7451  3.0776  2.7607
  143MPD2    H2 2231   2.015   3.499  10.280  2.0314 -0.9598 -1.4276
  143MPD2    H3 2232   2.257   3.526  10.266  1.0668  0.2597  0.1858
  143MPD2     N 2233   2.266   3.929  10.422  0.5333 -0.1210 -0.0091
  143MPD2    H5 2234   2.367   3.922  10.420  0.6131  1.1676 -0.0790
  143MPD2    N1 2235   1.850   3.655  10.399  0.7399  0.5302  0.4147
  143MPD2    H7 2236   1.816   3.564  10.372  0.7707  1.0431 -1.3685
  144TMC2    C1 2237   0.362   2.742   0.520 -0.2497  0.1282 -0.0726
  144TMC2    C2 2238   0.449   2.647   0.477 -0.1776 -0.3379  0.7109
  144TMC2    C3 2239   0.564   2.638   0.544 -0.1954  0.7751 -0.0775
  144TMC2    C4 2240   0.383   2.817   0.634 -0.1816  0.4753 -0.5410
  144TMC2    C5 2241   0.505   2.798   0.701 -0.5294  0.6787  0.7772
  144TMC2    C6 2242   0.600   2.710   0.656 -0.8865 -0.3568 -0.0799
  144TMC2     C 2243   0.252   2.787   0.421  0.0115  0.3054 -0.2069
  144TMC2     O 2244   0.250   2.719   0.315  0.2928 -0.2098  0.3103
  144TMC2     H 2245   0.435   2.583   0.391 -0.1005  0.2745  0.2484
  144TMC2    H1 2246   0.321   2.896   0.673  0.5398  0.7042  0.1389
  144TMC2    H2 2247   0.700   2.706   0.699  0.1996  0.2922 -2.5401
  144TMC2    C7 2248   0.537   2.867   0.829 -0.6647 -0.3830 -0.3249
  144TMC2    C8 2249   0.660   2.531   0.513  0.2347  0.1183 -0.0772
  144TMC2    O1 2250   0.632   2.815   0.887  0.0319  0.0325 -0.1167
  144TMC2    O2 2251   0.720   2.471   0.601 -0.1893  0.5586 -0.1884
  144TMC2    O5 2252   0.658   2.497   0.380 -0.3066  0.4283  0.7311
  144TMC2    H5 2253   0.617   2.567   0.326  1.3466  0.8174 -0.0268
  145MPD2     C 2254   4.596   3.082   0.253  0.2975  0.1130 -0.0004
  145MPD2    C1 2255   4.668   2.984   0.195 -0.4052  0.2223  0.1627
  145MPD2    C2 2256   0.029   2.920   0.259 -0.1329  0.0665  0.3377
  145MPD2    C3 2257   0.064   2.955   0.387 -0.5137 -0.1258 -0.7566
  145MPD2    C4 2258   0.004   3.062   0.444  0.3396 -1.1076  0.3836
  145MPD2    C5 2259   4.634   3.117   0.378  0.5489  0.1297  0.6982
  145MPD2     H 2260   0.074   2.828   0.223 -0.7991 -0.2280  0.2737
  145MPD2    H1 2261   0.047   3.099   0.537  2.5614 -4.1610  0.5645
  145MPD2    H2 2262   4.518   3.141   0.206 -0.5570 -2.2580 -1.4969
  145MPD2    H3 2263   4.572   3.197   0.417  1.7137  2.0853 -1.5296
  145MPD2     N 2264   0.175   2.895   0.460  0.1540  0.0562 -0.1444
  145MPD2    H5 2265   0.202   2.941   0.547  1.8569 -0.4956 -0.3729
  145MPD2    N1 2266   4.626   2.933   0.065  0.1721 -0.0803 -0.1367
  145MPD2    H7 2267   4.683   2.857   0.027 -1.5662 -0.0191 -2.8232
  146TMC2    C1 2268   1.207   1.544  11.862  0.8428 -0.0394  0.1372
  146TMC2    C2 2269   1.122   1.522  11.759 -0.2846 -0.2281  0.1666
  146TMC2    C3 2270   1.165   1.451  11.648 -0.3836  0.4695  0.1507
  146TMC2    C4 2271   1.335   1.497  11.853 -0.8222 -0.2218  0.3025
  146TMC2    C5 2272   1.384   1.445  11.735 -0.5596  0.0569 -0.0465
  146TMC2    C6 2273   1.296   1.425  11.628  0.0735  0.0201  0.6800
  146TMC2     C 2274   1.153   1.590  11.986  0.0511  0.3041  0.6330
  146TMC2     O 2275   1.035   1.612  11.992 -0.1188 -0.2652 -0.0128
  146TMC2     H 2276   1.019   1.556  11.763 -0.1549  0.2722 -0.6095
  146TMC2    H1 2277   1.407   1.536  11.925 -1.7151 -1.2063  1.7303
  146TMC2    H2 2278   1.327   1.371  11.539  0.0323 -0.9007  1.2257
  146TMC2    C7 2279   1.509   1.379  11.714 -0.3261 -1.2594  0.1877
  146TMC2    C8 2280   1.077   1.432  11.535  0.4395 -0.3307  0.2105
  146TMC2    O1 2281   1.548   1.361  11.599  0.5686 -0.2728 -0.2255
  146TMC2    O2 2282   1.125   1.410  11.425 -0.2991  0.5854 -0.9352
  146TMC2    O5 2283   0.948   1.445  11.567 -0.4639  0.5262  0.4573
  146TMC2    H5 2284   0.934   1.433  11.663 -1.5730  0.8386  0.3334
  147MPD2     C 2285   1.975   1.281  11.879 -0.0949 -0.7252 -0.2312
  147MPD2    C1 2286   1.893   1.267  11.985 -0.0947  0.3615 -0.9772
  147MPD2    C2 2287   1.761   1.287  11.967 -0.4559 -0.3565 -0.9874
  147MPD2    C3 2288   1.714   1.324  11.839  0.4442  0.0288 -0.6370
  147MPD2    C4 2289   1.800   1.332  11.730  1.0471  0.1917  0.3946
  147MPD2    C5 2290   1.934   1.308  11.753 -0.1907  0.6378 -0.2110
  147MPD2     H 2291   1.687   1.284  12.047  0.1494 -1.6427 -0.4787
  147MPD2    H1 2292   1.767   1.353  11.629  1.1396 -2.8776 -0.2860
  147MPD2    H2 2293   2.077   1.249  11.893 -0.3758 -2.3929 -2.1139
  147MPD2    H3 2294   2.005   1.329  11.674 -0.8190 -3.4340 -1.8389
  147MPD2     N 2295   1.575   1.337  11.827 -0.0605 -0.1534 -0.1280
  147MPD2    H5 2296   1.527   1.330  11.916 -1.3680 -0.9584 -0.8909
  147MPD2    N1 2297   1.954   1.231  12.106  0.2835  0.4620  0.4463
  147MPD2    H7 2298   2.055   1.225  12.099  0.2256  0.7922 -0.6778
  148TMC2    C1 2299   1.335   0.744  10.618  0.3705  0.5152 -0.0293
  148TMC2    C2 2300   1.459   0.799  10.603  0.5120 -0.0403  0.5054
  148TMC2    C3 2301   1.574   0.733  10.646  0.2850 -0.3589 -1.0341
  148TMC2    C4 2302   1.326   0.617  10.663 -0.0588  0.5049 -0.6697
  148TMC2    C5 2303   1.445   0.550  10.688 -0.1644 -0.7721 -0.2578
  148TMC2    C6 2304   1.571   0.605  10.689 -0.0156 -0.2393  0.3945
  148TMC2     C 2305   1.229   0.800  10.530  0.8227 -0.8128  0.0017
  148TMC2     O 2306   1.250   0.903  10.473 -0.3055  0.3295  0.1301
  148TMC2     H 2307   1.463   0.893  10.548  1.8721 -0.6538 -0.4626
  148TMC2    H1 2308   1.230   0.574  10.687  0.7758  0.7890  3.0966
  148TMC2    H2 2309   1.651   0.532  10.691 -0.4724 -0.7910 -0.7595
  148TMC2    C7 2310   1.417   0.406  10.700  0.1634 -0.1703  0.4522
  148TMC2    C8 2311   1.690   0.767  10.565  0.4353 -0.1193 -0.1498
  148TMC2    O1 2312   1.331   0.369  10.622 -0.2381 -0.3587 -0.2645
  148TMC2    O2 2313   1.773   0.684  10.532  0.3023 -0.1971 -0.2823
  148TMC2    O5 2314   1.717   0.891  10.597  0.0866 -0.2357  0.3743
  148TMC2    H5 2315   1.645   0.921  10.656 -1.8952 -0.5973 -1.9031
  149MPD2     C 2316   1.011   0.821  10.313  0.5911  0.2251 -0.4865
  149MPD2    C1 2317   1.037   0.707  10.394  0.2108  0.0888  0.3065
  149MPD2    C2 2318   0.955   0.599  10.383  0.7231 -0.4369 -0.4107
  149MPD2    C3 2319   0.856   0.583  10.286  0.2652 -0.5816  0.3478
  149MPD2    C4 2320   0.829   0.695  10.210  0.0652 -0.5866  0.4648
  149MPD2    C5 2321   0.911   0.805  10.217 -0.7802 -0.0963  0.7842
  149MPD2     H 2322   0.981   0.513  10.443 -2.6411 -0.2995  1.2351
  149MPD2    H1 2323   0.738   0.698  10.151 -0.4646  1.2228  1.3760
  149MPD2    H2 2324   1.070   0.911  10.324  1.4090 -0.2623 -0.8726
  149MPD2    H3 2325   0.894   0.900  10.168 -2.5834 -0.6353  0.3815
  149MPD2     N 2326   0.763   0.480  10.276 -0.4833 -0.1804  0.1963
  149MPD2    H5 2327   0.694   0.488  10.202  0.2617 -4.6361 -0.9454
  149MPD2    N1 2328   1.137   0.707  10.490 -0.2407 -0.1124  0.0909
  149MPD2    H7 2329   1.145   0.619  10.540 -1.9539  1.2136  2.6958
  150TMC2    C1 2330   3.555   4.463  12.182 -0.1146  0.0131 -0.0773
  150TMC2    C2 2331   3.512   4.554  12.086  0.8711  0.4932  0.4055
  150TMC2    C3 2332   3.600   4.657  12.066  0.2418 -0.7310  0.8357
  150TMC2    C4 2333   3.684   4.459  12.231  0.0431  0.9021  0.3900
  150TMC2    C5 2334   3.770   4.556  12.199  0.5886 -0.2039 -0.5204
  150TMC2    C6 2335   3.729   4.658  12.116 -0.0184  0.3922 -0.3232
  150TMC2     C 2336   3.460   4.385  12.252 -1.0488  0.0279  0.4792
  150TMC2     O 2337   3.492   4.335  12.357  0.0739 -0.0936 -0.0477
  150TMC2     H 2338   3.413   4.572  12.047  1.0120 -1.0047 -0.6633
  150TMC2    H1 2339   3.713   4.369  12.284 -0.9049  0.2477 -0.2019
  150TMC2    H2 2340   3.790   0.005  12.089 -0.5052  0.4154 -1.3342
  150TMC2    C7 2341   3.914   4.559  12.240  0.8968  0.5577  0.4297
  150TMC2    C8 2342   3.575   4.733  11.948  0.1485 -0.2368  0.0437
  150TMC2    O1 2343   3.971   4.662  12.202 -0.4725  0.2570  0.7115
  150TMC2    O2 2344   3.561   0.115  11.939 -0.6411  0.3423 -0.4717
  150TMC2    O5 2345   3.530   4.645  11.849  1.1506  0.5938 -0.2095
  150TMC2    H5 2346   3.566   4.556  11.872 -1.7800 -0.4252  0.4314
  151MPD2     C 2347   3.010   4.138  12.273  0.4407  0.4287  0.3769
  151MPD2    C1 2348   3.040   4.158  12.142 -0.8167 -0.0955 -0.4068
  151MPD2    C2 2349   3.152   4.237  12.118  0.1120 -0.7873  0.1312
  151MPD2    C3 2350   3.240   4.278  12.215 -0.3630  0.2251 -0.1008
  151MPD2    C4 2351   3.203   4.256  12.342  0.5179  0.0229 -0.7177
  151MPD2    C5 2352   3.089   4.183  12.372 -0.3092  0.1442  0.5053
  151MPD2     H 2353   3.187   4.250  12.016 -0.6453  2.5986  0.3043
  151MPD2    H1 2354   3.266   4.289  12.425 -0.6000 -0.4744  0.3225
  151MPD2    H2 2355   2.921   4.079  12.291  0.9677 -0.7579 -0.9137
  151MPD2    H3 2356   3.058   4.168  12.475 -1.5983 -1.5089 -0.1267
  151MPD2     N 2357   3.353   4.349  12.172  0.0601  0.0420 -0.4419
  151MPD2    H5 2358   3.357   4.379  12.075 -0.7512 -0.0728 -0.5150
  151MPD2    N1 2359   2.949   4.118  12.044  0.4852 -0.2618 -0.2349
  151MPD2    H7 2360   2.868   4.068  12.079  0.4783  0.4158  0.7232
  152TMC2    C1 2361   3.227   4.191  13.000  0.2005 -0.6117  0.1822
  152TMC2    C2 2362   3.221   4.234  13.128 -0.3972 -0.1752 -0.1997
  152TMC2    C3 2363   3.318   4.320  13.183  0.3112  0.2350  0.5891
  152TMC2    C4 2364   3.319   4.255  12.921 -0.0905 -0.2767 -0.0805
  152TMC2    C5 2365   3.410   4.338  12.977  0.1339 -0.5683  0.8730
  152TMC2    C6 2366   3.423   4.367  13.111 -0.1592 -0.5662 -0.0026
  152TMC2     C 2367   3.102   4.151  12.938 -0.0071 -0.4334  0.2028
  152TMC2     O 2368   3.079   4.188  12.826 -1.0932  0.1212  0.2668
  152TMC2     H 2369   3.140   4.207  13.196 -0.3543  2.0781  0.7365
  152TMC2    H1 2370   3.335   4.224  12.818  0.7555 -1.5712  0.4367
  152TMC2    H2 2371   3.488   4.444  13.151  2.0253 -2.3887  0.0150
  152TMC2    C7 2372   3.517   4.392  12.903  0.1113 -0.1869  0.1718
  152TMC2    C8 2373   3.266   4.434  13.257  0.4149 -0.5178  0.4035
  152TMC2    O1 2374   3.618   4.388  12.968 -0.2795 -0.3176  0.0408
  152TMC2    O2 2375   3.301   4.549  13.236 -0.0714 -0.8657  0.3300
  152TMC2    O5 2376   3.178   4.390  13.354 -0.0743 -0.1694  0.2081
  152TMC2    H5 2377   3.199   4.297  13.377  1.5781 -0.8461 -4.1486
  153MPD2     C 2378   2.829   3.938  13.073  0.3852  0.2574 -0.1784
  153MPD2    C1 2379   2.890   4.039  12.996 -0.0408  0.9318  0.0565
  153MPD2    C2 2380   2.810   4.104  12.907  0.0649  0.4726 -0.5037
  153MPD2    C3 2381   2.678   4.077  12.887  0.0964 -0.0798  0.7571
  153MPD2    C4 2382   2.629   3.972  12.956  0.2992 -0.0344  0.2400
  153MPD2    C5 2383   2.704   3.907  13.044 -0.2086 -0.2235 -0.0976
  153MPD2     H 2384   2.855   4.198  12.877  2.4686  0.2315  2.2978
  153MPD2    H1 2385   2.525   3.943  12.945 -0.0792  2.4197 -2.7384
  153MPD2    H2 2386   2.882   3.879  13.147 -0.1393 -0.4320 -0.3594
  153MPD2    H3 2387   2.647   3.833  13.099  0.3502 -0.6725 -0.1226
  153MPD2     N 2388   2.595   4.157  12.799  0.1831 -0.3941  0.3477
  153MPD2    H5 2389   2.643   4.231  12.748 -1.4354  1.1351  1.0811
  153MPD2    N1 2390   3.024   4.076  13.019 -0.3501  0.2124  0.1765
  153MPD2    H7 2391   3.075   4.034  13.097  0.9206 -0.3451 -0.9530
  154TMC2    C1 2392   0.638   3.407   0.736  0.2169  0.2273  0.6574
  154TMC2    C2 2393   0.693   3.411   0.858  0.1294  0.5442  0.2343
  154TMC2    C3 2394   0.766   3.305   0.903 -0.1494  0.1240  0.0769
  154TMC2    C4 2395   0.663   3.300   0.645  0.1128 -0.2692  0.2001
  154TMC2    C5 2396   0.751   3.204   0.686 -0.4854  0.5330 -0.6041
  154TMC2    C6 2397   0.802   3.196   0.817  0.1252 -0.1594 -0.0783
  154TMC2     C 2398   0.614   3.534   0.680 -0.5572  0.1548 -0.2837
  154TMC2     O 2399   0.683   3.625   0.723  0.1260 -0.8094 -0.0328
  154TMC2     H 2400   0.691   3.505   0.911 -3.9477  0.8586 -0.4679
  154TMC2    H1 2401   0.621   3.312   0.546  0.6326 -0.0228  0.0114
  154TMC2    H2 2402   0.873   3.127   0.861 -0.0153 -0.8202 -0.8948
  154TMC2    C7 2403   0.767   3.091   0.598 -0.3886  0.5698  0.2194
  154TMC2    C8 2404   0.802   3.317   1.042 -0.2523  0.6587 -0.5895
  154TMC2    O1 2405   0.675   3.069   0.517  0.6019  0.0851 -0.2137
  154TMC2    O2 2406   0.776   3.414   1.109  0.3092 -0.2072 -0.3338
  154TMC2    O5 2407   0.897   3.224   1.088 -0.1594  0.2459 -0.4944
  154TMC2    H5 2408   0.887   3.134   1.049 -1.1490 -0.5191  1.4943
  155MPD2     C 2409   0.352   3.608   0.434 -0.3245  0.3894  0.1539
  155MPD2    C1 2410   0.462   3.639   0.510 -0.4875 -0.2252  0.3426
  155MPD2    C2 2411   0.515   3.763   0.503  0.1699 -0.2474  0.8699
  155MPD2    C3 2412   0.469   3.857   0.419 -0.2288  0.0490 -0.7382
  155MPD2    C4 2413   0.357   3.825   0.342  0.1194 -0.1378 -0.1298
  155MPD2    C5 2414   0.306   3.705   0.353 -0.2856  0.8803  0.1763
  155MPD2     H 2415   0.595   3.787   0.572  0.5194  1.1280 -0.0278
  155MPD2    H1 2416   0.318   3.900   0.274  0.1586 -0.4079 -0.4491
  155MPD2    H2 2417   0.304   3.511   0.442  0.2257 -0.0161 -1.3203
  155MPD2    H3 2418   0.222   3.680   0.289 -0.2128 -0.0179  0.4260
  155MPD2     N 2419   0.514   3.989   0.425 -0.2801 -0.1653  0.2047
  155MPD2    H5 2420   0.580   4.009   0.500 -1.5197  1.2933  0.9097
  155MPD2    N1 2421   0.507   3.529   0.594 -0.1328 -0.1053 -0.4450
  155MPD2    H7 2422   0.461   3.440   0.576  3.0495 -1.8313 -0.1661
  156TMC2    C1 2423   2.979   2.361  11.712  0.4016  0.5262  0.1759
  156TMC2    C2 2424   2.921   2.237  11.726 -0.4607  0.7001 -0.2141
  156TMC2    C3 2425   2.785   2.232  11.731 -0.5219 -0.2299 -0.2898
  156TMC2    C4 2426   2.912   2.471  11.713 -0.5088 -0.1833  0.7138
  156TMC2    C5 2427   2.774   2.460  11.711  0.4419 -0.2829  0.0403
  156TMC2    C6 2428   2.709   2.339  11.717 -0.9134 -0.2514 -0.4773
  156TMC2     C 2429   3.109   2.378  11.769  0.3798  0.8010  0.2369
  156TMC2     O 2430   3.123   2.480  11.836  0.2951 -0.3025  0.2215
  156TMC2     H 2431   2.981   2.148  11.742 -1.9080  0.1739  2.3884
  156TMC2    H1 2432   2.958   2.568  11.698  0.1638 -0.6082  0.0640
  156TMC2    H2 2433   2.601   2.340  11.727 -0.6183 -0.3358  2.8485
  156TMC2    C7 2434   2.697   2.581  11.722  1.4390 -0.0426  0.5774
  156TMC2    C8 2435   2.714   2.113  11.683  0.0534  0.4356 -0.3726
  156TMC2    O1 2436   2.578   2.572  11.758 -0.1945 -0.1499 -0.5081
  156TMC2    O2 2437   2.616   2.106  11.611 -0.4276  0.1845 -0.0847
  156TMC2    O5 2438   2.778   2.006  11.733  0.7837 -0.5858  0.0732
  156TMC2    H5 2439   2.843   2.034  11.801 -0.9084 -1.5427  2.0876
  157MPD2     C 2440   3.412   2.171  11.728  0.1727  0.1491 -0.6194
  157MPD2    C1 2441   3.329   2.270  11.782 -0.1543  0.3058  0.5533
  157MPD2    C2 2442   3.392   2.347  11.886 -0.5334  0.2480  0.3442
  157MPD2    C3 2443   3.517   2.308  11.940 -0.3496  0.5801 -0.7774
  157MPD2    C4 2444   3.590   2.205  11.884  0.6025  0.2441 -0.3503
  157MPD2    C5 2445   3.539   2.141  11.772  0.6830 -0.2090 -0.1788
  157MPD2     H 2446   3.335   2.424  11.936  0.2162  1.0252  0.0094
  157MPD2    H1 2447   3.685   2.183  11.932  0.9107  0.3957 -0.8919
  157MPD2    H2 2448   3.371   2.109  11.649  1.2946  0.8798 -1.7729
  157MPD2    H3 2449   3.595   2.064  11.721  1.0258  0.5380 -0.9344
  157MPD2     N 2450   3.581   2.370  12.053  0.2049  0.0568 -0.0667
  157MPD2    H5 2451   3.649   2.315  12.104  0.0374  0.3037  0.4188
  157MPD2    N1 2452   3.193   2.277  11.737 -0.5123 -0.4396 -0.3241
  157MPD2    H7 2453   3.157   2.203  11.678  0.9880 -0.2873 -1.4415
  158TMC2    C1 2454   3.534   0.863  13.210  0.1160  0.3676  0.3132
  158TMC2    C2 2455   3.542   0.958  13.114 -0.1607  0.3954  0.2434
  158TMC2    C3 2456   3.426   0.984  13.040  0.1431  0.2318  0.0589
  158TMC2    C4 2457   3.411   0.802  13.237  0.1776  0.0519 -0.0575
  158TMC2    C5 2458   3.305   0.824  13.155 -0.2699 -0.6077 -0.3436
  158TMC2    C6 2459   3.314   0.915  13.054  0.0080 -0.3946  0.6997
  158TMC2     C 2460   3.628   0.881  13.320 -0.0118  0.2164  0.0377
  158TMC2     O 2461   3.730   0.943  13.283 -0.4082 -0.3505 -0.0909
  158TMC2     H 2462   3.629   1.020  13.100  0.2588 -0.6400 -1.6632
  158TMC2    H1 2463   3.416   0.726  13.314  0.8559  2.6198  2.4426
  158TMC2    H2 2464   3.230   0.929  12.986 -1.1990 -0.2572  2.2264
  158TMC2    C7 2465   3.196   0.724  13.149  0.1293 -0.0162 -0.3486
  158TMC2    C8 2466   3.454   1.032  12.909 -0.3718  0.1700 -0.0642
  158TMC2    O1 2467   3.138   0.729  13.043 -0.0288  0.1485 -0.4975
  158TMC2    O2 2468   3.566   1.023  12.860 -0.1569 -0.2514 -0.5914
  158TMC2    O5 2469   3.340   1.068  12.848  0.4213  0.6931  0.2914
  158TMC2    H5 2470   3.268   1.087  12.913  0.2860  0.3766  0.2326
  159MPD2     C 2471   3.757   1.035  13.796  0.3293 -0.0656  0.3297
  159MPD2    C1 2472   3.644   0.953  13.801 -0.4136 -0.1726  0.3635
  159MPD2    C2 2473   3.594   0.888  13.692 -0.9574  0.6528  0.1343
  159MPD2    C3 2474   3.647   0.907  13.564 -0.4833 -0.3479 -0.4124
  159MPD2    C4 2475   3.760   0.991  13.555 -0.1485 -0.0793 -0.4489
  159MPD2    C5 2476   3.812   1.043  13.670  0.1130 -0.2278 -0.2702
  159MPD2     H 2477   3.509   0.821  13.697 -0.2330 -0.3454 -1.1047
  159MPD2    H1 2478   3.815   1.014  13.465  0.9389 -1.2644 -0.0836
  159MPD2    H2 2479   3.810   1.092  13.871 -0.7973 -0.1678  1.1898
  159MPD2    H3 2480   3.902   1.100  13.649  0.0675  0.4197  1.2756
  159MPD2     N 2481   3.583   0.859  13.448  0.5476 -0.1932 -0.0934
  159MPD2    H5 2482   3.493   0.815  13.466 -0.3784  0.9081 -1.9617
  159MPD2    N1 2483   3.597   0.932  13.935 -0.5528  0.4341  1.0380
  159MPD2    H7 2484   3.649   0.977  14.009  0.8643  1.8131 -0.7766
  160TMC2    C1 2485   2.975   3.477   1.118  0.1371 -0.2100 -0.1730
  160TMC2    C2 2486   2.953   3.346   1.087  0.0248  0.2649  1.1439
  160TMC2    C3 2487   3.029   3.256   1.147  0.5474  0.3701 -0.3436
  160TMC2    C4 2488   3.067   3.519   1.205 -0.2092 -0.0944  0.5867
  160TMC2    C5 2489   3.136   3.417   1.267 -0.4617 -0.7527 -0.3275
  160TMC2    C6 2490   3.119   3.283   1.247  0.2635 -0.4662 -0.1964
  160TMC2     C 2491   2.903   3.568   1.040 -0.2817 -0.5657 -0.1787
  160TMC2     O 2492   2.801   3.522   0.987 -0.2584 -0.7231  0.3240
  160TMC2     H 2493   2.889   3.317   1.004  1.8209 -0.4338 -0.0037
  160TMC2    H1 2494   3.069   3.619   1.248 -1.0913  0.6017 -0.9956
  160TMC2    H2 2495   3.176   3.203   1.293  2.1375  1.4151  0.7525
  160TMC2    C7 2496   3.268   3.447   1.329 -0.8374 -0.2212  0.3500
  160TMC2    C8 2497   2.977   3.120   1.139 -0.2888  0.0792 -0.9904
  160TMC2    O1 2498   3.287   3.391   1.434  0.1939 -0.1857 -0.3297
  160TMC2    O2 2499   2.862   3.094   1.106  0.6043  0.4651  0.0142
  160TMC2    O5 2500   3.074   3.035   1.126  0.1459  0.0437  0.8148
  160TMC2    H5 2501   3.164   3.072   1.141 -0.1894  1.1252  0.1324
  161MPD2     C 2502   2.784   3.801   0.889 -0.1837 -0.1424 -0.0257
  161MPD2    C1 2503   2.918   3.796   0.936 -0.0264  0.0173 -0.0441
  161MPD2    C2 2504   3.003   3.903   0.910  1.1477 -0.3044  0.0988
  161MPD2    C3 2505   2.952   4.006   0.835 -0.5670 -0.0340  0.3035
  161MPD2    C4 2506   2.825   4.005   0.779  0.0617 -0.8176  0.1174
  161MPD2    C5 2507   2.736   3.908   0.817 -0.1128  0.3485  0.3998
  161MPD2     H 2508   3.105   3.910   0.945  1.5029  0.3130 -1.0594
  161MPD2    H1 2509   2.785   4.091   0.725  0.2867 -1.4985 -1.1343
  161MPD2    H2 2510   2.713   3.721   0.904  1.8857 -1.9033  0.4449
  161MPD2    H3 2511   2.635   3.907   0.780 -0.0289 -0.2833  0.1877
  161MPD2     N 2512   3.032   4.123   0.818 -0.4949 -0.1021  0.1398
  161MPD2    H5 2513   2.998   4.192   0.751 -2.3147 -0.1998  0.9806
  161MPD2    N1 2514   2.968   3.681   1.010 -0.3300 -0.5636  0.3423
  161MPD2    H7 2515   3.059   3.695   1.052 -1.4883  0.1313  2.5991
  162TMC2    C1 2516   1.228   0.660   1.004 -0.0787 -0.1339 -0.0431
  162TMC2    C2 2517   1.108   0.649   0.949  0.1471  0.8992  0.2138
  162TMC2    C3 2518   0.997   0.630   1.040 -0.1073 -0.4631 -0.0942
  162TMC2    C4 2519   1.255   0.644   1.139 -0.2880 -0.7046 -0.1053
  162TMC2    C5 2520   1.142   0.628   1.218 -0.4497 -0.0431  0.3816
  162TMC2    C6 2521   1.016   0.623   1.172 -0.7553 -0.3710 -0.5814
  162TMC2     C 2522   1.341   0.650   0.912 -0.2876 -0.6301  0.1651
  162TMC2     O 2523   1.315   0.657   0.793  0.4968 -0.1841  0.2073
  162TMC2     H 2524   1.097   0.664   0.842 -0.0868  2.5111  0.4499
  162TMC2    H1 2525   1.341   0.691   1.186 -0.1930 -2.3766  1.3974
  162TMC2    H2 2526   0.932   0.624   1.240 -0.6055  0.0762 -0.4005
  162TMC2    C7 2527   1.151   0.647   1.360 -0.0758 -0.2465  0.0642
  162TMC2    C8 2528   0.871   0.580   0.982  0.5778 -0.1870 -0.4106
  162TMC2    O1 2529   1.050   0.656   1.425 -0.4269  0.0606 -0.0015
  162TMC2    O2 2530   0.848   0.618   0.868 -0.0039 -0.6140 -0.5835
  162TMC2    O5 2531   0.857   0.453   1.023  0.3220  0.7113 -0.2114
  162TMC2    H5 2532   0.897   0.440   1.112 -1.5222 -2.9275  0.0972
  163MPD2     C 2533   1.847   0.547   0.774  0.3448 -0.5372  0.1936
  163MPD2    C1 2534   1.736   0.584   0.696  0.5399 -0.4146 -0.2043
  163MPD2    C2 2535   1.605   0.606   0.755 -0.1765 -0.4945  0.0213
  163MPD2    C3 2536   1.587   0.603   0.896  0.1581  0.1575  0.0736
  163MPD2    C4 2537   1.698   0.563   0.970  0.3821 -0.1129  0.2415
  163MPD2    C5 2538   1.822   0.540   0.909 -0.7075  0.1066 -0.4264
  163MPD2     H 2539   1.513   0.622   0.699  0.3312 -2.4196 -1.3735
  163MPD2    H1 2540   1.696   0.540   1.076 -1.4374  1.1085  0.4621
  163MPD2    H2 2541   1.944   0.519   0.735  0.8722 -0.3680  1.3687
  163MPD2    H3 2542   1.900   0.508   0.978 -0.5147 -0.1922 -0.7843
  163MPD2     N 2543   1.469   0.627   0.970  0.6549  0.4294  0.4271
  163MPD2    H5 2544   1.479   0.626   1.071  0.5367  0.7287  0.4405
  163MPD2    N1 2545   1.762   0.582   0.559  0.9609 -0.3455  0.0878
  163MPD2    H7 2546   1.854   0.562   0.523  1.2951  0.7204  0.3503
  164TMC2    C1 2547   1.983   0.652  11.204  0.5693 -0.6810  0.2794
  164TMC2    C2 2548   2.107   0.710  11.224  0.6073 -0.3184  0.5474
  164TMC2    C3 2549   2.104   0.839  11.273  0.4811 -0.7357 -0.1314
  164TMC2    C4 2550   1.867   0.719  11.219 -0.4405 -0.1205  0.3187
  164TMC2    C5 2551   1.872   0.847  11.264 -0.0400 -0.6282 -0.1488
  164TMC2    C6 2552   1.990   0.908  11.296 -0.2971 -0.0700 -0.3083
  164TMC2     C 2553   1.974   0.518  11.150 -0.0812  0.2560  0.1281
  164TMC2     O 2554   1.871   0.455  11.164 -0.1021  0.3280  0.1008
  164TMC2     H 2555   2.200   0.654  11.217  1.8271  1.5712  1.7474
  164TMC2    H1 2556   1.771   0.673  11.195  0.4831 -1.0047 -1.6837
  164TMC2    H2 2557   1.993   1.008  11.338 -0.4465  0.5155 -1.6895
  164TMC2    C7 2558   1.750   0.927  11.243  0.6873  0.4117 -0.7285
  164TMC2    C8 2559   2.235   0.886  11.317  0.1698  0.1875  0.4839
  164TMC2    O1 2560   1.650   0.858  11.219 -0.5479 -0.0404 -0.1032
  164TMC2    O2 2561   2.270   1.000  11.292 -0.0729  0.5527  0.0705
  164TMC2    O5 2562   2.331   0.789  11.322 -0.5173  0.1175  0.0016
  164TMC2    H5 2563   2.296   0.705  11.359 -0.8625 -0.6798 -2.1018
  165TMC2    C1 2564   2.863   2.829   0.664 -0.3937 -0.5004 -0.1428
  165TMC2    C2 2565   2.916   2.709   0.619 -0.1539 -0.0872  0.2020
  165TMC2    C3 2566   3.053   2.691   0.636 -0.7652  0.0112  0.2075
  165TMC2    C4 2567   2.945   2.923   0.726 -0.4988 -1.1256  0.0078
  165TMC2    C5 2568   3.082   2.907   0.716  0.4772 -0.1762  0.0025
  165TMC2    C6 2569   3.137   2.799   0.662 -0.7995  0.3261 -0.7217
  165TMC2     C 2570   2.730   2.865   0.625  0.5161 -0.3447  0.5256
  165TMC2     O 2571   2.664   2.920   0.712 -0.0215  0.5404  0.0045
  165TMC2     H 2572   2.850   2.635   0.576  0.0622 -0.9452  1.3687
  165TMC2    H1 2573   2.896   3.006   0.775 -3.0505 -2.3750 -0.4242
  165TMC2    H2 2574   3.245   2.796   0.653 -0.7163 -1.5048  0.9513
  165TMC2    C7 2575   3.167   3.012   0.750  0.3238 -0.3226  0.3264
  165TMC2    C8 2576   3.124   2.579   0.569  0.1491 -0.0468  0.2619
  165TMC2    O1 2577   3.286   2.990   0.741  0.0666  0.0228  0.4931
  165TMC2    O2 2578   3.241   2.581   0.535  0.0950 -0.0013  0.2219
  165TMC2    O5 2579   3.056   2.466   0.617 -0.2794  0.6360 -0.4976
  165TMC2    H5 2580   2.972   2.493   0.661 -0.5693  1.2589 -1.4463
  166MPD2     C 2581   2.323   2.899   0.310 -0.1914  0.2568  0.4769
  166MPD2    C1 2582   2.358   2.960   0.430 -0.2885  0.1296 -0.3897
  166MPD2    C2 2583   2.481   2.943   0.486  0.0098  0.0844 -0.4855
  166MPD2    C3 2584   2.578   2.857   0.432  0.4635  0.3061  0.1630
  166MPD2    C4 2585   2.535   2.787   0.323 -0.2460 -0.5502  0.2013
  166MPD2    C5 2586   2.412   2.812   0.260 -0.5091  0.3294  0.9070
  166MPD2     H 2587   2.495   2.993   0.582 -0.2313  0.4275 -0.6277
  166MPD2    H1 2588   2.596   2.707   0.283  0.1495 -0.4702  0.6498
  166MPD2    H2 2589   2.226   2.897   0.262 -0.1337 -1.3582  0.4373
  166MPD2    H3 2590   2.384   2.742   0.182  0.2411  1.2891 -0.2181
  166MPD2     N 2591   2.702   2.825   0.491 -0.0563  0.7840 -0.0457
  166MPD2    H5 2592   2.769   2.769   0.439 -1.4617 -0.5662 -0.3785
  166MPD2    N1 2593   2.257   3.041   0.483 -1.1046 -0.1866  0.1569
  166MPD2    H7 2594   2.180   3.061   0.420 -0.3765  0.0050 -0.6686
  167TMC2    C1 2595   0.967   0.505  12.689 -0.1840  0.0794  0.1809
  167TMC2    C2 2596   0.890   0.502  12.800 -0.4939  1.0783  0.2491
  167TMC2    C3 2597   0.883   0.388  12.866 -0.7544 -1.0509  0.3255
  167TMC2    C4 2598   1.028   0.392  12.635  0.2204 -0.2709  0.2700
  167TMC2    C5 2599   1.011   0.275  12.706  0.5024  0.5504 -0.1533
  167TMC2    C6 2600   0.927   0.268  12.822 -0.0544  0.0158  1.0264
  167TMC2     C 2601   0.997   0.641  12.643  0.1246 -0.0213 -0.4260
  167TMC2     O 2602   0.934   0.736  12.690  0.0778 -0.0499 -0.1994
  167TMC2     H 2603   0.834   0.591  12.828  1.4494  1.4797  2.7472
  167TMC2    H1 2604   1.083   0.388  12.541  1.1645 -1.2409  0.8699
  167TMC2    H2 2605   0.905   0.182  12.885 -2.1276  0.0461  0.3235
  167TMC2    C7 2606   1.073   0.149  12.665  0.6327 -0.0711  0.3237
  167TMC2    C8 2607   0.822   0.374  12.998  0.2296 -0.6142 -0.9562
  167TMC2    O1 2608   1.028   0.057  12.734 -0.2691 -0.1205  0.0077
  167TMC2    O2 2609   0.769   0.269  13.036 -0.3503  0.1716 -0.1585
  167TMC2    O5 2610   0.815   0.492  13.049 -0.3781 -0.1407  0.0183
  167TMC2    H5 2611   0.888   0.556  13.032  0.2656 -0.1785  2.6814
  168MPD2     C 2612   1.070   0.856  12.451  0.0119  0.6242 -0.0918
  168MPD2    C1 2613   1.106   0.728  12.445 -0.0250 -0.2090 -1.0101
  168MPD2    C2 2614   1.168   0.681  12.332 -0.1607 -0.9362 -0.3940
  168MPD2    C3 2615   1.179   0.755  12.218  0.6267 -0.0752 -0.6251
  168MPD2    C4 2616   1.146   0.882  12.224 -0.0908 -0.7119 -0.2402
  168MPD2    C5 2617   1.095   0.936  12.341  0.2040  0.2705  0.4986
  168MPD2     H 2618   1.198   0.577  12.323 -0.5587 -1.2834  2.5111
  168MPD2    H1 2619   1.172   0.944  12.139  0.7069 -0.7042  0.0106
  168MPD2    H2 2620   1.020   0.901  12.537 -1.8300 -0.1561 -0.7440
  168MPD2    H3 2621   1.073   1.042  12.344  1.6983  0.5995 -0.1776
  168MPD2     N 2622   1.246   0.704  12.104 -0.3636  0.2072  0.1917
  168MPD2    H5 2623   1.244   0.754  12.015 -1.5186  1.7698  1.0935
  168MPD2    N1 2624   1.082   0.628  12.538 -0.0288  0.8963 -1.0470
  168MPD2    H7 2625   1.119   0.535  12.520 -0.0600  0.4594  1.2165
  169MPD1     C 2626   4.005   0.675   8.601  0.0637  0.0974 -0.0672
  169MPD1    C1 2627   4.117   0.612   8.644  0.6277 -0.5541 -1.0400
  169MPD1    C2 2628   4.102   0.489   8.705 -0.3517  0.2321  0.0256
  169MPD1    C3 2629   3.980   0.432   8.731 -0.4102 -0.3402  0.3707
  169MPD1    C4 2630   3.862   0.501   8.690 -0.1259 -0.3083 -1.0623
  169MPD1    C5 2631   3.883   0.616   8.625  0.6335  0.2696  0.2578
  169MPD1     H 2632   4.190   0.437   8.740 -0.1012  0.3653 -0.4155
  169MPD1    H1 2633   3.760   0.472   8.712  1.5689 -3.4684  2.6766
  169MPD1    H2 2634   4.011   0.776   8.560 -1.7429  0.3196  0.2206
  169MPD1    H3 2635   3.797   0.673   8.591  0.8816  0.4861 -0.0037
  169MPD1     N 2636   3.986   0.311   8.797 -0.1138  0.3037  0.9867
  169MPD1    H5 2637   4.078   0.276   8.822  1.4579  2.5795 -1.6384
  169MPD1    N1 2638   4.243   0.679   8.645 -0.3778 -0.5881 -0.3470
  169MPD1    H6 2639   4.317   0.615   8.673 -0.5425 -0.3085  0.7153
  169MPD1    H7 2640   4.269   0.720   8.555  0.2240 -1.7586 -0.7108
  170MPD1     C 2641   1.996   2.333  12.735  0.5580  0.1300  0.1125
  170MPD1    C1 2642   2.061   2.264  12.837  0.5355 -0.9475 -0.5489
  170MPD1    C2 2643   2.040   2.319  12.964  0.7341  0.1942  0.3479
  170MPD1    C3 2644   1.949   2.419  12.992  0.3965 -0.9082 -0.6306
  170MPD1    C4 2645   1.883   2.479  12.890  0.1816  0.0848 -0.5637
  170MPD1    C5 2646   1.905   2.437  12.759  0.0256  0.2976  0.4335
  170MPD1     H 2647   2.096   2.285  13.050 -0.5573  0.1975  1.1907
  170MPD1    H1 2648   1.814   2.559  12.913 -1.3460 -1.1195 -0.9822
  170MPD1    H2 2649   1.998   2.295  12.634 -0.4394  0.0051  0.1467
  170MPD1    H3 2650   1.842   2.484  12.684 -1.5565  0.4227  1.8514
  170MPD1     N 2651   1.940   2.455  13.130 -0.3457 -0.4201  0.2952
  170MPD1    H5 2652   1.975   2.393  13.203 -2.8812  2.0590  3.6088
  170MPD1    N1 2653   2.171   2.181  12.818  0.3721 -0.4139  0.6487
  170MPD1    H6 2654   2.184   2.150  12.722 -1.4209 -2.2946  1.0103
  170MPD1    H7 2655   2.182   2.104  12.885 -2.2405 -1.6326 -0.3288
  171MPD1     C 2656   0.856   3.904  15.227 -0.2528  0.9981 -0.1713
  171MPD1    C1 2657   0.906   3.783  15.180 -0.6587 -0.1660  0.4664
  171MPD1    C2 2658   0.914   3.678  15.267  0.5287  0.7994 -0.6261
  171MPD1    C3 2659   0.878   3.692  15.403 -0.3484 -0.3264  0.5160
  171MPD1    C4 2660   0.829   3.810  15.444 -0.6092  0.7803  0.0321
  171MPD1    C5 2661   0.819   3.917  15.355 -0.1923  0.2552  0.2154
  171MPD1     H 2662   0.948   3.579  15.237 -1.1788  0.1756 -0.5492
  171MPD1    H1 2663   0.809   3.831  15.548 -2.4686  3.1341 -0.7840
  171MPD1    H2 2664   0.834   3.990  15.166 -2.0772  0.1581 -0.6968
  171MPD1    H3 2665   0.772   4.008  15.390  1.6073  0.5852  1.7895
  171MPD1     N 2666   0.884   3.586  15.497 -0.2522  0.4860  0.0369
  171MPD1    H5 2667   0.895   3.617  15.593 -2.6828 -1.0317  0.7764
  171MPD1    N1 2668   0.909   3.761  15.040  0.2125  0.7975 -0.1830
  171MPD1    H6 2669   0.988   3.701  15.017 -2.4930 -2.6897 -0.4068
  171MPD1    H7 2670   0.922   3.847  14.988  1.1337  0.7897  0.0379
  172MPD1     C 2671   0.416   2.885  17.235  0.1002 -0.3562  0.1649
  172MPD1    C1 2672   0.341   3.001  17.240 -0.3370 -0.1739  0.1923
  172MPD1    C2 2673   0.309   3.057  17.367 -0.2293  0.0272  0.4350
  172MPD1    C3 2674   0.327   2.976  17.478  0.3051  0.1239 -0.1429
  172MPD1    C4 2675   0.377   2.848  17.472  0.3873 -0.5490 -0.4478
  172MPD1    C5 2676   0.431   2.811  17.354 -0.0275 -0.0092  0.5440
  172MPD1     H 2677   0.260   3.154  17.367 -2.3085 -1.0178 -0.8159
  172MPD1    H1 2678   0.396   2.789  17.561  0.5121  1.0816  0.6164
  172MPD1    H2 2679   0.464   2.840  17.149 -2.6414 -0.3166 -1.3946
  172MPD1    H3 2680   0.484   2.717  17.346  0.2885  0.2204 -0.0597
  172MPD1     N 2681   0.289   3.022  17.608 -0.3556 -0.1758 -0.4270
  172MPD1    H5 2682   0.313   2.962  17.686  0.5828  2.7820  1.5478
  172MPD1    N1 2683   0.339   3.084  17.131 -0.0796  0.6054 -0.0939
  172MPD1    H6 2684   0.343   3.016  17.055  0.1680  1.1403 -0.5596
  172MPD1    H7 2685   0.259   3.147  17.125 -0.2786  0.1998 -1.6675
  173MPD1     C 2686   1.937   3.509  14.160  0.6018 -0.0759 -1.0126
  173MPD1    C1 2687   1.818   3.449  14.127  0.1541  0.2654  0.4661
  173MPD1    C2 2688   1.807   3.309  14.131  0.8574  0.2803  0.5640
  173MPD1    C3 2689   1.914   3.234  14.183 -0.3516 -0.4071  0.0754
  173MPD1    C4 2690   2.030   3.299  14.205 -0.1132  0.0865 -0.7708
  173MPD1    C5 2691   2.047   3.436  14.206 -0.1297 -0.5207 -0.4926
  173MPD1     H 2692   1.712   3.262  14.105  1.2454  0.3623 -1.0214
  173MPD1    H1 2693   2.122   3.250  14.235  0.9960  1.2086 -2.2788
  173MPD1    H2 2694   1.936   3.616  14.172  0.6193 -0.3153  1.0355
  173MPD1    H3 2695   2.141   3.485  14.228 -0.3134  0.6536 -2.3079
  173MPD1     N 2696   1.897   3.099  14.207  0.5223  0.0359 -0.0483
  173MPD1    H5 2697   1.803   3.065  14.192  0.0269  0.3105  2.3086
  173MPD1    N1 2698   1.713   3.519  14.067  0.0679  0.3444  0.0528
  173MPD1    H6 2699   1.621   3.478  14.082 -0.3753  1.1630 -0.4139
  173MPD1    H7 2700   1.707   3.618  14.089  0.1046  0.1822  0.7918
  174MPD1     C 2701   2.446   2.431  14.730 -0.3441  0.4885 -0.1053
  174MPD1    C1 2702   2.319   2.383  14.747 -0.4468  0.0401  0.3584
  174MPD1    C2 2703   2.218   2.446  14.680 -0.3991 -0.1567  0.3549
  174MPD1    C3 2704   2.241   2.544  14.581 -0.0385  0.1088 -0.3076
  174MPD1    C4 2705   2.374   2.580  14.561  0.5424  0.0593  0.0807
  174MPD1    C5 2706   2.471   2.522  14.634  0.4491 -0.1359 -0.2249
  174MPD1     H 2707   2.117   2.422  14.714 -1.1565  0.7381 -1.2500
  174MPD1    H1 2708   2.394   2.666  14.499  2.5622 -0.0019  0.6394
  174MPD1    H2 2709   2.524   2.400  14.799 -0.9610 -1.9234 -0.4822
  174MPD1    H3 2710   2.573   2.558  14.626  0.3293  0.6900  2.0511
  174MPD1     N 2711   2.141   2.615  14.509  0.8862  0.2866  0.1544
  174MPD1    H5 2712   2.163   2.661  14.422 -0.9699  1.8247  0.4945
  174MPD1    N1 2713   2.291   2.311  14.861  0.2895 -0.3277 -0.0882
  174MPD1    H6 2714   2.224   2.235  14.857  0.2227 -0.2367 -0.6344
  174MPD1    H7 2715   2.371   2.263  14.902  0.6333  0.3687  0.0584
  175MPD1     C 2716   4.610   3.789  15.319 -0.3750 -1.0046 -0.1117
  175MPD1    C1 2717   4.481   3.800  15.366 -0.1634 -0.1943 -0.4239
  175MPD1    C2 2718   4.449   3.757  15.495 -0.2005 -0.0492 -1.0998
  175MPD1    C3 2719   4.546   3.696  15.572 -0.7528 -0.1243  0.9615
  175MPD1    C4 2720   4.672   3.690  15.522 -0.8052 -0.1387 -0.7255
  175MPD1    C5 2721   4.705   3.732  15.395  0.1394 -0.0636  0.7293
  175MPD1     H 2722   4.348   3.768  15.532  0.1350 -1.3874  0.2431
  175MPD1    H1 2723   0.008   3.645  15.586 -0.5109 -1.3275 -1.9191
  175MPD1    H2 2724   4.642   3.837  15.227 -0.3870 -1.2439 -0.2398
  175MPD1    H3 2725   0.069   3.721  15.363 -0.0071 -1.5960  0.7794
  175MPD1     N 2726   4.528   3.639  15.701  0.1560 -0.2788 -0.4916
  175MPD1    H5 2727   4.612   3.600  15.743 -0.1563 -1.3610 -0.8553
  175MPD1    N1 2728   4.397   3.883  15.293  0.1227 -0.3245  0.0238
  175MPD1    H6 2729   4.426   3.876  15.195 -1.2741  0.3157 -0.4384
  175MPD1    H7 2730   4.302   3.847  15.300  0.1250 -0.5441 -1.0155
  176MPD1     C 2731   1.262   1.217   0.189 -0.1328  0.4997  0.0400
  176MPD1    C1 2732   1.248   1.299   0.079  0.1116 -0.0466  0.2359
  176MPD1    C2 2733   1.347   1.391   0.047 -0.9654  0.4144  0.4194
  176MPD1    C3 2734   1.460   1.407   0.127  0.8406  0.4827 -0.3083
  176MPD1    C4 2735   1.474   1.318   0.234  0.1573 -0.0636 -0.2493
  176MPD1    C5 2736   1.372   1.229   0.266 -0.5584  0.3037  0.4627
  176MPD1     H 2737   1.336   1.461  17.720 -0.9233  2.9204  2.5322
  176MPD1    H1 2738   1.555   1.335   0.304  0.3915 -2.2117 -0.0006
  176MPD1    H2 2739   1.186   1.150   0.227 -2.1981  2.6053 -0.3961
  176MPD1    H3 2740   1.387   1.154   0.343  0.3196 -1.0048 -0.9884
  176MPD1     N 2741   1.552   1.509   0.091  0.2157  0.0661 -0.5212
  176MPD1    H5 2742   1.538   1.565   0.008  0.9254  2.0457  0.6930
  176MPD1    N1 2743   1.120   1.315   0.024 -0.5038 -0.2749 -0.3819
  176MPD1    H6 2744   1.058   1.235   0.020 -0.0324 -0.6325 -0.5172
  176MPD1    H7 2745   1.129   1.351  17.684  0.8047 -0.5045 -0.3419
  177MPD1     C 2746   0.042   1.316   9.954 -0.5468 -0.0667 -0.0141
  177MPD1    C1 2747   4.721   1.426   9.902  0.1585  0.2450  0.3751
  177MPD1    C2 2748   4.590   1.408   9.849 -0.0441 -0.7219 -0.3441
  177MPD1    C3 2749   4.519   1.290   9.863 -0.3878  0.3862  0.0022
  177MPD1    C4 2750   4.586   1.184   9.925 -0.2670  0.4167  0.3849
  177MPD1    C5 2751   4.717   1.196   9.964 -0.0529  0.2827  0.0422
  177MPD1     H 2752   4.533   1.484   9.797  1.2575  0.1876 -0.4401
  177MPD1    H1 2753   4.541   1.086   9.935  2.1258 -0.7078  0.0140
  177MPD1    H2 2754   0.146   1.318   9.983 -0.8517 -0.1910  1.1038
  177MPD1    H3 2755   0.025   1.108  10.006  1.5460  0.9216 -0.3841
  177MPD1     N 2756   4.391   1.287   9.802 -0.4235 -0.6842 -0.1840
  177MPD1    H5 2757   4.354   1.371   9.758  0.1002 -0.8193 -0.8878
  177MPD1    N1 2758   0.058   1.539   9.868 -1.3518  0.1969  0.4187
  177MPD1    H6 2759   4.733   1.618   9.860 -2.9893 -1.0126  1.5074
  177MPD1    H7 2760   0.133   1.557   9.935  1.3897 -2.2937 -2.0099
  178MPD1     C 2761   1.957   1.398   0.023 -0.0673  0.7214 -0.5050
  178MPD1    C1 2762   2.042   1.512   0.026 -0.0962  1.0245 -0.0429
  178MPD1    C2 2763   2.107   1.550  17.663 -0.1987  0.1388  0.0815
  178MPD1    C3 2764   2.073   1.488  17.542  0.6290  0.0391  0.5950
  178MPD1    C4 2765   1.968   1.399  17.534  0.4636 -0.0878  0.4756
  178MPD1    C5 2766   1.927   1.341  17.653  0.3616  0.3383  0.3404
  178MPD1     H 2767   2.190   1.619  17.673 -0.1349  0.6326 -4.1355
  178MPD1    H1 2768   1.940   1.350  17.441 -0.2294  2.7403 -0.7889
  178MPD1    H2 2769   1.926   1.354   0.118 -0.1125  3.2675  0.6603
  178MPD1    H3 2770   1.871   1.249  17.661  1.4982 -0.3751  0.1788
  178MPD1     N 2771   2.130   1.516  17.417  0.0416  0.2736  0.2671
  178MPD1    H5 2772   2.092   1.466  17.337 -1.2135 -1.0262  1.6539
  178MPD1    N1 2773   2.090   1.575   0.141 -0.4933  0.3791 -0.5711
  178MPD1    H6 2774   2.015   1.594   0.208 -0.1128  0.7130 -0.2431
  178MPD1    H7 2775   2.135   1.659   0.106  3.2299 -0.3706  2.4199
  179MPD1     C 2776   1.694   0.528  15.918 -0.1290 -0.3716 -0.0545
  179MPD1    C1 2777   1.696   0.481  15.790 -0.1439  0.0952 -0.3386
  179MPD1    C2 2778   1.707   0.342  15.773 -0.3794 -0.3881 -0.7251
  179MPD1    C3 2779   1.700   0.258  15.879 -0.2083  0.6314 -0.5481
  179MPD1    C4 2780   1.705   0.312  16.008  0.1256 -0.2303 -0.7953
  179MPD1    C5 2781   1.695   0.446  16.025 -0.1276  0.1214  0.4065
  179MPD1     H 2782   1.716   0.306  15.671 -0.3345  0.1833 -0.9241
  179MPD1    H1 2783   1.702   0.248  16.095 -0.3985 -0.5829 -1.0731
  179MPD1    H2 2784   1.685   0.635  15.930 -0.1047 -0.5004  1.1087
  179MPD1    H3 2785   1.676   0.483  16.125 -1.2596 -0.8329  0.5493
  179MPD1     N 2786   1.691   0.116  15.875 -0.5416  0.1053 -0.1597
  179MPD1    H5 2787   1.708   0.070  15.964 -2.4612 -0.6379 -0.1753
  179MPD1    N1 2788   1.732   0.572  15.691  1.2647  0.0549  0.1665
  179MPD1    H6 2789   1.711   0.533  15.599  1.4638 -1.3070  0.6941
  179MPD1    H7 2790   1.692   0.664  15.705  3.3025  1.2063 -1.7125
  180MPD1     C 2791   1.630   0.778  15.131 -0.1352 -0.6955 -0.0277
  180MPD1    C1 2792   1.723   0.858  15.062  0.3404 -0.3269 -0.1605
  180MPD1    C2 2793   1.676   0.918  14.950 -0.4719  0.2925 -0.1512
  180MPD1    C3 2794   1.546   0.924  14.911  0.6352  0.2928 -0.8191
  180MPD1    C4 2795   1.457   0.857  14.990 -0.5907  0.1504 -0.0241
  180MPD1    C5 2796   1.498   0.796  15.103  0.7080  0.5479 -0.1734
  180MPD1     H 2797   1.763   0.953  14.897 -0.4552  0.3225 -0.1042
  180MPD1    H1 2798   1.354   0.852  14.956 -1.1187 -1.8846  1.8406
  180MPD1    H2 2799   1.657   0.721  15.220 -1.8302 -1.3193  0.0835
  180MPD1    H3 2800   1.426   0.740  15.161  0.3040 -1.6573 -2.8015
  180MPD1     N 2801   1.515   0.995  14.795  0.4560 -0.5592 -0.5622
  180MPD1    H5 2802   1.601   1.011  14.743 -0.7143 -1.1246 -2.6960
  180MPD1    N1 2803   1.867   0.847  15.090 -0.3464  0.4976  0.0130
  180MPD1    H6 2804   1.872   0.857  15.191 -0.0390  2.1843 -0.1726
  180MPD1    H7 2805   1.930   0.913  15.047 -1.1675  1.0342 -0.3624
  181MPD1     C 2806   3.445   4.283   9.591 -0.0537 -0.4558 -0.7527
  181MPD1    C1 2807   3.551   4.316   9.677 -0.5254 -0.5827  0.3175
  181MPD1    C2 2808   3.571   4.227   9.782  0.5427  0.3108  0.3354
  181MPD1    C3 2809   3.486   4.125   9.817  0.2659  0.1199  0.8400
  181MPD1    C4 2810   3.374   4.109   9.731 -0.0267 -0.1599 -0.3594
  181MPD1    C5 2811   3.352   4.196   9.628  0.4809 -0.2207  0.8396
  181MPD1     H 2812   3.666   4.229   9.835 -0.1086 -0.0480  1.5232
  181MPD1    H1 2813   3.294   4.038   9.745 -1.3717  1.7406  1.5220
  181MPD1    H2 2814   3.424   4.345   9.505  4.3653 -2.3350 -3.1388
  181MPD1    H3 2815   3.260   4.182   9.574  2.1019 -0.7567 -1.7524
  181MPD1     N 2816   3.502   4.025   9.918  0.5284 -0.1419 -0.2089
  181MPD1    H5 2817   3.441   3.944   9.920 -0.8980  0.9515  0.4801
  181MPD1    N1 2818   3.645   4.407   9.636 -0.7611 -0.0345 -0.1016
  181MPD1    H6 2819   3.695   4.440   9.718 -1.6282 -0.6161  0.6550
  181MPD1    H7 2820   3.592   4.488   9.604  2.6435  1.6053 -1.5954
  182MPD1     C 2821   4.529   2.800   0.842 -0.1616 -0.3703  0.8349
  182MPD1    C1 2822   4.534   2.766   0.706  0.6011 -0.3764 -0.1005
  182MPD1    C2 2823   4.428   2.699   0.648 -0.2647  0.0941 -0.2223
  182MPD1    C3 2824   4.315   2.669   0.713  0.0971 -0.3625  0.1124
  182MPD1    C4 2825   4.305   2.708   0.848  0.0367 -0.2544 -0.5782
  182MPD1    C5 2826   4.415   2.767   0.914  0.1552 -0.5580 -0.9603
  182MPD1     H 2827   4.431   2.657   0.548  0.3210 -1.2559  0.3544
  182MPD1    H1 2828   4.210   2.700   0.899 -1.1801  1.1102 -2.6270
  182MPD1    H2 2829   4.607   2.847   0.901  0.3652 -0.1003 -0.0851
  182MPD1    H3 2830   4.413   2.799   1.017 -0.0985  0.7531 -1.3653
  182MPD1     N 2831   4.210   2.585   0.676 -0.6941 -0.3064 -0.6060
  182MPD1    H5 2832   4.136   2.567   0.743  0.5118  1.2192  1.1385
  182MPD1    N1 2833   4.656   2.776   0.639  0.1401  0.1960  0.4359
  182MPD1    H6 2834   4.706   2.855   0.679  1.1220 -0.1552 -0.1098
  182MPD1    H7 2835   4.644   2.800   0.541  0.6069  0.0608  0.3490
  183MPD1     C 2836   4.150   2.971   8.654 -0.9057 -0.2513  0.2313
  183MPD1    C1 2837   4.053   3.067   8.650 -0.0921  0.1854  0.2411
  183MPD1    C2 2838   3.998   3.091   8.775  0.6355 -0.0799  0.3953
  183MPD1    C3 2839   4.037   3.038   8.893 -0.2183 -0.1703  0.1228
  183MPD1    C4 2840   4.142   2.950   8.888  0.0752  0.5621  0.0843
  183MPD1    C5 2841   4.198   2.922   8.770  0.2221 -0.0036  0.4650
  183MPD1     H 2842   3.915   3.161   8.776  1.0878  0.4929 -1.3509
  183MPD1    H1 2843   4.185   2.909   8.978 -0.9485  1.2454  0.8895
  183MPD1    H2 2844   4.204   2.936   8.566 -1.1463 -1.0483  0.3941
  183MPD1    H3 2845   4.284   2.856   8.777  0.4582  0.1301 -1.2410
  183MPD1     N 2846   3.973   3.086   9.007  0.5433  0.3723 -0.0335
  183MPD1    H5 2847   3.917   3.172   9.007 -1.4572 -0.9295  0.9367
  183MPD1    N1 2848   3.995   3.110   8.529  0.4201 -0.1795 -0.1927
  183MPD1    H6 2849   3.921   3.179   8.535  1.1690  0.5807  0.1861
  183MPD1    H7 2850   4.050   3.124   8.444  1.7080  0.3117  0.7186
  184MPD1     C 2851   3.341   0.254   9.796 -0.5951 -0.1958 -0.1158
  184MPD1    C1 2852   3.442   0.304   9.867 -0.0752 -0.2638  0.4797
  184MPD1    C2 2853   3.477   0.436   9.832 -0.3768 -0.3480 -0.1756
  184MPD1    C3 2854   3.400   0.513   9.750 -0.5895 -0.5027  0.7619
  184MPD1    C4 2855   3.293   0.456   9.689 -0.2529  0.7815  0.1251
  184MPD1    C5 2856   3.259   0.329   9.716 -0.0578 -0.1386  0.6385
  184MPD1     H 2857   3.577   0.469   9.859 -0.2551 -0.5878 -0.3378
  184MPD1    H1 2858   3.227   0.506   9.618  0.8510  1.4359 -0.4427
  184MPD1    H2 2859   3.320   0.148   9.794 -0.7274 -0.1615 -0.5131
  184MPD1    H3 2860   3.184   0.272   9.664  0.7820 -1.1574  0.5296
  184MPD1     N 2861   3.431   0.641   9.707  0.2763  0.0301 -0.0134
  184MPD1    H5 2862   3.361   0.680   9.644  0.5964 -3.0277 -2.2401
  184MPD1    N1 2863   3.528   0.214   9.932  0.8029 -0.1802 -0.6595
  184MPD1    H6 2864   3.472   0.133   9.959  0.0664  0.4589 -0.2576
  184MPD1    H7 2865   3.576   0.251  10.014 -1.5568  1.2174  0.1220
  185MPD1     C 2866   3.251   1.304   8.989  0.2048  0.4771 -0.8817
  185MPD1    C1 2867   3.213   1.185   9.038  0.3317 -0.1575  0.1112
  185MPD1    C2 2868   3.277   1.136   9.152 -0.8722  0.0019 -0.1420
  185MPD1    C3 2869   3.385   1.193   9.215 -0.1147  0.4134  0.2612
  185MPD1    C4 2870   3.425   1.320   9.167 -0.1407 -0.3633  0.2403
  185MPD1    C5 2871   3.355   1.371   9.057  0.6136 -0.2085 -0.2935
  185MPD1     H 2872   3.234   1.045   9.192  1.6798 -1.6842 -1.2123
  185MPD1    H1 2873   3.492   1.387   9.219 -0.8244  0.1241  0.4857
  185MPD1    H2 2874   3.185   1.361   8.924  0.8109  0.7873 -1.2247
  185MPD1    H3 2875   3.375   1.473   9.026 -1.1245  0.5201  1.0365
  185MPD1     N 2876   3.449   1.130   9.325  0.2014 -0.0517 -0.0428
  185MPD1    H5 2877   3.526   1.185   9.363  0.1455  0.8474 -1.1964
  185MPD1    N1 2878   3.099   1.118   8.987 -0.0389 -0.2999  0.3178
  185MPD1    H6 2879   3.107   1.120   8.886 -1.8055  0.5036  0.1978
  185MPD1    H7 2880   3.107   1.019   9.011  0.8198 -0.7438 -1.8204
  186MPD1     C 2881   2.111   0.106  15.587  0.0340  0.0574  0.0688
  186MPD1    C1 2882   2.216   0.156  15.662  0.0299 -0.3536  0.2357
  186MPD1    C2 2883   2.200   0.287  15.708  0.3518 -0.3222 -0.8632
  186MPD1    C3 2884   2.086   0.361  15.677 -0.2671  0.0299 -0.0222
  186MPD1    C4 2885   1.987   0.304  15.608  0.6722 -0.2674 -0.1315
  186MPD1    C5 2886   1.999   0.177  15.564  0.1347 -0.5122  0.0972
  186MPD1     H 2887   2.277   0.321  15.777  0.0647 -0.5343 -0.4390
  186MPD1    H1 2888   1.903   0.360  15.570  1.6208  1.2760  0.0572
  186MPD1    H2 2889   2.116   0.001  15.558 -0.2540  0.1282 -0.2336
  186MPD1    H3 2890   1.915   0.130  15.514 -1.4037  2.0490  0.2553
  186MPD1     N 2891   2.071   0.494  15.720  0.1382 -0.0060 -0.0389
  186MPD1    H5 2892   1.976   0.523  15.700  0.1844  0.4930  0.4670
  186MPD1    N1 2893   2.319   0.075  15.712  0.6089 -0.7017  0.8058
  186MPD1    H6 2894   2.396   0.137  15.736  1.5172 -1.2183 -0.8189
  186MPD1    H7 2895   2.343   4.736  15.652 -0.6795  0.0168 -0.6642
  187MPD1     C 2896   2.138   2.546   0.107  0.0165 -0.4576  0.8897
  187MPD1    C1 2897   2.075   2.423   0.113 -0.2096 -0.4034 -0.9755
  187MPD1    C2 2898   2.040   2.357  17.752 -0.2519  0.8165  0.5484
  187MPD1    C3 2899   2.078   2.406  17.624 -0.8259 -0.4701 -0.4819
  187MPD1    C4 2900   2.142   2.528  17.617  0.4974 -0.7230 -0.0120
  187MPD1    C5 2901   2.167   2.592  17.733 -0.2897 -0.2802  0.6133
  187MPD1     H 2902   1.977   2.270   0.005 -0.4460  0.7432 -1.7680
  187MPD1    H1 2903   2.172   2.590  17.532  1.4044 -1.6711 -0.3812
  187MPD1    H2 2904   2.160   2.600   0.198 -1.2554 -0.3116  1.1182
  187MPD1    H3 2905   2.198   2.695  17.720 -0.1274 -0.5347 -0.9830
  187MPD1     N 2906   2.031   2.352  17.497 -0.1731 -0.4449 -0.4235
  187MPD1    H5 2907   2.047   2.414  17.418  2.9235 -0.1348  0.4308
  187MPD1    N1 2908   2.025   2.368   0.238  0.3253 -0.3677 -0.2938
  187MPD1    H6 2909   2.015   2.267   0.240 -1.1192 -0.2268 -0.1217
  187MPD1    H7 2910   2.077   2.407   0.316 -1.3835  0.6557  0.3357
  188MPD1     C 2911   1.130   2.017  10.589  0.6259 -0.1929 -0.2635
  188MPD1    C1 2912   1.038   1.918  10.623 -0.0364  0.0685  0.1011
  188MPD1    C2 2913   1.065   1.790  10.571 -0.2065  0.5648 -0.2021
  188MPD1    C3 2914   1.158   1.781  10.471 -0.4810 -0.3411  0.3988
  188MPD1    C4 2915   1.232   1.887  10.415 -0.7919 -0.3343 -0.3740
  188MPD1    C5 2916   1.217   2.006  10.482 -0.4140 -0.1870 -0.2596
  188MPD1     H 2917   1.017   1.709  10.624 -0.5812 -0.3325 -1.9228
  188MPD1    H1 2918   1.294   1.877  10.327 -1.6609 -0.0856 -1.0192
  188MPD1    H2 2919   1.134   2.110  10.646  1.6889  0.8301 -2.0107
  188MPD1    H3 2920   1.268   2.100  10.462 -1.5927  0.7950  1.2935
  188MPD1     N 2921   1.174   1.650  10.423 -0.0665  0.2900  0.1125
  188MPD1    H5 2922   1.115   1.572  10.449  0.8224 -0.9056 -1.3811
  188MPD1    N1 2923   0.951   1.933  10.730  0.0702  0.0647  0.2562
  188MPD1    H6 2924   0.876   1.865  10.731  1.5738 -1.5760  1.7935
  188MPD1    H7 2925   0.908   2.025  10.723 -1.0642 -0.6523 -2.2428
  189MPD1     C 2926   3.729   3.219   0.072 -0.7044  0.6305  0.1386
  189MPD1    C1 2927   3.677   3.333   0.019  0.1349 -0.1626  1.3351
  189MPD1    C2 2928   3.552   3.320  17.715  0.4407 -0.5829 -0.2460
  189MPD1    C3 2929   3.484   3.202  17.710  0.1361 -0.1827 -0.4007
  189MPD1    C4 2930   3.553   3.088  17.744 -0.0883  0.7849  0.0277
  189MPD1    C5 2931   3.673   3.101   0.048  0.6342 -0.4441 -0.5608
  189MPD1     H 2932   3.499   3.413  17.698 -1.5237 -1.7222 -0.3919
  189MPD1    H1 2933   3.511   2.988  17.745  0.4727  0.5388 -1.1428
  189MPD1    H2 2934   3.829   3.218   0.114 -0.0618 -1.4613 -1.4622
  189MPD1    H3 2935   3.731   3.023   0.096  0.1445 -0.3222  0.2256
  189MPD1     N 2936   3.348   3.211  17.676 -0.1879  0.2987  0.0034
  189MPD1    H5 2937   3.307   3.302  17.662  0.6372  0.4591 -1.3951
  189MPD1    N1 2938   3.727   3.461   0.051 -0.1059 -0.2203 -0.1729
  189MPD1    H6 2939   3.828   3.462   0.058 -0.2115  2.1681  0.7459
  189MPD1    H7 2940   3.706   3.520  17.726  1.0041 -0.9963 -1.0510
  190MPD1     C 2941   1.565   1.601  15.370  0.2947 -0.1346 -0.0894
  190MPD1    C1 2942   1.607   1.539  15.486 -0.3082  0.5916 -0.3762
  190MPD1    C2 2943   1.741   1.530  15.503  0.3992 -0.7403  0.8805
  190MPD1    C3 2944   1.837   1.591  15.421  0.1358  0.0727  0.7266
  190MPD1    C4 2945   1.793   1.647  15.305  0.5178  0.2052  0.5992
  190MPD1    C5 2946   1.658   1.652  15.285  0.0720  0.1878 -0.2976
  190MPD1     H 2947   1.780   1.475  15.588 -2.3406  0.2757  2.8253
  190MPD1    H1 2948   1.860   1.689  15.231 -1.0858  0.3536 -0.7664
  190MPD1    H2 2949   1.465   1.617  15.332  0.5500  1.9221  0.0870
  190MPD1    H3 2950   1.620   1.705  15.199 -3.0727  1.3090  1.7607
  190MPD1     N 2951   1.970   1.580  15.458  0.6045  1.0148 -0.2422
  190MPD1    H5 2952   1.983   1.539  15.550  2.3310  1.3485 -0.3416
  190MPD1    N1 2953   1.520   1.471  15.571  0.0363  0.2149 -0.2725
  190MPD1    H6 2954   1.545   1.480  15.669  0.1651 -0.5163 -0.2386
  190MPD1    H7 2955   1.423   1.496  15.553 -0.7234 -2.3871  0.2145
  191MPD1     C 2956   0.773   4.372  12.407 -0.3505  0.6049 -0.8362
  191MPD1    C1 2957   0.904   4.400  12.440 -0.5744 -0.6346 -0.5143
  191MPD1    C2 2958   0.991   4.309  12.390  0.4839 -0.0376 -0.1464
  191MPD1    C3 2959   0.956   4.201  12.313  0.2520 -0.2465 -0.2678
  191MPD1    C4 2960   0.822   4.175  12.285 -0.7027 -0.0986  0.0504
  191MPD1    C5 2961   0.732   4.255  12.344  0.5320 -0.6230 -0.0889
  191MPD1     H 2962   1.097   4.331  12.401  0.5815 -1.9915  2.5914
  191MPD1    H1 2963   0.785   4.091  12.227  0.8750 -1.0205  0.3819
  191MPD1    H2 2964   0.691   4.427  12.451 -1.4620 -2.4595  0.8986
  191MPD1    H3 2965   0.625   4.248  12.327  0.4747  0.0271 -0.0157
  191MPD1     N 2966   1.059   4.111  12.277  0.1451 -0.1363 -0.0319
  191MPD1    H5 2967   1.153   4.141  12.304 -0.1237 -0.5318  1.3506
  191MPD1    N1 2968   0.942   4.488  12.542  0.0928  0.3461 -0.0446
  191MPD1    H6 2969   1.041   4.513  12.547 -0.0138  0.5173  1.3976
  191MPD1    H7 2970   0.875   4.560  12.566 -0.1265 -0.6465  2.3530
  192MPD1     C 2971   1.800   3.757  11.626  0.8152 -0.0756 -0.4511
  192MPD1    C1 2972   1.746   3.880  11.658  0.7277  0.2151 -0.2547
  192MPD1    C2 2973   1.661   3.888  11.764 -0.2678  0.2962 -0.3397
  192MPD1    C3 2974   1.606   3.777  11.833 -0.0995 -0.7637 -0.9288
  192MPD1    C4 2975   1.659   3.657  11.790 -0.4751 -0.3208 -0.2733
  192MPD1    C5 2976   1.741   3.647  11.682  1.0277 -0.4955  0.6141
  192MPD1     H 2977   1.628   3.985  11.800 -1.5562  0.3004 -1.5148
  192MPD1    H1 2978   1.637   3.565  11.842  0.4100 -1.4258 -1.8521
  192MPD1    H2 2979   1.883   3.756  11.557  1.2930 -0.1117  0.1282
  192MPD1    H3 2980   1.791   3.553  11.661 -1.2533 -1.4640 -0.4917
  192MPD1     N 2981   1.517   3.785  11.943 -0.2665 -0.3874  0.4504
  192MPD1    H5 2982   1.490   3.697  11.985 -0.6836 -0.6208 -0.3038
  192MPD1    N1 2983   1.803   3.995  11.607  0.2918 -0.4280 -0.0028
  192MPD1    H6 2984   1.842   3.996  11.513  1.4952  0.6786  0.5028
  192MPD1    H7 2985   1.740   4.074  11.597 -0.4996 -1.0933 -0.2306
  193MPD1     C 2986   0.540   3.370  16.154 -0.0019 -0.7992  0.3161
  193MPD1    C1 2987   0.491   3.488  16.207 -0.5412 -0.5994 -0.3769
  193MPD1    C2 2988   0.581   3.564  16.277  0.5575 -0.0268  0.2894
  193MPD1    C3 2989   0.712   3.531  16.292  0.5516  0.4289 -0.1697
  193MPD1    C4 2990   0.759   3.408  16.238  0.3340  0.2079  0.9819
  193MPD1    C5 2991   0.670   3.330  16.170  0.0799  0.5328 -0.2069
  193MPD1     H 2992   0.541   3.655  16.320 -0.3502  0.6372 -1.9729
  193MPD1    H1 2993   0.859   3.372  16.254 -0.8300 -2.4284  2.2487
  193MPD1    H2 2994   0.473   3.305  16.098 -1.3251 -1.4707  2.6707
  193MPD1    H3 2995   0.705   3.242  16.118 -1.5309 -2.7076  4.2591
  193MPD1     N 2996   0.804   3.605  16.369 -0.5903 -0.0740  0.5425
  193MPD1    H5 2997   0.896   3.562  16.373 -1.2395 -1.5540 -0.2977
  193MPD1    N1 2998   0.368   3.541  16.169 -0.2604  0.4865 -0.0185
  193MPD1    H6 2999   0.339   3.596  16.249 -1.2271 -0.1991  0.0952
  193MPD1    H7 3000   0.305   3.461  16.162 -0.5030  0.6019  0.9286
  194MPD1     C 3001   3.196   1.234  16.977 -0.9690  0.1979  0.0612
  194MPD1    C1 3002   3.225   1.179  16.856  0.7030 -0.3323 -0.7900
  194MPD1    C2 3003   3.268   1.053  16.853  0.0887 -0.0888  0.3925
  194MPD1    C3 3004   3.294   0.979  16.967 -0.0302 -0.6107  0.6927
  194MPD1    C4 3005   3.270   1.037  17.089 -0.9473  0.2080  0.1941
  194MPD1    C5 3006   3.223   1.166  17.095 -0.6171  0.8656 -0.3322
  194MPD1     H 3007   3.291   1.014  16.755  0.3201 -0.7916  0.7344
  194MPD1    H1 3008   3.292   0.981  17.179 -1.6887 -0.9354 -0.3324
  194MPD1    H2 3009   3.154   1.331  16.998  2.0364  1.6138 -0.3770
  194MPD1    H3 3010   3.201   1.210  17.191  2.5095 -0.5208  0.9979
  194MPD1     N 3011   3.350   0.851  16.962  0.5202  0.1859  0.0810
  194MPD1    H5 3012   3.364   0.823  17.058  0.8660 -0.8818 -0.2850
  194MPD1    N1 3013   3.197   1.250  16.735  0.4175 -0.1399  0.4486
  194MPD1    H6 3014   3.157   1.191  16.662 -1.2437 -0.4152  1.5866
  194MPD1    H7 3015   3.139   1.333  16.743 -0.6554 -0.7541 -0.8699
  195MPD1     C 3016   1.112   2.984   1.084  0.4309  0.1160  0.3006
  195MPD1    C1 3017   1.008   2.911   1.034 -0.9172  0.0316 -0.4598
  195MPD1    C2 3018   1.032   2.836   0.923  0.5389  0.5987  0.9432
  195MPD1    C3 3019   1.158   2.799   0.877 -0.2453 -0.8691 -0.8841
  195MPD1    C4 3020   1.265   2.865   0.939  0.2215 -0.0619  0.7542
  195MPD1    C5 3021   1.231   2.962   1.028  0.2149 -0.2731 -0.5729
  195MPD1     H 3022   0.936   2.806   0.880  1.4154  0.6473 -1.0445
  195MPD1    H1 3023   1.370   2.854   0.916  0.3135  0.7742  0.7721
  195MPD1    H2 3024   1.102   3.049   1.171 -1.0379 -2.0394  1.7545
  195MPD1    H3 3025   1.316   3.013   1.073 -2.2508  1.5647  2.0941
  195MPD1     N 3026   1.177   2.705   0.777  0.3892  0.6594 -0.2864
  195MPD1    H5 3027   1.269   2.697   0.734  0.5236 -1.6353  0.4276
  195MPD1    N1 3028   0.878   2.949   1.062 -0.9253  0.7032  0.4374
  195MPD1    H6 3029   0.867   2.977   1.159  1.2939  0.3640  0.7902
  195MPD1    H7 3030   0.812   2.873   1.047  0.3876 -0.4452  0.4698
  196MPD1     C 3031   4.648   1.191   0.491 -0.2500 -0.4529  0.1861
  196MPD1    C1 3032   4.524   1.196   0.550 -0.7419  0.2142 -0.1109
  196MPD1    C2 3033   4.492   1.306   0.625  0.5482 -0.0492  1.1943
  196MPD1    C3 3034   4.581   1.412   0.642  0.0488  0.2719  0.7844
  196MPD1    C4 3035   4.710   1.399   0.590  0.1876  0.3300  0.0380
  196MPD1    C5 3036   0.003   1.291   0.511  0.5209  0.9908 -0.1806
  196MPD1     H 3037   4.399   1.301   0.680 -0.0782  0.8096  0.2258
  196MPD1    H1 3038   0.041   1.480   0.610  1.5069 -1.5253  2.9895
  196MPD1    H2 3039   4.681   1.107   0.430 -0.8546 -0.9001  0.4712
  196MPD1    H3 3040   0.104   1.284   0.472  1.1646  0.2800  1.5755
  196MPD1     N 3041   4.545   1.527   0.708 -0.2896  0.0547  0.0554
  196MPD1    H5 3042   4.617   1.597   0.717 -2.1001  1.7700  1.2273
  196MPD1    N1 3043   4.455   1.078   0.566 -0.5390 -0.1895 -0.2526
  196MPD1    H6 3044   4.359   1.076   0.602  0.3278 -2.2284  2.0327
  196MPD1    H7 3045   4.468   1.006   0.496 -0.3897 -0.0989 -0.3174
  197MPD1     C 3046   4.537   4.174  17.386  0.4607  0.8042  0.4445
  197MPD1    C1 3047   4.563   4.311  17.380 -0.0937  0.8230  0.0226
  197MPD1    C2 3048   4.545   4.381  17.262  0.0116 -0.3907 -0.6802
  197MPD1    C3 3049   4.504   4.313  17.147  0.2645 -0.4078  0.4317
  197MPD1    C4 3050   4.463   4.186  17.157  0.0315  0.0312  0.8495
  197MPD1    C5 3051   4.490   4.121  17.272  0.0092  0.8061  0.4392
  197MPD1     H 3052   4.570   4.486  17.254  1.3526 -0.6712 -0.0659
  197MPD1    H1 3053   4.420   4.127  17.077  0.8632  0.7631 -0.1205
  197MPD1    H2 3054   4.545   4.118  17.479  0.0310 -1.7867 -1.1048
  197MPD1    H3 3055   4.472   4.015  17.277 -0.8512  0.7870 -2.9968
  197MPD1     N 3056   4.500   4.371  17.019  0.8058  0.3704 -0.2625
  197MPD1    H5 3057   4.482   4.308  16.941  1.7591 -1.6362  1.1520
  197MPD1    N1 3058   4.591   4.382  17.496  0.4109  0.1865  0.0897
  197MPD1    H6 3059   4.625   4.319  17.568 -0.4474 -1.2445 -0.7508
  197MPD1    H7 3060   4.659   4.457  17.486 -0.1566  0.6518 -0.3366
  198MPD1     C 3061   1.676   2.203  14.799 -0.2590 -0.0650  1.3529
  198MPD1    C1 3062   1.772   2.291  14.766 -0.0091 -0.0727  0.5030
  198MPD1    C2 3063   1.850   2.350  14.868  0.0892  0.1031  1.0149
  198MPD1    C3 3064   1.807   2.335  15.001  0.0991  0.6345  0.1526
  198MPD1    C4 3065   1.697   2.255  15.030  0.4704  0.3869 -0.2471
  198MPD1    C5 3066   1.639   2.190  14.929  0.3990 -0.1265 -0.8662
  198MPD1     H 3067   1.933   2.417  14.848  0.9202 -0.5598  2.1908
  198MPD1    H1 3068   1.655   2.244  15.129  0.7120 -1.8621 -0.3855
  198MPD1    H2 3069   1.612   2.162  14.722 -0.3963  2.1527  0.2916
  198MPD1    H3 3070   1.548   2.133  14.950  1.9483 -1.9067  1.0679
  198MPD1     N 3071   1.888   2.403  15.096  0.0186 -0.1740  0.0321
  198MPD1    H5 3072   1.971   2.455  15.069  0.9505 -0.3863  2.4341
  198MPD1    N1 3073   1.810   2.294  14.628 -0.6038 -0.3344  0.8554
  198MPD1    H6 3074   1.861   2.381  14.612 -0.5871 -0.2219  1.5338
  198MPD1    H7 3075   1.728   2.289  14.567 -1.3017 -2.3800  1.9507
  199MPD1     C 3076   4.020   3.617  10.239  0.8075 -0.2217  0.6693
  199MPD1    C1 3077   3.992   3.745  10.202 -0.0830  0.4176  0.4772
  199MPD1    C2 3078   3.945   3.762  10.080  0.2851 -0.0025 -0.1625
  199MPD1    C3 3079   3.914   3.657   9.995 -0.1813 -0.7796 -1.1000
  199MPD1    C4 3080   3.927   3.535  10.041  0.4203 -0.4156 -0.2331
  199MPD1    C5 3081   3.989   3.513  10.156  0.2634  0.6257  0.4764
  199MPD1     H 3082   3.947   3.865  10.046 -2.6141  0.8793  2.3435
  199MPD1    H1 3083   3.892   3.457   9.974  1.6516  0.7746 -2.2655
  199MPD1    H2 3084   4.054   3.599  10.340  2.6465  0.1756  0.1092
  199MPD1    H3 3085   3.991   3.410  10.189  0.0965  0.9228  1.4294
  199MPD1     N 3086   3.855   3.675   9.864  0.1786 -0.6935 -0.5480
  199MPD1    H5 3087   3.825   3.591   9.817 -0.8905 -0.3841 -0.4068
  199MPD1    N1 3088   4.065   3.852  10.266 -0.0782 -0.4932 -0.2968
  199MPD1    H6 3089   4.087   3.820  10.360  1.1390  1.7267  0.1600
  199MPD1    H7 3090   4.030   3.946  10.253  0.3159 -0.0478  1.8447
  200MPD1     C 3091   1.999   3.872  14.658 -0.0297 -0.7547  0.0986
  200MPD1    C1 3092   2.039   3.976  14.738  0.7101  0.1096  0.5520
  200MPD1    C2 3093   2.171   3.985  14.777  0.3582  0.2996  0.2144
  200MPD1    C3 3094   2.260   3.888  14.738 -0.7034 -0.1439  0.1684
  200MPD1    C4 3095   2.218   3.782  14.653 -0.2860  0.1742  0.2520
  200MPD1    C5 3096   2.088   3.779  14.618 -0.3188 -0.0016  0.5597
  200MPD1     H 3097   2.193   4.068  14.844 -1.5634  1.6437 -0.8407
  200MPD1    H1 3098   2.279   3.704  14.609  1.0163  1.4060 -0.1297
  200MPD1    H2 3099   1.900   3.869  14.615  0.4660  1.3703 -1.1460
  200MPD1    H3 3100   2.049   3.708  14.546 -0.9983 -0.8253  1.7301
  200MPD1     N 3101   2.391   3.892  14.795 -0.5808 -0.3969 -0.3789
  200MPD1    H5 3102   2.417   3.964  14.862 -1.4626 -1.0939  0.7229
  200MPD1    N1 3103   1.952   4.084  14.761  0.3151 -0.1473 -0.2010
  200MPD1    H6 3104   1.953   4.128  14.853 -1.6037  0.2975 -0.3896
  200MPD1    H7 3105   1.860   4.041  14.765 -0.0943  0.9104  1.5985
  201MPD1     C 3106   1.426   1.942  12.573  0.6958  0.6251  0.1635
  201MPD1    C1 3107   1.294   1.981  12.578 -0.1623 -0.3978 -0.1483
  201MPD1    C2 3108   1.247   2.009  12.704  0.5614 -0.2586  0.2115
  201MPD1    C3 3109   1.313   1.970  12.821 -0.4215  0.0425  0.6319
  201MPD1    C4 3110   1.432   1.906  12.807 -0.1480  0.4081 -0.0531
  201MPD1    C5 3111   1.490   1.896  12.682 -0.3942  0.1056 -0.1529
  201MPD1     H 3112   1.146   2.050  12.707  0.4794 -0.3122 -2.2196
  201MPD1    H1 3113   1.488   1.860  12.888  0.0311  1.8864  0.6715
  201MPD1    H2 3114   1.481   1.936  12.481 -0.0204 -0.9161 -0.1584
  201MPD1    H3 3115   1.588   1.854  12.664 -0.3450 -0.2076  0.8375
  201MPD1     N 3116   1.249   2.003  12.945  0.0344  0.2095 -0.0375
  201MPD1    H5 3117   1.163   2.056  12.941 -0.0080  0.1662  0.3192
  201MPD1    N1 3118   1.221   2.013  12.461 -0.2663 -0.5285 -0.1373
  201MPD1    H6 3119   1.122   1.994  12.477  0.2927 -2.8653  0.5436
  201MPD1    H7 3120   1.237   1.948  12.385  1.9788 -2.2122  1.7963
  202MPD1     C 3121   4.425   1.883   9.118  0.1325 -0.7864  0.2513
  202MPD1    C1 3122   4.331   1.980   9.129 -0.5433 -0.4511 -0.1006
  202MPD1    C2 3123   4.340   2.047   9.254  0.0559  0.3312 -0.0655
  202MPD1    C3 3124   4.421   1.999   9.360 -0.0131 -0.4075 -0.3296
  202MPD1    C4 3125   4.497   1.882   9.339 -0.1768  0.2698 -0.1032
  202MPD1    C5 3126   4.492   1.824   9.214 -0.1146  0.4034  0.5346
  202MPD1     H 3127   4.293   2.144   9.260 -2.7161 -1.0558  0.7651
  202MPD1    H1 3128   4.551   1.830   9.417 -0.5086 -0.1129 -0.1218
  202MPD1    H2 3129   4.442   1.840   9.019 -0.7702 -0.1417 -0.1844
  202MPD1    H3 3130   4.558   1.741   9.192 -0.7866  0.1952 -0.6922
  202MPD1     N 3131   4.436   2.065   9.492  0.3553  1.2906 -0.3268
  202MPD1    H5 3132   4.509   2.029   9.553 -0.9005 -0.7760 -0.0478
  202MPD1    N1 3133   4.290   2.041   9.015  0.0512 -0.2528 -0.3549
  202MPD1    H6 3134   4.264   1.964   8.953 -0.4051 -0.6495  0.3283
  202MPD1    H7 3135   4.207   2.098   9.033 -0.6286 -1.3000 -0.1715
  203MPD1     C 3136   3.363   2.984  12.738 -0.0120  0.1023  0.8745
  203MPD1    C1 3137   3.389   2.873  12.810  0.3511  0.3301 -0.3838
  203MPD1    C2 3138   3.515   2.815  12.800  0.0474  0.2736 -0.1774
  203MPD1    C3 3139   3.615   2.868  12.721  0.4051 -0.5365  0.9753
  203MPD1    C4 3140   3.591   2.984  12.652 -0.0669  0.0890  0.4080
  203MPD1    C5 3141   3.458   3.025  12.657  0.6212  0.3821  0.0307
  203MPD1     H 3142   3.544   2.724  12.852  0.3127  1.1250  1.1799
  203MPD1    H1 3143   3.665   3.035  12.591  1.8583 -2.1943  0.7844
  203MPD1    H2 3144   3.265   3.031  12.734  0.3699  0.9161  1.1106
  203MPD1    H3 3145   3.435   3.105  12.588 -4.4863  1.1898  2.6644
  203MPD1     N 3146   3.734   2.796  12.719  0.5931 -0.1299 -0.3603
  203MPD1    H5 3147   3.746   2.719  12.784  3.0691  1.1923  0.7875
  203MPD1    N1 3148   3.285   2.802  12.875 -0.4323  0.0680 -0.5314
  203MPD1    H6 3149   3.309   2.734  12.946 -0.2095 -0.9153 -1.5534
  203MPD1    H7 3150   3.215   2.862  12.918  0.2639  0.6905 -0.2512
  204MPD1     C 3151   3.298   4.620  17.501 -0.9516  0.8665 -0.1222
  204MPD1    C1 3152   3.362   4.610  17.385 -0.1495 -0.0336 -0.1436
  204MPD1    C2 3153   3.372   4.486  17.320  0.0514  0.1351 -0.0130
  204MPD1    C3 3154   3.313   4.372  17.371 -0.1336 -0.3014 -0.4211
  204MPD1    C4 3155   3.264   4.378  17.494  0.0158 -0.0036  0.1363
  204MPD1    C5 3156   3.253   4.504  17.559  0.1851  0.8166  0.0118
  204MPD1     H 3157   3.433   4.484  17.231 -0.9437 -0.1044 -0.6914
  204MPD1    H1 3158   3.245   4.286  17.549 -1.6765  0.1938 -0.1020
  204MPD1    H2 3159   3.288   4.712  17.557 -1.8123  2.0807 -2.2478
  204MPD1    H3 3160   3.211   4.513  17.658  1.4588 -0.6205  0.6818
  204MPD1     N 3161   3.321   4.251  17.290  0.1670  0.4626 -0.3194
  204MPD1    H5 3162   3.346   4.251  17.192 -0.3817 -1.5230 -0.4776
  204MPD1    N1 3163   3.450   4.718  17.358 -0.5300 -0.6131 -0.5169
  204MPD1    H6 3164   3.524   4.706  17.289  0.6302  0.8432  0.4795
  204MPD1    H7 3165   3.400   0.067  17.364 -2.1382 -1.5585  0.1876
  205MPD1     C 3166   3.177   3.205  16.062  0.0150 -0.8153 -0.5620
  205MPD1    C1 3167   3.245   3.086  16.062  0.0452  0.1258  0.4126
  205MPD1    C2 3168   3.316   3.058  16.173 -0.0675 -0.4633 -0.3406
  205MPD1    C3 3169   3.331   3.144  16.279 -0.6338  0.4089 -0.6160
  205MPD1    C4 3170   3.273   3.266  16.281  0.4983 -0.1248 -0.2928
  205MPD1    C5 3171   3.194   3.290  16.171  0.2857  0.1114  0.4705
  205MPD1     H 3172   3.380   2.970  16.166 -0.6813 -0.8040 -1.6742
  205MPD1    H1 3173   3.272   3.342  16.358  1.7709 -0.6652  0.2555
  205MPD1    H2 3174   3.109   3.230  15.981 -1.9579 -0.2481  1.2485
  205MPD1    H3 3175   3.141   3.384  16.163  0.0105 -0.1745 -1.1167
  205MPD1     N 3176   3.405   3.114  16.389  0.3790  0.5205  0.4735
  205MPD1    H5 3177   3.426   3.191  16.452  0.0960  0.2669  0.8818
  205MPD1    N1 3178   3.229   3.001  15.953 -0.1337 -0.6872 -0.3785
  205MPD1    H6 3179   3.186   3.034  15.867  0.0720 -1.0724 -0.6306
  205MPD1    H7 3180   3.297   2.926  15.940  1.1623 -0.0247  2.6472
  206MPD1     C 3181   3.793   0.970  16.955 -0.0083 -0.2316  0.1387
  206MPD1    C1 3182   3.828   0.939  16.826  0.3829 -0.1299  0.2400
  206MPD1    C2 3183   3.735   0.952  16.726  0.0189 -0.0848 -0.0930
  206MPD1    C3 3184   3.621   1.026  16.742  0.4727  0.5328  0.5354
  206MPD1    C4 3185   3.599   1.076  16.865  0.4705  0.3489  0.6464
  206MPD1    C5 3186   3.678   1.041  16.975  0.2839  0.5759  0.1686
  206MPD1     H 3187   3.762   0.926  16.624  3.9970  1.7282  0.5074
  206MPD1    H1 3188   3.505   1.130  16.871 -0.7465 -1.5713 -0.8001
  206MPD1    H2 3189   3.865   0.955  17.035  0.4332  1.9934  0.1496
  206MPD1    H3 3190   3.645   1.075  17.073 -0.4179  1.9121 -0.5228
  206MPD1     N 3191   3.529   1.058  16.635 -0.0349 -0.3717 -0.4516
  206MPD1    H5 3192   3.469   1.139  16.650 -0.0711 -0.5929  0.6117
  206MPD1    N1 3193   3.951   0.869  16.812 -0.4378  0.1310  0.3352
  206MPD1    H6 3194   3.995   0.889  16.722  0.9767 -2.3657  0.4859
  206MPD1    H7 3195   4.015   0.898  16.885 -1.7191  2.0372  0.6994
  207MPD1     C 3196   0.817   3.850  10.173 -0.3874  0.0705  0.3100
  207MPD1    C1 3197   0.888   3.927  10.268  0.2051  0.5913  0.0581
  207MPD1    C2 3198   1.016   3.888  10.293 -0.2171  0.3848  0.4575
  207MPD1    C3 3199   1.056   3.759  10.258  0.5635 -0.0891 -0.4902
  207MPD1    C4 3200   0.976   3.675  10.188  0.3323  0.8146  0.7258
  207MPD1    C5 3201   0.858   3.717  10.146 -0.3595 -0.0296  1.0692
  207MPD1     H 3202   1.081   3.958  10.344  0.8520 -0.5338  0.3743
  207MPD1    H1 3203   1.023   3.579  10.166  0.4386  0.9279  0.4547
  207MPD1    H2 3204   0.719   3.879  10.137 -1.7214 -3.1301  1.2830
  207MPD1    H3 3205   0.784   3.654  10.099 -0.5558  0.3621  0.8488
  207MPD1     N 3206   1.183   3.705  10.294  0.4801 -0.1334  0.5709
  207MPD1    H5 3207   1.201   3.606  10.282 -0.8233  0.0392 -2.9169
  207MPD1    N1 3208   0.837   4.057  10.295  0.7865  0.3124 -0.2643
  207MPD1    H6 3209   0.879   4.087  10.383 -0.4306 -3.0931  1.4700
  207MPD1    H7 3210   0.736   4.065  10.301  0.7552  0.3446 -0.8685
  208MPD1     C 3211   4.658   2.510  17.595 -0.0186  0.7792 -1.0495
  208MPD1    C1 3212   4.590   2.553  17.707 -0.1000 -0.3818 -0.1335
  208MPD1    C2 3213   4.446   2.559  17.698 -0.6790  1.0145 -0.0670
  208MPD1    C3 3214   4.390   2.508  17.582  0.3548 -0.2721 -0.4977
  208MPD1    C4 3215   4.453   2.462  17.472 -0.0766  0.2386  0.2989
  208MPD1    C5 3216   4.591   2.460  17.485  0.2302 -0.0345 -0.0396
  208MPD1     H 3217   4.389   2.588   0.031 -0.4156 -1.0329  0.7652
  208MPD1    H1 3218   4.402   2.413  17.390 -0.4000 -0.6750  1.0502
  208MPD1    H2 3219   0.027   2.520  17.590  0.1050  0.6031  1.5161
  208MPD1    H3 3220   4.661   2.428  17.408  1.9429 -2.2352  2.4162
  208MPD1     N 3221   4.248   2.491  17.583  0.1769 -0.7258  1.0098
  208MPD1    H5 3222   4.211   2.487  17.678  1.2849 -2.6058  1.3718
  208MPD1    N1 3223   4.654   2.621   0.054 -0.2494 -0.1872  0.2157
  208MPD1    H6 3224   4.599   2.622   0.140 -0.6001 -1.9020  0.0147
  208MPD1    H7 3225   0.013   2.603   0.071 -0.0266  0.3711 -0.4602
  209MPD1     C 3226   1.577   2.074  10.062  0.1183  0.0393 -0.3592
  209MPD1    C1 3227   1.647   2.194  10.047 -0.4866 -0.3547 -0.8695
  209MPD1    C2 3228   1.648   2.285  10.148 -0.3831 -0.1691  0.3365
  209MPD1    C3 3229   1.583   2.256  10.273  0.1308 -0.0303  0.1713
  209MPD1    C4 3230   1.528   2.128  10.287 -0.1620 -0.4538 -0.5842
  209MPD1    C5 3231   1.521   2.044  10.178  0.0214  0.0314 -0.1751
  209MPD1     H 3232   1.687   2.386  10.137  1.1442 -0.7360  0.6372
  209MPD1    H1 3233   1.478   2.094  10.377  0.9094 -1.2466 -0.2856
  209MPD1    H2 3234   1.575   1.999   9.984 -0.6113 -0.7189  0.3847
  209MPD1    H3 3235   1.462   1.954  10.184 -0.7248  0.4559 -1.0058
  209MPD1     N 3236   1.592   2.359  10.369 -0.8370 -0.3818  0.4648
  209MPD1    H5 3237   1.645   2.445  10.357  1.3564 -1.8654 -0.5974
  209MPD1    N1 3238   1.688   2.244   9.922 -0.3957 -0.1046  0.6099
  209MPD1    H6 3239   1.754   2.321   9.925 -0.7580  0.1215  2.8068
  209MPD1    H7 3240   1.722   2.181   9.849  2.1699  0.5881  1.2190
  210MPD1     C 3241   1.641   2.727  11.421  1.0461 -0.1711  0.4517
  210MPD1    C1 3242   1.583   2.617  11.364 -0.1850  0.4654 -0.2123
  210MPD1    C2 3243   1.575   2.593  11.229 -0.4932  0.3774 -0.1762
  210MPD1    C3 3244   1.637   2.684  11.143  0.1679 -0.3856 -0.7343
  210MPD1    C4 3245   1.699   2.794  11.197 -0.5894 -0.0167  0.0307
  210MPD1    C5 3246   1.705   2.817  11.335 -0.5486  0.2746  1.2810
  210MPD1     H 3247   1.517   2.511  11.188  1.3842 -0.1443 -1.7666
  210MPD1    H1 3248   1.761   2.860  11.138 -2.8274  0.5096 -1.7356
  210MPD1    H2 3249   1.639   2.744  11.528  0.3053  0.1674  0.3877
  210MPD1    H3 3250   1.748   2.909  11.375  1.2057  0.5834 -1.2575
  210MPD1     N 3251   1.643   2.666  11.003  0.5012  0.4769 -0.3056
  210MPD1    H5 3252   1.673   2.743  10.944  1.4863  1.0029  0.8953
  210MPD1    N1 3253   1.527   2.518  11.451  0.2068  0.3443 -0.1106
  210MPD1    H6 3254   1.471   2.443  11.412  1.4852 -0.9532  0.5392
  210MPD1    H7 3255   1.495   2.551  11.541 -1.8972  1.3221 -1.2159
  211MPD1     C 3256   3.904   2.634  16.928 -0.0379  0.5164  0.5758
  211MPD1    C1 3257   3.895   2.550  16.822 -0.3663  0.6672 -0.6936
  211MPD1    C2 3258   3.867   2.605  16.702  0.3145 -0.3052  0.5906
  211MPD1    C3 3259   3.853   2.739  16.687 -0.1005 -0.4842  0.2624
  211MPD1    C4 3260   3.854   2.819  16.798 -0.1533 -0.1848  0.1172
  211MPD1    C5 3261   3.889   2.773  16.920  0.0158  0.4826 -0.4988
  211MPD1     H 3262   3.852   2.527  16.628 -0.1097  0.6005 -0.2786
  211MPD1    H1 3263   3.836   2.925  16.787  0.4724 -0.1121 -0.1956
  211MPD1    H2 3264   3.927   2.596  17.027  2.0898 -0.2166 -0.1872
  211MPD1    H3 3265   3.917   2.831  17.007  1.4830 -1.8886  0.6229
  211MPD1     N 3266   3.834   2.788  16.559  0.1203 -0.1791 -0.3943
  211MPD1    H5 3267   3.837   2.719  16.485  2.7391  1.0674 -1.4755
  211MPD1    N1 3268   3.920   2.415  16.843  0.8235 -0.3635  0.0811
  211MPD1    H6 3269   3.890   2.352  16.768  0.0129 -1.4024  1.2692
  211MPD1    H7 3270   3.890   2.380  16.934  2.0405 -0.8523  0.2934
  212MPD1     C 3271   2.961   1.324  16.308  0.7716  0.3743  0.5227
  212MPD1    C1 3272   2.869   1.335  16.410  0.8493 -0.7512  0.3953
  212MPD1    C2 3273   2.883   1.254  16.521 -0.3018 -0.2417  0.3025
  212MPD1    C3 3274   2.970   1.145  16.524  0.4580  0.0561 -0.0064
  212MPD1    C4 3275   3.051   1.127  16.417 -0.5315  0.1093  0.1221
  212MPD1    C5 3276   3.048   1.218  16.313  0.4444  0.0568  0.0102
  212MPD1     H 3277   2.811   1.253  16.602  0.5515  1.7295  1.0901
  212MPD1    H1 3278   3.121   1.046  16.403  0.5147  0.8394  1.1159
  212MPD1    H2 3279   2.954   1.406  16.237 -4.6089  0.8262  1.6075
  212MPD1    H3 3280   3.115   1.200  16.230  1.2186 -0.9195  0.8450
  212MPD1     N 3281   2.982   1.048  16.627 -0.1012 -0.6054 -0.0719
  212MPD1    H5 3282   3.043   0.969  16.609 -1.8017 -1.5958 -1.5118
  212MPD1    N1 3283   2.801   1.454  16.425 -0.3825 -0.2643  0.2108
  212MPD1    H6 3284   2.724   1.445  16.492 -1.0144 -0.4807 -0.5375
  212MPD1    H7 3285   2.774   1.493  16.334  2.0675 -2.4038 -1.4221
  213MPD1     C 3286   0.923   1.221  15.358  0.0968 -1.0564  0.0066
  213MPD1    C1 3287   0.884   1.181  15.235  1.1350 -0.5141  0.1489
  213MPD1    C2 3288   0.833   1.283  15.157  0.4100  0.0494 -0.3410
  213MPD1    C3 3289   0.831   1.418  15.189  0.1785 -0.1738  0.5688
  213MPD1    C4 3290   0.874   1.452  15.315  0.1030  0.2355  0.3834
  213MPD1    C5 3291   0.919   1.351  15.401  0.0045 -0.7770 -0.2931
  213MPD1     H 3292   0.793   1.259  15.059  1.1595  0.1720 -0.6709
  213MPD1    H1 3293   0.864   1.550  15.361  1.6387  0.5422  0.0530
  213MPD1    H2 3294   0.945   1.149  15.436 -2.8137 -0.6115  1.2609
  213MPD1    H3 3295   0.948   1.375  15.503  0.6530  1.5745 -1.0398
  213MPD1     N 3296   0.774   1.514  15.100  0.1478  0.1183 -0.5248
  213MPD1    H5 3297   0.724   1.483  15.018  1.3709  0.6136 -1.4536
  213MPD1    N1 3298   0.840   1.047  15.225 -0.1543  0.7879 -0.5676
  213MPD1    H6 3299   0.817   1.012  15.132 -0.6261 -0.0757 -0.1221
  213MPD1    H7 3300   0.918   0.992  15.260  0.3422  2.3091  0.6885
  214MPD1     C 3301   0.131   1.304  14.520 -0.0265 -0.1821  0.4862
  214MPD1    C1 3302   0.146   1.312  14.662 -0.7818 -0.1382  0.4323
  214MPD1    C2 3303   0.241   1.398  14.713 -0.5321  0.7136 -0.3789
  214MPD1    C3 3304   0.335   1.461  14.626 -1.0108  0.0648  0.1519
  214MPD1    C4 3305   0.319   1.444  14.488  0.1249 -0.2135 -0.2165
  214MPD1    C5 3306   0.222   1.363  14.438 -0.0548  0.0077 -0.7044
  214MPD1     H 3307   0.241   1.415  14.820  2.8875  2.8749 -0.7057
  214MPD1    H1 3308   0.385   1.488  14.415  0.0682 -1.6758 -1.1475
  214MPD1    H2 3309   0.061   1.238  14.471 -0.9777 -2.1724  4.4946
  214MPD1    H3 3310   0.217   1.351  14.331  1.7039  0.6533 -0.8496
  214MPD1     N 3311   0.443   1.537  14.673 -0.3518 -0.6881  0.4515
  214MPD1    H5 3312   0.516   1.567  14.609  1.7200 -0.0207  3.1172
  214MPD1    N1 3313   0.042   1.268  14.739 -0.4919 -0.5005  0.1865
  214MPD1    H6 3314   0.058   1.242  14.837  1.8140 -2.8845 -0.8321
  214MPD1    H7 3315   4.726   1.191  14.704 -2.3573  0.1789  1.6367
  215MPD1     C 3316   0.861   2.139  10.464 -0.0374  0.4941 -0.2964
  215MPD1    C1 3317   0.817   2.188  10.588  0.6644 -0.3336 -0.3136
  215MPD1    C2 3318   0.878   2.296  10.654  0.1011  0.4752 -0.6135
  215MPD1    C3 3319   0.995   2.346  10.596  0.8595  0.2979  0.9293
  215MPD1    C4 3320   1.038   2.302  10.471  0.8243 -0.6700 -0.2541
  215MPD1    C5 3321   0.967   2.202  10.403  0.0536 -0.1099 -0.0875
  215MPD1     H 3322   0.840   2.333  10.749 -0.3933  0.1488 -0.6847
  215MPD1    H1 3323   1.126   2.331  10.416  1.2995 -0.7061  0.4946
  215MPD1    H2 3324   0.803   2.064  10.412 -1.0773  2.0226 -1.3602
  215MPD1    H3 3325   0.996   2.173  10.303 -1.4459  1.7227 -1.0353
  215MPD1     N 3326   1.064   2.448  10.657 -0.7629  0.2704  0.4964
  215MPD1    H5 3327   1.044   2.460  10.756  1.6959  0.8670  0.9193
  215MPD1    N1 3328   0.700   2.134  10.642 -0.1898  0.6670 -0.3926
  215MPD1    H6 3329   0.693   2.169  10.737  0.6777  1.2581 -0.5448
  215MPD1    H7 3330   0.690   2.034  10.629  0.2518  0.6060 -0.2629
  216MPD1     C 3331   2.203   1.223   0.245 -0.3254 -0.4179  0.6379
  216MPD1    C1 3332   2.277   1.206   0.136  0.1796  0.1293 -0.4811
  216MPD1    C2 3333   2.353   1.094   0.116  0.3826 -0.1632 -0.2894
  216MPD1    C3 3334   2.352   1.000   0.222  0.7718 -1.3222  0.6145
  216MPD1    C4 3335   2.279   1.013   0.337  0.5217  0.5372 -0.0768
  216MPD1    C5 3336   2.197   1.126   0.345 -0.1396  0.3150  0.0842
  216MPD1     H 3337   2.405   1.077   0.023  0.4216 -1.1167 -0.0919
  216MPD1    H1 3338   2.271   0.932   0.409  0.6031  1.9205  1.4726
  216MPD1    H2 3339   2.143   1.313   0.255  1.3886  0.9715 -1.5327
  216MPD1    H3 3340   2.141   1.144   0.436 -0.2581  1.3241 -0.1814
  216MPD1     N 3341   2.433   0.889   0.199 -0.1134  0.1413  0.4339
  216MPD1    H5 3342   2.493   0.900   0.118 -0.2835  0.1794  0.3135
  216MPD1    N1 3343   2.278   1.305   0.032 -0.2523 -0.4129  0.0155
  216MPD1    H6 3344   2.236   1.261  17.705 -1.4151 -0.5311  0.6743
  216MPD1    H7 3345   2.217   1.383   0.054  1.6838  0.8543  0.9266
  217MPD1     C 3346   3.281   3.127   8.537 -0.0156  0.3082  0.0185
  217MPD1    C1 3347   3.334   3.007   8.508  0.1310  0.5617 -0.4524
  217MPD1    C2 3348   3.355   2.925   8.617  0.5009  0.3268  0.1712
  217MPD1    C3 3349   3.304   2.945   8.742  0.1201  0.1937 -0.5860
  217MPD1    C4 3350   3.233   3.063   8.763  0.5514 -0.0305  0.1397
  217MPD1    C5 3351   3.229   3.158   8.664 -0.7123  0.3209  0.4576
  217MPD1     H 3352   3.419   2.838   8.602 -1.5892 -1.4664  1.4950
  217MPD1    H1 3353   3.201   3.084   8.865  0.3622 -0.8601  0.2527
  217MPD1    H2 3354   3.285   3.205   8.461  0.6242  0.6504  0.4053
  217MPD1    H3 3355   3.181   3.254   8.678 -0.5929  0.2823  1.1327
  217MPD1     N 3356   3.320   2.861   8.853  0.3323 -0.1369  0.5515
  217MPD1    H5 3357   3.281   2.895   8.941  0.1659  1.2560 -0.0543
  217MPD1    N1 3358   3.395   2.989   8.379  0.3080 -0.2273  0.2000
  217MPD1    H6 3359   3.404   2.888   8.363 -2.4336 -0.3463 -0.6323
  217MPD1    H7 3360   3.363   3.046   8.301  1.6364 -0.7614 -0.7293
  218MPD1     C 3361   0.663   3.690  12.554 -0.3878  0.1915  0.1101
  218MPD1    C1 3362   0.756   3.722  12.457  0.4216 -0.7449 -0.8827
  218MPD1    C2 3363   0.858   3.634  12.450  0.5272  0.3388  0.4541
  218MPD1    C3 3364   0.854   3.511  12.508  0.0194  0.1057  0.5125
  218MPD1    C4 3365   0.756   3.482  12.601  0.1213  0.4657  0.0461
  218MPD1    C5 3366   0.662   3.576  12.629  0.5665 -0.0140  0.6992
  218MPD1     H 3367   0.945   3.663  12.393 -1.7667  0.3998 -3.0234
  218MPD1    H1 3368   0.754   3.388  12.656  4.6356  0.1480 -0.3213
  218MPD1    H2 3369   0.576   3.751  12.574 -0.2488 -0.0718  1.5104
  218MPD1    H3 3370   0.580   3.543  12.691 -0.1908  0.5722  0.0084
  218MPD1     N 3371   0.965   3.426  12.479 -0.0306 -0.4734 -0.5846
  218MPD1    H5 3372   1.038   3.459  12.417  0.6752  0.3763  0.6785
  218MPD1    N1 3373   0.759   3.849  12.397  0.3931  0.2516 -0.0369
  218MPD1    H6 3374   0.824   3.860  12.319 -0.1170 -0.7928 -0.6087
  218MPD1    H7 3375   0.672   3.882  12.358  0.5192 -0.2976 -0.7898
  219MPD1     C 3376   1.494   3.071  11.718  0.0233 -0.7561 -0.4154
  219MPD1    C1 3377   1.496   3.182  11.798 -0.8025  0.3923  0.0905
  219MPD1    C2 3378   1.418   3.175  11.913  0.9274 -0.0144  0.1448
  219MPD1    C3 3379   1.343   3.066  11.952  0.4169  0.1652  0.3882
  219MPD1    C4 3380   1.358   2.947  11.876 -0.4437  0.6462 -0.5890
  219MPD1    C5 3381   1.424   2.956  11.757 -0.3648  0.1722 -1.2362
  219MPD1     H 3382   1.429   3.259  11.980 -0.9651  1.1739 -1.0539
  219MPD1    H1 3383   1.321   2.852  11.910  1.1115  0.4643  0.5918
  219MPD1    H2 3384   1.544   3.064  11.622 -0.4624 -0.2381 -0.7053
  219MPD1    H3 3385   1.438   2.863  11.702 -0.0864 -0.3664 -0.2558
  219MPD1     N 3386   1.265   3.072  12.071 -0.3975 -0.0996  0.0208
  219MPD1    H5 3387   1.212   2.987  12.088 -2.3977  1.2825  0.7798
  219MPD1    N1 3388   1.565   3.304  11.774  0.5346  0.2578  0.1165
  219MPD1    H6 3389   1.585   3.348  11.863 -0.3143  0.3861  0.2472
  219MPD1    H7 3390   1.644   3.301  11.709  0.0730 -0.1045 -0.4317
  220MPD1     C 3391   0.663   3.413   9.309 -0.0470  0.2627 -0.2350
  220MPD1    C1 3392   0.663   3.501   9.411  0.4267 -0.0217 -0.0461
  220MPD1    C2 3393   0.610   3.466   9.535 -0.1842  0.7812  0.4089
  220MPD1    C3 3394   0.578   3.331   9.564  0.1396  0.4110  0.1219
  220MPD1    C4 3395   0.592   3.237   9.462  0.9889 -0.0180  0.6745
  220MPD1    C5 3396   0.630   3.280   9.336  0.3519 -0.1358  0.2929
  220MPD1     H 3397   0.623   3.536   9.617 -1.0103  2.4713 -0.9201
  220MPD1    H1 3398   0.595   3.131   9.483  0.0954 -0.0083  0.8636
  220MPD1    H2 3399   0.702   3.438   9.211  0.6803 -0.4036 -0.1229
  220MPD1    H3 3400   0.641   3.198   9.266  0.8784  0.2262 -0.0504
  220MPD1     N 3401   0.561   3.300   9.698  0.1513 -0.0339 -0.5498
  220MPD1    H5 3402   0.564   3.375   9.766  0.2592 -0.5759  0.0406
  220MPD1    N1 3403   0.691   3.640   9.378  0.4245  0.4499  0.4702
  220MPD1    H6 3404   0.755   3.649   9.299  1.8746 -0.7700  1.5100
  220MPD1    H7 3405   0.729   3.697   9.452 -0.9640 -2.3527  3.3432
  221MPD1     C 3406   3.911   2.649  15.824 -0.2595  0.3238  0.1243
  221MPD1    C1 3407   4.047   2.638  15.843  0.3822 -0.3042  0.4451
  221MPD1    C2 3408   4.104   2.512  15.852 -0.4812 -0.5202  1.0478
  221MPD1    C3 3409   4.025   2.394  15.852 -0.6694  0.5711 -0.2292
  221MPD1    C4 3410   3.888   2.413  15.846  0.9773 -0.3835  0.0600
  221MPD1    C5 3411   3.832   2.537  15.827  0.1064 -0.2877  1.0838
  221MPD1     H 3412   4.211   2.496  15.848 -0.3364  0.8920 -0.5765
  221MPD1    H1 3413   3.821   2.328  15.838  0.2762  0.1368  0.4636
  221MPD1    H2 3414   3.857   2.743  15.819  0.2617  0.6537  0.7920
  221MPD1    H3 3415   3.725   2.546  15.812  0.2183 -0.6477  0.0193
  221MPD1     N 3416   4.074   2.263  15.841 -0.1187  0.4835 -0.4083
  221MPD1    H5 3417   4.002   2.192  15.850 -0.4367  0.6256 -1.9075
  221MPD1    N1 3418   4.121   2.759  15.837  0.1420  0.2930  0.7055
  221MPD1    H6 3419   4.201   2.759  15.900  0.1264 -1.1655  0.7352
  221MPD1    H7 3420   4.057   2.834  15.863  0.3299  1.1745 -1.3713
  222MPD1     C 3421   2.892   1.164   1.343 -0.7407 -0.3171 -0.1910
  222MPD1    C1 3422   2.865   1.041   1.275 -0.0890 -0.3722  0.2614
  222MPD1    C2 3423   2.842   1.049   1.134  0.2644 -0.4837 -0.3456
  222MPD1    C3 3424   2.867   1.161   1.063 -0.6722 -0.7388 -0.0187
  222MPD1    C4 3425   2.911   1.277   1.132 -0.8514  0.1947  0.6957
  222MPD1    C5 3426   2.912   1.279   1.271  0.1668  0.0797 -0.5320
  222MPD1     H 3427   2.801   0.960   1.087  0.0477 -1.1009  1.0046
  222MPD1    H1 3428   2.910   1.377   1.091  2.0501  0.5069  1.3777
  222MPD1    H2 3429   2.891   1.169   1.451  0.1445 -0.5188 -0.1708
  222MPD1    H3 3430   2.947   1.370   1.318 -2.2674 -0.7246  2.8601
  222MPD1     N 3431   2.860   1.178   0.924 -0.6687 -0.4115 -0.0878
  222MPD1    H5 3432   2.856   1.272   0.886 -3.0780 -1.2000 -1.8279
  222MPD1    N1 3433   2.819   0.933   1.349  0.3181 -0.2945  0.0071
  222MPD1    H6 3434   2.876   0.927   1.434 -0.1054  0.6286  0.3621
  222MPD1    H7 3435   2.832   0.845   1.300  1.7383  0.0943 -0.3230
  223MPD1     C 3436   3.069   0.629   0.120  0.1343  0.0836 -0.5415
  223MPD1    C1 3437   3.107   0.626   0.255 -0.3200  0.7133 -0.0220
  223MPD1    C2 3438   3.077   0.735   0.327  0.2492  0.2424  0.1364
  223MPD1    C3 3439   2.981   0.825   0.293 -0.2771  0.7696  0.1124
  223MPD1    C4 3440   2.923   0.809   0.169  0.3868 -0.0147  0.1998
  223MPD1    C5 3441   2.983   0.723   0.084  0.6566 -0.2386 -0.4746
  223MPD1     H 3442   3.115   0.747   0.428  2.3968  1.7510 -0.8590
  223MPD1    H1 3443   2.847   0.867   0.119  1.2873 -0.5854 -1.8310
  223MPD1    H2 3444   3.103   0.564   0.040  1.2547 -0.6398  0.5302
  223MPD1    H3 3445   2.951   0.715  17.736 -0.2545 -0.5167 -0.1693
  223MPD1     N 3446   2.944   0.920   0.387  0.5170 -0.1667 -0.5357
  223MPD1    H5 3447   2.991   0.925   0.477  0.7413 -1.4016 -0.5955
  223MPD1    N1 3448   3.211   0.546   0.304  0.2474  0.3337 -0.0230
  223MPD1    H6 3449   3.207   0.454   0.259 -0.5567  0.3001  0.1315
  223MPD1    H7 3450   3.216   0.532   0.405  0.1251 -1.0226 -0.2023
  224MPD1     C 3451   3.670   2.994   8.814 -0.5979 -0.1392  0.0394
  224MPD1    C1 3452   3.578   3.072   8.885  0.6406  0.3164  0.2064
  224MPD1    C2 3453   3.589   3.063   9.018 -0.6053 -0.1435 -0.3957
  224MPD1    C3 3454   3.659   2.956   9.078 -0.4779 -0.2240 -0.5671
  224MPD1    C4 3455   3.724   2.865   9.001  0.3899  0.0557 -0.3010
  224MPD1    C5 3456   3.736   2.885   8.867 -0.8422 -0.6120 -0.6993
  224MPD1     H 3457   3.535   3.138   9.074  0.6363 -0.0871  0.7046
  224MPD1    H1 3458   3.796   2.794   9.041 -0.1291 -0.6553 -0.6338
  224MPD1    H2 3459   3.682   3.006   8.707  1.5994  1.9206  0.5166
  224MPD1    H3 3460   3.799   2.821   8.807 -0.7840 -0.4057 -0.8574
  224MPD1     N 3461   3.670   2.934   9.220 -0.1430 -0.6152 -0.3957
  224MPD1    H5 3462   3.732   2.862   9.255 -0.0426 -0.1548  0.3699
  224MPD1    N1 3463   3.507   3.171   8.820  0.3027  0.6625  0.0059
  224MPD1    H6 3464   3.468   3.124   8.739  0.9306  0.4689 -0.1805
  224MPD1    H7 3465   3.426   3.203   8.873  0.8018  2.0396 -0.0466
  225MPD1     C 3466   1.221   3.663  11.834 -0.2910  0.6034  0.0677
  225MPD1    C1 3467   1.180   3.538  11.879  0.7447  0.3713  0.3601
  225MPD1    C2 3468   1.062   3.527  11.949 -0.0594 -0.2597  0.1203
  225MPD1    C3 3469   0.987   3.642  11.962 -0.0914  0.4641 -0.0963
  225MPD1    C4 3470   1.037   3.767  11.927  0.0379  0.6000 -0.7169
  225MPD1    C5 3471   1.144   3.779  11.851  0.7112 -0.2168 -0.1137
  225MPD1     H 3472   1.039   3.423  11.970 -1.8133  0.5173  1.9619
  225MPD1    H1 3473   0.974   3.854  11.941 -2.1106 -1.1670  0.5845
  225MPD1    H2 3474   1.307   3.686  11.772  0.4203 -0.8812  0.5158
  225MPD1    H3 3475   1.181   3.874  11.814 -1.0665  0.1017 -1.0619
  225MPD1     N 3476   0.862   3.642  12.026 -0.3635 -0.0402 -0.3862
  225MPD1    H5 3477   0.831   3.738  12.030  1.0875  0.3975  0.2935
  225MPD1    N1 3478   1.248   3.421  11.843 -0.2763 -0.2998  0.6093
  225MPD1    H6 3479   1.240   3.346  11.912 -2.2433 -2.2665 -1.7330
  225MPD1    H7 3480   1.346   3.423  11.816 -0.5314 -0.1456 -0.3167
  226MPD1     C 3481   3.831   3.696   8.505 -0.1001  0.4746  0.0739
  226MPD1    C1 3482   3.905   3.651   8.612  0.2497  0.4779 -0.3916
  226MPD1    C2 3483   3.960   3.743   8.696  0.0500  0.6169  0.0316
  226MPD1    C3 3484   3.943   3.882   8.673 -0.8634 -1.0338 -0.2679
  226MPD1    C4 3485   3.861   3.925   8.570 -0.3062 -0.2404 -0.7133
  226MPD1    C5 3486   3.807   3.831   8.486  0.3687 -0.0410  0.4206
  226MPD1     H 3487   4.025   3.708   8.775  0.1694 -1.7014 -1.0996
  226MPD1    H1 3488   3.840   4.028   8.544 -1.9611 -0.2352  0.6449
  226MPD1    H2 3489   3.779   3.628   8.438  1.0930  0.7124 -1.1004
  226MPD1    H3 3490   3.749   3.871   8.404  1.3542  1.1461  0.3073
  226MPD1     N 3491   4.015   3.974   8.761 -0.4530  0.2531 -0.6921
  226MPD1    H5 3492   4.081   3.943   8.831 -1.3652  1.7009  0.8107
  226MPD1    N1 3493   3.934   3.516   8.615 -0.0335  0.2106  0.3260
  226MPD1    H6 3494   3.853   3.461   8.585 -0.2410 -0.7849  2.7013
  226MPD1    H7 3495   3.968   3.482   8.704  0.0713 -0.4327  0.0357
  227MPD1     C 3496   4.310   0.194   8.663 -0.8264  0.6263 -0.4219
  227MPD1    C1 3497   4.237   0.107   8.581  0.6982 -0.0494  0.2697
  227MPD1    C2 3498   4.220   4.719   8.628 -0.2805  0.4655 -0.7362
  227MPD1    C3 3499   4.276   4.670   8.746  0.0207 -0.2572 -0.0554
  227MPD1    C4 3500   4.367   0.009   8.810  0.0561  0.7596  0.1928
  227MPD1    C5 3501   4.379   0.143   8.771 -0.1871 -0.3440  0.2830
  227MPD1     H 3502   4.147   4.658   8.575 -0.9961  0.1346  0.6264
  227MPD1    H1 3503   4.418   4.722   8.903 -0.9038 -0.7455  0.2863
  227MPD1    H2 3504   4.328   0.297   8.635 -1.2041  1.2058  1.4721
  227MPD1    H3 3505   4.430   0.217   8.831 -0.0164 -1.1080  1.0940
  227MPD1     N 3506   4.234   4.541   8.790  0.1087 -0.0647  0.5454
  227MPD1    H5 3507   4.172   4.484   8.735  0.1300 -1.2837  1.7859
  227MPD1    N1 3508   4.161   0.152   8.477  0.3104 -0.2595  0.1179
  227MPD1    H6 3509   4.142   0.080   8.408  2.2097 -0.9706  0.3395
  227MPD1    H7 3510   4.206   0.226   8.423 -0.5969  1.1690  1.3410
  228MPD1     C 3511   2.698   1.507  12.207 -0.2653 -0.1989  0.2640
  228MPD1    C1 3512   2.583   1.576  12.197  0.2036 -0.5264  0.2585
  228MPD1    C2 3513   2.473   1.513  12.252  0.3277  0.6854 -0.7630
  228MPD1    C3 3514   2.467   1.381  12.306  0.4911 -0.2163  0.2492
  228MPD1    C4 3515   2.591   1.314  12.313 -0.0563 -0.8012  0.3815
  228MPD1    C5 3516   2.703   1.382  12.274  0.2011 -0.0217  0.8384
  228MPD1     H 3517   2.378   1.564  12.251 -0.7375 -1.2862 -1.0285
  228MPD1    H1 3518   2.612   1.219  12.361  1.8985  0.9535  2.9630
  228MPD1    H2 3519   2.784   1.560  12.167 -0.9670 -0.3234 -1.4155
  228MPD1    H3 3520   2.800   1.334  12.288  0.6594  1.2628  2.0432
  228MPD1     N 3521   2.348   1.334  12.350  0.2077  0.2011 -0.2650
  228MPD1    H5 3522   2.265   1.392  12.338  1.2923  1.7220 -0.4687
  228MPD1    N1 3523   2.581   1.713  12.163 -0.5224 -0.1506  0.6046
  228MPD1    H6 3524   2.647   1.732  12.087 -1.1414  1.8665  0.5694
  228MPD1    H7 3525   2.487   1.742  12.137  0.2628  1.1053 -0.8662
  229MPD1     C 3526   1.534   0.078  15.178  0.2322 -0.6285 -0.3933
  229MPD1    C1 3527   1.616   0.086  15.290  0.6026  0.2311  0.8960
  229MPD1    C2 3528   1.748   0.047  15.283  0.2408 -0.0227 -0.8132
  229MPD1    C3 3529   1.793   4.726  15.167 -0.2443  0.6569  0.4125
  229MPD1    C4 3530   1.716   4.729  15.055  0.3261 -0.0729  0.7611
  229MPD1    C5 3531   1.592   0.040  15.057 -0.1671 -0.3617 -0.1417
  229MPD1     H 3532   1.813   0.048  15.370  0.4432  0.4105 -0.9720
  229MPD1    H1 3533   1.749   4.706  14.954  2.0112  0.3204  1.2234
  229MPD1    H2 3534   1.432   0.115  15.178  1.0525  1.6198 -0.3203
  229MPD1    H3 3535   1.527   0.033  14.970 -0.0454 -0.2123 -0.2445
  229MPD1     N 3536   1.910   4.651  15.157 -0.1506 -0.8710  0.2319
  229MPD1    H5 3537   1.935   4.624  15.062  1.2219  3.4350 -0.6459
  229MPD1    N1 3538   1.569   0.152  15.399 -0.1898 -0.4750  0.0752
  229MPD1    H6 3539   1.619   0.107  15.475 -0.0772 -0.3693  0.0630
  229MPD1    H7 3540   1.472   0.131  15.420 -0.9003  3.8491  1.1364
  230MPD1     C 3541   2.624   4.141  15.829  0.0444  0.2975  0.4448
  230MPD1    C1 3542   2.625   4.278  15.802  0.2137 -0.5325 -0.2985
  230MPD1    C2 3543   2.524   4.333  15.725 -0.6222  0.1171 -0.0016
  230MPD1    C3 3544   2.427   4.248  15.668 -0.2173 -0.6294 -0.0706
  230MPD1    C4 3545   2.431   4.115  15.699  1.0959 -0.5896 -0.2968
  230MPD1    C5 3546   2.528   4.065  15.777 -0.4708 -0.0822  1.0892
  230MPD1     H 3547   2.530   4.437  15.695  1.1592 -0.2334 -0.9164
  230MPD1    H1 3548   2.367   4.039  15.656 -2.0913  0.7762  1.9827
  230MPD1    H2 3549   2.695   4.087  15.891  0.0595  1.3831  1.3792
  230MPD1    H3 3550   2.524   3.957  15.789 -0.0298 -0.2613 -0.3929
  230MPD1     N 3551   2.324   4.294  15.577 -0.3248 -0.0458 -0.1360
  230MPD1    H5 3552   2.266   4.217  15.543 -0.9591  0.1657  0.4735
  230MPD1    N1 3553   2.720   4.353  15.872  0.5957  0.2338  0.2082
  230MPD1    H6 3554   2.809   4.304  15.870  0.6530  0.3882 -0.8605
  230MPD1    H7 3555   2.741   4.446  15.836  0.9053 -0.4559 -1.4140
  231MPD1     C 3556   0.252   1.911  14.960  0.1472 -1.1502  0.3103
  231MPD1    C1 3557   0.205   1.969  14.845 -0.1621  0.1886 -0.2188
  231MPD1    C2 3558   0.306   2.028  14.767  0.2484 -0.8182  0.0341
  231MPD1    C3 3559   0.439   2.042  14.792  0.3602 -0.6314  0.3224
  231MPD1    C4 3560   0.479   1.985  14.908  0.7151  0.6900 -1.1986
  231MPD1    C5 3561   0.390   1.916  14.991 -0.2064  0.0200 -0.0983
  231MPD1     H 3562   0.274   2.071  14.673  2.0610  1.6363  0.5407
  231MPD1    H1 3563   0.581   1.985  14.946  1.2763 -1.2920 -2.6538
  231MPD1    H2 3564   0.194   1.845  15.022 -1.9066  0.5440  0.1997
  231MPD1    H3 3565   0.428   1.866  15.079 -0.8240 -0.6229 -0.1969
  231MPD1     N 3566   0.527   2.101  14.695 -0.3238 -0.4806  0.1165
  231MPD1    H5 3567   0.478   2.128  14.611 -0.4704  1.8493  0.9769
  231MPD1    N1 3568   0.072   1.939  14.801 -0.4522 -0.4408  0.3452
  231MPD1    H6 3569   0.050   2.011  14.733 -1.6831 -0.8015  0.3690
  231MPD1    H7 3570   0.004   1.944  14.877 -2.6351 -2.1415 -1.5116
  232MPD1     C 3571   2.651   3.598   0.334  0.0801 -0.2397 -0.6681
  232MPD1    C1 3572   2.539   3.648   0.391 -0.4628  0.1307 -0.3508
  232MPD1    C2 3573   2.443   3.694   0.299 -0.0805  0.7710  0.4561
  232MPD1    C3 3574   2.459   3.680   0.160 -0.1584 -0.1416  0.1385
  232MPD1    C4 3575   2.572   3.621   0.109 -0.0951 -0.0905  0.0303
  232MPD1    C5 3576   2.672   3.574   0.200  0.3560 -0.0361 -0.0987
  232MPD1     H 3577   2.352   3.734   0.342 -0.4680  0.5226 -0.1366
  232MPD1    H1 3578   2.587   3.602   0.004 -3.2448 -2.5760  0.0261
  232MPD1    H2 3579   2.737   3.570   0.394  0.3212  2.2643  0.1714
  232MPD1    H3 3580   2.762   3.524   0.165 -0.4303 -1.0767 -0.6354
  232MPD1     N 3581   2.348   3.713   0.073  0.1714  0.2578  0.7506
  232MPD1    H5 3582   2.261   3.732   0.119  0.1995  0.3185  0.7781
  232MPD1    N1 3583   2.537   3.682   0.528  0.0773  0.0068  0.5408
  232MPD1    H6 3584   2.599   3.622   0.581 -0.0045 -0.1569  0.4503
  232MPD1    H7 3585   2.443   3.681   0.568  0.2613 -0.7772  0.9344
  233MPD1     C 3586   2.951   2.485  16.803 -0.3538 -0.4542  0.0778
  233MPD1    C1 3587   3.061   2.553  16.858  1.0764  0.0349 -0.4420
  233MPD1    C2 3588   3.104   2.521  16.982  0.3306  0.2259 -0.5518
  233MPD1    C3 3589   3.057   2.404  17.045 -1.1502  0.0865 -0.1224
  233MPD1    C4 3590   2.943   2.338  16.994 -0.7958 -0.4374  0.4497
  233MPD1    C5 3591   2.901   2.382  16.871 -0.9699  0.6391 -0.1510
  233MPD1     H 3592   3.183   2.574  17.033  1.2499 -1.6195 -0.0326
  233MPD1    H1 3593   2.892   2.258  17.047 -1.4113  0.0101  0.5389
  233MPD1    H2 3594   2.915   2.506  16.702 -0.0917  2.9784  0.6845
  233MPD1    H3 3595   2.823   2.328  16.819  0.3422 -3.5221  2.1951
  233MPD1     N 3596   3.105   2.355  17.172  0.0122 -0.0235  0.1409
  233MPD1    H5 3597   3.067   2.269  17.210  2.1432 -0.8088  0.4693
  233MPD1    N1 3598   3.119   2.659  16.785  0.4675  0.1994  0.0934
  233MPD1    H6 3599   3.095   2.654  16.686 -0.6950  0.0043  0.3948
  233MPD1    H7 3600   3.220   2.658  16.798  0.5405 -0.5138 -0.5502
  234MPD1     C 3601   4.520   1.283   9.467  0.2335  0.0777 -0.4533
  234MPD1    C1 3602   4.398   1.266   9.413  0.2199  0.4396 -0.7579
  234MPD1    C2 3603   4.306   1.370   9.414 -0.0109  0.6519  0.1503
  234MPD1    C3 3604   4.341   1.487   9.475 -0.2223  0.3914  0.5241
  234MPD1    C4 3605   4.471   1.501   9.521  0.5126  0.0611  0.3589
  234MPD1    C5 3606   4.562   1.399   9.515 -0.4119  0.7310  0.0570
  234MPD1     H 3607   4.207   1.347   9.376  1.8704 -2.2790 -2.9918
  234MPD1    H1 3608   4.513   1.591   9.563  0.0464  0.1314  0.6789
  234MPD1    H2 3609   4.598   1.208   9.459 -0.8594 -1.1743  0.4844
  234MPD1    H3 3610   4.662   1.409   9.554  0.7306 -1.9037 -2.1643
  234MPD1     N 3611   4.252   1.596   9.486  0.3197  0.0544  0.2592
  234MPD1    H5 3612   4.158   1.590   9.447  0.0917  2.4182  0.4676
  234MPD1    N1 3613   4.376   1.143   9.353  0.0133  0.4190  0.2720
  234MPD1    H6 3614   4.427   1.067   9.398 -0.2200 -0.4157 -0.8569
  234MPD1    H7 3615   4.279   1.116   9.333 -0.4717  1.4043  1.3168
  235MPD1     C 3616   0.395   4.394   9.174  0.2796  0.1034  0.4003
  235MPD1    C1 3617   0.385   4.533   9.208 -0.1289  0.0950 -0.3501
  235MPD1    C2 3618   0.478   4.582   9.299 -0.5778 -0.2451 -0.0771
  235MPD1    C3 3619   0.563   4.491   9.363 -0.7267  0.1226 -0.7730
  235MPD1    C4 3620   0.568   4.355   9.333  0.1763 -0.4551 -0.0707
  235MPD1    C5 3621   0.479   4.312   9.234 -0.2655 -0.2263  0.0794
  235MPD1     H 3622   0.496   4.686   9.324  0.2487 -0.6427  1.0376
  235MPD1    H1 3623   0.639   4.287   9.378  0.5372  1.1065  1.7159
  235MPD1    H2 3624   0.336   4.350   9.094  1.6195  3.4263 -2.4047
  235MPD1    H3 3625   0.475   4.205   9.219  0.0213  0.0487 -1.9569
  235MPD1     N 3626   0.644   4.551   9.465 -0.0594  0.0570  0.6696
  235MPD1    H5 3627   0.618   4.643   9.499 -0.6389 -0.3378  1.3110
  235MPD1    N1 3628   0.315   4.620   9.129  0.4626  0.2355  0.3146
  235MPD1    H6 3629   0.227   4.576   9.101 -0.1708  0.8411  1.3725
  235MPD1    H7 3630   0.291   4.702   9.184 -0.6179 -0.3632  0.7301
  236MPD1     C 3631   0.261   0.382   9.638 -0.1430 -0.1617  0.1805
  236MPD1    C1 3632   0.223   0.265   9.702 -0.0284 -0.5742  0.8663
  236MPD1    C2 3633   0.289   0.228   9.813 -0.1890 -0.0940 -0.6402
  236MPD1    C3 3634   0.367   0.318   9.879 -0.1551 -0.6317 -0.7236
  236MPD1    C4 3635   0.388   0.448   9.825  0.0730 -0.7484 -0.5523
  236MPD1    C5 3636   0.339   0.473   9.701 -0.2957 -0.0201  0.1760
  236MPD1     H 3637   0.273   0.124   9.840  0.9449  0.2122  1.2051
  236MPD1    H1 3638   0.465   0.513   9.866 -1.0972 -1.1653  2.2781
  236MPD1    H2 3639   0.220   0.398   9.538 -0.4688 -0.0169  0.3369
  236MPD1    H3 3640   0.369   0.565   9.653  0.6088  0.4044  1.5328
  236MPD1     N 3641   0.442   0.287  10.000  0.8007 -0.0395 -0.1273
  236MPD1    H5 3642   0.494   0.368  10.034 -3.7253  2.4578  0.9220
  236MPD1    N1 3643   0.138   0.173   9.637 -0.2724 -0.2940  0.3543
  236MPD1    H6 3644   0.076   0.225   9.575 -1.7201 -2.5698 -0.1379
  236MPD1    H7 3645   0.079   0.118   9.700  2.1518 -1.8137  1.2815
  237MPD1     C 3646   1.321   3.248  14.879  0.2509 -0.0552  0.2500
  237MPD1    C1 3647   1.273   3.270  15.007  0.3802 -0.0805 -0.5099
  237MPD1    C2 3648   1.147   3.222  15.043 -0.5100 -0.1327 -0.2064
  237MPD1    C3 3649   1.068   3.164  14.945  0.0227 -0.0680 -0.7687
  237MPD1    C4 3650   1.112   3.155  14.811  0.3563  0.2774  0.3473
  237MPD1    C5 3651   1.242   3.194  14.782 -0.6337  0.8821  0.0936
  237MPD1     H 3652   1.120   3.233  15.147  1.4454 -1.0061  0.3934
  237MPD1    H1 3653   1.056   3.097  14.739 -1.3699 -0.1721  2.0771
  237MPD1    H2 3654   1.423   3.277  14.859  0.1828  0.0396  0.0413
  237MPD1    H3 3655   1.279   3.193  14.680 -1.3084 -2.1253 -0.1129
  237MPD1     N 3656   0.930   3.134  14.970 -0.5262  0.2011 -0.1259
  237MPD1    H5 3657   0.875   3.113  14.886  1.8533 -0.6939 -1.4723
  237MPD1    N1 3658   1.362   3.317  15.103 -0.4973 -0.1345  0.1796
  237MPD1    H6 3659   1.427   3.379  15.055 -2.6238  1.4516 -0.6723
  237MPD1    H7 3660   1.309   3.362  15.177 -0.0926  1.8037 -0.7045
  238MPD1     C 3661   2.469   1.231  15.262  0.3746  0.6426 -0.4701
  238MPD1    C1 3662   2.511   1.300  15.153  0.3897 -0.3757  0.4382
  238MPD1    C2 3663   2.428   1.369  15.073 -0.0373  0.6006  0.6462
  238MPD1    C3 3664   2.291   1.367  15.111 -0.2231  0.5997 -0.1895
  238MPD1    C4 3665   2.243   1.299  15.221  0.0395 -0.3161  0.2362
  238MPD1    C5 3666   2.334   1.236  15.297  0.6130 -0.0476 -0.8072
  238MPD1     H 3667   2.461   1.420  14.983 -0.4762  0.6545  0.5121
  238MPD1    H1 3668   2.142   1.311  15.257 -0.0689  2.5265 -1.0005
  238MPD1    H2 3669   2.543   1.183  15.325 -0.0313 -1.1761 -1.3855
  238MPD1    H3 3670   2.301   1.188  15.389  2.0919  1.3507  0.4542
  238MPD1     N 3671   2.195   1.439  15.039 -0.1649 -0.7027 -0.1449
  238MPD1    H5 3672   2.100   1.430  15.075 -0.0382  1.5369  0.7807
  238MPD1    N1 3673   2.644   1.289  15.120  0.1481  0.2440  0.3117
  238MPD1    H6 3674   2.669   1.379  15.081 -1.0970  0.0307 -0.9777
  238MPD1    H7 3675   2.699   1.259  15.200  1.6751  1.0667 -0.4362
  239MPD1     C 3676   2.529   2.533  15.121  0.4393 -0.1593  0.2947
  239MPD1    C1 3677   2.632   2.585  15.050 -0.4343 -0.6741 -0.1162
  239MPD1    C2 3678   2.601   2.671  14.952 -0.2841  0.0042  0.0120
  239MPD1    C3 3679   2.475   2.721  14.935 -0.1025  0.6693 -0.0977
  239MPD1    C4 3680   2.378   2.687  15.021 -0.3678 -0.2913  1.2901
  239MPD1    C5 3681   2.406   2.589  15.110  0.1633  0.5944  0.1334
  239MPD1     H 3682   2.676   2.724  14.894  0.0728  0.9252  1.3016
  239MPD1    H1 3683   2.277   2.719  15.001  0.0759  0.4516  0.1927
  239MPD1    H2 3684   2.550   2.441  15.174  1.3929 -0.3392 -0.3956
  239MPD1    H3 3685   2.322   2.539  15.157 -0.2062  1.4994  0.4205
  239MPD1     N 3686   2.424   2.814  14.839 -0.0810 -0.1087  0.3698
  239MPD1    H5 3687   2.327   2.843  14.846 -0.2494 -0.6739  0.4189
  239MPD1    N1 3688   2.764   2.536  15.048 -0.2756 -0.7051 -0.3239
  239MPD1    H6 3689   2.787   2.521  15.146  1.9876  1.5753 -0.5101
  239MPD1    H7 3690   2.829   2.602  15.006  1.0325 -0.5236  1.9679
  240MPD1     C 3691   1.865   2.870  13.884  0.1611  0.9834 -0.1215
  240MPD1    C1 3692   1.770   2.768  13.866 -0.2007 -0.7114 -0.6281
  240MPD1    C2 3693   1.800   2.653  13.943  0.4982  0.1256 -0.0383
  240MPD1    C3 3694   1.920   2.624  14.005 -0.5036  1.1197  0.6925
  240MPD1    C4 3695   2.015   2.723  14.009  0.1884  0.2997 -0.7211
  240MPD1    C5 3696   1.971   2.844  13.963  0.4301  0.2713  0.2127
  240MPD1     H 3697   1.724   2.576  13.953 -1.1265  1.8052  0.5737
  240MPD1    H1 3698   2.114   2.723  14.054 -0.4966 -0.1924  0.7908
  240MPD1    H2 3699   1.853   2.973  13.851  0.2104  0.4187 -1.9229
  240MPD1    H3 3700   2.051   2.915  13.977  1.0524 -0.0306 -1.7504
  240MPD1     N 3701   1.932   2.500  14.057 -0.0997  0.1301 -0.1980
  240MPD1    H5 3702   1.867   2.424  14.041 -1.9919  1.1640  2.6031
  240MPD1    N1 3703   1.644   2.796  13.816  0.1139  0.2420 -0.0333
  240MPD1    H6 3704   1.669   2.856  13.738  0.7138 -0.0398 -0.0560
  240MPD1    H7 3705   1.598   2.711  13.783  0.7100 -0.6443  1.3763
  241MPD1     C 3706   2.220   1.944  14.968  0.0556 -0.3335  0.5256
  241MPD1    C1 3707   2.312   1.954  14.861  0.1346  0.1266  0.3065
  241MPD1    C2 3708   2.265   2.017  14.746 -0.7301 -0.0966 -0.8757
  241MPD1    C3 3709   2.128   2.057  14.734  0.2855  0.5282 -0.7377
  241MPD1    C4 3710   2.045   2.036  14.844 -0.4502  1.0190 -0.5034
  241MPD1    C5 3711   2.094   1.981  14.961 -0.2690  0.5612  0.5037
  241MPD1     H 3712   2.331   2.045  14.665 -1.1170 -1.3860 -1.6303
  241MPD1    H1 3713   1.941   2.068  14.845 -0.5547  0.6995 -1.5864
  241MPD1    H2 3714   2.242   1.890  15.060 -0.9962 -4.0989 -1.4280
  241MPD1    H3 3715   2.031   1.957  15.046  2.8262 -2.8819  1.8222
  241MPD1     N 3716   2.076   2.125  14.622 -0.1825  0.1554 -0.5248
  241MPD1    H5 3717   1.977   2.145  14.627 -0.4837 -0.9460 -1.8215
  241MPD1    N1 3718   2.451   1.929  14.885 -0.4011 -0.5539 -0.5884
  241MPD1    H6 3719   2.505   1.908  14.801  1.4407 -2.6151  1.0968
  241MPD1    H7 3720   2.446   1.852  14.951 -0.6222  1.2573  1.5265
  242MPD1     C 3721   2.222   1.109  15.645  0.2315 -0.7547 -0.2377
  242MPD1    C1 3722   2.097   1.045  15.646 -0.1220  0.6481  0.4171
  242MPD1    C2 3723   2.084   0.941  15.556 -0.1551 -0.3640  0.3434
  242MPD1    C3 3724   2.190   0.866  15.507 -0.8319  0.3678 -0.1089
  242MPD1    C4 3725   2.315   0.921  15.530  0.2725  0.6798  0.0600
  242MPD1    C5 3726   2.330   1.046  15.589 -0.8739 -0.2936 -0.1300
  242MPD1     H 3727   1.982   0.905  15.543 -0.4224 -1.6110  6.1724
  242MPD1    H1 3728   2.407   0.881  15.488  2.2976  4.8812  0.5084
  242MPD1    H2 3729   2.236   1.209  15.685 -3.2307 -0.6206  0.6615
  242MPD1    H3 3730   2.423   1.100  15.580  0.0709 -2.0976 -1.2037
  242MPD1     N 3731   2.173   0.748  15.427  0.2625  0.1486 -0.0619
  242MPD1    H5 3732   2.257   0.696  15.404 -0.7167 -0.6220 -1.8576
  242MPD1    N1 3733   1.986   1.101  15.718  0.3953 -0.1122 -0.5074
  242MPD1    H6 3734   2.013   1.171  15.788 -1.5297  1.1536 -1.0242
  242MPD1    H7 3735   1.918   1.031  15.744  1.3642 -0.3235  1.4498
  243MPD1     C 3736   3.124   0.526  17.502 -0.6746  0.4452 -0.0945
  243MPD1    C1 3737   3.058   0.506  17.381 -0.1861  0.2553  0.8009
  243MPD1    C2 3738   3.002   0.383  17.352 -0.3081  0.3038 -0.0480
  243MPD1    C3 3739   3.019   0.279  17.440  0.0743  0.2758 -0.0800
  243MPD1    C4 3740   3.093   0.299  17.555 -0.2996 -0.4654 -0.5461
  243MPD1    C5 3741   3.142   0.421  17.588  0.2526  0.5932 -0.5827
  243MPD1     H 3742   2.954   0.365  17.257 -3.2103 -0.1911  1.5322
  243MPD1    H1 3743   3.134   0.216  17.613 -0.9460 -0.8431 -0.6345
  243MPD1    H2 3744   3.166   0.625  17.518 -0.8991  0.7293 -1.2822
  243MPD1    H3 3745   3.208   0.437  17.673 -0.4794  2.7075 -0.4143
  243MPD1     N 3746   2.990   0.147  17.387 -0.4463  0.4690 -0.0590
  243MPD1    H5 3747   2.963   0.140  17.289  2.3554 -1.8720 -0.6443
  243MPD1    N1 3748   3.077   0.609  17.293 -0.5359 -0.2847 -0.5557
  243MPD1    H6 3749   3.095   0.694  17.344 -0.4396  0.7014 -2.2293
  243MPD1    H7 3750   2.989   0.629  17.246 -1.5944 -2.6278  0.4234
  244MPD1     C 3751   2.453   4.084  17.711  0.3389  0.3695 -0.4081
  244MPD1    C1 3752   2.536   4.153   0.045  0.1645  0.3537 -1.4893
  244MPD1    C2 3753   2.637   4.235  17.742 -0.1283  0.2890 -0.0481
  244MPD1    C3 3754   2.651   4.241  17.606  0.1535 -0.2959  0.0712
  244MPD1    C4 3755   2.571   4.163  17.522  0.4840  0.5396  0.2762
  244MPD1    C5 3756   2.475   4.085  17.576 -0.6598 -0.7430 -0.6382
  244MPD1     H 3757   2.703   4.295   0.048  1.4949  0.0934 -1.6174
  244MPD1    H1 3758   2.587   4.161  17.414 -1.6561  0.0488 -0.0349
  244MPD1    H2 3759   2.372   4.021  17.747  0.0908  0.6715 -0.4408
  244MPD1    H3 3760   2.416   4.018  17.515 -1.3359 -1.8248  1.1822
  244MPD1     N 3761   2.760   4.317  17.552 -0.1999 -0.1049  0.0472
  244MPD1    H5 3762   2.827   4.357  17.617 -0.7988  0.9796  0.0045
  244MPD1    N1 3763   2.530   4.121   0.180 -0.1114  0.1491  0.0613
  244MPD1    H6 3764   2.440   4.101   0.222  0.4971 -1.5476  0.5723
  244MPD1    H7 3765   2.597   4.169   0.240 -0.6515  0.4482  0.4163
  245MPD1     C 3766   4.577   4.446  12.835  0.0367 -0.1148 -0.0482
  245MPD1    C1 3767   4.586   4.446  12.966 -0.2194  0.2039 -0.5011
  245MPD1    C2 3768   4.622   4.568  13.026 -0.2831 -0.2949 -0.7544
  245MPD1    C3 3769   4.650   4.681  12.951  0.0681 -0.2328  1.0797
  245MPD1    C4 3770   4.656   4.665  12.810  0.0135 -0.5290 -0.3181
  245MPD1    C5 3771   4.605   4.550  12.754  0.0988 -0.3804  0.0911
  245MPD1     H 3772   4.639   4.577  13.133 -1.0064 -0.2465 -0.6401
  245MPD1    H1 3773   4.688   0.009  12.748  1.5700 -1.4773 -0.7752
  245MPD1    H2 3774   4.560   4.355  12.778 -1.7705 -1.1727  2.1322
  245MPD1    H3 3775   4.608   4.535  12.646  1.2211 -0.1897  0.1024
  245MPD1     N 3776   4.685   0.062  13.021 -0.3433 -0.4275  0.0925
  245MPD1    H5 3777   4.681   0.062  13.123 -3.0348 -0.6080 -0.0203
  245MPD1    N1 3778   4.555   4.331  13.043  0.0795  0.3871  0.1610
  245MPD1    H6 3779   4.594   4.247  13.000 -2.4022 -0.2122 -0.9257
  245MPD1    H7 3780   4.598   4.343  13.134  1.3703  0.1566 -0.4259
  246MPD1     C 3781   3.507   4.461   9.273  0.0447 -0.7379 -0.3272
  246MPD1    C1 3782   3.455   4.580   9.232 -0.0316 -0.2508 -0.0762
  246MPD1    C2 3783   3.538   4.691   9.231 -0.1628 -0.1475  0.3838
  246MPD1    C3 3784   3.664   4.689   9.289 -0.5836  0.0567  0.1886
  246MPD1    C4 3785   3.705   4.572   9.347  0.1673 -0.2192 -0.1827
  246MPD1    C5 3786   3.628   4.460   9.325  0.0241  0.2641 -0.8210
  246MPD1     H 3787   3.496   0.041   9.186  0.6479  0.5018  0.9429
  246MPD1    H1 3788   3.805   4.560   9.386  0.8297 -2.6883 -2.6515
  246MPD1    H2 3789   3.457   4.365   9.269 -0.4092 -0.6125  2.5411
  246MPD1    H3 3790   3.662   4.363   9.359  2.5359  1.3500 -0.2040
  246MPD1     N 3791   3.747   0.070   9.286  0.4106 -0.0105  0.4610
  246MPD1    H5 3792   3.698   0.151   9.248  0.5911  0.3409  0.9687
  246MPD1    N1 3793   3.330   4.596   9.161  0.7577 -0.4758 -0.0171
  246MPD1    H6 3794   3.283   4.684   9.140 -0.4020 -0.9283  0.7007
  246MPD1    H7 3795   3.261   4.526   9.187  0.7937 -1.0185 -1.3445
  247MPD1     C 3796   4.264   4.634  16.195 -0.3375  0.0492 -1.2171
  247MPD1    C1 3797   4.342   4.670  16.086 -0.5064  0.7166 -0.2098
  247MPD1    C2 3798   4.386   4.575  15.994  0.0001  0.5516 -0.3119
  247MPD1    C3 3799   4.361   4.443  16.018 -0.0028  0.5953 -0.2775
  247MPD1    C4 3800   4.276   4.402  16.124 -0.1815 -0.0617 -0.5636
  247MPD1    C5 3801   4.235   4.498  16.219 -0.1286  1.1733 -0.1027
  247MPD1     H 3802   4.451   4.608  15.914 -0.1340 -1.3684 -1.2126
  247MPD1    H1 3803   4.250   4.297  16.130 -1.0621  0.2952  1.6962
  247MPD1    H2 3804   4.222   4.712  16.257  0.3463 -1.1159  0.7178
  247MPD1    H3 3805   4.162   4.463  16.291  2.0486 -0.1164  1.4956
  247MPD1     N 3806   4.407   4.340  15.938 -0.1375  0.3961 -0.2857
  247MPD1    H5 3807   4.378   4.245  15.959 -1.4740  1.1907  1.4474
  247MPD1    N1 3808   4.368   0.066  16.069 -0.5317  0.0968  0.9617
  247MPD1    H6 3809   4.467   0.086  16.054 -0.7714  1.9948  1.8280
  247MPD1    H7 3810   4.352   0.118  16.156 -1.0337  0.3184  0.7353
  248MPD1     C 3811   1.061   2.769   0.361  0.2278  0.1345 -0.4753
  248MPD1    C1 3812   1.144   2.846   0.436 -0.1352  0.4409  1.3858
  248MPD1    C2 3813   1.089   2.938   0.515 -0.1612 -0.4416  0.4001
  248MPD1    C3 3814   0.953   2.948   0.520  0.1720  0.2126  0.5440
  248MPD1    C4 3815   0.871   2.861   0.451 -0.0222  1.0297  0.0516
  248MPD1    C5 3816   0.931   2.771   0.370 -0.5496  0.4815  0.0034
  248MPD1     H 3817   1.149   3.010   0.569 -1.1374  1.1969 -0.6951
  248MPD1    H1 3818   0.764   2.869   0.436 -0.3774 -0.6448  1.5517
  248MPD1    H2 3819   1.105   2.710   0.281  0.3834  0.1787 -0.4227
  248MPD1    H3 3820   0.872   2.713   0.299  1.6609  0.7487 -2.0481
  248MPD1     N 3821   0.899   3.057   0.589 -0.2003 -0.4599 -0.7067
  248MPD1    H5 3822   0.963   3.117   0.640 -1.1270  0.3072 -0.4500
  248MPD1    N1 3823   1.273   2.856   0.391  0.5846  0.7661  0.0463
  248MPD1    H6 3824   1.335   2.881   0.467 -1.4883 -0.0212  1.9961
  248MPD1    H7 3825   1.304   2.770   0.346  1.9772  0.5252  1.4702
  249MPD1     C 3826   3.417   3.873   9.372  0.0356 -0.2657 -0.1183
  249MPD1    C1 3827   3.310   3.839   9.285 -0.4392  0.0956 -0.4769
  249MPD1    C2 3828   3.199   3.786   9.345 -0.4863 -0.2031 -0.8169
  249MPD1    C3 3829   3.177   3.787   9.480  0.1019 -0.3032  0.2584
  249MPD1    C4 3830   3.275   3.834   9.562  0.5627 -0.0916 -0.4136
  249MPD1    C5 3831   3.392   3.881   9.505  0.1089  0.2526  0.9332
  249MPD1     H 3832   3.118   3.746   9.285 -1.6706  1.0912 -0.0807
  249MPD1    H1 3833   3.258   3.852   9.668  0.1330  0.2223 -0.5376
  249MPD1    H2 3834   3.512   3.915   9.340  0.0942 -0.6737 -0.4779
  249MPD1    H3 3835   3.459   3.934   9.572  1.3178  0.5898 -0.5319
  249MPD1     N 3836   3.058   3.732   9.530  0.2269  0.8459  0.1531
  249MPD1    H5 3837   2.996   3.682   9.467 -0.9655  2.1807  0.2519
  249MPD1    N1 3838   3.335   3.840   9.145 -0.6905 -0.4976 -0.3955
  249MPD1    H6 3839   3.399   3.915   9.119  0.6294 -1.1639  0.9465
  249MPD1    H7 3840   3.242   3.855   9.106 -1.1175 -0.7490  0.5295
  250MPD2     C 3841   3.723   2.722  13.079 -0.8191  0.0228  0.6504
  250MPD2    C1 3842   3.635   2.809  13.141 -0.3479 -0.4509  0.4392
  250MPD2    C2 3843   3.513   2.757  13.185 -0.7302 -0.0528  0.3509
  250MPD2    C3 3844   3.475   2.627  13.161  0.4786 -0.1075  0.1653
  250MPD2    C4 3845   3.568   2.545  13.092  0.3688  0.3013 -0.7155
  250MPD2    C5 3846   3.695   2.587  13.059 -0.0587  0.0454 -0.3360
  250MPD2     H 3847   3.431   2.812  13.231  0.5677  1.4168  0.9010
  250MPD2    H1 3848   3.534   2.442  13.082  1.1272  0.0730 -0.9065
  250MPD2    H2 3849   3.823   2.759  13.060 -0.7363 -0.6412 -0.1911
  250MPD2    H3 3850   3.764   2.514  13.018  0.8722  0.1278  1.0880
  250MPD2     N 3851   3.345   2.578  13.188 -0.2379  0.4970  0.1740
  250MPD2    H5 3852   3.333   2.484  13.151 -1.8639  1.0581 -0.7256
  250MPD2    N1 3853   3.673   2.942  13.163  0.7214  0.2546  0.1638
  250MPD2    H7 3854   3.765   2.969  13.131  1.5954  0.0135  2.4622
  251TMC3    C1 3855   3.662   3.169  13.238 -0.3640  0.1626  0.9749
  251TMC3    C2 3856   3.581   3.279  13.259  0.6279 -0.7045 -0.5183
  251TMC3    C3 3857   3.632   3.403  13.246 -0.6061  0.1271  0.1886
  251TMC3    C4 3858   3.791   3.188  13.205  0.1474  0.9440 -0.1474
  251TMC3    C5 3859   3.847   3.309  13.196  0.3603  0.2211 -0.3606
  251TMC3    C6 3860   3.761   3.420  13.207 -0.7485 -0.5284 -0.7251
  251TMC3     C 3861   3.594   3.047  13.219 -0.7198 -0.0294 -0.2967
  251TMC3     O 3862   3.475   3.048  13.248  0.0756  0.0728  0.6328
  251TMC3     H 3863   3.476   3.279  13.289  1.4304 -0.4954  2.2766
  251TMC3    H1 3864   3.851   3.100  13.188  1.4038  1.8962 -0.5804
  251TMC3    H2 3865   3.794   3.524  13.201  0.7254 -0.8550  1.8679
  251TMC3    C7 3866   3.983   3.315  13.158 -0.3505  0.4554 -0.5856
  251TMC3    C8 3867   3.561   3.522  13.293 -0.3611  0.1490 -0.1025
  251TMC3    O1 3868   4.040   3.205  13.164  0.0383 -0.2971  0.1997
  251TMC3    O2 3869   3.474   3.506  13.380 -0.3715 -0.4529 -0.2900
  252TMC3    C1 3870   3.925   0.110   8.903 -0.1682 -0.1867  0.1131
  252TMC3    C2 3871   4.040   0.120   8.985 -0.2993 -0.0107  0.5396
  252TMC3    C3 3872   4.082   0.009   9.045 -0.8592  0.0312  0.2585
  252TMC3    C4 3873   3.853   4.738   8.899  0.6552 -0.0667 -0.4098
  252TMC3    C5 3874   3.887   4.630   8.977  0.0251  0.6637  0.2530
  252TMC3    C6 3875   4.004   4.632   9.048  0.0976 -0.5795 -0.2823
  252TMC3     C 3876   3.881   0.234   8.839  0.0248 -0.3879 -0.0251
  252TMC3     O 3877   3.766   0.246   8.804  0.3028 -0.0032 -0.3652
  252TMC3     H 3878   4.085   0.218   8.992  0.4401 -0.3500  0.5006
  252TMC3    H1 3879   3.760   0.007   8.844  1.1445  0.3880 -1.1685
  252TMC3    H2 3880   4.044   4.538   9.085 -0.9606 -0.0389  2.2267
  252TMC3    C7 3881   3.815   4.508   8.948  0.2475 -0.4151 -0.1351
  252TMC3    C8 3882   4.193   0.030   9.139 -0.2613 -0.2666 -0.2089
  252TMC3    O1 3883   3.720   4.520   8.870  0.7213  0.5880 -1.1762
  252TMC3    O2 3884   4.264   0.128   9.115 -0.6890 -0.3771 -0.3303
  253MPD2     C 3885   4.628   3.026  14.762  0.0365 -0.6102  0.0710
  253MPD2    C1 3886   4.504   3.081  14.761  0.8161  0.5466  0.7169
  253MPD2    C2 3887   4.454   3.141  14.883  0.0841 -0.3416  0.0110
  253MPD2    C3 3888   4.534   3.144  15.003  0.1972  0.1629 -0.6260
  253MPD2    C4 3889   4.655   3.079  14.996 -0.7066 -1.1632 -0.1710
  253MPD2    C5 3890   4.696   3.021  14.878 -1.0018  0.0208  0.4592
  253MPD2     H 3891   4.355   3.185  14.885  0.0316 -0.4623  0.1482
  253MPD2    H1 3892   4.716   3.073  15.086 -0.1087 -0.6147 -0.5412
  253MPD2    H2 3893   4.674   2.972  14.679  0.7135  2.2775 -1.4384
  253MPD2    H3 3894   0.053   2.974  14.893 -1.4349 -0.7132  0.9250
  253MPD2     N 3895   4.498   3.206  15.121 -0.2731 -0.0110 -0.1619
  253MPD2    H5 3896   4.555   3.184  15.202  1.5206  0.3104 -1.3467
  253MPD2    N1 3897   4.418   3.079  14.644  0.2131  0.1978  0.0291
  253MPD2    H7 3898   4.326   3.115  14.666  0.0749 -0.2157  0.1181
  254TMC3    C1 3899   4.372   3.361  15.259 -0.3212  0.0958  0.8465
  254TMC3    C2 3900   4.266   3.448  15.259  0.0483 -0.1413 -0.6696
  254TMC3    C3 3901   4.218   3.490  15.386  0.5179  0.2380 -0.3044
  254TMC3    C4 3902   4.414   3.296  15.366  0.4582  0.1531  0.0269
  254TMC3    C5 3903   4.365   3.340  15.488  0.2665  0.2988  0.4823
  254TMC3    C6 3904   4.267   3.438  15.500  0.0306 -0.3638 -0.0555
  254TMC3     C 3905   4.400   3.308  15.127  0.3775  0.3126  0.0627
  254TMC3     O 3906   4.353   3.366  15.031  0.5408  0.3806 -0.1556
  254TMC3     H 3907   4.220   3.494  15.172 -1.0548 -0.5138 -0.2807
  254TMC3    H1 3908   4.488   3.217  15.365  1.4691  1.0995  0.5004
  254TMC3    H2 3909   4.229   3.472  15.596  0.9891 -1.2567  0.6405
  254TMC3    C7 3910   4.449   3.308  15.605 -0.0216  0.5390 -0.5664
  254TMC3    C8 3911   4.155   3.621  15.391 -0.5206  0.1014 -0.0310
  254TMC3    O1 3912   4.382   3.298  15.706 -0.3187  0.4700  0.6326
  254TMC3    O2 3913   4.172   3.695  15.292  0.0727 -0.2428  0.3440
  255MPD2     C 3914   3.544   1.240  10.147  0.9281 -0.5336 -0.6223
  255MPD2    C1 3915   3.498   1.363  10.102  0.1814  0.2263 -0.0578
  255MPD2    C2 3916   3.417   1.364   9.992 -0.7300  0.4383 -0.4743
  255MPD2    C3 3917   3.383   1.248   9.923  0.1525 -0.9709  0.0794
  255MPD2    C4 3918   3.440   1.131   9.958  0.0040 -0.5194 -0.6085
  255MPD2    C5 3919   3.532   1.133  10.060 -0.3696  0.3385  0.1909
  255MPD2     H 3920   3.369   1.456   9.961  0.7877  1.2494 -0.3920
  255MPD2    H1 3921   3.434   1.037   9.904 -0.7384  0.5324 -2.3603
  255MPD2    H2 3922   3.619   1.238  10.226  0.1239 -0.0468  0.1498
  255MPD2    H3 3923   3.596   1.047  10.075 -0.4965  0.4532  1.4398
  255MPD2     N 3924   3.299   1.264   9.813 -0.0665 -0.3219 -0.2195
  255MPD2    H5 3925   3.251   1.352   9.796  0.0527 -0.1793  0.1757
  255MPD2    N1 3926   3.530   1.477  10.183 -0.1808 -0.9814 -0.0074
  255MPD2    H7 3927   3.569   1.455  10.274 -0.4948  1.8994  0.8365
  256TMC3    C1 3928   3.457   1.670  10.292  0.4597 -0.4956  0.2083
  256TMC3    C2 3929   3.476   1.804  10.285  0.2281 -0.3793 -0.4530
  256TMC3    C3 3930   3.367   1.881  10.309 -0.7108 -0.0260  0.2058
  256TMC3    C4 3931   3.345   1.615  10.344 -0.0607  0.0995 -0.3380
  256TMC3    C5 3932   3.241   1.694  10.381  0.0442  0.4621 -0.6297
  256TMC3    C6 3933   3.247   1.824  10.350  0.2298 -0.2081  0.2673
  256TMC3     C 3934   3.478   1.606  10.165  0.1378  0.7318  0.0082
  256TMC3     O 3935   3.436   1.666  10.064 -0.5634 -0.6019 -0.1467
  256TMC3     H 3936   3.559   1.847  10.230 -0.4115  0.2845 -0.8978
  256TMC3    H1 3937   3.340   1.507  10.337  0.2876  0.1346 -1.0572
  256TMC3    H2 3938   3.174   1.888  10.397  2.3774  0.8220  2.1774
  256TMC3    C7 3939   3.106   1.641  10.352 -0.1772 -0.2186 -0.9055
  256TMC3    C8 3940   3.383   2.022  10.317  0.7391  0.3624  0.4550
  256TMC3    O1 3941   3.024   1.725  10.312  0.6200 -0.3783  0.1941
  256TMC3    O2 3942   3.488   2.063  10.364  0.0642 -0.3131  0.7018
  257MPD2     C 3943   1.926   3.382  13.370 -0.1993 -0.2084 -0.2752
  257MPD2    C1 3944   1.952   3.303  13.261  0.0193  0.4059 -0.5240
  257MPD2    C2 3945   1.934   3.163  13.276  0.7595  0.4645 -0.3536
  257MPD2    C3 3946   1.886   3.106  13.393  0.0677  0.4976 -0.1108
  257MPD2    C4 3947   1.854   3.190  13.497  0.1693  0.0804 -0.2551
  257MPD2    C5 3948   1.875   3.324  13.483 -0.1691  0.0091 -0.2647
  257MPD2     H 3949   1.954   3.096  13.193  0.4333  0.7150 -0.6378
  257MPD2    H1 3950   1.816   3.154  13.593 -3.3535 -0.2339 -1.7522
  257MPD2    H2 3951   1.937   3.490  13.369  1.1650 -0.3620 -0.8849
  257MPD2    H3 3952   1.859   3.389  13.569 -1.3880  0.4260 -0.8089
  257MPD2     N 3953   1.872   2.966  13.399  0.4792  0.0618  0.1025
  257MPD2    H5 3954   1.918   2.923  13.318  1.1832  2.1817 -0.6212
  257MPD2    N1 3955   2.007   3.359  13.143  0.8531  0.0064  0.4637
  257MPD2    H7 3956   2.000   3.460  13.131  3.9427  0.2810  0.7922
  258TMC3    C1 3957   1.869   2.755  13.483 -0.4646  0.9794  0.8461
  258TMC3    C2 3958   1.851   2.719  13.352 -0.4952  0.7951  0.6962
  258TMC3    C3 3959   1.906   2.605  13.309  0.3745 -0.9841 -0.4208
  258TMC3    C4 3960   1.951   2.690  13.573 -0.5189  0.0002  0.0789
  258TMC3    C5 3961   2.009   2.570  13.519  0.2420  0.6365 -0.7244
  258TMC3    C6 3962   1.988   2.526  13.391 -0.0289 -0.6622 -0.5125
  258TMC3     C 3963   1.829   2.891  13.510  0.4924 -0.5722 -0.0631
  258TMC3     O 3964   1.760   2.929  13.602  0.3163  0.0169 -0.1169
  258TMC3     H 3965   1.780   2.772  13.288 -0.3068  0.5076  0.2501
  258TMC3    H1 3966   1.970   2.722  13.675  0.7538 -1.7327  0.3982
  258TMC3    H2 3967   2.034   2.432  13.366 -0.2644 -1.0790  0.6302
  258TMC3    C7 3968   2.064   2.469  13.609 -0.0239 -0.4144 -0.0988
  258TMC3    C8 3969   1.886   2.576  13.170 -0.5003 -0.2276  0.0412
  258TMC3    O1 3970   2.044   2.351  13.578  0.4318 -0.0130  0.1452
  258TMC3    O2 3971   1.849   2.666  13.099 -0.3325 -0.0331 -0.1528
  259MPD2     C 3972   1.624   0.196   0.803  0.3875 -1.1540  0.5138
  259MPD2    C1 3973   1.550   0.082   0.826  0.1226  0.3522 -1.0639
  259MPD2    C2 3974   1.533   4.728   0.723  0.1246 -0.3665 -0.3696
  259MPD2    C3 3975   1.574   0.013   0.595  0.3433 -0.2218  0.3307
  259MPD2    C4 3976   1.628   0.139   0.569 -0.3532 -0.4882 -0.0055
  259MPD2    C5 3977   1.661   0.226   0.668  0.4874 -0.4680 -0.1840
  259MPD2     H 3978   1.469   4.641   0.736 -0.5450  0.5746  2.6446
  259MPD2    H1 3979   1.656   0.167   0.468 -1.0555 -2.3474 -0.7237
  259MPD2    H2 3980   1.646   0.265   0.883 -1.6687 -0.8177  0.8093
  259MPD2    H3 3981   1.717   0.315   0.644 -1.1173  0.8378  0.9230
  259MPD2     N 3982   1.556   4.659   0.494 -0.1116 -0.4783  0.6097
  259MPD2    H5 3983   1.515   4.570   0.522 -1.9638 -0.7589 -2.9749
  259MPD2    N1 3984   1.511   0.054   0.960  0.7254 -0.2959  0.2551
  259MPD2    H7 3985   1.537   0.115   1.037 -3.2397 -2.2697  3.1250
  260TMC3    C1 3986   1.634   4.541   0.319  0.0290 -0.8407  0.0957
  260TMC3    C2 3987   1.663   4.539   0.187  0.3802 -0.0015 -0.1111
  260TMC3    C3 3988   1.715   4.432   0.130 -0.1416  0.5758 -1.0243
  260TMC3    C4 3989   1.651   4.424   0.396 -0.6446 -0.1434 -0.2633
  260TMC3    C5 3990   1.706   4.317   0.334 -0.0720  0.2690  0.9509
  260TMC3    C6 3991   1.748   4.325   0.208  0.3413 -0.3868 -0.0887
  260TMC3     C 3992   1.611   4.673   0.368 -0.5473 -0.7238  0.0290
  260TMC3     O 3993   1.648   0.034   0.302 -0.1082 -0.1227 -0.0535
  260TMC3     H 3994   1.656   4.631   0.129  0.8395  0.8664  1.2246
  260TMC3    H1 3995   1.627   4.406   0.500  0.7011  0.1650  0.1089
  260TMC3    H2 3996   1.790   4.234   0.168  0.2698 -1.1127  1.4960
  260TMC3    C7 3997   1.681   4.177   0.381 -0.5351 -0.2350 -0.3249
  260TMC3    C8 3998   1.668   4.398  17.752  0.0645  0.4638 -0.0803
  260TMC3    O1 3999   1.757   4.092   0.333  0.1581  0.3284 -0.2428
  260TMC3    O2 4000   1.563   4.449  17.714 -0.3807  0.1684 -0.1930
  261MPD2     C 4001   2.578   2.808  13.001  0.7580 -0.6117  0.1970
  261MPD2    C1 4002   2.706   2.826  12.972  0.3024 -0.5327  0.3747
  261MPD2    C2 4003   2.728   2.935  12.881  0.2992  0.6192  0.2364
  261MPD2    C3 4004   2.628   3.011  12.828 -0.1894  0.2355  0.5392
  261MPD2    C4 4005   2.497   2.982  12.850 -0.1284 -0.0169 -0.0961
  261MPD2    C5 4006   2.473   2.879  12.939 -0.8391  0.3711 -0.5428
  261MPD2     H 4007   2.831   2.962  12.861 -0.2634  1.2752 -1.8171
  261MPD2    H1 4008   2.416   3.038  12.805 -1.1804 -0.7887  0.8512
  261MPD2    H2 4009   2.548   2.743  13.083  0.2631 -1.7288 -0.8720
  261MPD2    H3 4010   2.370   2.858  12.966 -0.0909  0.1245  2.0518
  261MPD2     N 4011   2.669   3.114  12.746 -0.0910 -0.3081  0.0508
  261MPD2    H5 4012   2.769   3.131  12.746 -0.2951  0.9408  0.8800
  261MPD2    N1 4013   2.810   2.742  13.020 -0.3812 -0.1547 -1.1598
  261MPD2    H7 4014   2.904   2.767  12.991  0.4640  0.6400  2.2222
  262TMC3    C1 4015   2.656   3.308  12.603  0.7148 -0.3458 -0.9103
  262TMC3    C2 4016   2.594   3.364  12.498  0.2741 -0.4171 -0.2443
  262TMC3    C3 4017   2.657   3.473  12.444 -0.5424  0.1030 -0.1473
  262TMC3    C4 4018   2.781   3.333  12.640 -0.5902 -0.3093  0.6409
  262TMC3    C5 4019   2.851   3.423  12.562  0.8064 -0.1845  0.7855
  262TMC3    C6 4020   2.788   3.497  12.460 -0.3625 -1.1026 -0.0665
  262TMC3     C 4021   2.586   3.195  12.666 -0.8754 -0.3220 -0.4044
  262TMC3     O 4022   2.467   3.179  12.640 -0.0297 -0.0536  0.2701
  262TMC3     H 4023   2.502   3.315  12.467  0.4640 -3.2016  3.7366
  262TMC3    H1 4024   2.819   3.292  12.733  3.1955  0.9004 -0.3428
  262TMC3    H2 4025   2.841   3.577  12.410 -2.1770  0.6464  0.8200
  262TMC3    C7 4026   2.993   3.436  12.580 -0.3710  0.3297 -0.4210
  262TMC3    C8 4027   2.616   3.544  12.323  0.3596 -0.2540  0.6305
  262TMC3    O1 4028   3.040   3.388  12.682 -0.1137 -0.4332  0.1996
  262TMC3    O2 4029   2.705   3.548  12.237  0.0945  0.0637  0.4331
  263MPD2     C 4030   3.640   2.433  11.507  0.4740 -1.2012  0.4376
  263MPD2    C1 4031   3.750   2.504  11.485 -0.2039 -0.7225 -0.0091
  263MPD2    C2 4032   3.742   2.593  11.379 -0.3079  0.4890 -0.4872
  263MPD2    C3 4033   3.621   2.609  11.300 -0.5010 -0.1549 -0.0722
  263MPD2    C4 4034   3.522   2.517  11.315 -0.9178  0.1925  0.6179
  263MPD2    C5 4035   3.523   2.431  11.424 -0.0890 -0.5880  0.2014
  263MPD2     H 4036   3.830   2.656  11.367 -0.5325  0.8120 -0.4380
  263MPD2    H1 4037   3.427   2.521  11.262 -0.7295  1.0887  0.3390
  263MPD2    H2 4038   3.630   2.354  11.581  0.3039 -2.4717 -0.9331
  263MPD2    H3 4039   3.437   2.371  11.452 -2.8655  3.7350  0.7871
  263MPD2     N 4040   3.619   2.723  11.216  0.2222  0.2212 -0.3704
  263MPD2    H5 4041   3.704   2.779  11.207 -0.0460  0.9140  1.3601
  263MPD2    N1 4042   3.858   2.476  11.572  0.1434 -0.0657  0.4664
  263MPD2    H7 4043   3.853   2.395  11.632  0.8141 -1.4935 -1.4135
  264TMC3    C1 4044   3.536   2.897  11.091  0.6186 -0.0575  0.4222
  264TMC3    C2 4045   3.604   2.982  11.178 -0.1624  0.1097  0.1990
  264TMC3    C3 4046   3.669   3.099  11.129  0.2075 -0.3347 -0.4660
  264TMC3    C4 4047   3.527   2.929  10.956 -0.3175  0.1319 -0.5043
  264TMC3    C5 4048   3.580   3.047  10.915 -0.4855 -0.4759  0.5167
  264TMC3    C6 4049   3.646   3.136  10.999 -0.2072  0.8176  0.5478
  264TMC3     C 4050   3.510   2.760  11.131 -0.0085 -0.1760 -0.1055
  264TMC3     O 4051   3.407   2.702  11.102 -0.2056 -0.0948  0.0580
  264TMC3     H 4052   3.625   2.956  11.281 -2.1436  0.1352  0.6007
  264TMC3    H1 4053   3.482   2.861  10.884 -1.2902  0.3358 -0.0984
  264TMC3    H2 4054   3.682   3.229  10.956 -0.8382  1.4018  1.2750
  264TMC3    C7 4055   3.621   3.050  10.770 -0.3953  0.1141  0.4709
  264TMC3    C8 4056   3.752   3.196  11.198 -0.3324  0.5078 -0.2946
  264TMC3    O1 4057   3.607   2.943  10.710 -0.2231 -0.3866 -0.2242
  264TMC3    O2 4058   3.841   3.248  11.133 -0.2363  0.1829 -0.2969
  265MPD2     C 4059   0.930   2.716  15.513  0.5236 -0.5259 -0.0577
  265MPD2    C1 4060   0.966   2.829  15.440  0.2039 -0.7158 -0.3995
  265MPD2    C2 4061   1.029   2.822  15.312 -0.4278  0.8584 -0.6878
  265MPD2    C3 4062   1.050   2.696  15.262 -0.8793 -0.1208 -0.1453
  265MPD2    C4 4063   1.011   2.585  15.331 -0.5180  0.1771 -0.6772
  265MPD2    C5 4064   0.965   2.596  15.461 -0.1169 -0.5492  0.3066
  265MPD2     H 4065   1.058   2.915  15.265  0.3699  1.2299  0.5247
  265MPD2    H1 4066   1.034   2.486  15.292 -0.9770 -0.0251 -0.4395
  265MPD2    H2 4067   0.885   2.722  15.611 -0.6275 -1.9406 -0.5068
  265MPD2    H3 4068   0.950   2.513  15.529  1.1889 -0.8505  0.2123
  265MPD2     N 4069   1.123   2.662  15.152 -0.3583 -0.0889 -0.0618
  265MPD2    H5 4070   1.134   2.562  15.138  0.5966  0.0908 -0.6017
  265MPD2    N1 4071   0.937   2.962  15.487 -0.3390  0.4408  0.1924
  265MPD2    H7 4072   0.964   3.040  15.428  0.3738  0.6261  0.7542
  266TMC3    C1 4073   0.899   3.135  15.649  0.5793  0.7950  0.1477
  266TMC3    C2 4074   0.923   3.171  15.775  0.7105  0.1431 -0.1853
  266TMC3    C3 4075   0.933   3.306  15.795 -0.8274 -0.1298  0.5500
  266TMC3    C4 4076   0.883   3.220  15.541 -0.1913 -0.8098 -0.1299
  266TMC3    C5 4077   0.887   3.357  15.569 -0.1348  0.1191  0.6009
  266TMC3    C6 4078   0.929   3.399  15.695  0.2472 -0.0983 -0.0454
  266TMC3     C 4079   0.912   2.992  15.617  0.0356  0.3935 -0.7665
  266TMC3     O 4080   0.929   2.922  15.719  0.1186 -0.4228  0.0374
  266TMC3     H 4081   0.934   3.108  15.863 -0.9067 -0.1522 -0.1915
  266TMC3    H1 4082   0.853   3.193  15.441 -3.0465  1.9714 -0.0207
  266TMC3    H2 4083   0.954   3.502  15.720 -1.1747  0.4852 -1.0579
  266TMC3    C7 4084   0.883   3.456  15.462 -0.2070 -0.7506  0.0574
  266TMC3    C8 4085   1.008   3.341  15.910 -0.1781 -0.6668  0.2504
  266TMC3    O1 4086   0.845   3.406  15.358 -0.1232  0.4660 -0.1187
  266TMC3    O2 4087   1.083   3.250  15.957 -0.0387 -0.3486 -0.3986
  267MPD2     C 4088   3.177   0.125   0.474 -0.5703 -0.2282 -0.5697
  267MPD2    C1 4089   3.182   0.153   0.337 -0.0551 -0.3952 -0.4032
  267MPD2    C2 4090   3.079   0.227   0.274  0.7751 -0.2554  0.5781
  267MPD2    C3 4091   2.976   0.275   0.354 -0.4784 -0.4533  0.2265
  267MPD2    C4 4092   2.980   0.255   0.490  0.0757  0.3126 -0.4358
  267MPD2    C5 4093   3.068   0.168   0.549  0.3359 -0.0061 -0.5647
  267MPD2     H 4094   3.075   0.249   0.168  0.0349 -0.6152  0.5269
  267MPD2    H1 4095   2.903   0.296   0.555 -0.9639  0.1076 -1.5267
  267MPD2    H2 4096   3.251   0.071   0.533  0.0103 -0.3567 -1.4154
  267MPD2    H3 4097   3.050   0.145   0.654  2.4272  1.7395  0.1878
  267MPD2     N 4098   2.875   0.347   0.286  0.0872  0.0021 -0.4878
  267MPD2    H5 4099   2.880   0.339   0.185 -0.9621  0.5077 -0.5794
  267MPD2    N1 4100   3.287   0.087   0.267  0.1421  0.2485  0.4958
  267MPD2    H7 4101   3.363   0.045   0.318  0.0414 -1.6085 -0.8765
  268TMC3    C1 4102   3.423   4.731   0.099  0.6447  0.2064 -0.7854
  268TMC3    C2 4103   3.500   0.020  17.748  0.1201 -0.0229 -0.0858
  268TMC3    C3 4104   3.611   4.687  17.721  0.3996 -0.1498 -0.4238
  268TMC3    C4 4105   3.438   4.614   0.172 -0.2206 -0.4358 -0.1964
  268TMC3    C5 4106   3.552   4.549   0.147  0.3364  0.1669  0.0571
  268TMC3    C6 4107   3.633   4.578   0.043 -0.5338 -0.0190 -0.4924
  268TMC3     C 4108   3.311   0.085   0.130 -0.1192  0.0308 -0.7188
  268TMC3     O 4109   3.273   0.169   0.054 -0.2154  0.1594 -0.2113
  268TMC3     H 4110   3.483   0.118  17.704  0.2481 -0.4208 -1.0152
  268TMC3    H1 4111   3.371   4.597   0.255 -0.1746 -0.6823 -0.2094
  268TMC3    H2 4112   3.723   4.520   0.023  1.1675  2.0187  1.2305
  268TMC3    C7 4113   3.590   4.430   0.222 -0.1762 -0.2697 -0.5251
  268TMC3    C8 4114   3.721   0.017  17.663 -0.1563  0.0371  0.7750
  268TMC3    O1 4115   3.710   4.395   0.223  0.3280 -0.1649 -0.1504
  268TMC3    O2 4116   3.830   0.003  17.711 -0.5655  0.1641 -0.0452
  269MPD2     C 4117   3.817   3.663  15.318  0.4936 -0.8409  0.4218
  269MPD2    C1 4118   3.724   3.688  15.426 -0.0308 -0.7158  0.1914
  269MPD2    C2 4119   3.674   3.823  15.446 -0.7329  0.6155  0.1385
  269MPD2    C3 4120   3.712   3.934  15.366  0.3485 -0.0860 -0.4162
  269MPD2    C4 4121   3.813   3.910  15.278  0.1135  0.5782  0.4974
  269MPD2    C5 4122   3.858   3.781  15.245 -0.0756  0.0988  0.4445
  269MPD2     H 4123   3.601   3.838  15.525  0.8537 -0.7188  1.8495
  269MPD2    H1 4124   3.857   3.997  15.230  3.3116 -1.9422 -1.1206
  269MPD2    H2 4125   3.870   3.568  15.315  3.1573  0.7140 -1.7609
  269MPD2    H3 4126   3.951   3.775  15.190  0.1240  0.9009  0.6911
  269MPD2     N 4127   3.651   4.060  15.396  0.2209 -0.5653  0.8242
  269MPD2    H5 4128   3.589   4.048  15.476 -1.2254 -0.4391 -0.2722
  269MPD2    N1 4129   3.701   3.578  15.521 -0.2327 -0.1805  0.3883
  269MPD2    H7 4130   3.758   3.496  15.502  1.9248  1.7535 -1.4898
  270TMC3    C1 4131   3.587   3.456  15.684 -0.0407  0.8768  0.1979
  270TMC3    C2 4132   3.458   3.410  15.707  0.5119  0.4085 -0.0451
  270TMC3    C3 4133   3.437   3.276  15.736 -0.0065 -0.0938  0.4543
  270TMC3    C4 4134   3.690   3.364  15.688 -0.0101 -0.3572 -0.2867
  270TMC3    C5 4135   3.671   3.240  15.742 -0.2151  0.4710  0.0207
  270TMC3    C6 4136   3.549   3.201  15.772  0.0038  0.4013  0.1525
  270TMC3     C 4137   3.596   3.579  15.612  0.8412  1.0553 -1.0094
  270TMC3     O 4138   3.504   3.659  15.630  0.1179 -0.1225  0.3369
  270TMC3     H 4139   3.372   3.468  15.675 -0.2161  0.2999  1.6503
  270TMC3    H1 4140   3.788   3.403  15.664 -0.4502 -1.2814 -3.5612
  270TMC3    H2 4141   3.536   3.098  15.804  1.9301  0.5534  1.4096
  270TMC3    C7 4142   3.757   3.131  15.698  0.2151 -0.1808 -0.1969
  270TMC3    C8 4143   3.384   3.211  15.614 -0.0233 -0.3464 -0.2892
  270TMC3    O1 4144   3.871   3.134  15.748 -0.2262  0.4457 -0.1311
  270TMC3    O2 4145   3.439   3.106  15.589  0.2128  0.5652 -0.4578
  271MPD2     C 4146   2.845   3.052  13.895  1.2458  0.7568  0.5445
  271MPD2    C1 4147   2.791   3.134  13.995  0.1433 -0.0318 -0.5187
  271MPD2    C2 4148   2.678   3.214  13.983 -0.0315  0.6419  0.2467
  271MPD2    C3 4149   2.625   3.221  13.861  0.0578  0.2532 -0.2292
  271MPD2    C4 4150   2.676   3.149  13.758  0.7103 -0.1704  0.4209
  271MPD2    C5 4151   2.784   3.075  13.772 -0.3962 -0.2625  0.2788
  271MPD2     H 4152   2.642   3.264  14.072  0.7276  0.5800  0.5889
  271MPD2    H1 4153   2.628   3.158  13.661 -0.6598  1.3706  1.2569
  271MPD2    H2 4154   2.935   2.993  13.904  1.0368  0.2522 -0.5899
  271MPD2    H3 4155   2.816   3.025  13.681  0.0161  0.0601  0.2501
  271MPD2     N 4156   2.520   3.309  13.822 -0.8945  0.0122 -0.0711
  271MPD2    H5 4157   2.499   3.304  13.723 -2.4704 -1.4408  0.3437
  271MPD2    N1 4158   2.848   3.133  14.130 -0.0539  0.1714 -0.2437
  271MPD2    H7 4159   2.787   3.175  14.199  0.0389  3.3180 -2.1183
  272TMC3    C1 4160   3.001   3.078  14.303  0.2239 -0.4118 -0.5354
  272TMC3    C2 4161   3.108   3.003  14.347  0.0137  0.8072  0.1201
  272TMC3    C3 4162   3.138   3.002  14.482 -0.3445  0.1230  0.5039
  272TMC3    C4 4163   2.932   3.154  14.392  0.6060 -0.0617 -0.2404
  272TMC3    C5 4164   2.970   3.157  14.524 -0.1743 -0.2725  0.3320
  272TMC3    C6 4165   3.066   3.074  14.568 -0.4590  0.7581  0.0594
  272TMC3     C 4166   2.972   3.076  14.161  0.1022  0.1615  0.2616
  272TMC3     O 4167   3.061   3.028  14.095 -0.1046  0.0064  0.7425
  272TMC3     H 4168   3.143   2.931  14.274  0.4228  0.1624  0.9616
  272TMC3    H1 4169   2.857   3.228  14.367 -1.1245 -1.5605  0.4624
  272TMC3    H2 4170   3.090   3.065  14.673 -0.1567  1.3375  0.0406
  272TMC3    C7 4171   2.895   3.231  14.619  0.3185 -0.4954  0.0952
  272TMC3    C8 4172   3.151   2.870  14.534  0.3273  0.2395 -0.2505
  272TMC3    O1 4173   2.775   3.226  14.614 -0.7127 -0.7556  0.2944
  272TMC3    O2 4174   3.072   2.792  14.479  0.1891 -0.2197 -0.3095
  273MPD2     C 4175   3.913   1.742  11.817  0.3652 -0.3769 -0.6284
  273MPD2    C1 4176   4.010   1.646  11.804  0.4966  0.4765 -0.7604
  273MPD2    C2 4177   4.029   1.591  11.678  0.0021  0.5068  0.0920
  273MPD2    C3 4178   3.944   1.613  11.574 -0.2474 -0.4370 -0.2976
  273MPD2    C4 4179   3.834   1.702  11.598 -0.0433 -0.4045  0.2819
  273MPD2    C5 4180   3.819   1.766  11.719 -0.0251 -0.0535 -0.4611
  273MPD2     H 4181   4.114   1.527  11.664  0.2346  0.6163  1.0104
  273MPD2    H1 4182   3.760   1.724  11.522 -0.8148 -2.2339  0.5062
  273MPD2    H2 4183   3.877   1.777  11.913  1.3954  0.0631 -0.3979
  273MPD2    H3 4184   3.739   1.838  11.734 -2.2722 -2.7911  0.8530
  273MPD2     N 4185   3.959   1.560  11.443  0.2329  0.2021 -0.0810
  273MPD2    H5 4186   3.902   1.599  11.369 -1.6287 -3.2497 -0.4524
  273MPD2    N1 4187   4.095   1.619  11.910 -0.6991 -0.3781  0.4983
  273MPD2    H7 4188   4.093   1.675  11.995  2.7579 -2.7672  2.1756
  274TMC3    C1 4189   4.073   1.469  11.258  0.3206 -0.2500 -0.4044
  274TMC3    C2 4190   3.958   1.505  11.189 -0.1912  0.3357  0.5726
  274TMC3    C3 4191   3.957   1.608  11.101 -0.1297  0.1988 -0.1331
  274TMC3    C4 4192   4.184   1.539  11.232  0.3112  0.4490  0.6601
  274TMC3    C5 4193   4.179   1.650  11.150 -0.8249 -0.2173 -0.2160
  274TMC3    C6 4194   4.068   1.676  11.081 -0.0175 -0.0660 -0.0226
  274TMC3     C 4195   4.065   1.481  11.402 -0.2875 -0.1701 -0.1438
  274TMC3     O 4196   4.151   1.424  11.469  0.7036  0.8475  0.0985
  274TMC3     H 4197   3.865   1.453  11.207 -0.0925  0.5424  1.7227
  274TMC3    H1 4198   4.264   1.527  11.305  1.1868  0.3143 -0.3104
  274TMC3    H2 4199   4.059   1.778  11.043 -2.1896 -0.6994 -1.2628
  274TMC3    C7 4200   4.227   1.767  11.222 -0.1190  0.0503 -0.1963
  274TMC3    C8 4201   3.830   1.643  11.037 -0.9803 -0.0698  0.3164
  274TMC3    O1 4202   4.152   1.867  11.225 -0.5233 -0.0181 -0.4261
  274TMC3    O2 4203   3.737   1.620  11.111 -0.2710 -0.8978  0.6721
  275MPD2     C 4204   4.611   4.238  14.075 -0.5658 -0.6257  0.3520
  275MPD2    C1 4205   4.607   4.146  14.168 -0.4569 -0.3918 -0.9928
  275MPD2    C2 4206   4.487   4.091  14.208 -0.2555  0.5047  0.0839
  275MPD2    C3 4207   4.366   4.127  14.150 -0.0854 -0.3922  0.9468
  275MPD2    C4 4208   4.371   4.232  14.067 -0.5384 -0.6889 -0.1091
  275MPD2    C5 4209   4.490   4.285  14.028  0.0028  0.2079  0.2052
  275MPD2     H 4210   4.488   4.015  14.285 -0.7380  0.9742  0.5588
  275MPD2    H1 4211   4.277   4.266  14.025 -0.9568 -1.2923  0.3527
  275MPD2    H2 4212   4.702   4.273  14.027  0.2905 -1.6792  1.2196
  275MPD2    H3 4213   4.486   4.364  13.953  0.7208  0.1473  0.1015
  275MPD2     N 4214   4.238   4.067  14.177  0.4466 -0.9677  0.2969
  275MPD2    H5 4215   4.151   4.115  14.157  0.2469 -1.0616  0.9298
  275MPD2    N1 4216   4.716   4.114  14.246 -0.0765  0.7189  0.1636
  275MPD2    H7 4217   4.705   4.028  14.297  0.9374  0.7542  0.4388
  276TMC3    C1 4218   0.205   4.115  14.313  1.0799  0.0594 -0.5330
  276TMC3    C2 4219   0.183   3.988  14.363 -0.0358 -0.3132  0.0203
  276TMC3    C3 4220   0.267   3.943  14.457  0.2479  0.0706 -0.5055
  276TMC3    C4 4221   0.309   4.196  14.352 -0.2608 -0.0115  0.0275
  276TMC3    C5 4222   0.385   4.143  14.450  0.1636  0.2706 -0.3718
  276TMC3    C6 4223   0.367   4.015  14.507  0.5260  0.5221 -0.3505
  276TMC3     C 4224   0.098   4.178  14.237  0.7483 -0.0316  0.3289
  276TMC3     O 4225   0.129   4.286  14.191 -0.8828  0.6243  0.8442
  276TMC3     H 4226   0.102   3.926  14.326  0.9949 -0.6643 -1.6782
  276TMC3    H1 4227   0.309   4.302  14.327  0.5645  0.0264  0.2042
  276TMC3    H2 4228   0.437   3.973  14.579  0.3492  1.4421  0.3617
  276TMC3    C7 4229   0.470   4.233  14.523 -0.0242 -0.2953 -0.4277
  276TMC3    C8 4230   0.261   3.803  14.508 -0.0328 -0.0718  0.2099
  276TMC3    O1 4231   0.480   4.195  14.638  0.4997  0.2144 -0.4901
  276TMC3    O2 4232   0.356   3.767  14.576  0.3053 -0.3776  0.4474
  277MPD2     C 4233   1.577   3.435  13.070 -0.3777  0.1761 -0.0340
  277MPD2    C1 4234   1.446   3.414  13.043  0.0138  0.0902 -0.3588
  277MPD2    C2 4235   1.364   3.346  13.129 -0.3526 -0.7193  0.2938
  277MPD2    C3 4236   1.415   3.292  13.239  0.0978  0.4848  0.5868
  277MPD2    C4 4237   1.548   3.312  13.273 -0.6273 -0.4939 -0.6055
  277MPD2    C5 4238   1.623   3.387  13.188  0.1918  0.4331 -0.0329
  277MPD2     H 4239   1.258   3.330  13.112 -0.0503  1.0038 -3.4652
  277MPD2    H1 4240   1.596   3.287  13.367  1.4395 -0.3150 -1.6133
  277MPD2    H2 4241   1.635   3.497  13.003  0.0719 -0.2140 -0.0031
  277MPD2    H3 4242   1.730   3.393  13.206 -0.3364 -0.9498  3.6622
  277MPD2     N 4243   1.325   3.219  13.317  0.3359  0.9957  0.3183
  277MPD2    H5 4244   1.240   3.181  13.277  2.0149 -1.3024 -1.0437
  277MPD2    N1 4245   1.388   3.483  12.926  0.3019  0.1047  0.0191
  277MPD2    H7 4246   1.420   3.575  12.898  1.6079  0.2567  1.9960
  278TMC3    C1 4247   1.230   3.142  13.521  0.2673  0.2921 -0.0715
  278TMC3    C2 4248   1.246   3.027  13.598 -0.9943  0.1339  0.0712
  278TMC3    C3 4249   1.129   2.957  13.631  0.3716  0.7174 -0.4531
  278TMC3    C4 4250   1.106   3.186  13.472  0.8283  1.1116 -0.4535
  278TMC3    C5 4251   0.994   3.118  13.521  0.3609  0.6165 -0.1289
  278TMC3    C6 4252   1.009   3.006  13.600 -0.8057  0.4548 -1.1994
  278TMC3     C 4253   1.345   3.198  13.450  0.6513 -0.5296  0.4504
  278TMC3     O 4254   1.437   3.223  13.523  0.0338 -0.1939 -0.0724
  278TMC3     H 4255   1.346   2.992  13.620 -1.4429 -1.4686 -0.4350
  278TMC3    H1 4256   1.093   3.274  13.410  0.7147  1.4681  0.0734
  278TMC3    H2 4257   0.920   2.948  13.623  1.6162 -1.1412  4.1623
  278TMC3    C7 4258   0.876   3.141  13.448  0.7921  0.2034 -0.2187
  278TMC3    C8 4259   1.130   2.814  13.628  0.1475  0.8537 -0.0865
  278TMC3    O1 4260   0.883   3.208  13.345  0.1665  0.8090 -0.0130
  278TMC3    O2 4261   1.048   2.759  13.557  0.1008  0.5823  0.5980
  279MPD2     C 4262   0.579   3.567   0.172  0.1316  0.1350 -0.1420
  279MPD2    C1 4263   0.507   3.488   0.081 -0.5769 -0.5989 -0.3152
  279MPD2    C2 4264   0.474   3.546  17.710 -0.4112 -0.6570 -0.0396
  279MPD2    C3 4265   0.510   3.682  17.675  0.3652  0.1406  0.7981
  279MPD2    C4 4266   0.575   3.756   0.021 -0.6873  0.0780  0.2873
  279MPD2    C5 4267   0.611   3.695   0.141 -0.3439 -0.3029 -0.0249
  279MPD2     H 4268   0.413   3.483  17.646  0.5894 -1.8057  0.1433
  279MPD2    H1 4269   0.608   3.858   0.009 -0.6705  0.0358 -0.0294
  279MPD2    H2 4270   0.606   3.530   0.270 -2.3694  2.0124  1.2733
  279MPD2    H3 4271   0.649   3.759   0.220 -1.6010 -1.8987  1.8845
  279MPD2     N 4272   0.473   3.744  17.556 -0.1865 -0.0137 -0.1832
  279MPD2    H5 4273   0.489   3.845  17.557 -1.5238  0.2124 -2.2012
  279MPD2    N1 4274   0.453   3.361   0.106 -0.3520  0.4867 -0.8970
  279MPD2    H7 4275   0.408   3.316   0.027 -0.9887  0.7490 -0.6785
  280TMC3    C1 4276   0.323   3.212   0.235  0.2100 -0.3751 -0.8643
  280TMC3    C2 4277   0.318   3.148   0.113  0.3965 -0.0613 -1.2420
  280TMC3    C3 4278   0.201   3.161   0.034  0.2755  0.4222  0.3877
  280TMC3    C4 4279   0.216   3.278   0.284  0.0517  0.9654 -0.1761
  280TMC3    C5 4280   0.113   3.299   0.200 -0.1850  0.0483  0.2409
  280TMC3    C6 4281   0.108   3.247   0.073  0.4062  0.2820  1.1554
  280TMC3     C 4282   0.440   3.299   0.231 -0.3306 -0.2900  0.5211
  280TMC3     O 4283   0.466   3.336   0.347 -0.7022  0.1288 -0.1270
  280TMC3     H 4284   0.410   3.099   0.081  0.5724  0.1954 -1.1252
  280TMC3    H1 4285   0.237   3.345   0.367  0.7808  0.0316  0.4050
  280TMC3    H2 4286   0.032   3.274   0.001  0.2949  0.8035  1.4721
  280TMC3    C7 4287   0.032   3.411   0.236 -0.5728 -0.9275 -0.1094
  280TMC3    C8 4288   0.210   3.130  17.646  0.0174  0.1007  0.7688
  280TMC3    O1 4289   0.059   3.460   0.346  0.3985 -0.5618  0.9610
  280TMC3    O2 4290   0.175   3.223  17.577 -0.6376 -0.0618  0.0790
  281TMC3    C1 4291   4.311   3.225  13.445  0.2444  0.2595 -0.6190
  281TMC3    C2 4292   4.389   3.278  13.345  0.1427 -0.1080  0.7617
  281TMC3    C3 4293   4.412   3.189  13.238 -0.4281 -0.5467  0.0641
  281TMC3    C4 4294   4.278   3.092  13.452  0.1278 -0.2697 -0.3360
  281TMC3    C5 4295   4.318   3.009  13.347  0.0480  0.3121 -0.0748
  281TMC3    C6 4296   4.381   3.056  13.231 -0.2450 -0.2906 -1.1008
  281TMC3     C 4297   4.234   3.307  13.535  0.2935 -0.4869 -0.3200
  281TMC3     O 4298   4.224   3.268  13.652 -0.1695  0.0462  0.0971
  281TMC3     H 4299   4.405   3.385  13.339 -2.6210  0.3854  1.9926
  281TMC3    H1 4300   4.226   3.050  13.538 -0.7770  2.1080  0.2986
  281TMC3    H2 4301   4.406   2.987  13.151  1.7884 -0.9028  0.0482
  281TMC3    C7 4302   4.216   2.918  13.305  1.0417  0.1290  0.1810
  281TMC3    C8 4303   4.505   3.218  13.137  0.5822 -0.0254 -0.1069
  281TMC3    O1 4304   4.239   2.850  13.208 -0.2971  0.1311  0.2627
  281TMC3    O2 4305   4.593   3.132  13.126 -0.4966 -0.2982  0.5232
  282MPD2     C 4306   1.279   0.030  14.696  0.1308  0.1177 -0.5310
  282MPD2    C1 4307   1.169   0.100  14.735 -0.2703 -0.4396 -0.2936
  282MPD2    C2 4308   1.075   0.145  14.640 -0.2354  0.4655  0.3879
  282MPD2    C3 4309   1.095   0.121  14.507 -0.1413  0.4678 -0.0486
  282MPD2    C4 4310   1.213   0.061  14.467 -0.4757  0.2183 -0.3688
  282MPD2    C5 4311   1.298   0.019  14.563 -0.1969 -0.9346 -0.0853
  282MPD2     H 4312   0.986   0.195  14.677 -1.5609  0.1857 -2.3538
  282MPD2    H1 4313   1.240   0.045  14.363 -0.4035  0.3901 -0.3773
  282MPD2    H2 4314   1.353   4.738  14.769  0.0084 -2.4653 -1.5132
  282MPD2    H3 4315   1.394   4.722  14.528 -0.3843 -1.3777 -0.1450
  282MPD2     N 4316   0.987   0.147  14.414 -0.4228  0.3365 -0.1127
  282MPD2    H5 4317   0.903   0.194  14.446 -1.5419 -1.2866 -0.6539
  282MPD2    N1 4318   1.124   0.115  14.865 -0.1692 -0.6081 -0.0253
  282MPD2    H7 4319   1.045   0.178  14.876 -1.5417 -2.6650  1.9404
  283TMC3    C1 4320   1.111   0.117  15.091  0.9904  0.2121  0.6889
  283TMC3    C2 4321   1.078   0.248  15.096 -0.6419 -1.0490  0.6964
  283TMC3    C3 4322   1.006   0.293  15.202 -0.0612  0.6429  0.4146
  283TMC3    C4 4323   1.076   0.026  15.186  0.1597  0.1900 -0.1048
  283TMC3    C5 4324   1.001   0.069  15.293  0.1623  0.9476  0.8800
  283TMC3    C6 4325   0.976   0.203  15.301 -0.6036  0.4918  0.1447
  283TMC3     C 4326   1.178   0.065  14.977 -0.1126 -0.5464 -0.0034
  283TMC3     O 4327   1.261   4.713  14.989  0.0793 -0.1528 -0.4195
  283TMC3     H 4328   1.126   0.312  15.023 -0.9688 -0.1059  1.3070
  283TMC3    H1 4329   1.116   4.665  15.175 -0.5360 -0.0484 -0.5468
  283TMC3    H2 4330   0.942   0.237  15.398  1.0484 -1.6357  1.4777
  283TMC3    C7 4331   0.948   4.725  15.393 -0.1065 -0.4114  0.8323
  283TMC3    C8 4332   1.029   0.427  15.256 -0.2577  0.5447 -0.0770
  283TMC3    O1 4333   0.881   0.036  15.483 -0.1304 -0.1422  0.1774
  283TMC3    O2 4334   1.024   0.446  15.379 -0.2087 -0.2720 -0.4620
  284MPD2     C 4335   3.725   4.193  12.018 -0.2202 -0.2610 -0.0296
  284MPD2    C1 4336   3.845   4.234  11.963 -0.6329  0.3823 -0.0439
  284MPD2    C2 4337   3.963   4.190  12.030 -0.6565  0.2765 -0.5656
  284MPD2    C3 4338   3.955   4.128  12.153  0.4120  0.2363  0.1314
  284MPD2    C4 4339   3.830   4.108  12.210 -0.3656  0.3320  0.5397
  284MPD2    C5 4340   3.717   4.142  12.148 -0.1052 -0.1103  0.6017
  284MPD2     H 4341   4.062   4.203  11.989 -0.7769 -3.6454 -2.1047
  284MPD2    H1 4342   3.821   4.054  12.304 -0.9518 -1.2916 -0.4512
  284MPD2    H2 4343   3.638   4.220  11.960  0.4109 -1.0260 -1.3352
  284MPD2    H3 4344   3.619   4.140  12.193  0.1317 -0.0499  1.1254
  284MPD2     N 4345   4.068   4.074  12.215  0.1630  0.2730  0.2024
  284MPD2    H5 4346   4.044   4.025  12.301  0.0530  0.4359  0.2644
  284MPD2    N1 4347   3.864   4.304  11.843  0.4037  0.2475 -0.5910
  284MPD2    H7 4348   3.959   4.308  11.809  0.7760  0.8031  0.5147
  285TMC3    C1 4349   3.822   4.421  11.646 -0.2786 -0.2735 -0.2667
  285TMC3    C2 4350   3.926   4.357  11.581 -0.6087  0.1552  0.2209
  285TMC3    C3 4351   3.987   4.410  11.478 -0.3784  0.6298 -0.6609
  285TMC3    C4 4352   3.778   4.540  11.599 -0.8092 -0.5470  0.1099
  285TMC3    C5 4353   3.845   4.593  11.489 -1.2181 -0.0969  0.3225
  285TMC3    C6 4354   3.953   4.533  11.429  0.0988 -0.1046  0.2392
  285TMC3     C 4355   3.760   4.354  11.767  0.0279 -0.0298  1.0586
  285TMC3     O 4356   3.655   4.403  11.807 -0.3294  0.2623  0.2881
  285TMC3     H 4357   3.946   4.254  11.610  1.9952  1.0336  1.5257
  285TMC3    H1 4358   3.692   4.588  11.645  0.3983  1.5870  0.1130
  285TMC3    H2 4359   4.021   4.586  11.362 -1.3011 -0.2723 -1.3203
  285TMC3    C7 4360   3.827   4.737  11.469 -0.2886 -1.0242  0.3273
  285TMC3    C8 4361   4.108   4.343  11.428 -0.0793 -0.1437  0.0995
  285TMC3    O1 4362   3.712   0.038  11.446  0.5394  0.5314  0.1142
  285TMC3    O2 4363   4.155   4.248  11.490 -0.0974 -0.3462 -0.3360
  286MPD2     C 4364   3.800   2.823   1.322  0.5410  1.0711 -0.3498
  286MPD2    C1 4365   3.908   2.883   1.265 -0.1969 -0.5188 -0.1601
  286MPD2    C2 4366   4.025   2.810   1.260 -0.0853  0.5317  0.3176
  286MPD2    C3 4367   4.022   2.673   1.292 -0.2967 -0.4440 -0.4697
  286MPD2    C4 4368   3.904   2.609   1.326  0.3662  0.1072  0.2337
  286MPD2    C5 4369   3.794   2.687   1.350  0.4759  0.3078  0.5078
  286MPD2     H 4370   4.103   2.852   1.197 -0.4038  1.1742  0.3532
  286MPD2    H1 4371   3.904   2.504   1.354 -0.9094 -0.3433 -1.5448
  286MPD2    H2 4372   3.705   2.872   1.338  0.0201  0.2591 -1.0034
  286MPD2    H3 4373   3.703   2.649   1.394  0.4726 -0.8524 -0.4867
  286MPD2     N 4374   4.135   2.591   1.257 -0.4668 -0.0455  0.4224
  286MPD2    H5 4375   4.126   2.490   1.265 -1.8470  0.2559  2.8025
  286MPD2    N1 4376   3.910   3.012   1.220 -0.1734  0.0880  0.1161
  286MPD2    H7 4377   4.000   3.056   1.204 -1.2812  2.4054  0.2515
  287TMC3    C1 4378   4.352   2.531   1.179  0.5255  0.1443 -0.2959
  287TMC3    C2 4379   4.311   2.464   1.068 -0.0530 -0.9481 -0.2289
  287TMC3    C3 4380   4.411   2.405   0.997  0.3444  0.4188 -0.3539
  287TMC3    C4 4381   4.482   2.552   1.211  0.2771  1.3066 -0.1440
  287TMC3    C5 4382   4.577   2.481   1.149  0.4075  0.1791 -0.5257
  287TMC3    C6 4383   4.543   2.401   1.042 -0.2346 -0.3966  0.3723
  287TMC3     C 4384   4.262   2.636   1.219  0.1900 -0.5899 -0.1879
  287TMC3     O 4385   4.313   2.743   1.251 -0.0517 -0.9687 -0.0019
  287TMC3     H 4386   4.206   2.450   1.046 -0.4692 -0.5313  1.4454
  287TMC3    H1 4387   4.503   2.604   1.304  0.1327 -0.8757  1.0979
  287TMC3    H2 4388   4.611   2.336   0.989 -0.5688  0.0802 -0.6249
  287TMC3    C7 4389   4.716   2.477   1.197  0.3863  0.0392  0.1861
  287TMC3    C8 4390   4.384   2.334   0.875  0.5627 -0.2466 -0.4824
  287TMC3    O1 4391   0.046   2.405   1.130  0.0930  0.0209 -0.3787
  287TMC3    O2 4392   4.274   2.288   0.866 -0.3181 -0.4520 -0.0026
  288TMC3    C1 4393   1.924   2.689  14.441 -0.4296 -0.1819 -0.1146
  288TMC3    C2 4394   1.786   2.695  14.475 -0.7220  0.1773  0.1091
  288TMC3    C3 4395   1.724   2.810  14.440  0.3262  0.0590 -0.1390
  288TMC3    C4 4396   1.992   2.794  14.373  0.2160  0.1067 -0.0594
  288TMC3    C5 4397   1.914   2.900  14.326  0.2881 -0.3007  0.1841
  288TMC3    C6 4398   1.777   2.916  14.363  0.1322  0.4643  0.5880
  288TMC3     C 4399   2.004   2.601  14.530  0.0412 -0.6060 -0.5132
  288TMC3     O 4400   1.944   2.528  14.610  0.4104 -0.0559  0.2412
  288TMC3     H 4401   1.746   2.621  14.544  1.0956  0.2095  1.2102
  288TMC3    H1 4402   2.099   2.791  14.355  0.2486  1.5479 -0.1224
  288TMC3    H2 4403   1.720   3.007  14.351  1.4162  1.4507  2.0330
  288TMC3    C7 4404   1.983   3.006  14.267 -0.5720 -0.7051  0.6296
  288TMC3    C8 4405   1.578   2.821  14.459  0.0953 -0.3162 -0.0067
  288TMC3    O1 4406   2.104   3.006  14.258  0.0174 -0.3786 -0.3464
  288TMC3    O2 4407   1.532   2.930  14.450  0.1947 -0.0943 -0.3968
  289MPD2     C 4408   1.535   1.901  14.513 -0.0947  0.3170  0.2658
  289MPD2    C1 4409   1.552   1.985  14.410  0.4115 -0.6110 -0.3232
  289MPD2    C2 4410   1.466   1.985  14.302 -0.9565  0.5212  0.1193
  289MPD2    C3 4411   1.363   1.896  14.299  0.7134  0.0611 -0.5508
  289MPD2    C4 4412   1.340   1.818  14.402 -0.1474  0.3819  0.7740
  289MPD2    C5 4413   1.423   1.816  14.511  0.4302 -0.3646 -0.3967
  289MPD2     H 4414   1.491   2.052  14.220 -0.5714 -1.3664 -1.2996
  289MPD2    H1 4415   1.248   1.762  14.401 -0.2347  0.5757 -1.1935
  289MPD2    H2 4416   1.601   1.904  14.600 -1.0752 -0.6988  1.0440
  289MPD2    H3 4417   1.398   1.760  14.600 -2.7031  2.2492  0.3537
  289MPD2     N 4418   1.275   1.894  14.187  0.1919 -0.0185 -0.1881
  289MPD2    H5 4419   1.190   1.838  14.187 -0.1593  0.5216 -0.8339
  289MPD2    N1 4420   1.674   2.052  14.407 -0.1320 -0.2876 -0.0835
  289MPD2    H7 4421   1.752   2.009  14.455 -1.0258 -1.6355  0.1567
  290TMC3    C1 4422   1.175   1.960  13.992 -0.0132 -0.2473  0.6289
  290TMC3    C2 4423   1.094   2.074  13.968 -0.1320 -0.0934  0.4436
  290TMC3    C3 4424   1.025   2.078  13.848 -0.3862 -0.6614 -0.6497
  290TMC3    C4 4425   1.182   1.856  13.905 -0.1775  0.3036 -0.1318
  290TMC3    C5 4426   1.106   1.871  13.788  0.0024  0.0354  0.3466
  290TMC3    C6 4427   1.032   1.976  13.750  0.2676 -0.0281 -0.2412
  290TMC3     C 4428   1.283   1.982  14.077 -0.5912 -0.3228  0.8350
  290TMC3     O 4429   1.342   2.087  14.052  0.5145 -0.3282  0.3527
  290TMC3     H 4430   1.117   2.162  14.027  0.4322  1.6579 -2.3897
  290TMC3    H1 4431   1.251   1.776  13.928 -2.0029 -1.7564 -1.8172
  290TMC3    H2 4432   0.976   1.973  13.658  0.5246  0.0208 -0.3991
  290TMC3    C7 4433   1.112   1.753  13.701  0.0902 -0.0240  0.1698
  290TMC3    C8 4434   0.953   2.200  13.808 -0.1775 -1.0489  0.0298
  290TMC3    O1 4435   1.096   1.777  13.583 -0.1022  0.2377 -0.2640
  290TMC3    O2 4436   0.922   2.208  13.690  0.5464  0.8125 -0.6677
  291MPD2     C 4437   0.601   1.915   0.650 -0.3631 -0.3241 -1.0249
  291MPD2    C1 4438   0.712   1.879   0.579 -0.4111 -0.0651  0.9529
  291MPD2    C2 4439   0.806   1.975   0.547  0.2700  0.4399  0.5254
  291MPD2    C3 4440   0.793   2.107   0.581  0.4544  0.0404 -0.1463
  291MPD2    C4 4441   0.682   2.141   0.662  0.2175 -0.4602 -0.1499
  291MPD2    C5 4442   0.588   2.046   0.686  0.5561 -0.2531 -0.0699
  291MPD2     H 4443   0.890   1.948   0.484 -0.3168  2.6735 -1.2180
  291MPD2    H1 4444   0.665   2.244   0.691  0.9500 -0.3907  0.0346
  291MPD2    H2 4445   0.517   1.848   0.665 -0.5659  0.4011  1.1308
  291MPD2    H3 4446   0.499   2.082   0.737  0.6218 -0.2190  0.0205
  291MPD2     N 4447   0.880   2.212   0.553 -0.3112  0.1588 -0.0103
  291MPD2    H5 4448   0.858   2.300   0.598  0.3100  0.8517 -1.0702
  291MPD2    N1 4449   0.741   1.749   0.538 -0.1213  0.1428 -0.1891
  291MPD2    H7 4450   0.826   1.738   0.482  0.1475  1.8921 -0.1097
  292TMC3    C1 4451   0.708   1.524   0.460 -0.2308  0.3578  0.3879
  292TMC3    C2 4452   0.839   1.484   0.490  0.0158  0.1132 -0.2353
  292TMC3    C3 4453   0.870   1.360   0.450 -0.3822 -0.7446 -0.7776
  292TMC3    C4 4454   0.623   1.434   0.400 -0.1407  0.0978 -0.2639
  292TMC3    C5 4455   0.664   1.316   0.354 -0.4284 -0.4298 -0.0812
  292TMC3    C6 4456   0.794   1.273   0.378 -0.0589 -0.2435 -0.2958
  292TMC3     C 4457   0.646   1.645   0.525  0.0268 -0.3981  0.4727
  292TMC3     O 4458   0.524   1.644   0.540  0.0253 -0.2863  0.1834
  292TMC3     H 4459   0.907   1.542   0.551 -0.4460  1.0907 -0.6421
  292TMC3    H1 4460   0.522   1.467   0.380 -0.8110 -1.6117  0.3431
  292TMC3    H2 4461   0.826   1.171   0.357  1.2981  0.1676 -0.2036
  292TMC3    C7 4462   0.587   1.228   0.269  0.0435  0.4111  0.4787
  292TMC3    C8 4463   0.991   1.300   0.517 -0.0578 -0.0853 -0.3129
  292TMC3    O1 4464   0.642   1.145   0.200  0.3604 -0.1894  0.2787
  292TMC3    O2 4465   1.056   1.375   0.589  0.1141 -0.1835  0.1884
  293MPD2     C 4466   2.084   2.691  12.704 -0.5461 -0.0801 -0.2782
  293MPD2    C1 4467   2.039   2.823  12.731 -0.2214  0.5146 -0.2904
  293MPD2    C2 4468   2.076   2.887  12.844 -0.3077  0.1242  0.4375
  293MPD2    C3 4469   2.133   2.816  12.947  0.5959 -0.0434 -0.1819
  293MPD2    C4 4470   2.169   2.682  12.928  0.8474 -0.4379 -0.3461
  293MPD2    C5 4471   2.154   2.627  12.805  0.0412 -0.6041 -0.4122
  293MPD2     H 4472   2.051   2.991  12.857  0.4371  0.4528 -0.8197
  293MPD2    H1 4473   2.216   2.617  13.002  2.0381  1.1896  0.3373
  293MPD2    H2 4474   2.063   2.639  12.611 -1.8115 -0.1978  0.0678
  293MPD2    H3 4475   2.187   2.525  12.791 -0.7831 -0.8946 -0.2653
  293MPD2     N 4476   2.154   2.883  13.071 -0.0714 -0.2600 -0.4195
  293MPD2    H5 4477   2.143   2.984  13.076 -1.6140 -0.4607  0.2002
  293MPD2    N1 4478   1.943   2.882  12.648 -0.2691  0.0640 -0.7556
  293MPD2    H7 4479   1.920   2.830  12.563  0.4802  0.9082 -1.4734
  294TMC3    C1 4480   1.810   3.028  12.528 -0.1650  0.0475 -0.3823
  294TMC3    C2 4481   1.725   2.926  12.501  0.4657 -0.0393  0.2158
  294TMC3    C3 4482   1.636   2.943  12.398  0.4246 -0.6310  1.0407
  294TMC3    C4 4483   1.819   3.137  12.444  0.1777 -0.0608  0.0558
  294TMC3    C5 4484   1.734   3.140  12.334  0.9627 -0.3195  0.0683
  294TMC3    C6 4485   1.642   3.043  12.309  0.1410 -0.7950 -0.2397
  294TMC3     C 4486   1.898   3.011  12.639  0.4441 -0.9680  0.3629
  294TMC3     O 4487   1.928   3.099  12.715  0.1919 -0.9392  0.4506
  294TMC3     H 4488   1.717   2.843  12.571  1.9663 -0.7791 -0.4787
  294TMC3    H1 4489   1.883   3.218  12.476  0.5712 -1.1241  1.9634
  294TMC3    H2 4490   1.562   3.063  12.238 -0.5400  2.1643  1.3424
  294TMC3    C7 4491   1.723   3.265  12.258 -0.0219 -0.0172 -0.4877
  294TMC3    C8 4492   1.559   2.838  12.361 -0.3608 -0.3225 -0.7662
  294TMC3    O1 4493   1.616   3.305  12.214  0.2965 -0.4023  0.4454
  294TMC3    O2 4494   1.531   2.770  12.457 -0.1387  0.1769 -0.1658
  295MPD2     C 4495   2.649   2.530   0.936 -0.2694 -0.0038  0.2096
  295MPD2    C1 4496   2.573   2.423   0.888  0.4899  0.5612  0.3837
  295MPD2    C2 4497   2.462   2.377   0.956  0.2314  0.3720  0.0863
  295MPD2    C3 4498   2.437   2.426   1.081 -0.4127 -0.0962  0.4829
  295MPD2    C4 4499   2.504   2.538   1.123 -0.7093  0.4424 -0.5850
  295MPD2    C5 4500   2.613   2.588   1.055  0.0533 -1.2663  0.5147
  295MPD2     H 4501   2.404   2.298   0.909  1.1435 -1.1781  1.5814
  295MPD2    H1 4502   2.482   2.574   1.222  1.2162 -1.2990  0.4831
  295MPD2    H2 4503   2.735   2.571   0.884 -1.4968  0.1080 -1.7130
  295MPD2    H3 4504   2.672   2.672   1.090  1.1771 -1.3124 -1.2344
  295MPD2     N 4505   2.330   2.382   1.166  0.0319 -0.5786  0.2772
  295MPD2    H5 4506   2.295   2.443   1.240 -0.2878 -0.4283 -0.0000
  295MPD2    N1 4507   2.602   2.350   0.768  0.8151 -0.7947  0.4516
  295MPD2    H7 4508   2.531   2.282   0.745  0.0805  0.1831 -0.1435
  296TMC3    C1 4509   2.132   2.263   1.221 -0.4234 -0.2812 -0.1009
  296TMC3    C2 4510   2.043   2.367   1.204  0.5715 -1.0217  0.1288
  296TMC3    C3 4511   1.917   2.342   1.254 -0.3916 -0.3125  0.3645
  296TMC3    C4 4512   2.093   2.135   1.266 -0.2770 -1.0467  0.0539
  296TMC3    C5 4513   1.959   2.115   1.293  0.0810 -0.1313  0.1173
  296TMC3    C6 4514   1.867   2.215   1.280  0.7109  0.8080 -0.1332
  296TMC3     C 4515   2.257   2.268   1.153  0.2613  0.3508  0.4717
  296TMC3     O 4516   2.269   2.180   1.071  0.3093  0.3776  0.4634
  296TMC3     H 4517   2.081   2.468   1.202 -1.0717 -0.4079  0.2146
  296TMC3    H1 4518   2.164   2.059   1.295  3.3353  2.2928 -0.0406
  296TMC3    H2 4519   1.763   2.200   1.304  0.5658  1.7805 -0.1534
  296TMC3    C7 4520   1.904   1.982   1.299 -0.1994 -0.2519 -0.0626
  296TMC3    C8 4521   1.808   2.446   1.259 -0.0837 -0.7610  0.4751
  296TMC3    O1 4522   1.783   1.975   1.320  0.0418 -0.6061  0.6129
  296TMC3    O2 4523   1.706   2.427   1.325  0.3110 -0.1553  0.0814
  297MPD2     C 4524   0.139   3.753  16.310  0.0029  0.5132 -0.9120
  297MPD2    C1 4525   0.098   3.781  16.184 -0.0819 -0.1010  0.3574
  297MPD2    C2 4526   0.166   3.889  16.114  0.6703 -0.0473  0.1260
  297MPD2    C3 4527   0.259   3.972  16.183 -0.5062  0.2337  0.5043
  297MPD2    C4 4528   0.291   3.934  16.314 -0.0826 -0.3107  0.4981
  297MPD2    C5 4529   0.240   3.820  16.374  0.0202 -0.6525  0.7493
  297MPD2     H 4530   0.140   3.914  16.011 -2.0888 -0.3310  0.7636
  297MPD2    H1 4531   0.367   3.988  16.370  1.9349 -2.0821 -0.5252
  297MPD2    H2 4532   0.102   3.664  16.359  0.6527  0.1524 -1.0825
  297MPD2    H3 4533   0.276   3.802  16.475  1.7506 -1.8199 -0.0922
  297MPD2     N 4534   0.299   4.094  16.127 -0.0373 -0.0400  0.4989
  297MPD2    H5 4535   0.273   4.116  16.031 -0.1429 -2.5990 -0.0845
  297MPD2    N1 4536   4.734   3.708  16.117  0.3311  0.3030 -0.7892
  297MPD2    H7 4537   4.706   3.737  16.024 -0.4937  1.1028 -0.2932
  298TMC3    C1 4538   4.530   3.590  16.094  0.4808 -0.2433  0.7829
  298TMC3    C2 4539   4.541   3.562  15.968 -0.1468  0.3986  0.3451
  298TMC3    C3 4540   4.425   3.561  15.896 -0.6557 -0.2055 -0.5453
  298TMC3    C4 4541   4.414   3.610  16.164 -0.3229 -0.4497 -0.2337
  298TMC3    C5 4542   4.300   3.602  16.091 -0.3380  0.0886 -0.0415
  298TMC3    C6 4543   4.308   3.577  15.954  0.4244  0.0643 -0.0399
  298TMC3     C 4544   4.641   3.630  16.180 -0.5978  0.1025  0.3729
  298TMC3     O 4545   4.630   3.617  16.303 -0.0601  0.3217 -0.3942
  298TMC3     H 4546   4.635   3.534  15.923 -0.9291  1.4640 -1.9566
  298TMC3    H1 4547   4.410   3.645  16.267  0.0106 -0.7807 -0.1079
  298TMC3    H2 4548   4.208   3.588  15.914  0.6219 -0.8780 -0.8111
  298TMC3    C7 4549   4.224   3.712  16.118  0.1202  0.2805 -0.0938
  298TMC3    C8 4550   4.417   3.646  15.785 -0.1735  0.8242 -0.5000
  298TMC3    O1 4551   4.194   3.725  16.237  0.0686  0.1632  0.0766
  298TMC3    O2 4552   4.319   3.715  15.762 -0.8779  0.1879 -0.3716
  299MPD2     C 4553   0.640   3.580  10.451  0.2585 -0.5443 -0.7387
  299MPD2    C1 4554   0.624   3.472  10.539  0.4171  0.4126  0.1300
  299MPD2    C2 4555   0.531   3.376  10.513  0.2372 -0.1477  0.8079
  299MPD2    C3 4556   0.448   3.383  10.402  0.2717  0.3392  0.2940
  299MPD2    C4 4557   0.461   3.491  10.317 -0.4160  0.4665 -0.1476
  299MPD2    C5 4558   0.562   3.582  10.338  0.5716  0.0761  0.3010
  299MPD2     H 4559   0.532   3.290  10.579 -0.4327 -1.6283 -1.1115
  299MPD2    H1 4560   0.408   3.493  10.222  0.3317  1.4919 -0.5426
  299MPD2    H2 4561   0.717   3.652  10.474  0.7560 -1.1731 -0.4479
  299MPD2    H3 4562   0.566   3.666  10.269  0.6720 -1.3706 -1.4530
  299MPD2     N 4563   0.341   3.295  10.385 -0.5231  0.2601  0.4918
  299MPD2    H5 4564   0.277   3.331  10.314  0.6209 -0.5520 -0.9551
  299MPD2    N1 4565   0.708   3.471  10.660 -0.6448  0.4666 -0.2820
  299MPD2    H7 4566   0.774   3.547  10.665 -0.1008 -0.0956  1.0027
  300TMC3    C1 4567   0.169   3.140  10.442 -0.4857  0.4353 -0.2754
  300TMC3    C2 4568   0.086   3.193  10.343  0.8344  0.2903  0.2135
  300TMC3    C3 4569   4.692   3.156  10.353  0.1086 -0.2354 -0.1446
  300TMC3    C4 4570   0.129   3.063  10.543  0.3469 -0.5352 -0.4123
  300TMC3    C5 4571   4.730   3.038  10.552  0.0623 -0.1218  0.1671
  300TMC3    C6 4572   4.641   3.089  10.458  0.1995  0.1634 -0.4617
  300TMC3     C 4573   0.308   3.187  10.467 -0.2641 -0.0717  0.1904
  300TMC3     O 4574   0.370   3.141  10.563 -0.2542 -0.6360  0.0274
  300TMC3     H 4575   0.130   3.235  10.254  2.7235  1.4355  1.6857
  300TMC3    H1 4576   0.177   3.039  10.637 -0.0979 -0.0626 -0.0617
  300TMC3    H2 4577   4.535   3.064  10.460  0.0548  0.6503 -2.1672
  300TMC3    C7 4578   4.672   3.005  10.678 -0.1622 -0.3672  0.3948
  300TMC3    C8 4579   4.588   3.238  10.285  0.3171 -0.1443  0.3613
  300TMC3    O1 4580   4.631   2.891  10.705  0.9119 -0.2420 -0.6703
  300TMC3    O2 4581   4.485   3.266  10.347  0.2722  0.3737 -0.2034
  301MPD2     C 4582   3.028   0.090   1.355 -0.0286 -0.8494 -0.0607
  301MPD2    C1 4583   2.983   0.090   1.225 -0.4723 -0.0452  0.2709
  301MPD2    C2 4584   3.050   0.030   1.123 -0.4072 -0.3517  0.3000
  301MPD2    C3 4585   3.180   4.724   1.137 -0.8430  0.1682 -0.0809
  301MPD2    C4 4586   3.232   4.737   1.266 -0.4844 -0.1656  0.2294
  301MPD2    C5 4587   3.151   0.043   1.368 -0.2466 -0.0918  0.3204
  301MPD2     H 4588   3.001   0.031   1.027  0.9705 -0.1717 -0.4048
  301MPD2    H1 4589   3.328   4.691   1.287 -0.4170  0.1341  0.5763
  301MPD2    H2 4590   2.973   0.133   1.438 -0.0883 -2.3195  0.6522
  301MPD2    H3 4591   3.196   0.036   1.466 -0.0133 -0.3689  0.1941
  301MPD2     N 4592   3.259   4.650   1.039 -0.0556  0.8158 -0.4332
  301MPD2    H5 4593   3.352   4.625   1.070 -0.6188  1.6440  1.9264
  301MPD2    N1 4594   2.856   0.129   1.190  0.2692  0.6540 -0.1322
  301MPD2    H7 4595   2.830   0.106   1.095  1.0607  1.1556 -0.4693
  302TMC3    C1 4596   3.286   4.500   0.855 -0.8042 -0.3458 -0.1703
  302TMC3    C2 4597   3.244   4.377   0.906 -0.6105 -0.1873  0.2126
  302TMC3    C3 4598   3.201   4.282   0.824  0.2153  0.1919  0.5648
  302TMC3    C4 4599   3.274   4.515   0.716 -0.3386  0.5543  0.3115
  302TMC3    C5 4600   3.251   4.413   0.636  0.2577 -0.2494 -0.3105
  302TMC3    C6 4601   3.202   4.295   0.681  0.4301 -0.2191  0.0917
  302TMC3     C 4602   3.209   4.608   0.920 -0.1360  0.4505  0.2276
  302TMC3     O 4603   3.103   4.637   0.865 -0.9632  0.0961  0.5539
  302TMC3     H 4604   3.227   4.370   1.013 -1.1530  1.4640  0.2387
  302TMC3    H1 4605   3.264   4.616   0.680  1.1738  1.5846  2.8077
  302TMC3    H2 4606   3.187   4.204   0.623 -2.5923  0.7790 -0.6558
  302TMC3    C7 4607   3.206   4.467   0.506 -0.3040 -0.6728  0.3251
  302TMC3    C8 4608   3.149   4.159   0.882 -0.5512  0.1325 -0.4568
  302TMC3    O1 4609   3.283   4.539   0.448  0.3887  0.0185  0.5683
  302TMC3    O2 4610   3.196   4.121   0.991  0.1379  0.2984  0.4556
  303MPD2     C 4611   3.246   3.701  10.543  0.4804  0.2065 -0.1794
  303MPD2    C1 4612   3.170   3.596  10.589  0.3552 -0.6784 -0.0596
  303MPD2    C2 4613   3.120   3.510  10.495  0.2667  0.4253  0.1162
  303MPD2    C3 4614   3.141   3.525  10.355  0.3015  0.5498  0.0239
  303MPD2    C4 4615   3.220   3.633  10.315  0.1747  0.6393  0.2805
  303MPD2    C5 4616   3.266   3.719  10.407 -0.3835 -0.1645  0.7027
  303MPD2     H 4617   3.074   3.417  10.525  0.8266 -0.1041 -0.6484
  303MPD2    H1 4618   3.242   3.648  10.210  2.1251  0.1483  0.6239
  303MPD2    H2 4619   3.302   3.765  10.609  2.3732 -0.7523 -0.8521
  303MPD2    H3 4620   3.324   3.802  10.369 -0.3177 -0.8392 -0.6732
  303MPD2     N 4621   3.083   3.438  10.263  0.1462 -0.6351  0.4107
  303MPD2    H5 4622   3.130   3.446  10.173  0.0401  2.8131  0.6581
  303MPD2    N1 4623   3.156   3.575  10.730 -0.0870  0.2001 -0.3034
  303MPD2    H7 4624   3.199   3.646  10.789 -1.5892  0.1974  0.7963
  304TMC3    C1 4625   3.061   3.500  10.921  0.4835  0.0532  0.2208
  304TMC3    C2 4626   2.996   3.622  10.928 -0.5227  0.0285 -0.1235
  304TMC3    C3 4627   2.883   3.624  11.007 -0.0956  0.4630 -0.3603
  304TMC3    C4 4628   3.013   3.392  10.995  0.2750  0.2351 -0.2573
  304TMC3    C5 4629   2.916   3.406  11.090 -0.9502 -0.2994  0.6456
  304TMC3    C6 4630   2.854   3.529  11.098  0.0024 -0.1785 -0.6873
  304TMC3     C 4631   3.096   3.465  10.791  0.1793 -0.0479 -0.2189
  304TMC3     O 4632   3.023   3.377  10.751  0.0175  0.4215 -0.0438
  304TMC3     H 4633   3.029   3.704  10.865 -1.6966 -0.0451 -0.8425
  304TMC3    H1 4634   3.039   3.289  10.971  0.8331  0.6231 -1.3338
  304TMC3    H2 4635   2.771   3.540  11.168  0.5848 -3.3809  0.4914
  304TMC3    C7 4636   2.823   3.299  11.095 -0.8555 -0.3254  0.7174
  304TMC3    C8 4637   2.772   3.661  10.921  0.0110 -0.2625  0.0990
  304TMC3    O1 4638   2.713   3.326  11.058  0.2082 -0.2776  0.1302
  304TMC3    O2 4639   2.781   3.759  10.847 -0.5771  0.0579  0.1389
  305MPD2     C 4640   1.055   0.485  14.152 -0.6338  0.4356  0.0240
  305MPD2    C1 4641   1.144   0.392  14.093 -0.1823 -0.2293 -0.0704
  305MPD2    C2 4642   1.101   0.318  13.984  0.7613  0.5625  0.0934
  305MPD2    C3 4643   0.984   0.363  13.922 -0.0232  0.9427  0.2111
  305MPD2    C4 4644   0.899   0.454  13.976 -0.5811 -0.2661  0.2080
  305MPD2    C5 4645   0.935   0.509  14.095 -0.2969 -0.0012 -0.2757
  305MPD2     H 4646   1.160   0.237  13.943  0.9848 -0.2880  2.0731
  305MPD2    H1 4647   0.802   0.470  13.931 -0.0566  1.2012 -0.3911
  305MPD2    H2 4648   1.069   0.536  14.247  0.6096  1.0811 -0.5005
  305MPD2    H3 4649   0.872   0.592  14.129  0.9460  0.6330  0.4727
  305MPD2     N 4650   0.949   0.308  13.802  0.1706  0.0839 -0.5791
  305MPD2    H5 4651   0.881   0.366  13.754 -0.5342 -0.7285 -0.5673
  305MPD2    N1 4652   1.262   0.363  14.170  0.2751  0.7167 -0.3439
  305MPD2    H7 4653   1.279   0.422  14.250 -3.9714 -0.8835  1.7865
  306TMC3    C1 4654   1.459   0.253  14.242 -0.0143  0.0058  1.1779
  306TMC3    C2 4655   1.561   0.160  14.223 -0.2009 -0.0872 -0.1190
  306TMC3    C3 4656   1.631   0.125  14.331  0.0996  0.2646  0.3700
  306TMC3    C4 4657   1.440   0.317  14.363  0.9589 -0.3078  0.3663
  306TMC3    C5 4658   1.520   0.275  14.467  0.1268  0.3161  0.4297
  306TMC3    C6 4659   1.615   0.182  14.453 -0.6197 -0.0883  0.6119
  306TMC3     C 4660   1.351   0.262  14.139  0.4454  0.2660  0.4177
  306TMC3     O 4661   1.372   0.207  14.031  0.5828  1.2001  0.0474
  306TMC3     H 4662   1.585   0.124  14.124 -0.7169  3.4275 -1.5016
  306TMC3    H1 4663   1.353   0.379  14.382  2.3781  2.2276 -1.3660
  306TMC3    H2 4664   1.659   0.133  14.539  0.2609 -0.3764 -0.0057
  306TMC3    C7 4665   1.482   0.313  14.605 -0.8458  0.0910 -0.2615
  306TMC3    C8 4666   1.739   0.034  14.304  0.1615 -0.2012 -0.7659
  306TMC3    O1 4667   1.374   0.374  14.614  0.0979  0.1112 -0.3228
  306TMC3    O2 4668   1.711   4.683  14.222  0.0081 -0.4284  0.2161
  307MPD2     C 4669   3.983   2.909  17.445 -0.0407  0.5634  0.5179
  307MPD2    C1 4670   3.981   3.043  17.478  0.1184  0.1054 -0.5761
  307MPD2    C2 4671   4.019   3.081  17.612  0.5834  0.2806  0.5691
  307MPD2    C3 4672   4.050   2.981  17.704  0.1355  0.8512 -0.1479
  307MPD2    C4 4673   4.061   2.848  17.667 -0.4202 -0.0276  0.1474
  307MPD2    C5 4674   4.028   2.818  17.538  0.2651 -0.0070 -0.8582
  307MPD2     H 4675   4.030   3.187  17.635  3.1661  0.5095 -1.7266
  307MPD2    H1 4676   4.096   2.772  17.737  2.0012 -0.9899 -2.1443
  307MPD2    H2 4677   3.965   2.884  17.341  0.4799  1.8065  0.1302
  307MPD2    H3 4678   4.035   2.714  17.508 -0.2648 -0.7504  1.5824
  307MPD2     N 4679   4.084   3.013   0.082 -0.0179  0.1174 -0.0036
  307MPD2    H5 4680   4.119   2.935   0.137  1.8092  0.4743 -0.6511
  307MPD2    N1 4681   3.952   3.138  17.377  0.7584  0.4174  0.0733
  307MPD2    H7 4682   3.988   3.232  17.390 -0.0058  0.4952  1.5283
  308TMC3    C1 4683   3.888   3.074   0.406  0.0635 -0.1823  0.3025
  308TMC3    C2 4684   3.890   3.205   0.458 -0.3717 -0.2748 -0.8035
  308TMC3    C3 4685   3.996   3.285   0.421  0.1284  0.5929  0.0472
  308TMC3    C4 4686   3.979   3.035   0.316 -0.1105 -1.1903 -0.6496
  308TMC3    C5 4687   4.077   3.123   0.283  0.1206 -0.5166 -0.4452
  308TMC3    C6 4688   4.099   3.235   0.351 -0.2129  0.1036 -0.0233
  308TMC3     C 4689   3.776   2.985   0.422 -0.5101  0.3514 -0.2254
  308TMC3     O 4690   3.810   2.872   0.426 -0.0922  0.1272  0.4774
  308TMC3     H 4691   3.817   3.238   0.532  1.2796  0.8727  0.3145
  308TMC3    H1 4692   3.944   2.950   0.259 -1.8530 -1.1961  0.4217
  308TMC3    H2 4693   4.172   3.311   0.325 -0.5070  0.4543  0.1946
  308TMC3    C7 4694   4.105   3.134   0.139 -0.3066 -0.8579  0.2708
  308TMC3    C8 4695   4.020   3.417   0.474 -0.3273 -0.3268 -0.8477
  308TMC3    O1 4696   4.142   3.239   0.086 -0.2879 -0.0624 -0.6837
  308TMC3    O2 4697   4.140   3.447   0.491 -0.1916  0.3116 -0.1979
  309MPD2     C 4698   3.046   3.573  17.184 -0.0296 -0.5098 -0.2610
  309MPD2    C1 4699   2.966   3.613  17.078  0.4733 -0.1801 -0.0656
  309MPD2    C2 4700   2.831   3.615  17.100  0.0079 -0.6075  0.3743
  309MPD2    C3 4701   2.777   3.585  17.227  0.0953 -0.3525  0.4280
  309MPD2    C4 4702   2.861   3.529  17.324 -0.0487  0.2162 -0.2244
  309MPD2    C5 4703   2.994   3.526  17.302  0.2278 -0.0269  0.2618
  309MPD2     H 4704   2.758   3.620  17.020  1.5008  0.1235 -0.9392
  309MPD2    H1 4705   2.816   3.514  17.421 -2.2668  0.6614 -1.1866
  309MPD2    H2 4706   3.154   3.584  17.194 -0.1090 -0.8874  1.0194
  309MPD2    H3 4707   3.056   3.498  17.386 -0.1436 -1.0397  0.1907
  309MPD2     N 4708   2.634   3.580  17.245 -0.1763  0.2257  0.7126
  309MPD2    H5 4709   2.599   3.542  17.333  0.1454 -0.7191  0.4257
  309MPD2    N1 4710   3.018   3.663  16.954  1.0495  0.1390 -0.2655
  309MPD2    H7 4711   2.949   3.703  16.890  0.0161 -2.4778 -0.7975
  310TMC3    C1 4712   3.175   3.709  16.785 -0.4225  0.3688  0.6785
  310TMC3    C2 4713   3.100   3.818  16.735 -0.0273 -0.3031 -0.2799
  310TMC3    C3 4714   3.144   3.871  16.612  0.1371  0.2433  0.4126
  310TMC3    C4 4715   3.279   3.657  16.715  0.7989  0.2488  0.3996
  310TMC3    C5 4716   3.304   3.708  16.589 -0.2963  0.7710 -0.3426
  310TMC3    C6 4717   3.243   3.818  16.530  0.6881 -0.5565 -0.5716
  310TMC3     C 4718   3.151   3.659  16.925 -0.3891  0.7115  0.7063
  310TMC3     O 4719   3.253   3.608  16.971 -0.1158  0.0275  0.7077
  310TMC3     H 4720   3.033   3.880  16.794  0.4519 -1.2478  1.2625
  310TMC3    H1 4721   3.336   3.571  16.749  0.2396 -0.5929 -0.8397
  310TMC3    H2 4722   3.270   3.853  16.431 -1.4864  1.6406 -0.3649
  310TMC3    C7 4723   3.413   3.650  16.521 -0.4268 -0.7135 -0.1321
  310TMC3    C8 4724   3.047   3.963  16.554 -0.3026  0.0943  0.0955
  310TMC3    O1 4725   3.495   3.589  16.590 -0.3465 -0.3376  0.3380
  310TMC3    O2 4726   2.951   4.003  16.612  0.2182  0.4054 -0.0286
  311MPD2     C 4727   0.077   4.739  12.381  0.5491  0.0092  0.2417
  311MPD2    C1 4728   0.085   0.109  12.468 -0.3627 -0.4887  0.3375
  311MPD2    C2 4729   4.708   0.147  12.525 -0.3515 -0.7084  0.8369
  311MPD2    C3 4730   4.585   0.082  12.513 -0.7250 -0.3541  0.0143
  311MPD2    C4 4731   4.589   4.713  12.428 -0.3613 -0.3916 -0.8033
  311MPD2    C5 4732   4.701   4.671  12.373  0.3740 -0.4087 -0.5395
  311MPD2     H 4733   4.716   0.227  12.597 -0.5231 -0.2413  0.3330
  311MPD2    H1 4734   4.501   4.654  12.405  0.0726 -2.2454  2.2338
  311MPD2    H2 4735   0.163   4.705  12.324 -0.0196  0.7710 -1.0853
  311MPD2    H3 4736   4.694   4.580  12.315 -0.3722  0.2255 -1.4346
  311MPD2     N 4737   4.476   0.126  12.589 -0.7010 -0.3802  0.0758
  311MPD2    H5 4738   4.499   0.171  12.677  0.3756 -1.0464  0.1344
  311MPD2    N1 4739   0.204   0.187  12.490 -0.6497  0.1440 -0.7749
  311MPD2    H7 4740   0.209   0.244  12.574 -0.1439  1.0284 -1.4136
  312TMC3    C1 4741   4.283   0.045  12.705  0.0660  0.1581  0.4803
  312TMC3    C2 4742   4.163   4.713  12.699 -0.0653  0.3448 -0.3123
  312TMC3    C3 4743   4.093   4.705  12.811  0.7559 -0.2362 -0.3375
  312TMC3    C4 4744   4.346   0.086  12.821  0.6098 -0.2212 -0.1595
  312TMC3    C5 4745   4.272   0.059  12.932 -0.6912  0.1064  0.7267
  312TMC3    C6 4746   4.146   0.008  12.930 -0.7892 -0.9659  0.0949
  312TMC3     C 4747   4.356   0.061  12.581  0.2277 -0.2658  0.5594
  312TMC3     O 4748   4.299   0.022  12.477  0.1766  0.3214  0.2962
  312TMC3     H 4749   4.129   4.692  12.599 -1.8366  0.0991  0.3453
  312TMC3    H1 4750   4.446   0.127  12.830 -0.0775  1.2272  0.9071
  312TMC3    H2 4751   4.089   0.013  13.022 -0.6319  0.1162  0.1318
  312TMC3    C7 4752   4.326   0.080  13.060 -0.3020 -0.0600 -0.2724
  312TMC3    C8 4753   3.947   4.686  12.814 -0.5314  0.8291  0.1331
  312TMC3    O1 4754   4.386   0.183  13.076  0.1103  0.0329 -0.8080
  312TMC3    O2 4755   3.895   4.647  12.918 -0.4171  0.6741  0.2006
  313MPD2     C 4756   3.551   4.431  11.371 -0.0415  0.7686 -0.5061
  313MPD2    C1 4757   3.648   4.430  11.272  0.2129  0.4699 -0.3220
  313MPD2    C2 4758   3.741   4.323  11.278 -0.0120  0.0574 -0.6294
  313MPD2    C3 4759   3.741   4.222  11.364 -0.5495  0.0518 -0.6376
  313MPD2    C4 4760   3.643   4.222  11.460  0.3909  0.2019  0.1849
  313MPD2    C5 4761   3.548   4.321  11.462 -0.0516 -0.1617  0.2380
  313MPD2     H 4762   3.815   4.321  11.200 -1.2130  3.5715 -1.9024
  313MPD2    H1 4763   3.636   4.140  11.529  1.1105 -1.0080 -1.1827
  313MPD2    H2 4764   3.484   4.516  11.377 -0.1117  0.7371 -0.8613
  313MPD2    H3 4765   3.483   4.318  11.548  0.6466  0.0292  0.7743
  313MPD2     N 4766   3.849   4.127  11.357 -0.1562 -0.4611 -0.7501
  313MPD2    H5 4767   3.904   4.125  11.272  1.0722 -0.8427  0.0577
  313MPD2    N1 4768   3.674   4.540  11.185 -0.1936  0.4816  0.0023
  313MPD2    H7 4769   3.770   4.536  11.153  0.6212  1.6917  2.3282
  314TMC3    C1 4770   3.667   4.733  11.062 -0.2152 -0.4078 -0.6707
  314TMC3    C2 4771   3.795   0.033  11.090 -0.0428 -0.5804  0.6057
  314TMC3    C3 4772   3.868   0.062  10.984  0.0690 -0.6236 -0.2601
  314TMC3    C4 4773   3.615   4.702  10.940 -0.5406  0.2853  0.2538
  314TMC3    C5 4774   3.695   4.727  10.831 -0.3650 -0.0976  0.1756
  314TMC3    C6 4775   3.820   0.047  10.852  0.1619  0.2820  0.1899
  314TMC3     C 4776   3.595   4.648  11.160  0.2423  0.1082  0.4800
  314TMC3     O 4777   3.471   4.659  11.171 -0.3608 -0.4691 -0.2783
  314TMC3     H 4778   3.825   0.059  11.191 -0.7907 -0.5985  0.8400
  314TMC3    H1 4779   3.513   4.666  10.931  0.8757 -3.7578  0.3240
  314TMC3    H2 4780   3.885   0.078  10.771 -0.7164 -0.9874 -0.9956
  314TMC3    C7 4781   3.655   4.670  10.700  0.6746  0.1847 -0.8903
  314TMC3    C8 4782   3.994   0.134  10.999  0.2581  0.8132 -0.3497
  314TMC3    O1 4783   3.535   4.632  10.692  0.6177  0.4785  0.7772
  314TMC3    O2 4784   4.038   0.176  10.892  0.1126  0.0762 -0.3498
  315MPD2     C 4785   4.209   3.163  17.102 -0.0768  0.3230  0.5939
  315MPD2    C1 4786   4.263   3.191  17.231  0.2208  0.3804  0.4650
  315MPD2    C2 4787   4.270   3.324  17.273  0.3224  0.2119 -0.2023
  315MPD2    C3 4788   4.228   3.424  17.184 -0.1637 -0.0281  0.5232
  315MPD2    C4 4789   4.171   3.400  17.059 -0.1860  0.5275  0.2952
  315MPD2    C5 4790   4.166   3.266  17.018  0.0622 -0.1199  0.1249
  315MPD2     H 4791   4.302   3.358  17.370 -2.4520 -1.1817  1.2043
  315MPD2    H1 4792   4.136   3.474  16.988 -0.7681  0.9414  1.0105
  315MPD2    H2 4793   4.194   3.059  17.076 -0.9038  0.4577  0.5405
  315MPD2    H3 4794   4.131   3.240  16.918 -0.7403  1.1459  0.0748
  315MPD2     N 4795   4.232   3.551  17.251 -0.4920  0.1691 -0.4007
  315MPD2    H5 4796   4.258   3.557  17.349 -1.2428  4.1690 -0.4675
  315MPD2    N1 4797   4.310   3.093  17.320 -0.3799  0.3144  0.8146
  315MPD2    H7 4798   4.344   3.136  17.405 -0.7973  1.1518  0.5542
  316TMC3    C1 4799   4.187   3.779  17.291  0.3823  0.3238 -0.0597
  316TMC3    C2 4800   4.266   3.774  17.405  0.2582  0.1108  0.4702
  316TMC3    C3 4801   4.285   3.887  17.476  0.7997  0.3914 -0.0687
  316TMC3    C4 4802   4.123   3.898  17.252 -0.3039 -0.2777 -0.3905
  316TMC3    C5 4803   4.149   4.012  17.327 -0.0754  0.0588 -1.1334
  316TMC3    C6 4804   4.233   4.011  17.435 -0.2153  0.1503  0.2990
  316TMC3     C 4805   4.175   3.665  17.198 -0.0743 -0.0882  0.3445
  316TMC3     O 4806   4.120   3.688  17.089 -0.1265  0.2515 -0.3348
  316TMC3     H 4807   4.331   3.690  17.430  0.4503  0.0533 -0.2100
  316TMC3    H1 4808   4.053   3.899  17.169  0.8551 -0.3150 -1.3688
  316TMC3    H2 4809   4.245   4.099  17.496  0.9595  0.4821 -0.4154
  316TMC3    C7 4810   4.098   4.149  17.298 -0.5115  0.8189 -0.1163
  316TMC3    C8 4811   4.369   3.888  17.596  0.2007  0.7738 -0.0439
  316TMC3    O1 4812   4.125   4.244  17.369  0.3986  0.6522 -0.6304
  316TMC3    O2 4813   4.388   4.006  17.634  0.2937 -0.4467 -1.0056
  317MPD2     C 4814   1.105   1.666  12.263 -0.8544  0.2434 -0.4905
  317MPD2    C1 4815   1.208   1.581  12.222  0.4943  0.2491  0.2590
  317MPD2    C2 4816   1.296   1.530  12.321 -0.0611 -0.2508 -0.4400
  317MPD2    C3 4817   1.282   1.560  12.454  0.8934 -0.2523  0.8958
  317MPD2    C4 4818   1.177   1.642  12.488 -0.1426  0.5969  1.1096
  317MPD2    C5 4819   1.100   1.699  12.393 -0.2298  0.3534 -0.6660
  317MPD2     H 4820   1.377   1.467  12.287  1.5891  0.7115  1.7741
  317MPD2    H1 4821   1.147   1.678  12.586 -2.1973  0.5777  0.4868
  317MPD2    H2 4822   1.053   1.727  12.190 -2.2877  1.7577  1.8060
  317MPD2    H3 4823   1.023   1.769  12.424  1.0351  2.3055 -1.9296
  317MPD2     N 4824   1.378   1.505  12.547  0.3045  0.0572 -0.2619
  317MPD2    H5 4825   1.448   1.448  12.502 -0.4229 -1.0189 -0.0237
  317MPD2    N1 4826   1.236   1.557  12.086  0.1266 -0.0127  0.0047
  317MPD2    H7 4827   1.302   1.483  12.066 -0.9558 -1.7427  2.8584
  318TMC3    C1 4828   1.470   1.447  12.759 -0.3145 -0.4371 -0.1331
  318TMC3    C2 4829   1.451   1.385  12.881  0.4024  0.3008 -0.9379
  318TMC3    C3 4830   1.542   1.301  12.931 -0.1745 -0.1623  0.1740
  318TMC3    C4 4831   1.590   1.443  12.704 -0.2004 -0.7613  0.3603
  318TMC3    C5 4832   1.684   1.370  12.769  0.3053  0.4723 -1.2974
  318TMC3    C6 4833   1.661   1.285  12.874 -0.3884  0.1030 -0.0478
  318TMC3     C 4834   1.362   1.510  12.685 -0.0610  0.0510 -0.3749
  318TMC3     O 4835   1.263   1.548  12.745  0.0122  0.0353 -0.1992
  318TMC3     H 4836   1.347   1.388  12.913  0.8988 -0.0352  0.7109
  318TMC3    H1 4837   1.610   1.499  12.614 -1.4247 -1.1332 -0.1456
  318TMC3    H2 4838   1.741   1.224  12.914 -0.6861  2.0624  3.4853
  318TMC3    C7 4839   1.824   1.391  12.725 -0.5470  0.2474  0.3409
  318TMC3    C8 4840   1.488   1.184  13.001  0.5931  0.2954  0.1907
  318TMC3    O1 4841   1.837   1.420  12.607 -0.1415  0.3608 -0.5799
  318TMC3    O2 4842   1.570   1.087  13.007  0.0958 -0.0456 -0.0750
  319MPD2     C 4843   2.453   2.856  15.974 -0.6382  0.5069  0.0792
  319MPD2    C1 4844   2.367   2.887  16.080 -0.5342  0.0231 -0.0573
  319MPD2    C2 4845   2.236   2.883  16.050 -1.1660 -0.1009  0.5896
  319MPD2    C3 4846   2.183   2.834  15.935  0.9114 -0.0500 -0.5649
  319MPD2    C4 4847   2.266   2.798  15.836  0.1178 -0.2071 -1.2319
  319MPD2    C5 4848   2.405   2.811  15.860 -0.0251 -0.8388  0.3627
  319MPD2     H 4849   2.171   2.903  16.133 -1.0487 -0.0799  0.6763
  319MPD2    H1 4850   2.230   2.750  15.746 -1.9802  1.1447 -1.1073
  319MPD2    H2 4851   2.561   2.864  15.982 -0.3449 -1.5856 -1.7396
  319MPD2    H3 4852   2.467   2.773  15.780  1.8107  1.5324  0.6527
  319MPD2     N 4853   2.046   2.827  15.912  0.0275  0.0775  0.6109
  319MPD2    H5 4854   2.015   2.779  15.828  0.8941  1.3585 -0.4226
  319MPD2    N1 4855   2.402   2.942  16.210  0.4012  0.3935 -0.2394
  319MPD2    H7 4856   2.321   2.969  16.265 -0.3845  1.7243 -2.0574
  320TMC3    C1 4857   1.817   2.860  15.944 -0.0752  0.2797  0.3372
  320TMC3    C2 4858   1.728   2.959  15.949  0.5692 -0.0001  0.9326
  320TMC3    C3 4859   1.609   2.936  15.887 -0.5140 -0.0683 -0.3383
  320TMC3    C4 4860   1.786   2.733  15.908 -0.0149  0.0228  0.4013
  320TMC3    C5 4861   1.665   2.719  15.845  0.4216 -0.2796 -0.5515
  320TMC3    C6 4862   1.564   2.819  15.841 -0.0252  0.3554  0.3756
  320TMC3     C 4863   1.944   2.886  15.996 -0.0990 -0.3193 -0.2746
  320TMC3     O 4864   1.952   2.949  16.104 -0.5370 -0.3548 -0.6148
  320TMC3     H 4865   1.769   3.056  15.974 -3.9963  2.6703 -1.8689
  320TMC3    H1 4866   1.867   2.662  15.898  0.0563  0.4542 -1.9350
  320TMC3    H2 4867   1.471   2.791  15.794  1.3401 -2.3208 -0.7468
  320TMC3    C7 4868   1.628   2.579  15.825 -0.3550 -0.6720  0.7173
  320TMC3    C8 4869   1.537   3.059  15.846 -0.1304 -0.0398  0.1010
  320TMC3    O1 4870   1.562   2.541  15.729 -0.3005 -0.2332  0.8332
  320TMC3    O2 4871   1.563   3.166  15.906 -0.2939 -0.7248  0.2642
  321TMC3    C1 4872   2.537   3.045  16.369 -1.2368 -0.2383  0.0384
  321TMC3    C2 4873   2.453   2.984  16.461  0.3801  0.0737  0.0360
  321TMC3    C3 4874   2.441   3.044  16.586 -0.3540 -0.9226  1.1718
  321TMC3    C4 4875   2.604   3.160  16.381 -0.2757  0.1127  0.3602
  321TMC3    C5 4876   2.580   3.216  16.503  0.1032  0.4863  1.0631
  321TMC3    C6 4877   2.498   3.166  16.603  0.1253  0.4031  0.2512
  321TMC3     C 4878   2.530   2.979  16.241 -0.1993  0.5759  0.1851
  321TMC3     O 4879   2.636   2.985  16.185 -0.5237 -0.1581 -0.0928
  321TMC3     H 4880   2.425   2.880  16.446 -0.3989  0.1101  1.2338
  321TMC3    H1 4881   2.666   3.207  16.306  0.3946  0.0369  0.8621
  321TMC3    H2 4882   2.483   3.214  16.699 -1.7181 -1.9121  1.1106
  321TMC3    C7 4883   2.711   3.262  16.560  0.2144 -0.3600 -0.3502
  321TMC3    C8 4884   2.462   2.958  16.701 -0.4456  0.0185  0.8623
  321TMC3    O1 4885   2.742   3.379  16.540  0.4958 -0.2480 -0.0077
  321TMC3    O2 4886   2.544   3.002  16.778 -0.2901  0.4402  0.7502
  322MPD2     C 4887   1.476   4.608  13.050  0.4887  0.5507  0.8443
  322MPD2    C1 4888   1.420   4.530  13.151 -0.2958  0.0100  0.1951
  322MPD2    C2 4889   1.430   4.388  13.144 -0.2471  0.5211  0.7578
  322MPD2    C3 4890   1.466   4.325  13.029  0.8447 -0.3283  0.5871
  322MPD2    C4 4891   1.518   4.401  12.925  0.0997 -0.1679 -0.3802
  322MPD2    C5 4892   1.520   4.539  12.938  1.2851 -0.1816 -0.0220
  322MPD2     H 4893   1.401   4.329  13.230 -0.0765 -0.6111  0.0455
  322MPD2    H1 4894   1.557   4.385  12.825 -0.8897 -0.9094 -0.6458
  322MPD2    H2 4895   1.469   4.716  13.043  0.8690  0.5840  1.0211
  322MPD2    H3 4896   1.557   4.578  12.843 -1.1633  0.2051 -0.8248
  322MPD2     N 4897   1.444   4.187  13.034 -0.4346 -0.1871  0.2778
  322MPD2    H5 4898   1.401   4.146  13.116 -1.2646 -1.8691 -0.9866
  322MPD2    N1 4899   1.363   4.593  13.268  0.1260  0.7753 -0.5871
  322MPD2    H7 4900   1.371   4.693  13.278 -0.8061  0.7966 -0.0494
  323TMC3    C1 4901   1.269   4.611  13.479  0.0665  0.3856 -0.6001
  323TMC3    C2 4902   1.359   4.718  13.489 -0.4613 -0.4528 -0.1551
  323TMC3    C3 4903   1.390   0.024  13.619 -0.4765 -0.0898  0.9183
  323TMC3    C4 4904   1.224   4.552  13.596 -0.2034  0.3418  0.5116
  323TMC3    C5 4905   1.260   4.603  13.723 -0.5089 -0.2367  0.7200
  323TMC3    C6 4906   1.342   4.711  13.733  0.5005  0.4952  0.5365
  323TMC3     C 4907   1.289   4.528  13.369 -0.1250  0.3369  0.3000
  323TMC3     O 4908   1.253   4.407  13.391  0.3362  0.1184  0.1044
  323TMC3     H 4909   1.409   0.030  13.408 -1.1352  0.8629  0.2584
  323TMC3    H1 4910   1.169   4.459  13.593 -1.2909  1.0575 -1.6513
  323TMC3    H2 4911   1.357   0.030  13.823 -1.1051 -0.2706  1.2996
  323TMC3    C7 4912   1.239   4.520  13.841  0.2937  0.2195 -0.5947
  323TMC3    C8 4913   1.520   0.085  13.625  0.1460  0.6096  0.7039
  323TMC3    O1 4914   1.175   4.421  13.824 -0.5832  0.0145  0.3895
  323TMC3    O2 4915   1.599   0.082  13.533 -0.4329  0.5104  0.5239
  324MPD2     C 4916   2.759   0.601  14.841  0.0283  0.3453 -0.2893
  324MPD2    C1 4917   2.800   0.723  14.792  0.0521 -0.1464 -0.4296
  324MPD2    C2 4918   2.715   0.789  14.703 -0.4805  0.2569  0.9720
  324MPD2    C3 4919   2.593   0.730  14.663  0.1761 -0.0338  0.4496
  324MPD2    C4 4920   2.559   0.599  14.707 -0.1209 -0.0159  0.0581
  324MPD2    C5 4921   2.647   0.535  14.799  1.2608  0.3764  0.7986
  324MPD2     H 4922   2.745   0.889  14.671 -1.6019  0.7016  1.3009
  324MPD2    H1 4923   2.467   0.553  14.674 -0.8902  1.2187  0.4532
  324MPD2    H2 4924   2.812   0.547  14.918  0.8793  1.7704  0.1162
  324MPD2    H3 4925   2.643   0.432  14.833 -0.8567  0.7081  1.5104
  324MPD2     N 4926   2.496   0.802  14.595  0.0732 -0.4541  0.3275
  324MPD2    H5 4927   2.405   0.757  14.585 -0.5381  1.1182 -1.2601
  324MPD2    N1 4928   2.924   0.790  14.825 -0.1433  0.0926 -0.5407
  324MPD2    H7 4929   2.942   0.886  14.800 -1.4881 -0.1351 -2.4203
  325TMC3    C1 4930   2.424   0.943  14.421 -0.1594  0.2084 -0.0710
  325TMC3    C2 4931   2.361   0.833  14.360 -0.4076 -0.4623 -0.3564
  325TMC3    C3 4932   2.294   0.857  14.243 -0.1897 -0.1427 -0.0086
  325TMC3    C4 4933   2.435   1.064  14.361 -0.0143  0.0439  0.2061
  325TMC3    C5 4934   2.364   1.078  14.244  0.2757  0.0345  0.4822
  325TMC3    C6 4935   2.289   0.978  14.187 -0.0835 -0.0153  0.1654
  325TMC3     C 4936   2.518   0.916  14.529 -1.1172  0.1694 -0.2192
  325TMC3     O 4937   2.602   1.003  14.547 -0.1760 -0.1232  0.2761
  325TMC3     H 4938   2.368   0.732  14.400  0.9868  0.2567  1.2052
  325TMC3    H1 4939   2.470   1.147  14.421  1.1898 -0.4729  0.2184
  325TMC3    H2 4940   2.238   1.004  14.096  2.6003 -0.4162 -1.4439
  325TMC3    C7 4941   2.292   1.203  14.220  0.9993 -0.1664 -0.6665
  325TMC3    C8 4942   2.204   0.759  14.177  0.1078 -0.1310  0.8257
  325TMC3    O1 4943   2.345   1.309  14.190  0.2518 -0.3170 -0.2035
  325TMC3    O2 4944   2.242   0.648  14.139  0.1984 -0.2845  0.2886
  326MPD2     C 4945   3.547   2.037  11.338  0.4846  0.0799  0.2024
  326MPD2    C1 4946   3.543   2.069  11.204  0.3203 -0.0979  0.2082
  326MPD2    C2 4947   3.649   2.053  11.124  0.6691  0.0899  0.1501
  326MPD2    C3 4948   3.769   2.003  11.178  0.7242  0.4035 -0.3795
  326MPD2    C4 4949   3.770   1.953  11.308 -0.3048 -0.0360 -0.0560
  326MPD2    C5 4950   3.658   1.969  11.384  0.8966 -0.0904 -0.0318
  326MPD2     H 4951   3.642   2.087  11.021  0.5820 -2.1588 -0.5790
  326MPD2    H1 4952   3.860   1.904  11.342  0.3114  0.3364 -1.1152
  326MPD2    H2 4953   3.460   2.056  11.400  0.1895 -2.6811  0.6370
  326MPD2    H3 4954   3.667   1.926  11.483  1.2926 -2.6037 -1.1569
  326MPD2     N 4955   3.891   1.990  11.108 -0.3737  0.0818 -0.0345
  326MPD2    H5 4956   3.966   1.962  11.169  0.1218 -0.3383 -0.8337
  326MPD2    N1 4957   3.430   2.121  11.127 -0.0150 -0.5885 -0.0200
  326MPD2    H7 4958   3.440   2.108  11.027 -0.2987 -0.9079 -0.0086
  327TMC3    C1 4959   3.208   2.125  11.076 -0.4843 -0.0370  0.0909
  327TMC3    C2 4960   3.155   2.224  11.009  1.4200  0.8856 -0.0344
  327TMC3    C3 4961   3.109   2.206  10.884 -0.1553 -0.2400 -0.4245
  327TMC3    C4 4962   3.237   2.013  11.016  0.0119 -0.2598  0.4607
  327TMC3    C5 4963   3.195   1.981  10.891 -0.1269 -0.0215  0.7079
  327TMC3    C6 4964   3.125   2.082  10.820  0.0489 -0.7271 -0.2301
  327TMC3     C 4965   3.305   2.160  11.177 -0.6428  0.0838  0.0002
  327TMC3     O 4966   3.266   2.191  11.287 -0.2621  0.2247 -0.3381
  327TMC3     H 4967   3.159   2.322  11.054  0.7067  1.7060 -1.7390
  327TMC3    H1 4968   3.275   1.936  11.082 -0.3090 -0.9160 -0.1216
  327TMC3    H2 4969   3.114   2.057  10.715  2.0928  1.3929 -0.9491
  327TMC3    C7 4970   3.277   1.894  10.813  1.4037  0.1209  0.0279
  327TMC3    C8 4971   3.086   2.328  10.809  0.0967 -0.7853 -0.0629
  327TMC3    O1 4972   3.230   1.870  10.703 -0.2903  0.5408  0.1712
  327TMC3    O2 4973   3.130   2.433  10.852  0.7885 -0.2783 -0.1682
  328MPD2     C 4974   2.041   1.916  17.281 -0.1340 -0.0242 -0.1683
  328MPD2    C1 4975   1.929   1.844  17.310  0.1526  0.1401  0.2205
  328MPD2    C2 4976   1.828   1.828  17.212  0.0147  0.0257 -0.1453
  328MPD2    C3 4977   1.853   1.866  17.081  0.5382 -0.4262  0.5804
  328MPD2    C4 4978   1.973   1.927  17.053 -0.8324 -0.1280 -0.0123
  328MPD2    C5 4979   2.062   1.955  17.155  0.3994  0.9257  0.1475
  328MPD2     H 4980   1.730   1.787  17.229  0.3863 -0.4261  0.9192
  328MPD2    H1 4981   1.987   1.980  16.959  1.6971 -0.2534  0.3018
  328MPD2    H2 4982   2.111   1.933  17.362  1.1729 -0.2235 -1.2596
  328MPD2    H3 4983   2.143   2.023  17.131  0.3712  0.2477 -1.9112
  328MPD2     N 4984   1.754   1.854  16.978  0.1594 -0.7148 -0.0794
  328MPD2    H5 4985   1.778   1.900  16.891 -0.6908 -1.0048 -0.4676
  328MPD2    N1 4986   1.914   1.804  17.443  0.2762  0.0222 -0.7084
  328MPD2    H7 4987   1.990   1.816  17.509  0.3283  1.8737 -1.1014
  329TMC3    C1 4988   1.799   1.741  17.646  0.4379 -0.4488  0.5315
  329TMC3    C2 4989   1.839   1.853  17.714 -0.2883 -0.1393  0.0752
  329TMC3    C3 4990   1.821   1.858   0.101 -0.0267  0.0984  0.1711
  329TMC3    C4 4991   1.737   1.642  17.710 -0.1940 -0.6064  0.0525
  329TMC3    C5 4992   1.738   1.647   0.090  0.0680  0.2905  0.0534
  329TMC3    C6 4993   1.784   1.745   0.165  0.3847  0.2391  0.2275
  329TMC3     C 4994   1.806   1.733  17.497  0.7108  0.0647 -0.4646
  329TMC3     O 4995   1.723   1.653  17.451 -0.2772 -0.0134  0.4632
  329TMC3     H 4996   1.887   1.932  17.659  0.9098 -0.1773  1.0730
  329TMC3    H1 4997   1.710   1.549  17.661 -0.9577 -1.0603  1.3134
  329TMC3    H2 4998   1.755   1.741   0.270 -2.9959  0.7971 -0.6811
  329TMC3    C7 4999   1.662   1.548   0.160  0.1667  0.3985 -0.4600
  329TMC3    C8 5000   1.761   1.982   0.164 -0.6513  0.3485  0.1047
  329TMC3    O1 5001   1.682   1.533   0.278 -0.0920  0.0502 -0.0268
  329TMC3    O2 5002   1.722   1.967   0.279  0.1504  0.0459 -0.4683
  330TMC3    C1 5003   4.039   1.387   9.688 -1.0224 -0.7938 -0.1574
  330TMC3    C2 5004   3.989   1.303   9.592  0.5590 -0.1403 -0.6211
  330TMC3    C3 5005   4.028   1.173   9.572 -0.5558 -0.1320  0.1362
  330TMC3    C4 5006   4.136   1.334   9.768  0.0507  0.7568 -0.6299
  330TMC3    C5 5007   4.182   1.208   9.747  0.7793  0.5172  0.3385
  330TMC3    C6 5008   4.138   1.124   9.641 -0.6757  0.5356  0.3143
  330TMC3     C 5009   4.007   1.529   9.712 -0.0217 -0.2104  1.2311
  330TMC3     O 5010   4.066   1.585   9.803  0.2384 -0.3081  0.0734
  330TMC3     H 5011   3.896   1.342   9.553  0.7096 -0.4385 -1.2981
  330TMC3    H1 5012   4.188   1.390   9.845 -0.3644 -0.8011  0.7715
  330TMC3    H2 5013   4.171   1.022   9.629 -0.1443  0.6706  0.6358
  330TMC3    C7 5014   4.313   1.176   9.803 -0.7808  0.0178  0.4839
  330TMC3    C8 5015   3.939   1.095   9.488  0.1324  0.0488 -0.8036
  330TMC3    O1 5016   4.337   1.064   9.845 -0.1520  0.3378 -0.1628
  330TMC3    O2 5017   3.859   1.164   9.427 -0.1834 -0.2407 -0.1016
  331MPD2     C 5018   1.973   0.176  12.502  1.2926  0.3169  0.3938
  331MPD2    C1 5019   2.098   0.167  12.446 -0.5916  0.0477  0.4889
  331MPD2    C2 5020   2.164   0.045  12.449  0.2232 -0.1959  0.2955
  331MPD2    C3 5021   2.109   4.677  12.516 -0.2015 -0.3819  0.0714
  331MPD2    C4 5022   1.986   4.693  12.575 -0.4119  0.0297  0.0676
  331MPD2    C5 5023   1.916   0.068  12.560 -0.1536  0.3601  0.0098
  331MPD2     H 5024   2.261   0.032  12.403  0.4077 -2.9537  1.4918
  331MPD2    H1 5025   1.932   4.610  12.620  3.0740 -1.1516  2.0864
  331MPD2    H2 5026   1.910   0.262  12.486  2.1810  0.9225  0.1573
  331MPD2    H3 5027   1.811   0.061  12.588 -0.7682  2.9846 -1.6260
  331MPD2     N 5028   2.171   4.548  12.506  0.0740 -0.1818  0.3949
  331MPD2    H5 5029   2.259   4.539  12.456  0.0940 -0.2732  0.4469
  331MPD2    N1 5030   2.140   0.281  12.371 -0.3702 -0.0181  0.0294
  331MPD2    H7 5031   2.068   0.351  12.360 -0.7028 -0.3249  0.2876
  332TMC3    C1 5032   2.254   4.347  12.562 -0.6722  0.2396  0.6118
  332TMC3    C2 5033   2.323   4.349  12.446 -0.2318  0.6040  0.6158
  332TMC3    C3 5034   2.440   4.280  12.448  0.4039  0.6044 -0.2395
  332TMC3    C4 5035   2.288   4.275  12.672  0.3536 -0.3145 -0.5856
  332TMC3    C5 5036   2.408   4.210  12.667  0.5044 -0.1224  0.3051
  332TMC3    C6 5037   2.491   4.215  12.556 -0.2956  1.0218 -0.3490
  332TMC3     C 5038   2.146   4.438  12.588 -0.6868 -0.9813 -0.1283
  332TMC3     O 5039   2.061   4.415  12.678 -0.0653 -0.5794  0.3139
  332TMC3     H 5040   2.291   4.396  12.354 -1.6589  1.2122  1.4206
  332TMC3    H1 5041   2.221   4.271  12.757  2.2114 -0.0692  0.8867
  332TMC3    H2 5042   2.578   4.151  12.551 -0.6831  0.5322 -0.9428
  332TMC3    C7 5043   2.460   4.151  12.781  0.0263 -0.6546 -0.3870
  332TMC3    C8 5044   2.510   4.251  12.323 -1.1216 -0.0526 -0.6498
  332TMC3    O1 5045   2.380   4.107  12.864  0.4422  0.3815 -0.2642
  332TMC3    O2 5046   2.629   4.221  12.338 -0.5904  0.0481 -0.0568
  333MPD2     C 5047   2.650   0.525  10.991  0.3610  1.0912  0.0217
  333MPD2    C1 5048   2.718   0.414  10.931  0.1191  0.6695 -0.3497
  333MPD2    C2 5049   2.663   0.291  10.947  0.1178  0.2379 -0.5191
  333MPD2    C3 5050   2.547   0.269  11.011  0.0719 -0.0493 -0.4790
  333MPD2    C4 5051   2.485   0.377  11.076  0.0863 -0.7153  0.1465
  333MPD2    C5 5052   2.539   0.499  11.062  0.3032 -0.1707 -0.1958
  333MPD2     H 5053   2.717   0.203  10.914  1.4290 -0.2048  2.7729
  333MPD2    H1 5054   2.386   0.362  11.117 -0.2072 -0.0143 -0.2955
  333MPD2    H2 5055   2.668   0.628  10.963  0.9759  1.0841  0.3984
  333MPD2    H3 5056   2.485   0.583  11.105  0.4204  1.0849 -2.4662
  333MPD2     N 5057   2.485   0.144  11.005  0.5555 -0.3386  0.2578
  333MPD2    H5 5058   2.529   0.077  10.943 -0.8984 -0.6066 -0.4704
  333MPD2    N1 5059   2.830   0.441  10.850  0.0971  0.2544  0.5142
  333MPD2    H7 5060   2.871   0.534  10.849  0.1830  0.1695 -2.2602
  334TMC3    C1 5061   3.027   0.397  10.715 -0.0564 -0.0378 -0.9663
  334TMC3    C2 5062   3.104   0.305  10.651  0.2648  0.0079  0.1010
  334TMC3    C3 5063   3.200   0.355  10.569  0.1162 -0.6958 -0.4714
  334TMC3    C4 5064   3.047   0.531  10.710 -0.0840 -0.3454 -0.7748
  334TMC3    C5 5065   3.156   0.577  10.639 -0.6806  0.0535  1.1768
  334TMC3    C6 5066   3.234   0.489  10.564  0.4343 -0.6223  0.0304
  334TMC3     C 5067   2.905   0.349  10.779 -0.0330  0.0083 -0.0811
  334TMC3     O 5068   2.878   0.230  10.757  0.0224  0.2946 -0.1730
  334TMC3     H 5069   3.079   0.200  10.655  0.4756  0.0024  1.2360
  334TMC3    H1 5070   2.985   0.598  10.769  2.4294  0.4498  0.9681
  334TMC3    H2 5071   3.316   0.527  10.503  0.1965 -1.1298 -0.6145
  334TMC3    C7 5072   3.189   0.717  10.638  0.5586 -0.3564 -0.7532
  334TMC3    C8 5073   3.294   0.255  10.512  0.2262  0.7625  0.2089
  334TMC3    O1 5074   3.153   0.781  10.735  0.0991  0.2728  0.1008
  334TMC3    O2 5075   3.268   0.136  10.535 -0.7349  0.5985 -0.1494
  335TMC3    C1 5076   2.254   1.635  17.257 -0.1292  0.4242  0.0672
  335TMC3    C2 5077   2.151   1.637  17.165 -0.1281 -0.1087 -0.0614
  335TMC3    C3 5078   2.194   1.668  17.037 -0.2779  0.1235  0.2107
  335TMC3    C4 5079   2.390   1.667  17.233 -0.2062 -0.7303 -0.0374
  335TMC3    C5 5080   2.422   1.693  17.101  0.5204 -0.9116  0.0207
  335TMC3    C6 5081   2.323   1.701  17.004  0.2315  0.2883  0.3865
  335TMC3     C 5082   2.232   1.612  17.396  0.0461 -0.4686  0.4511
  335TMC3     O 5083   2.312   1.670  17.472  0.4336 -0.0102  0.1647
  335TMC3     H 5084   2.047   1.636  17.195 -0.5921 -0.0296 -1.6490
  335TMC3    H1 5085   2.461   1.658  17.315  0.8647  1.4561 -0.7474
  335TMC3    H2 5086   2.354   1.734  16.905  1.6820 -1.8890  0.1213
  335TMC3    C7 5087   2.559   1.736  17.059  0.0787  0.0315  0.0430
  335TMC3    C8 5088   2.104   1.645  16.930 -0.1050  0.1111  0.2844
  335TMC3    O1 5089   2.596   1.724  16.946  0.2249  0.0349 -0.4637
  335TMC3    O2 5090   2.124   1.702  16.826 -0.6225  0.3566 -0.3428
  336MPD2     C 5091   1.910   4.235  16.256  0.3105 -0.0004  0.2558
  336MPD2    C1 5092   1.890   4.185  16.121 -0.8850 -0.1475  0.2287
  336MPD2    C2 5093   1.913   4.047  16.093  0.0732 -0.3764 -0.1276
  336MPD2    C3 5094   1.957   3.970  16.193 -0.8675 -0.1151 -0.1540
  336MPD2    C4 5095   1.974   4.020  16.325 -0.5422  0.6344 -0.0709
  336MPD2    C5 5096   1.946   4.146  16.356 -0.9909  0.0325 -0.1565
  336MPD2     H 5097   1.890   4.024  15.990 -2.3241  2.3847 -0.2083
  336MPD2    H1 5098   2.005   3.962  16.411  1.1182 -0.1987 -1.1996
  336MPD2    H2 5099   1.873   4.333  16.283  0.8888 -0.2613  1.9922
  336MPD2    H3 5100   1.952   4.173  16.460  2.7045  1.2544 -0.6988
  336MPD2     N 5101   1.978   3.835  16.185  0.2947 -0.1407 -0.2964
  336MPD2    H5 5102   2.013   3.795  16.272 -0.5076 -2.8573 -1.2146
  336MPD2    N1 5103   1.842   4.269  16.022  0.4725 -0.0813 -0.1316
  336MPD2    H7 5104   1.828   4.228  15.931  2.1073 -0.0808 -0.3919
  337TMC3    C1 5105   1.753   4.461  15.920  0.1430 -0.1383  0.3724
  337TMC3    C2 5106   1.684   4.372  15.839  0.0065 -0.0675 -0.6299
  337TMC3    C3 5107   1.624   4.420  15.726  0.2034  0.9439  0.2924
  337TMC3    C4 5108   1.761   4.589  15.889  0.2188 -0.0248  0.3801
  337TMC3    C5 5109   1.690   4.639  15.781 -0.1438 -0.1329  0.5694
  337TMC3    C6 5110   1.625   4.554  15.695 -0.1813  0.2144 -0.6487
  337TMC3     C 5111   1.821   4.405  16.036 -0.5029  0.3243  0.0511
  337TMC3     O 5112   1.840   4.485  16.129  0.3469  0.3323  0.0457
  337TMC3     H 5113   1.682   4.265  15.856  0.6140  0.0466  0.1096
  337TMC3    H1 5114   1.837   4.647  15.942  0.3216  0.3919 -0.2192
  337TMC3    H2 5115   1.550   4.591  15.627 -0.3098 -0.2762 -0.7692
  337TMC3    C7 5116   1.682   0.042  15.760  0.4918 -0.3426 -0.4263
  337TMC3    C8 5117   1.524   4.337  15.662 -0.3106  0.5025  0.0835
  337TMC3    O1 5118   1.669   0.079  15.643 -0.0022 -0.2168  0.0491
  337TMC3    O2 5119   1.485   4.231  15.714  0.3885 -0.0168  0.3656
  338MPD2     C 5120   2.660   3.242   0.840  0.0786  0.3674  0.1614
  338MPD2    C1 5121   2.588   3.266   0.727 -0.4930  0.1817 -0.1787
  338MPD2    C2 5122   2.457   3.312   0.728 -0.1263 -0.0194 -0.2256
  338MPD2    C3 5123   2.399   3.340   0.850  0.2441 -0.5202  0.6394
  338MPD2    C4 5124   2.476   3.337   0.957 -0.9560  0.5235  0.2594
  338MPD2    C5 5125   2.606   3.299   0.953 -0.0592 -0.9599  0.2577
  338MPD2     H 5126   2.405   3.317   0.633  0.3818  0.5779 -0.4728
  338MPD2    H1 5127   2.438   3.372   1.052 -2.6537 -1.3053  0.2562
  338MPD2    H2 5128   2.764   3.211   0.849  0.2383  1.1586  1.1225
  338MPD2    H3 5129   2.668   3.304   1.042 -1.6573 -1.9186  1.4137
  338MPD2     N 5130   2.264   3.379   0.851  0.0714 -0.0440  0.1655
  338MPD2    H5 5131   2.208   3.376   0.766 -1.1609  1.2275  0.9402
  338MPD2    N1 5132   2.645   3.244   0.598  0.2007  0.3286 -0.3082
  338MPD2    H7 5133   2.584   3.250   0.517  1.0915  1.6991 -0.8764
  339TMC3    C1 5134   2.060   3.449   0.935  0.2710  0.2759 -0.1858
  339TMC3    C2 5135   1.957   3.406   1.012 -0.0425  0.0504 -0.6706
  339TMC3    C3 5136   1.828   3.403   0.961  0.5416 -0.2765  0.0786
  339TMC3    C4 5137   2.034   3.520   0.825 -0.2324 -1.2217 -0.1853
  339TMC3    C5 5138   1.904   3.535   0.785 -0.4934 -0.1346 -0.1238
  339TMC3    C6 5139   1.801   3.469   0.844  0.3618  0.2054  0.0879
  339TMC3     C 5140   2.191   3.393   0.960  0.2236  0.0191  0.4445
  339TMC3     O 5141   2.203   3.328   1.064  0.5397  0.0290 -0.0905
  339TMC3     H 5142   1.975   3.355   1.106  0.9840  1.2705 -0.2057
  339TMC3    H1 5143   2.121   3.560   0.774 -1.3573  3.2851  1.4029
  339TMC3    H2 5144   1.701   3.488   0.809  0.4669 -2.3139 -1.5592
  339TMC3    C7 5145   1.895   3.575   0.643 -0.5473 -0.4509  0.0079
  339TMC3    C8 5146   1.712   3.341   1.029 -0.0500  0.2767 -0.4805
  339TMC3    O1 5147   2.002   3.596   0.584  0.0622 -0.1444 -0.1046
  339TMC3    O2 5148   1.610   3.353   0.967 -0.3902 -0.6271 -0.0461
  340MPD2     C 5149   2.752   1.266  10.328  0.5770  0.0139 -0.0727
  340MPD2    C1 5150   2.755   1.383  10.259 -0.1017 -0.2155 -0.1190
  340MPD2    C2 5151   2.864   1.466  10.275 -0.3938 -0.1847 -0.0659
  340MPD2    C3 5152   2.971   1.433  10.356  0.6564 -0.3356 -0.6033
  340MPD2    C4 5153   2.966   1.311  10.416 -0.2752 -0.4842  0.4460
  340MPD2    C5 5154   2.854   1.236  10.407 -0.1588 -0.0048  0.1576
  340MPD2     H 5155   2.879   1.551  10.210 -1.0865  1.4765  1.9598
  340MPD2    H1 5156   3.055   1.275  10.467 -1.1708  0.5246  2.7202
  340MPD2    H2 5157   2.667   1.200  10.320 -1.1584  2.3117 -0.3736
  340MPD2    H3 5158   2.843   1.141  10.457 -0.1016 -0.3354 -0.4606
  340MPD2     N 5159   3.090   1.510  10.378  0.2941  0.0934  0.2648
  340MPD2    H5 5160   3.172   1.473  10.424  0.3796  0.5071  0.4446
  340MPD2    N1 5161   2.644   1.394  10.174 -0.0217  0.4899 -0.5525
  340MPD2    H7 5162   2.585   1.311  10.170  1.7701 -0.8812  1.4916
  341TMC3    C1 5163   2.500   1.484  10.003 -0.0462  0.4968 -0.0157
  341TMC3    C2 5164   2.409   1.388  10.034  0.1712 -0.0747 -0.0771
  341TMC3    C3 5165   2.301   1.380   9.953  0.2588 -0.0693  0.5956
  341TMC3    C4 5166   2.477   1.588   9.911 -0.0919  0.6014  0.3948
  341TMC3    C5 5167   2.356   1.586   9.847  0.3742  0.2258  0.1111
  341TMC3    C6 5168   2.265   1.487   9.865 -0.0478  0.6449 -0.4076
  341TMC3     C 5169   2.611   1.500  10.094 -1.6266 -0.1365  0.2171
  341TMC3     O 5170   2.686   1.594  10.070  0.0242  0.0980 -0.4855
  341TMC3     H 5171   2.431   1.298  10.090  0.5696 -1.0253 -1.7573
  341TMC3    H1 5172   2.548   1.667   9.892  0.4162 -0.2477 -1.2387
  341TMC3    H2 5173   2.180   1.500   9.799  0.8723 -0.6984 -1.8366
  341TMC3    C7 5174   2.335   1.686   9.746 -0.4010  0.3360  0.3685
  341TMC3    C8 5175   2.194   1.290   9.993 -0.0089  0.4619  0.1795
  341TMC3    O1 5176   2.372   1.804   9.770  0.2574  0.4802  0.2679
  341TMC3    O2 5177   2.222   1.178  10.022 -0.3473  0.3852 -0.1955
  342MPD2     C 5178   4.733   0.070  17.427  0.3735 -0.3667 -0.1927
  342MPD2    C1 5179   0.071   0.102  17.322  0.5634 -0.1473  0.1409
  342MPD2    C2 5180   0.114   0.230  17.298  0.0462 -0.8315 -1.0492
  342MPD2    C3 5181   0.081   0.325  17.383 -1.1489  0.1209 -0.0554
  342MPD2    C4 5182   0.001   0.292  17.485  0.3943 -0.3310  0.7119
  342MPD2    C5 5183   4.697   0.168  17.516 -0.5357 -0.6747  0.5167
  342MPD2     H 5184   0.190   0.243  17.222  0.3972 -0.8980 -0.7088
  342MPD2    H1 5185   4.709   0.372  17.552  0.6284  0.1101  0.2981
  342MPD2    H2 5186   4.705   4.706  17.444  1.4288 -0.6368 -0.0977
  342MPD2    H3 5187   4.650   0.145  17.611  0.1451  2.6720  1.6912
  342MPD2     N 5188   0.128   0.453  17.384  0.1144 -0.5163  0.9531
  342MPD2    H5 5189   0.091   0.516  17.456  1.6176  1.1370  0.2781
  342MPD2    N1 5190   0.120   0.015  17.221 -0.8133  0.4933 -0.2574
  342MPD2    H7 5191   0.134   0.048  17.126 -1.2352 -1.8698 -1.1552
  343TMC3    C1 5192   0.167   4.533  17.128  0.4463  0.4813 -0.2867
  343TMC3    C2 5193   0.263   4.570  17.034 -0.2481  0.0434  0.6342
  343TMC3    C3 5194   0.330   4.476  16.959  0.9048  0.8110 -0.3566
  343TMC3    C4 5195   0.134   4.402  17.145 -0.4843  0.3336  0.2371
  343TMC3    C5 5196   0.204   4.308  17.068  0.0815 -0.4240 -0.3232
  343TMC3    C6 5197   0.303   4.340  16.974  0.3973  0.5172  0.5710
  343TMC3     C 5198   0.112   4.618  17.238 -0.3707  0.4851 -0.0201
  343TMC3     O 5199   0.075   4.556  17.335 -0.7673  0.4692  0.8261
  343TMC3     H 5200   0.294   4.674  17.038 -0.6456  0.3068 -3.1763
  343TMC3    H1 5201   0.053   4.377  17.212 -0.5910 -1.7384 -0.6605
  343TMC3    H2 5202   0.360   4.257  16.934  0.0502  0.5680 -0.0316
  343TMC3    C7 5203   0.167   4.169  17.091  0.0846 -0.6411 -0.7992
  343TMC3    C8 5204   0.458   4.520  16.911  0.0361 -0.1563 -0.5926
  343TMC3    O1 5205   0.155   4.096  16.996  0.5553 -0.5668  0.0447
  343TMC3    O2 5206   0.505   4.624  16.956 -0.4053 -0.0475 -0.5284
  344MPD2     C 5207   1.304   3.808  10.743 -0.6155 -0.0621  0.1184
  344MPD2    C1 5208   1.164   3.827  10.744 -0.2651 -0.6320  0.6918
  344MPD2    C2 5209   1.118   3.947  10.695 -0.0464  0.0534  0.0597
  344MPD2    C3 5210   1.204   4.046  10.653 -0.1576 -0.3106  0.6292
  344MPD2    C4 5211   1.338   4.032  10.657  0.4292  0.0774  0.3763
  344MPD2    C5 5212   1.392   3.907  10.701  0.1320  0.5886  0.0928
  344MPD2     H 5213   1.012   3.967  10.691 -0.1782 -0.4028  1.4533
  344MPD2    H1 5214   1.402   4.108  10.612 -0.1443  2.1204  3.0425
  344MPD2    H2 5215   1.345   3.709  10.761  0.0059 -0.6635 -4.5822
  344MPD2    H3 5216   1.498   3.887  10.691 -0.1798 -0.4228 -1.1787
  344MPD2     N 5217   1.166   4.177  10.612  0.4586 -0.5461 -0.6285
  344MPD2    H5 5218   1.234   4.250  10.593  1.2195 -0.6964  1.4637
  344MPD2    N1 5219   1.076   3.726  10.798  0.1600 -0.4871  0.2569
  344MPD2    H7 5220   0.978   3.743  10.777 -0.2166  0.7061  3.0786
  345TMC3    C1 5221   1.030   4.358  10.529 -0.2541 -0.3736 -0.3584
  345TMC3    C2 5222   1.094   4.439  10.623 -0.7452 -0.1427 -1.1844
  345TMC3    C3 5223   1.089   4.578  10.603  0.1228  0.1693  0.0610
  345TMC3    C4 5224   0.954   4.416  10.430 -0.3161  0.0742  0.5004
  345TMC3    C5 5225   0.948   4.550  10.411 -0.4956  0.0338  0.6076
  345TMC3    C6 5226   1.018   4.636  10.502 -0.2878 -0.6287 -0.1674
  345TMC3     C 5227   1.036   4.215  10.569 -0.7338 -0.1669 -0.3353
  345TMC3     O 5228   0.942   4.144  10.542  0.3516 -0.5050 -0.6732
  345TMC3     H 5229   1.142   4.392  10.708 -1.6338  0.3334 -0.4269
  345TMC3    H1 5230   0.904   4.349  10.360  2.6354  2.0076 -3.4658
  345TMC3    H2 5231   1.008   0.005  10.498  2.1794 -0.3444  1.7160
  345TMC3    C7 5232   0.928   4.605  10.286 -0.0390 -0.0978 -0.0968
  345TMC3    C8 5233   1.156   4.681  10.691  0.0950  0.1314  0.1339
  345TMC3    O1 5234   0.979   4.717  10.278  0.1317 -0.1133 -0.4478
  345TMC3    O2 5235   1.107   0.052  10.693  0.2633 -0.2926 -0.4795
  346MPD2     C 5236   1.218   0.785  13.810 -0.1642  0.6583  0.2694
  346MPD2    C1 5237   1.283   0.906  13.800 -0.3354  0.1630 -0.2771
  346MPD2    C2 5238   1.277   0.993  13.912  0.1058 -0.2696  0.5388
  346MPD2    C3 5239   1.232   0.942  14.032 -0.0285  0.1100 -0.5081
  346MPD2    C4 5240   1.154   0.828  14.032 -0.0480  0.1422 -0.2747
  346MPD2    C5 5241   1.153   0.749  13.925  0.1934 -1.0617 -0.2247
  346MPD2     H 5242   1.336   1.084  13.910  0.7610 -0.6754  1.0994
  346MPD2    H1 5243   1.111   0.790  14.124 -2.2541 -0.6695 -1.6533
  346MPD2    H2 5244   1.216   0.707  13.734  3.1190  0.2998  0.5423
  346MPD2    H3 5245   1.100   0.654  13.932  0.6620 -1.3580 -0.6534
  346MPD2     N 5246   1.267   1.015  14.145  0.1383  0.7313  0.0536
  346MPD2    H5 5247   1.328   1.095  14.130  3.6118 -2.0699 -0.5497
  346MPD2    N1 5248   1.361   0.951  13.690 -0.2210  0.5668 -0.0970
  346MPD2    H7 5249   1.410   1.038  13.707  2.5437 -1.1338  0.5627
  347TMC3    C1 5250   1.324   1.048  14.371 -0.6433  0.4938  0.0804
  347TMC3    C2 5251   1.431   1.126  14.338  0.3533  0.0110 -1.0237
  347TMC3    C3 5252   1.533   1.148  14.426 -0.0994  0.6061  0.3066
  347TMC3    C4 5253   1.309   1.008  14.499  0.3140  0.1417 -0.5889
  347TMC3    C5 5254   1.413   1.035  14.590  0.4361  0.1326  0.8980
  347TMC3    C6 5255   1.522   1.107  14.556  0.8233 -0.6105 -0.2262
  347TMC3     C 5256   1.235   0.985  14.280 -0.5421  0.2317  0.5807
  347TMC3     O 5257   1.141   0.916  14.315  0.1632 -0.7438  0.2669
  347TMC3     H 5258   1.447   1.153  14.234 -0.8924 -0.8917 -1.4608
  347TMC3    H1 5259   1.234   0.938  14.532  0.4016 -0.3476 -1.4292
  347TMC3    H2 5260   1.599   1.137  14.626 -1.5058  3.7406  0.4702
  347TMC3    C7 5261   1.392   0.997  14.723  0.8678  0.2871  0.0491
  347TMC3    C8 5262   1.667   1.157  14.379 -0.0722  0.0857  0.1865
  347TMC3    O1 5263   1.285   0.940  14.753 -0.0898  0.9481  1.2019
  347TMC3    O2 5264   1.740   1.068  14.420  0.0350 -0.6576 -0.6622
  348MPD2     C 5265   0.648   0.556  11.864  0.1562  0.4057 -0.0404
  348MPD2    C1 5266   0.593   0.472  11.778  0.7442 -0.2488  0.0944
  348MPD2    C2 5267   0.503   0.521  11.687 -0.6926  0.7419 -0.0226
  348MPD2    C3 5268   0.470   0.654  11.684 -0.2713 -0.1821 -0.1142
  348MPD2    C4 5269   0.536   0.741  11.766 -0.2400  0.4761 -0.0252
  348MPD2    C5 5270   0.622   0.688  11.860 -0.1757  0.0022 -0.1373
  348MPD2     H 5271   0.454   0.455  11.617  0.6540 -0.1337 -0.1504
  348MPD2    H1 5272   0.519   0.848  11.774 -0.2725  0.4001  0.8921
  348MPD2    H2 5273   0.714   0.526  11.945  0.6205 -0.3968 -0.7130
  348MPD2    H3 5274   0.669   0.760  11.926  0.4623 -1.3029  0.8221
  348MPD2     N 5275   0.393   0.720  11.588  0.0984 -0.1234 -0.0924
  348MPD2    H5 5276   0.401   0.821  11.580  1.0327 -0.1031  1.0858
  348MPD2    N1 5277   0.626   0.331  11.780  0.6941 -0.6449 -0.4081
  348MPD2    H7 5278   0.568   0.277  11.716 -1.0926  1.8537 -0.8812
  349TMC3    C1 5279   0.700   0.123  11.868 -0.5180 -0.8330 -0.0577
  349TMC3    C2 5280   0.722   0.054  11.983 -0.3731 -0.0989  0.3309
  349TMC3    C3 5281   0.708   4.659  11.982  0.0691  0.3184 -0.1099
  349TMC3    C4 5282   0.675   0.058  11.751 -0.9120 -0.3666  0.0072
  349TMC3    C5 5283   0.671   4.657  11.753  0.3695 -0.2628 -0.0398
  349TMC3    C6 5284   0.685   4.586  11.872 -1.4672 -1.2697 -0.5001
  349TMC3     C 5285   0.699   0.267  11.872  0.3662 -0.5699  0.4543
  349TMC3     O 5286   0.756   0.314  11.969  0.4441  0.1320 -0.1138
  349TMC3     H 5287   0.729   0.103  12.079 -1.2199  2.5723 -0.9684
  349TMC3    H1 5288   0.666   0.110  11.656 -1.1639 -0.8608 -0.2415
  349TMC3    H2 5289   0.704   4.480  11.865  0.4357 -0.9142 -0.6122
  349TMC3    C7 5290   0.571   4.593  11.671  0.2922 -0.2043  0.1381
  349TMC3    C8 5291   0.624   4.620  12.104  0.2959 -0.5275 -0.2360
  349TMC3    O1 5292   0.559   4.473  11.686  0.4393 -0.2877 -0.2593
  349TMC3    O2 5293   0.631   4.684  12.212  0.0560  0.2231  0.3741
  350MPD2     C 5294   3.900   4.197  10.573  0.2797 -0.2112 -0.2004
  350MPD2    C1 5295   3.861   4.067  10.573 -0.3542 -0.1993  0.0901
  350MPD2    C2 5296   3.862   3.999  10.696 -1.1250  0.6968  0.6906
  350MPD2    C3 5297   3.910   4.051  10.813  0.8708 -0.3851  0.4200
  350MPD2    C4 5298   3.952   4.178  10.812 -0.0016  0.3797 -0.4154
  350MPD2    C5 5299   3.946   4.253  10.694  0.3586  0.5235 -0.0435
  350MPD2     H 5300   3.830   3.896  10.710  3.2824 -0.6369  1.0922
  350MPD2    H1 5301   4.008   4.223  10.893  0.3600 -0.5711 -0.1376
  350MPD2    H2 5302   3.913   4.248  10.478  0.6054 -0.6439 -0.3900
  350MPD2    H3 5303   3.977   4.357  10.693 -1.4744  1.0608 -0.5106
  350MPD2     N 5304   3.925   3.963  10.922  0.2654  1.0228 -0.3619
  350MPD2    H5 5305   3.930   3.865  10.894  0.7576  1.4670 -1.8321
  350MPD2    N1 5306   3.813   4.007  10.449  0.5365  0.5111  0.3953
  350MPD2    H7 5307   3.820   4.064  10.366  1.8013 -0.6734 -0.2924
  351TMC3    C1 5308   3.692   3.854  10.309 -0.2250 -0.0548 -0.6348
  351TMC3    C2 5309   3.662   3.728  10.266  0.6026  0.0493  0.8116
  351TMC3    C3 5310   3.597   3.708  10.145 -0.6367  0.9577  0.1621
  351TMC3    C4 5311   3.656   3.963  10.237 -0.5635  0.1622  0.1196
  351TMC3    C5 5312   3.579   3.940  10.123 -0.3019  0.2443  0.2259
  351TMC3    C6 5313   3.553   3.812  10.077  0.2976  0.5752  0.0194
  351TMC3     C 5314   3.761   3.876  10.436  0.1077  0.0386  0.5322
  351TMC3     O 5315   3.752   3.781  10.516  0.6796  0.1433  0.0725
  351TMC3     H 5316   3.700   3.648  10.330 -0.3092 -0.8372  0.2475
  351TMC3    H1 5317   3.667   4.064  10.275 -1.9761  0.2776  0.2138
  351TMC3    H2 5318   3.518   3.785   9.978  0.8094  0.3127 -0.0881
  351TMC3    C7 5319   3.592   4.038  10.016  0.6752 -0.3524 -0.3279
  351TMC3    C8 5320   3.581   3.574  10.096  0.5345  0.0706  0.6028
  351TMC3    O1 5321   3.667   4.134  10.041 -0.2918 -0.3511  0.5804
  351TMC3    O2 5322   3.542   3.563   9.982 -0.5743 -0.2368  0.3618
  352MPD2     C 5323   2.310   0.937   0.952  0.2058  0.1991 -0.1782
  352MPD2    C1 5324   2.214   0.850   1.001 -0.0901  0.3863 -0.1457
  352MPD2    C2 5325   2.247   0.730   1.063 -0.1434  0.0614  0.0532
  352MPD2    C3 5326   2.383   0.706   1.075  0.6794  0.1114  0.0971
  352MPD2    C4 5327   2.478   0.792   1.017  0.4739 -0.3367  0.3494
  352MPD2    C5 5328   2.442   0.907   0.954 -0.6560  0.2233  0.2651
  352MPD2     H 5329   2.167   0.668   1.103 -0.8913  1.0275  0.0634
  352MPD2    H1 5330   2.583   0.770   1.031  0.4154 -0.6888  0.2221
  352MPD2    H2 5331   2.282   1.028   0.901 -0.0954  0.2368  0.0538
  352MPD2    H3 5332   2.517   0.979   0.925 -0.2117 -0.8704 -1.3150
  352MPD2     N 5333   2.432   0.575   1.119 -0.6281 -0.1025  0.4204
  352MPD2    H5 5334   2.534   0.573   1.117 -0.6774 -1.4487 -0.6702
  352MPD2    N1 5335   2.080   0.889   0.984  0.0405  0.0059 -0.1555
  352MPD2    H7 5336   2.077   0.962   0.913 -2.5687 -0.1491 -0.2126
  353TMC3    C1 5337   2.443   0.347   1.156 -0.4360  0.2921 -0.1122
  353TMC3    C2 5338   2.575   0.350   1.199 -0.2103 -0.4231  0.4544
  353TMC3    C3 5339   2.652   0.235   1.188  0.2206 -0.2676 -0.4707
  353TMC3    C4 5340   2.389   0.230   1.118 -0.4276  0.8178 -0.4240
  353TMC3    C5 5341   2.461   0.120   1.106 -0.0287 -0.0894  0.1323
  353TMC3    C6 5342   2.592   0.121   1.149 -0.5094 -0.1312  0.3491
  353TMC3     C 5343   2.361   0.467   1.155 -0.3708 -0.2964 -0.2921
  353TMC3     O 5344   2.243   0.445   1.163  0.0263 -0.4170  0.2003
  353TMC3     H 5345   2.618   0.437   1.247  0.8874 -0.9694  0.4702
  353TMC3    H1 5346   2.297   0.228   1.059 -0.5375  0.0887 -0.2257
  353TMC3    H2 5347   2.642   0.029   1.121  1.5913  0.9559  0.4692
  353TMC3    C7 5348   2.421   0.024   1.002 -0.0438  0.1445  0.4353
  353TMC3    C8 5349   2.779   0.221   1.255 -0.2125  0.2562 -0.2635
  353TMC3    O1 5350   2.515   4.711   0.945  0.3134  0.4980  0.1369
  353TMC3    O2 5351   2.783   0.274   1.366  0.1414  0.5936  0.1809
  354TMC3    C1 5352   3.852   2.042  13.680  0.0363  0.1026  0.3801
  354TMC3    C2 5353   3.963   2.126  13.663  0.0544 -0.8494 -0.5848
  354TMC3    C3 5354   3.995   2.156  13.534  0.1634  0.3472 -0.6455
  354TMC3    C4 5355   3.787   1.991  13.568  0.5438  0.0595  0.1445
  354TMC3    C5 5356   3.834   2.015  13.445  0.1740  0.2512  0.3970
  354TMC3    C6 5357   3.932   2.104  13.425 -0.6209  0.3568 -0.5949
  354TMC3     C 5358   3.836   1.979  13.809 -0.3867  0.3133  0.1243
  354TMC3     O 5359   3.783   1.867  13.800  0.0016  0.0683 -0.1236
  354TMC3     H 5360   4.025   2.169  13.740 -1.6782  1.0420 -0.2557
  354TMC3    H1 5361   3.717   1.911  13.590  1.3972 -1.1166 -1.4800
  354TMC3    H2 5362   3.983   2.105  13.330 -0.9975 -0.2738 -0.8084
  354TMC3    C7 5363   3.775   1.944  13.334 -0.0755 -0.0661  0.0657
  354TMC3    C8 5364   4.111   2.241  13.496  0.2430  0.2293 -0.9990
  354TMC3    O1 5365   3.673   1.886  13.367 -0.5657 -0.0013 -0.2220
  354TMC3    O2 5366   4.196   2.273  13.580 -0.6407  0.3651  0.6030
  355MPD2     C 5367   3.840   2.724  11.927  0.4887  0.3662 -0.4042
  355MPD2    C1 5368   3.882   2.763  11.806 -0.5571  0.4616  0.3793
  355MPD2    C2 5369   4.018   2.772  11.789 -0.0004  0.1836  0.0981
  355MPD2    C3 5370   4.110   2.741  11.893  0.4218 -0.6839  0.3205
  355MPD2    C4 5371   4.062   2.698  12.014 -0.2202 -0.2200  0.2005
  355MPD2    C5 5372   3.930   2.702  12.024 -0.2161  0.7647  0.0260
  355MPD2     H 5373   4.064   2.803  11.696  0.3458 -1.3854 -0.2562
  355MPD2    H1 5374   4.123   2.673  12.100  2.1434  3.2451 -0.4473
  355MPD2    H2 5375   3.734   2.717  11.945  0.6580 -1.0613  0.0328
  355MPD2    H3 5376   3.887   2.682  12.122 -0.7615  0.4185 -0.2863
  355MPD2     N 5377   4.252   2.764  11.887  0.5190  0.0679  0.0802
  355MPD2    H5 5378   4.293   2.749  11.978  2.4070  0.6975 -0.6678
  355MPD2    N1 5379   3.783   2.800  11.710 -0.2069  0.4167 -0.5713
  355MPD2    H7 5380   3.693   2.754  11.721  0.0420  0.8183  3.2154
  356TMC3    C1 5381   4.455   2.857  11.804  0.0559 -0.0331 -0.1334
  356TMC3    C2 5382   4.537   2.864  11.697  0.2233  1.0886  0.3641
  356TMC3    C3 5383   4.654   2.927  11.719 -0.3786  0.0374 -0.0692
  356TMC3    C4 5384   4.491   2.891  11.931 -0.4577 -0.0214 -0.2154
  356TMC3    C5 5385   4.612   2.945  11.950  0.5775 -0.1358  0.0958
  356TMC3    C6 5386   4.694   2.975  11.843  0.0312 -0.2033 -0.1730
  356TMC3     C 5387   4.319   2.811  11.774  0.2853  0.2394  0.4255
  356TMC3     O 5388   4.272   2.829  11.661  0.2864  0.5885  0.4397
  356TMC3     H 5389   4.511   2.840  11.594 -0.5887  0.7322  0.6554
  356TMC3    H1 5390   4.431   2.867  12.018  0.7282 -0.6693  0.4191
  356TMC3    H2 5391   0.056   3.009  11.861 -0.8037  2.4541 -0.3891
  356TMC3    C7 5392   4.666   2.932  12.076 -0.2350 -0.8558  0.5277
  356TMC3    C8 5393   4.730   2.965  11.606 -0.0543 -0.1541 -0.3852
  356TMC3    O1 5394   4.642   2.832  12.142  0.1748 -0.6649 -0.2717
  356TMC3    O2 5395   4.680   2.938  11.497  0.3872  0.7704  0.0967
  357MPD2     C 5396   3.784   2.731   0.071 -0.0124 -1.1802 -0.1790
  357MPD2    C1 5397   3.749   2.608   0.132 -0.0790 -0.2283  0.6520
  357MPD2    C2 5398   3.669   2.513   0.060 -0.6463 -0.3650  0.2083
  357MPD2    C3 5399   3.615   2.549  17.687  0.3354 -0.1012  0.0980
  357MPD2    C4 5400   3.657   2.668  17.632 -0.0436  0.5012 -0.4880
  357MPD2    C5 5401   3.741   2.750  17.696  0.0721  0.0207  0.6929
  357MPD2     H 5402   3.628   2.429   0.116  1.4298 -1.1102  0.5880
  357MPD2    H1 5403   3.608   2.707  17.544 -3.8883  1.6292  2.1640
  357MPD2    H2 5404   3.852   2.800   0.120 -2.1377 -0.6457  2.0391
  357MPD2    H3 5405   3.775   2.842  17.651  0.2052  0.4409  1.6670
  357MPD2     N 5406   3.517   2.478  17.618 -0.1879 -0.7437  0.1705
  357MPD2    H5 5407   3.470   2.536  17.551 -1.0270 -0.3522  1.1003
  357MPD2    N1 5408   3.803   2.581   0.258  0.4570  0.1972  0.5724
  357MPD2    H7 5409   3.871   2.649   0.290  1.2760  0.6477 -2.0742
  358TMC3    C1 5410   3.830   2.498   0.465 -0.0915 -0.6818 -0.4483
  358TMC3    C2 5411   3.803   2.395   0.551 -0.5095 -0.1737  0.9548
  358TMC3    C3 5412   3.903   2.334   0.623  1.1575 -0.1792 -0.0717
  358TMC3    C4 5413   3.954   2.547   0.457  0.2557 -0.7918 -1.0386
  358TMC3    C5 5414   4.052   2.488   0.539  0.2898  0.1884  0.8404
  358TMC3    C6 5415   4.030   2.389   0.631 -0.0971  0.5666 -0.1294
  358TMC3     C 5416   3.753   2.488   0.345 -0.0170  0.6985  0.3794
  358TMC3     O 5417   3.645   2.433   0.338 -0.1638 -0.3498  0.2374
  358TMC3     H 5418   3.704   2.353   0.548 -1.0747  1.2737 -0.9945
  358TMC3    H1 5419   3.973   2.644   0.412  0.4185  0.0950  0.9508
  358TMC3    H2 5420   4.115   2.331   0.666 -1.8527 -1.4823  0.6956
  358TMC3    C7 5421   4.180   2.553   0.541  0.6979  0.3685  0.8883
  358TMC3    C8 5422   3.902   2.192   0.603 -0.4603  0.4040  0.5409
  358TMC3    O1 5423   4.221   2.613   0.438  0.4973  0.0710 -0.2565
  358TMC3    O2 5424   4.009   2.141   0.567  0.0741 -0.2839 -0.0003
  359MPD2     C 5425   4.503   1.020  12.359  0.0055  0.4308  0.1902
  359MPD2    C1 5426   4.391   1.097  12.332  0.0824  0.2504  0.2748
  359MPD2    C2 5427   4.271   1.053  12.376 -0.3086 -0.0710 -0.1103
  359MPD2    C3 5428   4.254   0.934  12.452 -0.0527 -0.9483  0.1786
  359MPD2    C4 5429   4.365   0.863  12.479 -0.1859  0.1614  0.1692
  359MPD2    C5 5430   4.485   0.903  12.434  0.2077 -0.3689  0.1351
  359MPD2     H 5431   4.179   1.110  12.365  0.5374  1.0530 -1.2387
  359MPD2    H1 5432   4.352   0.772  12.535 -1.0736  1.0688  1.4374
  359MPD2    H2 5433   4.604   1.050  12.333  0.2613  0.0120  0.6960
  359MPD2    H3 5434   4.571   0.839  12.450  0.1742 -0.5257 -0.3219
  359MPD2     N 5435   4.126   0.894  12.483  0.0673 -0.3329  0.1743
  359MPD2    H5 5436   4.042   0.923  12.434  0.0046  0.1347  0.5658
  359MPD2    N1 5437   4.392   1.217  12.258 -0.0481  0.2375 -0.1975
  359MPD2    H7 5438   4.302   1.255  12.231 -1.1944 -1.1595  1.6484
  360TMC3    C1 5439   4.445   1.377  12.098 -0.1522 -0.5580 -0.2216
  360TMC3    C2 5440   4.538   1.481  12.067  0.0664 -0.8847  0.2987
  360TMC3    C3 5441   4.494   1.600  12.015  0.0455  0.4711  0.1329
  360TMC3    C4 5442   4.312   1.398  12.076  0.1744  0.7586 -0.1038
  360TMC3    C5 5443   4.272   1.518  12.024 -0.2145  0.3160  0.1505
  360TMC3    C6 5444   4.360   1.620  11.993  0.3692  0.4149 -0.2608
  360TMC3     C 5445   4.496   1.262  12.187 -0.1539 -0.3684  0.0507
  360TMC3     O 5446   4.606   1.212  12.186  0.3763 -0.2954 -0.3701
  360TMC3     H 5447   4.642   1.484  12.097 -0.5465  0.8682  2.2083
  360TMC3    H1 5448   4.246   1.314  12.087  2.4866 -1.2771 -1.7234
  360TMC3    H2 5449   4.326   1.718  11.963  0.9995  0.7273  0.0457
  360TMC3    C7 5450   4.166   1.506  11.926 -0.7268  0.6227 -0.1794
  360TMC3    C8 5451   4.587   1.703  11.978 -0.3042 -0.2839  0.6662
  360TMC3    O1 5452   4.161   1.401  11.857  0.2686  0.0673  0.4856
  360TMC3    O2 5453   4.542   1.816  11.998  0.4390 -0.4269 -0.0314
  361MPD2     C 5454   1.426   0.315  16.622 -0.6791  0.6288  0.1527
  361MPD2    C1 5455   1.413   0.320  16.761  0.6875 -0.1459  0.1612
  361MPD2    C2 5456   1.481   0.226  16.844  0.4423 -0.3349 -0.7816
  361MPD2    C3 5457   1.545   0.118  16.783 -0.5256  0.3241 -0.0382
  361MPD2    C4 5458   1.558   0.123  16.644  0.2613  0.3813 -0.5571
  361MPD2    C5 5459   1.510   0.219  16.567 -0.1875  0.1640  0.2935
  361MPD2     H 5460   1.472   0.244  16.951 -0.2741 -1.1947 -0.6923
  361MPD2    H1 5461   1.632   0.056  16.602  0.0913 -0.3419  0.2986
  361MPD2    H2 5462   1.372   0.376  16.551 -0.4687 -1.6665 -1.9637
  361MPD2    H3 5463   1.516   0.215  16.458 -1.6243  0.4125  0.2109
  361MPD2     N 5464   1.609   0.015  16.848  0.4846 -0.2407  0.1041
  361MPD2    H5 5465   1.654   4.678  16.798  0.4862 -1.1910  1.5737
  361MPD2    N1 5466   1.323   0.402  16.831  0.7447 -0.2207 -0.0769
  361MPD2    H7 5467   1.319   0.397  16.932  0.6742  0.4098 -0.0473
  362TMC3    C1 5468   1.171   0.581  16.864  0.1400  0.1793 -0.7141
  362TMC3    C2 5469   1.222   0.626  16.980 -0.1360 -0.7348  0.8674
  362TMC3    C3 5470   1.141   0.717  17.045  0.2399 -0.6527  0.9828
  362TMC3    C4 5471   1.048   0.620  16.804 -0.3732  0.8775  0.8784
  362TMC3    C5 5472   0.977   0.701  16.880 -0.1429  0.7048  0.3923
  362TMC3    C6 5473   1.017   0.757  17.004 -0.3754 -0.1029  0.2291
  362TMC3     C 5474   1.250   0.505  16.768  0.2534  1.0977  0.0268
  362TMC3     O 5475   1.241   0.540  16.651 -0.5805  0.1867  0.2564
  362TMC3     H 5476   1.318   0.599  17.022  0.2924  0.7832  0.8835
  362TMC3    H1 5477   1.014   0.583  16.707  0.2795 -1.4931  1.5526
  362TMC3    H2 5478   0.948   0.823  17.056  1.5087  2.4183 -0.4990
  362TMC3    C7 5479   0.861   0.766  16.815  0.3650 -0.0833  0.7002
  362TMC3    C8 5480   1.190   0.766  17.178  0.2645 -0.3756 -0.1717
  362TMC3    O1 5481   0.831   0.876  16.856  0.6752  0.7015 -0.4099
  362TMC3    O2 5482   1.295   0.722  17.221  0.5454 -0.2939 -0.4047
  363TMC3    C1 5483   3.974   3.120   9.230  0.2341 -0.4443 -0.1935
  363TMC3    C2 5484   3.952   3.065   9.351  0.7290  0.0237 -0.0458
  363TMC3    C3 5485   3.953   3.149   9.458  0.0287 -0.2764  0.5326
  363TMC3    C4 5486   3.979   3.255   9.210 -0.2866  0.5058 -0.1351
  363TMC3    C5 5487   3.964   3.336   9.321  0.0299 -0.0809  0.4696
  363TMC3    C6 5488   3.957   3.288   9.444 -0.4048  0.4030  0.2801
  363TMC3     C 5489   4.013   3.034   9.125  0.2648  0.2599 -0.0629
  363TMC3     O 5490   4.042   2.916   9.142  0.4120  0.0188  0.8693
  363TMC3     H 5491   3.946   2.957   9.349  2.3623 -0.1208  2.2478
  363TMC3    H1 5492   4.025   3.300   9.123  0.7567 -1.0036 -0.3686
  363TMC3    H2 5493   3.928   3.352   9.526  1.9512  1.3203  0.3901
  363TMC3    C7 5494   3.997   3.477   9.300 -0.1494  0.4140 -0.3070
  363TMC3    C8 5495   3.977   3.101   9.593  0.1784 -0.0381 -0.2538
  363TMC3    O1 5496   3.971   3.523   9.190  0.6708 -0.8421 -0.2073
  363TMC3    O2 5497   3.933   3.172   9.685 -0.1582 -0.3496  0.4829
  364MPD2     C 5498   2.874   2.611  10.448  0.8448 -0.3737 -0.7038
  364MPD2    C1 5499   2.985   2.632  10.526  0.5657 -0.2508 -0.0696
  364MPD2    C2 5500   3.029   2.537  10.609 -0.0672  0.0403  0.0775
  364MPD2    C3 5501   2.972   2.412  10.606 -0.2016 -0.1880 -0.5911
  364MPD2    C4 5502   2.866   2.390  10.523  0.0638  0.2413 -0.2539
  364MPD2    C5 5503   2.804   2.492  10.453 -0.1329 -0.0546 -0.2696
  364MPD2     H 5504   3.116   2.561  10.668 -0.4369  1.2201  0.1389
  364MPD2    H1 5505   2.809   2.299  10.526  0.1486  0.1594 -1.2954
  364MPD2    H2 5506   2.836   2.684  10.376  0.6445 -0.6456 -0.8738
  364MPD2    H3 5507   2.713   2.473  10.398 -1.6706 -0.5110  2.4319
  364MPD2     N 5508   3.026   2.306  10.683 -0.0251  0.3190  0.1587
  364MPD2    H5 5509   2.994   2.213  10.658 -0.9331  0.0074  2.5180
  364MPD2    N1 5510   3.048   2.755  10.505 -0.2542 -0.2734 -0.4701
  364MPD2    H7 5511   3.007   2.818  10.437  0.6741 -1.2764 -1.9561
  365TMC3    C1 5512   3.206   2.930  10.517 -0.5925 -0.1488 -0.7232
  365TMC3    C2 5513   3.195   2.946  10.381 -0.4979  0.1513  0.0094
  365TMC3    C3 5514   3.243   3.067  10.335 -0.4190 -0.2851  0.2055
  365TMC3    C4 5515   3.261   3.017  10.606  0.2055  0.2611  0.7725
  365TMC3    C5 5516   3.304   3.138  10.555  0.5246 -0.2541  0.5543
  365TMC3    C6 5517   3.295   3.162  10.418  0.1000  0.8307  0.5279
  365TMC3     C 5518   3.158   2.800  10.567  0.2097 -0.6692 -0.6369
  365TMC3     O 5519   3.211   2.756  10.668 -0.2124 -0.0845  0.5946
  365TMC3     H 5520   3.152   2.876  10.311 -0.4170  2.1662 -2.0539
  365TMC3    H1 5521   3.272   2.989  10.710  2.1038 -0.4546  0.3930
  365TMC3    H2 5522   3.318   3.258  10.372  0.6663  0.0812 -0.7479
  365TMC3    C7 5523   3.363   3.249  10.636 -0.5088 -0.5474  0.4618
  365TMC3    C8 5524   3.261   3.080  10.193  0.5090 -0.1156 -0.1204
  365TMC3    O1 5525   3.435   3.326  10.572  0.1394 -0.1358 -0.5705
  365TMC3    O2 5526   3.292   3.192  10.155  0.1677  0.0638  0.2972
  366MPD2     C 5527   1.693   3.512  15.672 -0.6772 -0.0200  0.5706
  366MPD2    C1 5528   1.645   3.560  15.555  1.0027 -0.4235  0.1375
  366MPD2    C2 5529   1.638   3.475  15.450  0.1173  0.1830  0.2190
  366MPD2    C3 5530   1.659   3.339  15.464  0.3255 -0.9463 -0.0960
  366MPD2    C4 5531   1.696   3.287  15.588 -0.3198 -0.6660 -0.3349
  366MPD2    C5 5532   1.727   3.374  15.686  0.0769 -0.4023 -0.7302
  366MPD2     H 5533   1.601   3.505  15.353 -0.3199 -0.8510  0.0600
  366MPD2    H1 5534   1.706   3.180  15.602 -1.5749 -0.8906 -1.1473
  366MPD2    H2 5535   1.718   3.578  15.755 -0.3196 -0.1817  0.5927
  366MPD2    H3 5536   1.761   3.338  15.782  3.3456  3.7896 -0.3074
  366MPD2     N 5537   1.674   3.273  15.345  0.2070 -0.0669  0.3435
  366MPD2    H5 5538   1.645   3.328  15.264  1.9005  0.3914  0.0461
  366MPD2    N1 5539   1.641   3.703  15.549 -0.4093 -0.9534 -0.0244
  366MPD2    H7 5540   1.682   3.758  15.624  1.4636  0.9902 -2.4260
  367TMC3    C1 5541   1.610   3.917  15.427  0.3251  0.9052 -0.3974
  367TMC3    C2 5542   1.671   3.981  15.534  0.0234  0.3043  0.4541
  367TMC3    C3 5543   1.723   4.108  15.507 -0.7078  0.3872  0.4353
  367TMC3    C4 5544   1.602   3.964  15.301 -0.2604 -0.3442  0.7373
  367TMC3    C5 5545   1.674   4.075  15.272 -0.4645  0.5568  0.9140
  367TMC3    C6 5546   1.728   4.152  15.373 -0.3183  0.1112 -0.6480
  367TMC3     C 5547   1.580   3.769  15.442 -0.0638 -0.2155  0.3774
  367TMC3     O 5548   1.506   3.710  15.365  0.7720 -0.1750 -0.0673
  367TMC3     H 5549   1.652   3.956  15.638  1.2342 -1.1529  0.3178
  367TMC3    H1 5550   1.554   3.904  15.225  0.8024 -0.7504  0.3801
  367TMC3    H2 5551   1.797   4.229  15.342  0.7146  0.0548  1.4760
  367TMC3    C7 5552   1.688   4.127  15.142  0.2700 -0.3310  0.2676
  367TMC3    C8 5553   1.805   4.161  15.616  0.5549 -0.3968 -0.1032
  367TMC3    O1 5554   1.729   4.239  15.125 -0.3285  0.0264 -0.3880
  367TMC3    O2 5555   1.801   4.105  15.727  0.3979  0.2842 -0.2526
  368MPD2     C 5556   2.450   0.092  13.006  0.1053  0.0575  0.6458
  368MPD2    C1 5557   2.502   0.159  12.897 -0.6423  0.0511  0.2777
  368MPD2    C2 5558   2.639   0.147  12.866 -0.1503 -0.1119 -0.3272
  368MPD2    C3 5559   2.732   0.080  12.958  0.5338 -0.4454  0.3518
  368MPD2    C4 5560   2.672   0.020  13.068  0.0835  0.1225 -0.7437
  368MPD2    C5 5561   2.539   0.032  13.094 -0.3012  0.2213  0.6225
  368MPD2     H 5562   2.662   0.182  12.765  2.8946 -0.2780  0.2932
  368MPD2    H1 5563   2.730   4.710  13.145 -0.6114  0.5668  0.0521
  368MPD2    H2 5564   2.346   0.086  13.038  0.4741 -2.5718  1.4381
  368MPD2    H3 5565   2.511   0.002  13.194 -0.3946 -1.5363  0.0689
  368MPD2     N 5566   2.869   0.060  12.926 -0.4289 -0.2649  0.6023
  368MPD2    H5 5567   2.929   0.006  12.989  0.0971 -1.1138 -0.6314
  368MPD2    N1 5568   2.401   0.224  12.816 -0.8347 -0.6486 -0.0120
  368MPD2    H7 5569   2.307   0.220  12.855 -1.0127 -0.4372 -0.4213
  369TMC3    C1 5570   2.318   0.384  12.664  0.5241 -0.1833 -0.4740
  369TMC3    C2 5571   2.379   0.501  12.646 -1.1155 -0.1499 -0.5118
  369TMC3    C3 5572   2.303   0.614  12.653 -0.2472  0.1620 -0.2657
  369TMC3    C4 5573   2.191   0.371  12.704  0.6068 -0.2397 -0.1349
  369TMC3    C5 5574   2.120   0.483  12.718  0.4434  0.2156 -0.1441
  369TMC3    C6 5575   2.170   0.609  12.684 -0.4668 -0.4880  0.5135
  369TMC3     C 5576   2.421   0.285  12.696 -0.0810  0.1677 -0.3040
  369TMC3     O 5577   2.526   0.312  12.637  0.0158 -0.4431  0.3329
  369TMC3     H 5578   2.483   0.521  12.624 -1.8746  2.5516 -1.6686
  369TMC3    H1 5579   2.148   0.271  12.707  0.9168 -0.3919 -0.7676
  369TMC3    H2 5580   2.119   0.703  12.705 -0.1407 -0.4880  1.3332
  369TMC3    C7 5581   2.001   0.470  12.801  0.4644 -0.2403  0.0843
  369TMC3    C8 5582   2.385   0.725  12.709  0.4516 -1.2896  0.2234
  369TMC3    O1 5583   1.978   0.360  12.850 -0.5377 -0.7701  0.1226
  369TMC3    O2 5584   2.354   0.836  12.672 -0.2875  1.1858 -0.5191
  370TMC3    C1 5585   2.537   1.504  16.052 -0.0870  0.2403 -0.0155
  370TMC3    C2 5586   2.468   1.429  16.146 -0.6852 -0.3346  0.7606
  370TMC3    C3 5587   2.392   1.323  16.096 -0.3824 -0.6260 -0.2299
  370TMC3    C4 5588   2.536   1.467  15.922 -0.2080  0.3286 -0.0625
  370TMC3    C5 5589   2.455   1.367  15.883 -0.0665 -0.5483 -0.1626
  370TMC3    C6 5590   2.384   1.292  15.961 -0.5861  0.1829 -0.5823
  370TMC3     C 5591   2.641   1.596  16.091 -0.2377 -0.2004 -0.4470
  370TMC3     O 5592   2.676   1.591  16.204 -0.4154 -0.0743  0.4730
  370TMC3     H 5593   2.469   1.455  16.251 -0.0777 -1.0094  0.9228
  370TMC3    H1 5594   2.617   1.506  15.861 -0.5698  1.1118 -0.0489
  370TMC3    H2 5595   2.306   1.228  15.921  1.6309 -1.9948 -1.4331
  370TMC3    C7 5596   2.522   1.294  15.777 -0.6423 -0.0579  0.5388
  370TMC3    C8 5597   2.294   1.260  16.178 -0.3736  0.0410  0.5568
  370TMC3    O1 5598   2.535   1.355  15.671 -0.3202 -0.0097 -0.2069
  370TMC3    O2 5599   2.220   1.180  16.121  0.0617 -0.1807  0.5176
  371TMC3    C1 5600   3.637   4.296  15.412 -0.0860 -0.3915  0.0582
  371TMC3    C2 5601   3.527   4.281  15.492  0.2138  0.1559 -0.9226
  371TMC3    C3 5602   3.487   4.382  15.567  0.2759  0.0196 -0.4192
  371TMC3    C4 5603   3.706   4.409  15.418 -0.3382 -0.3155 -0.0650
  371TMC3    C5 5604   3.667   4.515  15.503  0.6266 -0.7021  0.1376
  371TMC3    C6 5605   3.557   4.504  15.580 -0.1697  0.8895 -1.1386
  371TMC3     C 5606   3.693   4.181  15.341 -0.1917 -0.4080  0.1435
  371TMC3     O 5607   3.778   4.206  15.258  0.2488 -0.0649  0.3322
  371TMC3     H 5608   3.462   4.195  15.477  0.8581 -0.3664 -0.7076
  371TMC3    H1 5609   3.775   4.429  15.337 -1.1106 -0.1992 -0.6814
  371TMC3    H2 5610   3.526   4.572  15.659 -1.1137 -0.5596 -0.2629
  371TMC3    C7 5611   3.748   4.632  15.530  0.4888 -0.3253 -0.1845
  371TMC3    C8 5612   3.351   4.380  15.621  0.8628 -0.4959  0.2936
  371TMC3    O1 5613   3.698   4.708  15.614  0.4265  0.2604  0.7287
  371TMC3    O2 5614   3.296   4.270  15.618 -0.8103 -0.4038  0.0581
  372MPD2     C 5615   3.023   0.480  13.164 -0.6002  0.0226 -0.7782
  372MPD2    C1 5616   3.100   0.525  13.271  0.7475  0.0753  0.3778
  372MPD2    C2 5617   3.113   0.444  13.383 -0.2367 -0.0988 -0.0569
  372MPD2    C3 5618   3.031   0.322  13.390  0.3937  0.3451  0.5763
  372MPD2    C4 5619   2.957   0.290  13.284 -0.9602  0.5256  0.2609
  372MPD2    C5 5620   2.954   0.367  13.173  0.7523  0.0202 -0.1502
  372MPD2     H 5621   3.185   0.482  13.454 -0.9082 -0.2862  0.7157
  372MPD2    H1 5622   2.898   0.200  13.277  0.2892 -0.2254 -0.6654
  372MPD2    H2 5623   3.031   0.525  13.066 -0.4473  0.7783 -0.4180
  372MPD2    H3 5624   2.903   0.328  13.087  0.6278 -0.3008  0.0690
  372MPD2     N 5625   3.045   0.240  13.501  0.8898 -0.6521 -0.4720
  372MPD2    H5 5626   3.089   0.286  13.581  0.6768  0.9088 -1.2620
  372MPD2    N1 5627   3.186   0.640  13.263  0.2082 -0.2059 -0.5435
  372MPD2    H7 5628   3.249   0.660  13.341  0.2320  3.4597 -1.5013
  373TMC3    C1 5629   3.043   0.052  13.648 -0.2282  0.6217  1.0467
  373TMC3    C2 5630   3.043   0.133  13.758  0.2332 -0.1376 -0.5679
  373TMC3    C3 5631   3.133   0.105  13.858  0.5996 -1.1519  0.0954
  373TMC3    C4 5632   3.139   4.695  13.623  0.5002 -0.1066  0.3327
  373TMC3    C5 5633   3.229   4.675  13.726 -0.2277  0.0051 -0.1497
  373TMC3    C6 5634   3.232   0.011  13.845  0.8608  0.4885  0.1934
  373TMC3     C 5635   3.002   0.113  13.522 -0.3223 -0.3298 -0.3864
  373TMC3     O 5636   2.964   0.037  13.434 -0.2682 -0.2701  0.0657
  373TMC3     H 5637   2.973   0.215  13.771  0.7662  0.2639 -0.2139
  373TMC3    H1 5638   3.145   4.645  13.527 -1.2464  0.4850 -0.0898
  373TMC3    H2 5639   3.325   0.021  13.899  0.0917  2.1768  1.2114
  373TMC3    C7 5640   3.343   4.594  13.689  1.0204  0.2985  0.1455
  373TMC3    C8 5641   3.135   0.185  13.970 -1.1038  0.2895  0.0680
  373TMC3    O1 5642   3.365   4.594  13.567  0.7030 -0.2555 -0.2271
  373TMC3    O2 5643   3.086   0.295  13.958 -0.4659 -0.3690 -0.2899
  374TMC3    C1 5644   3.565   0.835   9.669  0.4962 -0.0337 -0.3537
  374TMC3    C2 5645   3.658   0.917   9.720  0.3725  0.0382 -0.0335
  374TMC3    C3 5646   3.656   1.046   9.677  0.0562 -0.3719 -1.5063
  374TMC3    C4 5647   3.490   0.860   9.559  0.5484  0.2339  0.4535
  374TMC3    C5 5648   3.516   0.980   9.493  0.1605  0.4216  0.5347
  374TMC3    C6 5649   3.583   1.085   9.561 -0.5209  0.6381 -0.3296
  374TMC3     C 5650   3.536   0.720   9.754 -0.0284  0.1005 -0.4905
  374TMC3     O 5651   3.624   0.689   9.836  0.5729  0.1016  0.6508
  374TMC3     H 5652   3.714   0.886   9.807  0.8501  0.3855 -0.2150
  374TMC3    H1 5653   3.420   0.788   9.518 -0.5747  1.9673 -0.7003
  374TMC3    H2 5654   3.593   1.183   9.514  0.4628  0.5792 -0.2486
  374TMC3    C7 5655   3.445   1.002   9.367 -0.1160  0.0960 -0.3076
  374TMC3    C8 5656   3.720   1.152   9.753  0.3159 -0.0463  0.3744
  374TMC3    O1 5657   3.379   0.912   9.318 -0.2603 -0.2188 -0.1307
  374TMC3    O2 5658   3.692   1.265   9.712  0.4265  0.2771 -0.3721
  375MPD2     C 5659   3.845   1.317  16.773 -0.0635 -0.4975  0.0320
  375MPD2    C1 5660   3.791   1.377  16.656 -0.0788 -0.0806  0.6549
  375MPD2    C2 5661   3.854   1.357  16.535 -0.2679  0.4335  0.0313
  375MPD2    C3 5662   3.972   1.278  16.531  0.0248 -0.6962 -0.9676
  375MPD2    C4 5663   4.019   1.223  16.644 -0.6533 -0.3943  0.4076
  375MPD2    C5 5664   3.963   1.246  16.767  0.1761  0.4846 -0.3255
  375MPD2     H 5665   3.803   1.390  16.446  2.5303 -1.5813 -2.3278
  375MPD2    H1 5666   4.104   1.156  16.643  0.7777  1.4669 -2.1658
  375MPD2    H2 5667   3.811   1.321  16.876 -0.2239 -0.1319 -0.0346
  375MPD2    H3 5668   4.007   1.211  16.859 -1.6649  0.5817  0.5929
  375MPD2     N 5669   4.030   1.243  16.416 -0.1595  0.3553 -0.1424
  375MPD2    H5 5670   4.110   1.181  16.430 -0.8975 -0.8799 -1.4456
  375MPD2    N1 5671   3.655   1.427  16.657 -0.0281  0.5659  0.6223
  375MPD2    H7 5672   3.623   1.467  16.569 -1.9388  0.7133  1.3783
  376TMC3    C1 5673   4.098   1.206  16.210 -0.1631  0.2558  0.3011
  376TMC3    C2 5674   4.220   1.182  16.263  0.1426  0.3425 -0.5644
  376TMC3    C3 5675   4.306   1.123  16.173 -0.1951  0.4182  0.2974
  376TMC3    C4 5676   4.061   1.163  16.083  0.1133  0.2203 -0.1611
  376TMC3    C5 5677   4.145   1.097  16.001 -0.2198  0.1835  0.8855
  376TMC3    C6 5678   4.270   1.070  16.053  0.3782  0.0866  0.5160
  376TMC3     C 5679   3.983   1.261  16.286  1.2293 -0.4602 -0.2750
  376TMC3     O 5680   3.888   1.324  16.231  0.6811  0.4083 -0.1451
  376TMC3     H 5681   4.268   1.238  16.342 -0.9225 -0.3834  0.6054
  376TMC3    H1 5682   3.959   1.182  16.052  0.6785  1.8288 -1.0117
  376TMC3    H2 5683   4.352   1.046  15.986 -0.2794  1.6901 -0.8581
  376TMC3    C7 5684   4.126   1.121  15.862  0.8229 -0.2133  0.4770
  376TMC3    C8 5685   4.440   1.167  16.173 -0.5130 -0.1120  0.1692
  376TMC3    O1 5686   4.048   1.208  15.823  0.5130 -0.2302 -0.5830
  376TMC3    O2 5687   4.477   1.214  16.066 -0.1753  0.3701 -0.1699
  377MPD2     C 5688   1.765   0.975  12.035 -0.6268  0.0093 -0.1143
  377MPD2    C1 5689   1.817   0.912  12.145 -0.2612 -0.1357 -0.1475
  377MPD2    C2 5690   1.737   0.871  12.250 -0.3184  0.0629 -0.3191
  377MPD2    C3 5691   1.597   0.890  12.242  0.8647  0.2134 -0.3750
  377MPD2    C4 5692   1.545   0.962  12.134  0.0286  0.0787  0.2350
  377MPD2    C5 5693   1.629   1.000  12.036  0.3498  0.2924 -0.0485
  377MPD2     H 5694   1.783   0.816  12.331 -1.0203  0.4750  0.3575
  377MPD2    H1 5695   1.437   0.966  12.118  0.3810 -0.2152 -2.1540
  377MPD2    H2 5696   1.824   1.010  11.951 -1.9850  0.5396 -0.8518
  377MPD2    H3 5697   1.587   1.043  11.946 -0.5742  1.1895  0.8232
  377MPD2     N 5698   1.509   0.858  12.353 -0.4460 -0.9896 -0.1386
  377MPD2    H5 5699   1.418   0.901  12.343  0.0586  0.1197  0.0779
  377MPD2    N1 5700   1.959   0.891  12.137  0.4880  0.1490 -0.4986
  377MPD2    H7 5701   2.000   0.931  12.054 -0.3712 -1.5581 -1.7297
  378TMC3    C1 5702   2.335   1.009  12.122 -0.3108  0.4039  0.6816
  378TMC3    C2 5703   2.218   0.941  12.107 -0.8331 -0.2430 -0.4288
  378TMC3    C3 5704   2.191   0.842  12.195 -0.5290 -0.1843  0.4713
  378TMC3    C4 5705   2.437   0.947  12.185  0.8765  0.0419  0.1987
  378TMC3    C5 5706   2.413   0.842  12.276 -0.1658  0.3923 -0.1741
  378TMC3    C6 5707   2.278   0.789  12.282 -0.3591 -0.4708 -0.5668
  378TMC3     C 5708   2.349   1.131  12.050 -0.3908  0.0134  0.0042
  378TMC3     O 5709   2.241   1.193  12.050 -0.2532  0.2242 -0.2688
  378TMC3     H 5710   2.145   0.988  12.042  2.6236  0.2059 -3.9667
  378TMC3    H1 5711   2.530   1.003  12.187  1.4039 -0.8170  0.0073
  378TMC3    H2 5712   2.249   0.705  12.345  1.3171 -1.1762 -0.7290
  378TMC3    C7 5713   2.511   0.790  12.369  0.1494 -0.5004 -0.1824
  378TMC3    C8 5714   2.047   0.823  12.226 -0.2126  0.3701  0.4920
  378TMC3    O1 5715   2.482   0.688  12.430  0.4318 -0.0194 -0.5854
  378TMC3    O2 5716   2.005   0.758  12.322  0.0095  0.2113 -0.2919
  379MPD2     C 5717   2.875   4.236  16.174  0.1886 -0.0818  0.0251
  379MPD2    C1 5718   2.818   4.140  16.252 -0.9078  0.1090 -0.3224
  379MPD2    C2 5719   2.888   4.075  16.351  0.0881 -0.1213 -1.1641
  379MPD2    C3 5720   3.023   4.096  16.356 -0.0301 -0.0042  0.0406
  379MPD2    C4 5721   3.092   4.186  16.271 -0.0420 -1.0660 -0.3831
  379MPD2    C5 5722   3.009   4.262  16.184 -0.2832  0.4930 -0.4935
  379MPD2     H 5723   2.836   4.008  16.417  0.4302  0.5917 -0.1778
  379MPD2    H1 5724   3.200   4.183  16.265 -0.1924 -1.6346 -2.8017
  379MPD2    H2 5725   2.822   4.291  16.096  0.0798 -0.1296  0.0651
  379MPD2    H3 5726   3.060   4.331  16.118  3.1423 -1.4641  0.1034
  379MPD2     N 5727   3.101   4.025  16.449 -0.3568 -0.4042 -0.2037
  379MPD2    H5 5728   3.199   4.012  16.424 -0.3368  0.5898 -0.6569
  379MPD2    N1 5729   2.678   4.110  16.233  0.2308 -1.1131 -0.2116
  379MPD2    H7 5730   2.627   4.181  16.181 -1.5306 -1.2357  1.3295
  380TMC3    C1 5731   2.469   4.000  16.252 -0.2897 -0.0829 -0.3790
  380TMC3    C2 5732   2.433   3.871  16.210  0.6089  0.4140  0.5029
  380TMC3    C3 5733   2.340   3.863  16.115  0.3374  0.7741  0.2108
  380TMC3    C4 5734   2.411   4.116  16.207 -0.0989  0.2317 -0.6452
  380TMC3    C5 5735   2.313   4.107  16.112 -0.3916  0.1014  0.5908
  380TMC3    C6 5736   2.276   3.977  16.072  0.2729 -1.0964  0.3739
  380TMC3     C 5737   2.606   4.006  16.289  0.4295  0.0419  0.1830
  380TMC3     O 5738   2.659   3.904  16.332 -0.5322  0.1603  0.2570
  380TMC3     H 5739   2.492   3.785  16.240 -2.1432 -1.5669  0.1595
  380TMC3    H1 5740   2.432   4.214  16.248 -2.1845  0.0557  0.8300
  380TMC3    H2 5741   2.198   3.963  15.998 -0.5798  2.5995  0.5295
  380TMC3    C7 5742   2.268   4.226  16.046 -0.1318 -0.1292  0.2868
  380TMC3    C8 5743   2.349   3.749  16.019  0.1055 -0.0411 -0.0279
  380TMC3    O1 5744   2.322   4.330  16.083  0.0316 -0.3002  0.3804
  380TMC3    O2 5745   2.299   3.768  15.909 -0.0457  0.1829  0.5757
  381TMC3    C1 5746   2.112   0.690  15.841  0.6254  0.0789 -0.3467
  381TMC3    C2 5747   2.209   0.786  15.870  0.5692  0.6505  0.1541
  381TMC3    C3 5748   2.194   0.863  15.980  1.1956  0.4175  0.0825
  381TMC3    C4 5749   2.008   0.656  15.923  0.2570 -0.2735  0.4898
  381TMC3    C5 5750   2.005   0.728  16.037 -0.3711 -0.2804 -0.1928
  381TMC3    C6 5751   2.088   0.836  16.058  0.0768 -0.2112  0.1554
  381TMC3     C 5752   2.169   0.575  15.784  0.2414 -0.4668 -0.4342
  381TMC3     O 5753   2.288   0.543  15.811 -0.7884  0.7152  0.3197
  381TMC3     H 5754   2.298   0.793  15.808  0.9926 -1.6140  0.5123
  381TMC3    H1 5755   1.940   0.573  15.907 -0.8914  0.9805 -1.1190
  381TMC3    H2 5756   2.068   0.900  16.143  2.1635  0.5186  0.1055
  381TMC3    C7 5757   1.964   0.650  16.149 -0.4171  0.0697 -0.2463
  381TMC3    C8 5758   2.328   0.880  16.040  0.0938 -0.1008 -0.0414
  381TMC3    O1 5759   2.023   0.543  16.169 -0.1093 -0.0675 -0.2950
  381TMC3    O2 5760   2.425   0.891  15.969 -0.1277  0.7580 -0.1858
  382MPD2     C 5761   1.978   2.734  16.680 -0.6334  0.3719 -0.3124
  382MPD2    C1 5762   2.019   2.749  16.805  0.0563 -0.2591  0.5941
  382MPD2    C2 5763   2.007   2.638  16.890  0.1063 -0.3016  0.4586
  382MPD2    C3 5764   1.944   2.526  16.839  0.1692  0.6762 -0.3754
  382MPD2    C4 5765   1.894   2.522  16.714  0.2694 -0.3103 -0.2179
  382MPD2    C5 5766   1.917   2.626  16.634  0.3811  0.4332  0.1793
  382MPD2     H 5767   2.044   2.643  16.992  2.0985 -0.5696 -0.2507
  382MPD2    H1 5768   1.845   2.438  16.666 -0.9941  0.3015 -0.0234
  382MPD2    H2 5769   1.974   2.817  16.609  2.3532  0.7795 -0.0247
  382MPD2    H3 5770   1.876   2.631  16.534 -0.8062  1.7210  0.7248
  382MPD2     N 5771   1.919   2.407  16.919  0.8020 -0.1893  0.4552
  382MPD2    H5 5772   1.872   2.334  16.865  2.7522 -1.8143  0.9754
  382MPD2    N1 5773   2.071   2.865  16.857 -1.1938  0.8596  0.5880
  382MPD2    H7 5774   2.074   2.861  16.958  1.8463  2.4292  0.5470
  383TMC3    C1 5775   1.912   2.284  17.129  0.0801  0.3554  0.4655
  383TMC3    C2 5776   1.786   2.243  17.105  0.8253  0.1021  0.1986
  383TMC3    C3 5777   1.717   2.179  17.206 -0.1970 -0.0296  0.2779
  383TMC3    C4 5778   1.973   2.262  17.246 -0.1112  1.0962  0.2174
  383TMC3    C5 5779   1.905   2.212  17.352 -0.2145  0.4812  0.1146
  383TMC3    C6 5780   1.774   2.166  17.329  0.3875 -0.5060  0.7471
  383TMC3     C 5781   1.967   2.389  17.048 -0.5727 -0.0556  0.2949
  383TMC3     O 5782   2.050   2.458  17.108 -0.0365  0.2309  0.0213
  383TMC3     H 5783   1.733   2.261  17.013 -1.5936  2.5582  2.0752
  383TMC3    H1 5784   2.075   2.299  17.255  0.5805 -1.4960  2.8810
  383TMC3    H2 5785   1.717   2.121  17.409  0.2135 -1.3278  0.1571
  383TMC3    C7 5786   1.944   2.240  17.492  0.0963 -0.0331  0.5461
  383TMC3    C8 5787   1.580   2.128  17.171 -0.1059  0.3980 -0.3901
  383TMC3    O1 5788   1.902   2.162  17.578 -0.6174 -0.0184  0.1963
  383TMC3    O2 5789   1.545   2.150  17.057 -0.4963 -0.0718 -0.5664
  384MPD2     C 5790   3.325   3.927  12.413  0.5831 -0.9604  0.1459
  384MPD2    C1 5791   3.372   3.883  12.535  0.5562 -0.2442  0.4714
  384MPD2    C2 5792   3.500   3.836  12.546  0.2752 -0.3662 -0.4520
  384MPD2    C3 5793   3.585   3.838  12.434  0.3375  0.0043 -0.2983
  384MPD2    C4 5794   3.537   3.892  12.319  0.4171  0.4044 -0.0176
  384MPD2    C5 5795   3.410   3.937  12.311 -0.0368  0.2154 -0.2480
  384MPD2     H 5796   3.535   3.782  12.633  3.1873 -0.9608 -1.9905
  384MPD2    H1 5797   3.600   3.903  12.231  0.6912  0.4058  0.1777
  384MPD2    H2 5798   3.225   3.966  12.398  1.0781 -0.0720 -0.8314
  384MPD2    H3 5799   3.374   3.976  12.216  0.6043  0.5176 -0.3726
  384MPD2     N 5800   3.710   3.779  12.442 -0.1651  0.2637  0.3350
  384MPD2    H5 5801   3.732   3.741  12.534 -0.2903 -0.8332 -0.0905
  384MPD2    N1 5802   3.274   3.865  12.633  0.0671  0.3105 -0.1505
  384MPD2    H7 5803   3.177   3.876  12.607 -0.0968 -2.1903 -0.6036
  385TMC3    C1 5804   3.875   3.631  12.366 -0.1847  0.1135 -0.6660
  385TMC3    C2 5805   3.860   3.521  12.281  0.1694 -0.3406 -0.3506
  385TMC3    C3 5806   3.845   3.400  12.346  0.1913 -0.2100  0.2198
  385TMC3    C4 5807   3.898   3.617  12.498  0.1303  0.8052  0.0107
  385TMC3    C5 5808   3.882   3.490  12.558  0.2479  0.1072  0.2778
  385TMC3    C6 5809   3.855   3.381  12.480 -0.5050 -0.6623 -0.8014
  385TMC3     C 5810   3.776   3.729  12.328  0.5520 -0.6766  0.2739
  385TMC3     O 5811   3.737   3.725  12.213 -0.1084 -0.4910 -0.2451
  385TMC3     H 5812   3.850   3.528  12.173 -1.8617 -0.6383 -0.1882
  385TMC3    H1 5813   3.916   3.707  12.555 -0.1599  0.5087  0.5816
  385TMC3    H2 5814   3.860   3.279  12.517 -0.4267 -0.8468 -1.3166
  385TMC3    C7 5815   3.816   3.509  12.690 -0.1372  0.2383 -0.2013
  385TMC3    C8 5816   3.786   3.291  12.270  0.6756  0.0876  0.0143
  385TMC3    O1 5817   3.777   3.626  12.709  0.0229 -0.6617  0.0405
  385TMC3    O2 5818   3.777   3.182  12.328 -0.2412 -0.4410  0.0962
  386TMC3    C1 5819   3.858   1.288  12.007 -0.7461 -0.5677  0.4722
  386TMC3    C2 5820   3.854   1.299  11.871  0.2966 -0.1494 -0.6623
  386TMC3    C3 5821   3.758   1.389  11.822 -0.6299 -0.1819 -0.5876
  386TMC3    C4 5822   3.797   1.374  12.099 -0.2657  0.2062 -0.2574
  386TMC3    C5 5823   3.701   1.460  12.047 -0.0020  0.3463  0.7699
  386TMC3    C6 5824   3.686   1.465  11.908 -0.2709  0.6573  0.1268
  386TMC3     C 5825   3.962   1.199  12.056 -0.0536  0.6488 -0.1824
  386TMC3     O 5826   4.018   1.231  12.160 -0.8687  0.0548  0.0087
  386TMC3     H 5827   3.914   1.227  11.817 -0.6845 -2.3819  1.2474
  386TMC3    H1 5828   3.811   1.359  12.206  0.7520 -0.6797 -0.5149
  386TMC3    H2 5829   3.627   1.545  11.866  0.1468 -1.0788 -3.7400
  386TMC3    C7 5830   3.580   1.455  12.132 -1.2781 -0.1295 -0.3309
  386TMC3    C8 5831   3.717   1.385  11.682 -0.3261  0.6532 -0.2535
  386TMC3    O1 5832   3.588   1.421  12.250 -0.5987 -1.2139 -0.7158
  386TMC3    O2 5833   3.628   1.461  11.644 -0.2922 -0.2725  0.2265
  387MPD2     C 5834   0.716   1.169  10.069 -0.4976  0.6956 -0.0819
  387MPD2    C1 5835   0.840   1.163  10.001 -0.6553 -0.1403  0.4325
  387MPD2    C2 5836   0.854   1.060   9.915  0.2213 -0.5151  0.1695
  387MPD2    C3 5837   0.759   0.960   9.909  0.4285 -0.3402 -0.3205
  387MPD2    C4 5838   0.642   0.962   9.991 -0.1892  0.2355  0.3771
  387MPD2    C5 5839   0.620   1.074  10.067  0.2551  0.2105 -0.4356
  387MPD2     H 5840   0.940   1.050   9.851 -1.2748 -0.6840 -1.8176
  387MPD2    H1 5841   0.575   0.878   9.979  0.6429 -0.1662 -1.4245
  387MPD2    H2 5842   0.705   1.257  10.132 -0.2220 -0.8145  2.0572
  387MPD2    H3 5843   0.540   1.083  10.139 -0.3664  3.5260 -1.5352
  387MPD2     N 5844   0.800   0.848   9.833  0.3526  0.8920 -0.2682
  387MPD2    H5 5845   0.879   0.863   9.771  1.9540  3.0371  2.2731
  387MPD2    N1 5846   0.953   1.235  10.033 -0.1814  0.6243 -0.1691
  387MPD2    H7 5847   1.034   1.208   9.978  1.0109 -0.0296  1.9065
  388TMC3    C1 5848   1.102   1.356  10.167 -0.1034  0.8119  0.2032
  388TMC3    C2 5849   1.132   1.475  10.226 -0.0649 -0.3894  0.3906
  388TMC3    C3 5850   1.256   1.487  10.279  0.7389 -0.1698  0.1419
  388TMC3    C4 5851   1.194   1.256  10.148  0.1065 -0.3421 -0.3034
  388TMC3    C5 5852   1.318   1.279  10.195 -0.3272  0.1853  0.7515
  388TMC3    C6 5853   1.351   1.392  10.267 -0.0468 -0.1012  0.4403
  388TMC3     C 5854   0.962   1.336  10.128  0.7066 -0.0820  0.1238
  388TMC3     O 5855   0.880   1.415  10.165 -0.2940  0.2779  0.4113
  388TMC3     H 5856   1.050   1.542  10.247  0.7073  0.8232 -0.4559
  388TMC3    H1 5857   1.157   1.156  10.126  3.4451 -1.0809 -2.4301
  388TMC3    H2 5858   1.451   1.413  10.303 -0.5714 -1.1092  2.4775
  388TMC3    C7 5859   1.408   1.167  10.195  0.5531  0.7018 -0.1161
  388TMC3    C8 5860   1.290   1.609  10.349  0.1187 -0.2412  0.2821
  388TMC3    O1 5861   1.494   1.161  10.279  0.0063 -0.1135  0.0668
  388TMC3    O2 5862   1.403   1.654  10.324 -0.2752  0.0442  0.4366
  389MPD2     C 5863   0.243   3.519  10.716 -0.0778  0.1741  0.4407
  389MPD2    C1 5864   0.176   3.619  10.778  0.2057  0.3745  0.0188
  389MPD2    C2 5865   0.175   3.629  10.913 -0.2000  0.3508  0.0790
  389MPD2    C3 5866   0.246   3.541  10.989 -0.2240  0.3181 -0.2490
  389MPD2    C4 5867   0.312   3.436  10.923 -0.1791 -0.6759 -0.1523
  389MPD2    C5 5868   0.302   3.419  10.782 -0.2272 -0.1246 -0.1061
  389MPD2     H 5869   0.122   3.706  10.968  0.2951  0.7499 -0.0097
  389MPD2    H1 5870   0.374   3.360  10.969  0.2791  0.8246  1.7178
  389MPD2    H2 5871   0.254   3.514  10.608 -1.9685 -1.5050  0.3283
  389MPD2    H3 5872   0.357   3.344  10.727  0.3186  1.2628 -1.4317
  389MPD2     N 5873   0.248   3.549  11.132  0.1626  0.5368 -0.6872
  389MPD2    H5 5874   0.295   3.473  11.180  2.6767  1.1596 -2.1341
  389MPD2    N1 5875   0.116   3.716  10.700 -0.0069  0.9653  0.1973
  389MPD2    H7 5876   0.127   3.697  10.601 -0.8546 -1.7820  0.6036
  390TMC3    C1 5877   0.203   3.616  11.350 -0.2988 -0.3712  0.2948
  390TMC3    C2 5878   0.147   3.500  11.388 -0.1167 -0.7919  0.6191
  390TMC3    C3 5879   0.110   3.484  11.520 -0.0379  0.1172  0.7212
  390TMC3    C4 5880   0.238   3.714  11.436 -0.2089 -0.1684  0.2878
  390TMC3    C5 5881   0.210   3.695  11.565 -0.4952 -0.1632 -0.7294
  390TMC3    C6 5882   0.139   3.589  11.611 -0.7680 -0.4118  0.1327
  390TMC3     C 5883   0.183   3.645  11.206  0.2667  0.3179  0.7625
  390TMC3     O 5884   0.158   3.760  11.187 -0.5773  0.4053 -0.5323
  390TMC3     H 5885   0.122   3.425  11.314  0.7971 -0.4557 -0.0320
  390TMC3    H1 5886   0.292   3.800  11.400 -0.9501 -0.3773 -1.3352
  390TMC3    H2 5887   0.097   3.592  11.711  1.5640  0.6473  1.0844
  390TMC3    C7 5888   0.226   3.814  11.652 -0.3366  0.0800 -0.2180
  390TMC3    C8 5889   0.012   3.380  11.555 -0.1366 -0.0466 -0.4356
  390TMC3    O1 5890   0.292   3.910  11.612  0.2719  0.5776 -0.3320
  390TMC3    O2 5891   4.681   3.346  11.466  0.0017  0.1317 -0.3437
  391MPD2     C 5892   4.494   0.667  11.054  0.9856  0.0021  0.5302
  391MPD2    C1 5893   4.602   0.723  11.008  0.2094  0.5522  0.2196
  391MPD2    C2 5894   4.599   0.766  10.871 -0.5847 -0.1863 -0.5287
  391MPD2    C3 5895   4.478   0.763  10.803  0.4490  0.4737  0.0330
  391MPD2    C4 5896   4.361   0.720  10.857 -0.1635  0.6642  0.3406
  391MPD2    C5 5897   4.374   0.660  10.978  0.3852  0.7336  0.4171
  391MPD2     H 5898   4.695   0.791  10.828 -0.8576  0.2594 -0.8818
  391MPD2    H1 5899   4.266   0.733  10.808 -0.1217 -2.2283 -0.4983
  391MPD2    H2 5900   4.490   0.638  11.158  0.4202 -0.9185  0.2516
  391MPD2    H3 5901   4.285   0.625  11.028  0.9764 -2.2754 -0.6314
  391MPD2     N 5902   4.484   0.814  10.673 -0.6077 -0.3423  0.3047
  391MPD2    H5 5903   4.569   0.865  10.650  0.0415 -0.7736  1.7738
  391MPD2    N1 5904   4.713   0.722  11.095 -0.2840  0.3452  0.2058
  391MPD2    H7 5905   4.702   0.698  11.193  0.0914  0.9669  0.4008
  392TMC3    C1 5906   4.414   0.909  10.468  0.8008 -0.4676 -0.0243
  392TMC3    C2 5907   4.328   0.908  10.366 -0.2377  0.1333 -0.2161
  392TMC3    C3 5908   4.329   1.010  10.271 -0.0091 -0.6922 -0.0880
  392TMC3    C4 5909   4.509   1.008  10.478  0.4254 -0.2571 -0.2871
  392TMC3    C5 5910   4.510   1.105  10.382  0.3848 -0.4562 -0.6814
  392TMC3    C6 5911   4.427   1.108  10.271 -0.1157 -0.5988 -0.4395
  392TMC3     C 5912   4.388   0.805  10.573 -0.0840  0.4158  0.5250
  392TMC3     O 5913   4.279   0.751  10.574 -0.1559  0.0925 -0.0081
  392TMC3     H 5914   4.251   0.832  10.353 -0.9504  0.7989  0.0687
  392TMC3    H1 5915   4.567   1.014  10.569  1.9148 -0.5664 -1.2168
  392TMC3    H2 5916   4.429   1.181  10.191  0.9553 -0.0392  0.0849
  392TMC3    C7 5917   4.602   1.218  10.407  0.5872 -0.5644 -0.2788
  392TMC3    C8 5918   4.213   1.035  10.184  0.4299 -0.0878 -0.2888
  392TMC3    O1 5919   4.654   1.211  10.518 -0.0803  0.1959  0.4696
  392TMC3    O2 5920   4.151   0.939  10.141  0.0729  0.2648  0.6418
  393TMC3    C1 5921   2.999   3.987  10.954  0.4869  0.3669  0.0036
  393TMC3    C2 5922   2.865   4.023  10.982  0.6702 -0.2138  0.3829
  393TMC3    C3 5923   2.807   3.984  11.103  0.4879 -0.3180  0.2761
  393TMC3    C4 5924   3.075   3.911  11.044 -0.3970  0.3306 -0.5731
  393TMC3    C5 5925   3.013   3.885  11.164  0.3127 -0.1348 -0.2221
  393TMC3    C6 5926   2.887   3.924  11.192  0.8185  0.6111  0.0403
  393TMC3     C 5927   3.042   4.032  10.819  0.0472 -0.4015  0.6361
  393TMC3     O 5928   2.956   4.041  10.736 -0.0956 -0.2008  0.3224
  393TMC3     H 5929   2.808   4.070  10.903 -0.5078  0.3503  1.5733
  393TMC3    H1 5930   3.171   3.870  11.016 -1.4479 -1.4391 -1.5970
  393TMC3    H2 5931   2.841   3.881  11.281  1.5285 -1.6171 -0.6685
  393TMC3    C7 5932   3.086   3.830  11.277 -0.0480 -0.9186  0.2920
  393TMC3    C8 5933   2.667   3.933  11.102  0.5014 -0.1008 -0.3468
  393TMC3    O1 5934   3.021   3.829  11.378 -0.0677  0.0715  0.0748
  393TMC3    O2 5935   2.648   3.851  11.184 -0.6778 -0.2335 -0.1219
  394TMC3    C1 5936   0.015   3.908  10.621  0.0056 -0.0120  0.5731
  394TMC3    C2 5937   4.713   3.848  10.508  0.2481  0.2120  0.2699
  394TMC3    C3 5938   4.711   3.919  10.390  0.1351  0.4688  0.9487
  394TMC3    C4 5939   0.050   4.040  10.623 -0.0093  0.1703 -0.0105
  394TMC3    C5 5940   0.040   4.104  10.509  0.4414 -0.0218 -0.2943
  394TMC3    C6 5941   0.006   4.047  10.394  0.5009  0.6569 -0.6325
  394TMC3     C 5942   0.055   3.829  10.737  0.0452  0.1586  0.2521
  394TMC3     O 5943   0.055   3.885  10.842 -0.0262  0.1788 -0.1630
  394TMC3     H 5944   4.686   3.743  10.514 -0.2630  0.2372 -1.5148
  394TMC3    H1 5945   0.064   4.091  10.718  0.1641 -0.5147  0.3373
  394TMC3    H2 5946   4.728   4.106  10.304  0.6081  0.3717 -0.8422
  394TMC3    C7 5947   0.130   4.218  10.491  0.5073 -0.1407  0.4761
  394TMC3    C8 5948   4.658   3.869  10.269  0.6485 -0.2817 -0.1661
  394TMC3    O1 5949   0.129   4.277  10.384  0.0727  0.1382 -0.3998
  394TMC3    O2 5950   4.683   3.928  10.166 -0.2686  0.0837  0.7435
  395TMC3    C1 5951   0.509   1.165  14.474  0.1306  0.7468 -0.0173
  395TMC3    C2 5952   0.448   1.117  14.362  0.1041  0.1342  0.0220
  395TMC3    C3 5953   0.487   1.168  14.235  0.0252 -0.6105 -0.2933
  395TMC3    C4 5954   0.614   1.253  14.471  0.1444 -0.2287  0.7838
  395TMC3    C5 5955   0.649   1.305  14.349 -0.6225  0.1133 -0.3400
  395TMC3    C6 5956   0.590   1.260  14.233 -0.5513  0.0141 -0.1527
  395TMC3     C 5957   0.459   1.125  14.606  0.3044  0.0205  0.4014
  395TMC3     O 5958   0.512   1.174  14.704  0.5668 -0.0767  0.0135
  395TMC3     H 5959   0.362   1.052  14.375  0.6093 -0.5994 -0.2818
  395TMC3    H1 5960   0.662   1.294  14.559 -0.9552  0.5808  1.0150
  395TMC3    H2 5961   0.606   1.309  14.137  0.1540  0.5213  0.2193
  395TMC3    C7 5962   0.701   1.436  14.351 -0.5436 -0.4445 -0.9638
  395TMC3    C8 5963   0.388   1.193  14.133 -0.2667 -0.1536 -0.1930
  395TMC3    O1 5964   0.677   1.496  14.455 -0.5922 -0.3868 -0.2167
  395TMC3    O2 5965   0.426   1.270  14.044  0.0149  0.0307 -0.2800
  396MPD2     C 5966   4.215   2.637  16.636  0.0628 -0.2562 -0.3452
  396MPD2    C1 5967   4.315   2.665  16.726 -0.2348  0.3921 -0.1714
  396MPD2    C2 5968   4.402   2.772  16.694 -0.1320  0.5815  0.4992
  396MPD2    C3 5969   4.395   2.834  16.570 -0.1251 -0.0546 -0.2733
  396MPD2    C4 5970   4.310   2.791  16.477 -0.2525 -0.1924 -0.0258
  396MPD2    C5 5971   4.222   2.701  16.514 -0.6941 -1.1326 -0.3591
  396MPD2     H 5972   4.472   2.818  16.762  0.7246  0.7679 -0.5179
  396MPD2    H1 5973   4.299   2.831  16.377 -0.4195 -0.3028 -0.0516
  396MPD2    H2 5974   4.130   2.573  16.656 -0.3337  1.1522  2.5159
  396MPD2    H3 5975   4.167   2.661  16.430 -0.1280 -3.9431  0.6060
  396MPD2     N 5976   4.478   2.944  16.541 -0.4008 -0.1728  0.7518
  396MPD2    H5 5977   4.517   2.986  16.624 -0.8334  0.8806  0.4245
  396MPD2    N1 5978   4.313   2.591  16.847  0.1563  0.2533 -0.0274
  396MPD2    H7 5979   4.250   2.512  16.849  0.0133  0.3363 -1.6792
  397TMC3    C1 5980   4.380   2.505  17.061  0.2665 -0.8557  0.5424
  397TMC3    C2 5981   4.509   2.460  17.099 -0.1742  0.5180  0.4785
  397TMC3    C3 5982   4.514   2.337  17.152 -0.2294 -0.0624  0.2037
  397TMC3    C4 5983   4.267   2.421  17.057  0.0248 -0.3421 -0.0168
  397TMC3    C5 5984   4.277   2.300  17.123  0.1491  0.8835  0.2447
  397TMC3    C6 5985   4.397   2.257  17.167 -0.2453 -0.0859  0.6700
  397TMC3     C 5986   4.392   2.611  16.956  0.0641 -0.7774 -0.3713
  397TMC3     O 5987   4.486   2.689  16.969 -0.1645 -0.0235  0.3661
  397TMC3     H 5988   4.595   2.525  17.102 -0.3760  0.6856  2.6109
  397TMC3    H1 5989   4.170   2.458  17.025  2.2155  2.2560 -3.5729
  397TMC3    H2 5990   4.401   2.156  17.207 -0.7098 -0.4445 -0.2000
  397TMC3    C7 5991   4.162   2.214  17.143  0.0918 -0.2347  0.1041
  397TMC3    C8 5992   4.644   2.278  17.123 -0.9266 -0.1211  0.4564
  397TMC3    O1 5993   4.077   2.217  17.054  0.1378  0.3717 -0.0637
  397TMC3    O2 5994   4.733   2.358  17.085  0.6367  0.0068  0.7952
  398MPD2     C 5995   2.881   3.749  17.661  0.6161  0.3717 -0.0665
  398MPD2    C1 5996   3.000   3.679  17.683 -0.0763  0.2966  0.2938
  398MPD2    C2 5997   3.112   3.747  17.712 -0.0545  0.5293 -0.1808
  398MPD2    C3 5998   3.107   3.884  17.740  0.3421  0.1632  0.1805
  398MPD2    C4 5999   2.988   3.950  17.739  0.0112  0.2773 -0.1264
  398MPD2    C5 6000   2.873   3.884  17.696 -0.1540  0.3830 -0.3251
  398MPD2     H 6001   3.211   3.704  17.714  0.4529  1.6107 -1.8220
  398MPD2    H1 6002   2.980   4.056   0.004 -0.9398  0.0001  0.9755
  398MPD2    H2 6003   2.786   3.705  17.632 -0.1559  2.1564 -0.2464
  398MPD2    H3 6004   2.780   3.937  17.674  0.9413  2.1063 -0.7933
  398MPD2     N 6005   3.235   3.938   0.009 -0.7017  0.4491  0.1969
  398MPD2    H5 6006   3.311   3.874   0.025 -1.3763 -1.0266 -2.3282
  398MPD2    N1 6007   3.020   3.537  17.666 -0.1288 -0.3457 -0.0458
  398MPD2    H7 6008   3.111   3.500  17.643 -0.1983  0.3510 -1.4578
  399TMC3    C1 6009   2.952   3.306  17.663  0.2801 -0.1106 -0.4189
  399TMC3    C2 6010   3.085   3.274  17.701 -0.1464  0.3297  0.3841
  399TMC3    C3 6011   3.120   3.145  17.678 -0.0527  0.4846  0.5901
  399TMC3    C4 6012   2.871   3.218  17.598  0.0759  0.6600  0.2517
  399TMC3    C5 6013   2.914   3.091  17.583 -0.1850 -0.2884  0.1691
  399TMC3    C6 6014   3.041   3.057  17.619  0.1808 -0.1358  0.5391
  399TMC3     C 6015   2.918   3.447  17.645  0.2582 -1.0799 -0.2745
  399TMC3     O 6016   2.796   3.470  17.653  0.0579 -0.1378  0.1806
  399TMC3     H 6017   3.150   3.342   0.001  0.5781  0.1131 -0.2070
  399TMC3    H1 6018   2.784   3.259  17.549  0.8880  0.5401 -1.2786
  399TMC3    H2 6019   3.080   2.963  17.583  2.2370  0.0358  2.3206
  399TMC3    C7 6020   2.823   2.981  17.540 -0.7971 -0.2944 -0.1042
  399TMC3    C8 6021   3.258   3.105  17.682 -0.3093  0.6158 -0.5675
  399TMC3    O1 6022   2.848   2.869  17.587 -0.4352 -0.0543 -0.6157
  399TMC3    O2 6023   3.274   2.983  17.693 -0.6402 -0.7456  0.4854
  400TMC3    C1 6024   1.546   1.810  16.871 -0.7685  0.0877 -0.7206
  400TMC3    C2 6025   1.442   1.723  16.850 -0.2035  0.3456  0.1979
  400TMC3    C3 6026   1.326   1.764  16.788 -0.3365  0.0027  0.2878
  400TMC3    C4 6027   1.528   1.944  16.847  0.7040  0.3724  0.3889
  400TMC3    C5 6028   1.402   1.977  16.796 -0.3644 -0.7154  0.6300
  400TMC3    C6 6029   1.305   1.890  16.759 -0.3489 -0.1312 -0.2699
  400TMC3     C 6030   1.638   1.781  16.978 -0.2934 -0.3590  0.7342
  400TMC3     O 6031   1.599   1.704  17.066  0.4729 -0.4647  0.0362
  400TMC3     H 6032   1.462   1.619  16.871 -0.3104  0.3959  0.5516
  400TMC3    H1 6033   1.611   2.010  16.870 -1.0964  2.3026  1.3208
  400TMC3    H2 6034   1.209   1.921  16.719  0.1682  0.3741 -1.1413
  400TMC3    C7 6035   1.394   2.110  16.738 -0.2348  0.0964  0.8034
  400TMC3    C8 6036   1.208   1.688  16.821  0.4646 -0.1102  0.9888
  400TMC3    O1 6037   1.315   2.108  16.648 -0.2926 -0.0736 -0.1308
  400TMC3    O2 6038   1.210   1.615  16.918  0.0806 -0.1129  0.1983
  401MPD2     C 6039   1.063   0.084  17.751  0.5488  0.1141  0.7771
  401MPD2    C1 6040   1.057   0.079   0.130 -0.3291  0.1471  0.0522
  401MPD2    C2 6041   0.972   4.727   0.193  0.3250  0.2195 -0.5711
  401MPD2    C3 6042   0.893   4.641   0.122  0.3630 -0.2197  0.1739
  401MPD2    C4 6043   0.909   4.638  17.742  0.2756 -1.0529  0.5134
  401MPD2    C5 6044   0.997   4.722  17.684  0.7496  0.0717 -0.1411
  401MPD2     H 6045   0.949   4.738   0.298 -2.7181  0.6971 -1.3035
  401MPD2    H1 6046   0.858   4.560  17.687  3.2056 -2.1537 -0.6646
  401MPD2    H2 6047   1.123   0.149  17.689 -0.1448  0.0416  0.0292
  401MPD2    H3 6048   1.015   4.706  17.578  0.5174 -1.8506  0.1073
  401MPD2     N 6049   0.805   4.556   0.198  0.8215 -0.6165  1.2025
  401MPD2    H5 6050   0.809   4.560   0.299 -0.3155 -0.8413  1.2579
  401MPD2    N1 6051   1.134   0.164   0.208 -0.0498 -0.3176 -0.5349
  401MPD2    H7 6052   1.129   0.156   0.309  2.2909  0.1399 -0.3877
  402TMC3    C1 6053   0.648   4.396   0.254 -0.3208 -0.4519  0.0808
  402TMC3    C2 6054   0.631   4.456   0.377  0.6065  0.3472 -0.3247
  402TMC3    C3 6055   0.578   4.386   0.484 -0.6944  0.3934  0.0456
  402TMC3    C4 6056   0.609   4.269   0.232  0.2971  0.3939 -0.0839
  402TMC3    C5 6057   0.574   4.196   0.346  0.3769 -0.2422 -0.6798
  402TMC3    C6 6058   0.551   4.258   0.463 -0.0917  0.2565  0.1607
  402TMC3     C 6059   0.726   4.461   0.145  0.6675  0.7989  0.0535
  402TMC3     O 6060   0.717   4.405   0.038  0.1919 -0.2812  0.3659
  402TMC3     H 6061   0.654   4.562   0.382  1.0265  0.2887 -1.0177
  402TMC3    H1 6062   0.615   4.219   0.136  1.8421  0.1837  0.1266
  402TMC3    H2 6063   0.501   4.206   0.544 -1.4705  1.1521 -0.1229
  402TMC3    C7 6064   0.518   4.069   0.318 -0.3842  0.2836 -0.3269
  402TMC3    C8 6065   0.549   4.439   0.616 -0.1718 -0.0206 -0.9437
  402TMC3    O1 6066   0.476   4.047   0.202 -0.8151  0.4294  0.4760
  402TMC3    O2 6067   0.547   4.354   0.709  0.0311  0.2007  0.0419
  403MPD2     C 6068   2.695   3.216  13.137  0.7055 -0.4535 -0.3559
  403MPD2    C1 6069   2.638   3.221  13.257 -0.2580  0.1308  0.0588
  403MPD2    C2 6070   2.723   3.244  13.365  0.2007  0.1301  0.6682
  403MPD2    C3 6071   2.859   3.271  13.349  0.5571 -0.5462  1.1643
  403MPD2    C4 6072   2.916   3.259  13.225  0.8307  0.0613  0.2164
  403MPD2    C5 6073   2.833   3.226  13.123  0.4547  0.0947  0.1869
  403MPD2     H 6074   2.683   3.240  13.466 -2.0488 -2.4049 -0.3378
  403MPD2    H1 6075   3.019   3.282  13.199  0.3505 -1.7111 -3.3581
  403MPD2    H2 6076   2.628   3.209  13.052  0.4277 -1.6183 -0.0460
  403MPD2    H3 6077   2.874   3.229  13.023 -1.3314 -0.5721 -0.5812
  403MPD2     N 6078   2.936   3.292  13.460  1.1237  0.8684  0.7041
  403MPD2    H5 6079   2.884   3.287  13.547 -1.9921 -0.8142 -1.2839
  403MPD2    N1 6080   2.499   3.185  13.270 -0.1992 -0.3056  1.0417
  403MPD2    H7 6081   2.452   3.155  13.185 -0.6611 -1.0841  1.5724
  404TMC3    C1 6082   2.299   3.113  13.382  0.6827 -0.0243  0.6367
  404TMC3    C2 6083   2.249   3.077  13.506  0.0987  0.3541  0.7136
  404TMC3    C3 6084   2.194   2.954  13.525 -0.3304 -0.0636  0.6703
  404TMC3    C4 6085   2.283   3.036  13.270  0.5580 -0.3484 -0.8137
  404TMC3    C5 6086   2.220   2.914  13.292  0.3284 -0.5971 -0.2050
  404TMC3    C6 6087   2.191   2.869  13.421  0.4474 -0.2852  0.2479
  404TMC3     C 6088   2.431   3.182  13.389  0.3878 -0.4924 -0.4902
  404TMC3     O 6089   2.468   3.212  13.503 -0.0329  0.2769  0.2381
  404TMC3     H 6090   2.277   3.146  13.585 -1.0160  0.4624  1.0116
  404TMC3    H1 6091   2.327   3.056  13.173 -0.8485  0.9238 -1.1907
  404TMC3    H2 6092   2.160   2.766  13.430  1.9600 -0.8160 -0.7504
  404TMC3    C7 6093   2.184   2.817  13.185  0.4086 -0.6312 -0.7051
  404TMC3    C8 6094   2.233   2.885  13.645  0.3143 -0.5139  0.1154
  404TMC3    O1 6095   2.169   2.696  13.213 -0.3181 -0.0137 -0.1222
  404TMC3    O2 6096   2.260   2.766  13.627  0.0480 -0.0424  0.7751
  405MPD2     C 6097   2.563   4.463  14.870  0.7590 -0.5047 -0.6871
  405MPD2    C1 6098   2.647   4.388  14.792 -0.3325 -0.1092 -0.1779
  405MPD2    C2 6099   2.693   4.444  14.671  0.0609 -0.4419  0.0892
  405MPD2    C3 6100   2.645   4.566  14.626  0.1836  0.4454  0.3180
  405MPD2    C4 6101   2.557   4.639  14.706  0.3054  0.2214 -0.0718
  405MPD2    C5 6102   2.519   4.584  14.826  0.6695 -0.1763 -0.2134
  405MPD2     H 6103   2.774   4.395  14.618 -0.9436 -0.0993 -1.7487
  405MPD2    H1 6104   2.519   4.737  14.679 -1.9527 -0.1522  1.6741
  405MPD2    H2 6105   2.545   4.430  14.972  0.3007  1.1944 -0.2220
  405MPD2    H3 6106   2.467   4.634  14.907 -1.1300 -0.7745 -0.9858
  405MPD2     N 6107   2.663   4.594  14.490  0.5097 -0.3414  0.1955
  405MPD2    H5 6108   2.715   4.517  14.448 -0.6897 -0.4652 -1.0453
  405MPD2    N1 6109   2.692   4.257  14.826  0.3009  0.1574  0.8599
  405MPD2    H7 6110   2.760   4.209  14.768 -0.8031 -1.0624  0.5602
  406TMC3    C1 6111   2.446   4.631  14.087 -1.0679  0.2781  0.3985
  406TMC3    C2 6112   2.495   4.512  14.052  0.7814 -0.3034  0.1403
  406TMC3    C3 6113   2.600   4.465  14.125 -0.1000 -0.2335  0.7611
  406TMC3    C4 6114   2.497   4.705  14.193 -0.5768  0.0031  0.2411
  406TMC3    C5 6115   2.598   4.650  14.274  0.1004 -0.7151 -0.4619
  406TMC3    C6 6116   2.649   4.529  14.239 -0.5151 -0.8799 -1.3002
  406TMC3     C 6117   2.318   4.670  14.049  0.1156  0.1866 -0.8150
  406TMC3     O 6118   2.282   0.047  14.062  0.1537  0.2144 -0.3271
  406TMC3     H 6119   2.471   4.471  13.954 -1.8559  0.0020  0.6530
  406TMC3    H1 6120   2.448   0.057  14.224 -0.3176  0.4018 -0.5307
  406TMC3    H2 6121   2.744   4.488  14.271  0.3691  2.1946 -0.0298
  406TMC3    C7 6122   2.598   4.690  14.415  0.2649  0.1405  0.4081
  406TMC3    C8 6123   2.621   4.324  14.119 -0.4401 -0.6373  0.8872
  406TMC3    O1 6124   2.539   0.049  14.454 -0.5967 -0.4668  0.2389
  406TMC3    O2 6125   2.564   4.270  14.026  0.3088  0.6547 -0.2347
  407MPD2     C 6126   0.249   0.954  10.314 -0.2268  0.1191  0.1646
  407MPD2    C1 6127   0.250   1.024  10.192 -0.8677 -0.3209  0.2052
  407MPD2    C2 6128   0.255   1.159  10.198 -0.5322  0.2985 -0.4058
  407MPD2    C3 6129   0.245   1.226  10.316  0.3285 -0.3659  0.8146
  407MPD2    C4 6130   0.226   1.151  10.437  0.7147  0.6513 -0.0836
  407MPD2    C5 6131   0.227   1.014  10.436  0.1501  0.4780 -0.4732
  407MPD2     H 6132   0.258   1.215  10.104 -2.3617 -1.6900 -1.6316
  407MPD2    H1 6133   0.196   1.210  10.523 -1.5804  2.2383 -1.9622
  407MPD2    H2 6134   0.236   0.846  10.309  0.5844  0.1108 -1.6155
  407MPD2    H3 6135   0.217   0.953  10.525  0.4222  1.7348  0.4190
  407MPD2     N 6136   0.267   1.362  10.332  1.1525  0.4067  0.1160
  407MPD2    H5 6137   0.271   1.405  10.424 -1.0124 -0.0879  0.4535
  407MPD2    N1 6138   0.237   0.960  10.064  0.4255  0.9570 -0.4050
  407MPD2    H7 6139   0.250   1.017   9.981  2.5284 -1.3395 -1.6259
  408TMC3    C1 6140   0.188   0.790   9.909 -0.0842  0.1673 -0.1952
  408TMC3    C2 6141   0.283   0.830   9.828  0.1427  0.6616  0.0039
  408TMC3    C3 6142   0.259   0.812   9.694 -0.1484 -0.5695 -0.2896
  408TMC3    C4 6143   0.069   0.745   9.864 -0.7125 -0.4866 -0.2684
  408TMC3    C5 6144   0.050   0.703   9.737 -0.1604  0.5515  0.6252
  408TMC3    C6 6145   0.150   0.741   9.648 -0.1962 -0.0766  0.2330
  408TMC3     C 6146   0.201   0.824  10.049 -0.7866  0.1288 -0.6287
  408TMC3     O 6147   0.153   0.745  10.129 -0.0013 -0.0213  0.9333
  408TMC3     H 6148   0.383   0.844   9.867  0.5366 -0.8780 -0.4330
  408TMC3    H1 6149   4.726   0.731   9.933  0.9625 -1.3673  1.5555
  408TMC3    H2 6150   0.149   0.714   9.543 -1.8944 -0.3338  0.3206
  408TMC3    C7 6151   4.681   0.617   9.688  0.2426 -0.7583 -0.1997
  408TMC3    C8 6152   0.371   0.858   9.607 -1.0457  0.3489  0.5168
  408TMC3    O1 6153   4.667   0.600   9.570 -0.4150 -0.9537  0.0612
  408TMC3    O2 6154   0.387   0.799   9.498  0.1357  0.2835  0.9035
  409MPD2     C 6155   0.326   1.487  17.184  0.7067 -0.1274  0.1869
  409MPD2    C1 6156   0.427   1.537  17.263 -0.4349 -0.2614  0.3512
  409MPD2    C2 6157   0.488   1.653  17.209 -0.4002 -0.6823  0.2083
  409MPD2    C3 6158   0.470   1.697  17.079  0.1010  0.4697  0.7458
  409MPD2    C4 6159   0.369   1.636  17.007  0.3774  0.5572 -0.2037
  409MPD2    C5 6160   0.290   1.538  17.062  0.1374  0.9845  0.2141
  409MPD2     H 6161   0.562   1.698  17.274  0.1698 -1.6951  0.2593
  409MPD2    H1 6162   0.345   1.670  16.907 -1.8016  1.8308  0.7623
  409MPD2    H2 6163   0.274   1.398  17.217  1.1267 -0.5231 -0.2243
  409MPD2    H3 6164   0.206   1.496  17.008  0.5575  0.3305  0.0724
  409MPD2     N 6165   0.547   1.803  17.013 -0.7811 -0.7355  0.5065
  409MPD2    H5 6166   0.528   1.808  16.914 -1.6130  1.4628  0.7686
  409MPD2    N1 6167   0.470   1.480  17.381  0.4829  0.1877  0.7375
  409MPD2    H7 6168   0.549   1.520  17.431 -1.2543  2.5104  1.6225
  410TMC3    C1 6169   0.709   1.978  17.000 -0.6860 -0.5898  0.1274
  410TMC3    C2 6170   0.833   2.005  17.051 -0.4106 -0.5083 -0.3226
  410TMC3    C3 6171   0.929   2.060  16.966 -0.2436 -0.3504 -0.7215
  410TMC3    C4 6172   0.681   2.012  16.869  0.1082 -0.0933  0.3217
  410TMC3    C5 6173   0.770   2.088  16.803  0.5961  0.3672  0.9451
  410TMC3    C6 6174   0.898   2.104  16.848  0.6797 -0.5207 -0.8945
  410TMC3     C 6175   0.636   1.888  17.084 -0.4329  0.1718  0.5382
  410TMC3     O 6176   0.642   1.903  17.204  0.2830 -0.1164 -0.2553
  410TMC3     H 6177   0.859   1.978  17.152  0.4015  1.1049 -0.1014
  410TMC3    H1 6178   0.576   2.006  16.842 -0.0925  1.7571  0.6919
  410TMC3    H2 6179   0.981   2.119  16.780 -0.2013 -1.3554 -2.1544
  410TMC3    C7 6180   0.743   2.117  16.658  0.1408  0.1409 -0.5405
  410TMC3    C8 6181   1.072   2.037  17.000  0.2271  0.1842 -0.2175
  410TMC3    O1 6182   0.666   2.038  16.609  0.1109 -0.6008 -0.4691
  410TMC3    O2 6183   1.156   2.110  16.945 -0.4339 -0.2074  0.3154
  411MPD2     C 6184   0.584   2.207  13.925  0.0137  0.3928 -0.5837
  411MPD2    C1 6185   0.527   2.220  14.052 -0.5525 -0.5481  0.3413
  411MPD2    C2 6186   0.502   2.103  14.121 -0.4183 -0.1840  0.2088
  411MPD2    C3 6187   0.525   1.978  14.067 -0.8439  0.0161 -0.6926
  411MPD2    C4 6188   0.559   1.973  13.937 -0.2671 -0.5236  0.2181
  411MPD2    C5 6189   0.606   2.081  13.872 -0.0948  0.3393  0.2382
  411MPD2     H 6190   0.454   2.111  14.218 -2.2664 -2.6657 -0.4901
  411MPD2    H1 6191   0.584   1.872  13.906 -0.5521 -0.9121  1.2383
  411MPD2    H2 6192   0.609   2.295  13.867  0.7828 -0.0598 -0.9445
  411MPD2    H3 6193   0.657   2.071  13.777 -1.6831 -0.3878 -0.5362
  411MPD2     N 6194   0.511   1.859  14.134  0.1971 -0.0365 -0.2577
  411MPD2    H5 6195   0.507   1.773  14.080 -2.2528 -0.5475  0.7102
  411MPD2    N1 6196   0.505   2.348  14.092  0.0909  0.1537 -0.5722
  411MPD2    H7 6197   0.494   2.426  14.029 -1.3715 -0.8847 -1.6181
  412TMC3    C1 6198   0.416   1.711  14.291  0.5997  1.2923 -0.2321
  412TMC3    C2 6199   0.301   1.725  14.354 -0.2119 -0.5181  0.2229
  412TMC3    C3 6200   0.189   1.669  14.300 -0.7236 -0.3828  0.0221
  412TMC3    C4 6201   0.430   1.625  14.188  0.2806  0.8139 -0.8593
  412TMC3    C5 6202   0.318   1.583  14.122 -0.3214  0.1150  0.2405
  412TMC3    C6 6203   0.199   1.596  14.185 -0.1945 -0.4581 -0.7159
  412TMC3     C 6204   0.472   1.848  14.270  0.3610  0.2045  0.3764
  412TMC3     O 6205   0.471   1.924  14.364  0.3277  0.5850  0.0081
  412TMC3     H 6206   0.289   1.807  14.424 -3.2891  0.4293 -1.4339
  412TMC3    H1 6207   0.522   1.589  14.142  0.1622  0.1920 -0.6112
  412TMC3    H2 6208   0.109   1.573  14.128 -1.3831  2.5370 -0.0933
  412TMC3    C7 6209   0.320   1.634  13.986  0.0830 -0.6137  0.3889
  412TMC3    C8 6210   0.072   1.759  14.295 -0.8923  0.5047  0.5927
  412TMC3    O1 6211   0.430   1.624  13.932  0.8263 -0.2391  0.2539
  412TMC3    O2 6212   0.027   1.771  14.183  0.1399 -0.2926  0.1842
  413MPD2     C 6213   2.550   0.357  15.605  0.5515 -0.0409  0.7865
  413MPD2    C1 6214   2.505   0.287  15.494 -0.1442 -0.1120 -0.0973
  413MPD2    C2 6215   2.561   0.168  15.456  0.1951 -0.1566 -0.0104
  413MPD2    C3 6216   2.651   0.103  15.536 -0.3402 -0.2972  0.0488
  413MPD2    C4 6217   2.689   0.161  15.656  0.6826  0.1180  0.0160
  413MPD2    C5 6218   2.646   0.293  15.683  0.4085 -0.3803 -0.3523
  413MPD2     H 6219   2.527   0.111  15.370  0.5366 -1.0107  0.4201
  413MPD2    H1 6220   2.763   0.117  15.722 -1.1523 -0.5960  1.5851
  413MPD2    H2 6221   2.519   0.458  15.629  0.5169  0.0286  0.4497
  413MPD2    H3 6222   2.681   0.353  15.766  2.5596  0.6626 -2.0192
  413MPD2     N 6223   2.708   4.721  15.490  0.0113 -0.3214 -0.4173
  413MPD2    H5 6224   2.707   4.685  15.395 -0.5263  1.3789 -1.0629
  413MPD2    N1 6225   2.394   0.345  15.431 -0.4843  0.1983 -0.3700
  413MPD2    H7 6226   2.380   0.442  15.457 -0.9045 -0.1300  0.6498
  414TMC3    C1 6227   2.849   4.538  15.505 -0.2638  0.4328  0.4760
  414TMC3    C2 6228   2.861   4.413  15.543  0.2657 -1.0137 -0.1534
  414TMC3    C3 6229   2.972   4.334  15.511 -0.4498 -0.2230 -0.7860
  414TMC3    C4 6230   2.938   4.593  15.414 -1.1239  0.0092  0.1564
  414TMC3    C5 6231   3.050   4.517  15.386  0.6842  0.1998 -0.1945
  414TMC3    C6 6232   3.067   4.385  15.425 -1.0092  0.3591  0.2050
  414TMC3     C 6233   2.758   4.625  15.576  0.2713  0.1893  1.1215
  414TMC3     O 6234   2.748   4.618  15.691 -0.1151  0.2336  0.6062
  414TMC3     H 6235   2.789   4.380  15.616  0.6308  0.0133  0.6873
  414TMC3    H1 6236   2.946   4.696  15.382 -1.5414 -0.3490 -1.0955
  414TMC3    H2 6237   3.155   4.322  15.413 -0.0099  2.2337 -2.3774
  414TMC3    C7 6238   3.163   4.574  15.320  0.2169 -0.1329 -0.8093
  414TMC3    C8 6239   2.959   4.194  15.543 -0.2412  0.2430  0.0180
  414TMC3    O1 6240   3.157   4.697  15.308 -0.4125  0.0303  0.2317
  414TMC3    O2 6241   2.856   4.153  15.596 -0.1460 -0.4044 -0.7056
  415TMC3    C1 6242   2.956   3.257  10.172 -0.1330  0.1754  0.8215
  415TMC3    C2 6243   2.996   3.296  10.044 -0.0921  0.1569  0.3161
  415TMC3    C3 6244   2.943   3.225   9.945  0.7827  0.2012  0.0506
  415TMC3    C4 6245   2.872   3.150  10.192  0.3023 -0.6108  0.2274
  415TMC3    C5 6246   2.818   3.088  10.086 -0.4703  0.2729 -0.0715
  415TMC3    C6 6247   2.853   3.128   9.961 -0.1724 -0.3752  0.0131
  415TMC3     C 6248   3.002   3.332  10.285 -0.9512  0.7657 -0.3112
  415TMC3     O 6249   2.962   3.276  10.384 -0.2722  0.4200  0.2441
  415TMC3     H 6250   3.036   3.395  10.028  1.5908 -0.5188  0.3119
  415TMC3    H1 6251   2.871   3.096  10.286  0.8767  0.4447  0.8274
  415TMC3    H2 6252   2.807   3.079   9.875 -0.2195 -0.1943 -0.0642
  415TMC3    C7 6253   2.693   3.008  10.101  0.2855  0.3183 -0.0011
  415TMC3    C8 6254   2.977   3.255   9.800 -0.2836 -0.4040 -0.8968
  415TMC3    O1 6255   2.641   2.968  10.001  0.1228  0.4443 -0.0864
  415TMC3    O2 6256   2.897   3.233   9.713 -0.1607 -0.3411  0.2561
  416MPD2     C 6257   4.546   1.921  11.583 -0.1645 -0.0040  0.3818
  416MPD2    C1 6258   4.443   1.988  11.523 -0.3259 -0.7149  0.2545
  416MPD2    C2 6259   4.387   1.936  11.408  0.7110  0.3695  0.2995
  416MPD2    C3 6260   4.421   1.810  11.371 -0.2093  0.0417 -0.7039
  416MPD2    C4 6261   4.528   1.745  11.426  0.0280 -0.7011 -0.5939
  416MPD2    C5 6262   4.592   1.803  11.525  0.9897  0.3140 -0.4271
  416MPD2     H 6263   4.299   1.985  11.368 -0.1755 -0.8395  0.7911
  416MPD2    H1 6264   4.560   1.644  11.405 -0.7149 -0.9675 -0.4575
  416MPD2    H2 6265   4.609   1.968  11.657 -0.5773  1.0055  0.0987
  416MPD2    H3 6266   4.674   1.752  11.574 -0.6192 -0.9045  0.9911
  416MPD2     N 6267   4.345   1.733  11.280  0.0797 -0.1328  0.1353
  416MPD2    H5 6268   4.376   1.638  11.259  0.3252  1.1390 -5.1022
  416MPD2    N1 6269   4.397   2.114  11.577 -0.0200 -0.1267  0.6165
  416MPD2    H7 6270   4.439   2.146  11.664  2.5152 -1.0480 -0.2711
  417TMC3    C1 6271   4.242   2.290  11.620  0.9411 -0.2190 -0.1737
  417TMC3    C2 6272   4.191   2.241  11.741 -0.0222  0.3136 -0.1446
  417TMC3    C3 6273   4.112   2.323  11.814 -0.5428  0.2419 -0.1829
  417TMC3    C4 6274   4.194   2.407  11.560 -0.3477  0.1475  0.8770
  417TMC3    C5 6275   4.084   2.456  11.623 -0.5362  0.0391  0.3081
  417TMC3    C6 6276   4.044   2.429  11.750  0.0338  0.4572 -0.8234
  417TMC3     C 6277   4.293   2.194  11.529  0.7339 -0.1185  0.0366
  417TMC3     O 6278   4.245   2.204  11.412  0.0794 -0.5672 -0.0226
  417TMC3     H 6279   4.236   2.151  11.780  0.0584 -0.0644 -1.0962
  417TMC3    H1 6280   4.210   2.430  11.456  0.1858  0.3958  1.0182
  417TMC3    H2 6281   3.967   2.490  11.796 -1.8979 -1.5520 -1.3724
  417TMC3    C7 6282   3.981   2.524  11.547  0.5546  0.4664  0.1024
  417TMC3    C8 6283   4.112   2.317  11.957 -0.2770 -0.8224  0.7224
  417TMC3    O1 6284   4.027   2.586  11.452  0.6501 -0.0659 -0.0051
  417TMC3    O2 6285   4.027   2.384  12.013 -0.3735 -0.0658 -0.1283
  418TMC3    C1 6286   3.615   4.153  17.685 -0.3420 -0.5845 -0.4320
  418TMC3    C2 6287   3.482   4.164  17.694  0.0607  0.1097 -0.2990
  418TMC3    C3 6288   3.408   4.086   0.026 -0.5209  0.2879 -0.4002
  418TMC3    C4 6289   3.685   4.062   0.009  0.2017  0.4230 -0.0322
  418TMC3    C5 6290   3.612   3.985   0.096  1.0740 -0.3830 -0.0013
  418TMC3    C6 6291   3.476   3.993   0.103 -0.1672 -0.3116 -0.3361
  418TMC3     C 6292   3.658   4.158  17.548 -0.3760 -0.6230 -0.4031
  418TMC3     O 6293   3.648   4.269  17.494 -0.4869  0.4695  0.2872
  418TMC3     H 6294   3.431   4.225  17.620 -0.7400  0.9483  0.9396
  418TMC3    H1 6295   3.793   4.055   0.007  0.1268 -0.6704  0.1372
  418TMC3    H2 6296   3.420   3.940   0.179  0.7882 -1.0885 -0.1861
  418TMC3    C7 6297   3.670   3.882   0.180  0.2656 -0.1823 -0.0655
  418TMC3    C8 6298   3.263   4.074   0.014 -0.9150  0.4369 -0.3510
  418TMC3    O1 6299   3.600   3.787   0.208 -0.4952  0.7741  0.1286
  418TMC3    O2 6300   3.197   4.176  17.742  0.2593 -0.3950 -0.9685
  419MPD2     C 6301   1.996   2.139  12.246 -0.6162 -0.4389 -0.8794
  419MPD2    C1 6302   1.881   2.221  12.224  0.4725  0.6990 -0.0619
  419MPD2    C2 6303   1.788   2.226  12.324  0.1277  0.1463  0.7212
  419MPD2    C3 6304   1.813   2.154  12.441 -0.1037 -0.6058 -0.5147
  419MPD2    C4 6305   1.918   2.079  12.461 -0.0549 -0.0097 -0.1103
  419MPD2    C5 6306   2.012   2.069  12.360 -0.2579 -0.0437  0.1489
  419MPD2     H 6307   1.702   2.292  12.320 -0.8884 -1.3907 -2.1743
  419MPD2    H1 6308   1.936   2.023  12.552  2.7757  1.1757  0.0391
  419MPD2    H2 6309   2.064   2.120  12.163 -0.6379 -0.9984 -0.7661
  419MPD2    H3 6310   2.098   2.003  12.367  0.5811  1.0869  0.3831
  419MPD2     N 6311   1.733   2.187  12.553  0.2323  0.0221  0.2894
  419MPD2    H5 6312   1.665   2.261  12.539  1.3729  0.7082 -1.5729
  419MPD2    N1 6313   1.863   2.297  12.107  0.5023 -0.4579  0.1020
  419MPD2    H7 6314   1.779   2.350  12.086  0.1781  0.3296  3.3882
  420TMC3    C1 6315   1.638   2.204  12.768  0.0632 -0.4149  0.4520
  420TMC3    C2 6316   1.521   2.253  12.724 -0.5073 -0.2933  0.1626
  420TMC3    C3 6317   1.438   2.298  12.824 -0.0190  0.9214 -0.4271
  420TMC3    C4 6318   1.673   2.198  12.899 -0.2315 -0.0379 -0.2416
  420TMC3    C5 6319   1.587   2.242  12.993 -0.7363  0.3239  0.3294
  420TMC3    C6 6320   1.468   2.305  12.960 -0.2661  0.3056  0.2964
  420TMC3     C 6321   1.727   2.130  12.678 -0.0544  0.4856  0.0066
  420TMC3     O 6322   1.807   2.039  12.718  0.5992  0.2608  0.6049
  420TMC3     H 6323   1.494   2.267  12.620  0.0589  2.0389  0.3263
  420TMC3    H1 6324   1.770   2.161  12.930 -0.5382  0.5629  1.4308
  420TMC3    H2 6325   1.392   2.332  13.034  0.4740 -2.2483  1.9754
  420TMC3    C7 6326   1.629   2.237  13.126  0.5516 -0.0607  0.0453
  420TMC3    C8 6327   1.336   2.401  12.776 -0.5213  0.5881 -0.2513
  420TMC3    O1 6328   1.693   2.137  13.161  0.6544 -0.0701  0.2374
  420TMC3    O2 6329   1.307   2.499  12.843 -0.4703 -0.5085 -0.0190
  421TMC3    C1 6330   3.107   3.337  13.612 -0.1297  1.3264 -0.3323
  421TMC3    C2 6331   3.024   3.410  13.689 -0.5154 -0.6972 -0.0611
  421TMC3    C3 6332   3.019   3.381  13.825  0.6368 -0.4936  0.0193
  421TMC3    C4 6333   3.207   3.251  13.659 -0.9684 -0.9618 -0.0419
  421TMC3    C5 6334   3.196   3.231  13.792 -0.4100  0.5734 -0.4810
  421TMC3    C6 6335   3.110   3.299  13.875  0.2947 -0.7702 -0.2136
  421TMC3     C 6336   3.067   3.320  13.472  0.0113 -0.2146  0.2099
  421TMC3     O 6337   3.157   3.294  13.393 -0.0688  0.0937  0.5559
  421TMC3     H 6338   2.959   3.478  13.635  0.6265  0.5910  0.1881
  421TMC3    H1 6339   3.269   3.200  13.586 -0.8803 -0.7401 -0.1218
  421TMC3    H2 6340   3.108   3.268  13.978  0.3646 -1.2428 -0.3576
  421TMC3    C7 6341   3.318   3.182  13.847 -0.2025  0.3529  0.4232
  421TMC3    C8 6342   2.995   3.490  13.920  0.8541  0.7510 -0.4989
  421TMC3    O1 6343   3.415   3.208  13.777  0.0940 -0.1835 -0.2905
  421TMC3    O2 6344   3.069   3.497  14.013  0.8084 -0.3349  0.1158
  422TMC3    C1 6345   0.656   0.309  12.455  0.5005  0.7112 -0.3868
  422TMC3    C2 6346   0.638   0.412  12.537  0.1819  0.1800  0.1160
  422TMC3    C3 6347   0.513   0.434  12.587 -0.6919 -1.0550 -0.4403
  422TMC3    C4 6348   0.552   0.224  12.421  0.2044 -0.2845 -0.2380
  422TMC3    C5 6349   0.430   0.253  12.472 -0.5000  0.5443  0.7238
  422TMC3    C6 6350   0.404   0.357  12.556  0.6129  0.3375  0.1363
  422TMC3     C 6351   0.789   0.291  12.395 -0.4611  0.2024  0.4651
  422TMC3     O 6352   0.863   0.389  12.390 -0.4356  0.3204  0.2357
  422TMC3     H 6353   0.720   0.481  12.554 -0.0191  0.2217  0.9266
  422TMC3    H1 6354   0.568   0.137  12.357 -0.5728 -0.7985  0.2707
  422TMC3    H2 6355   0.304   0.391  12.576  1.8002  2.5752  2.2712
  422TMC3    C7 6356   0.321   0.175  12.424 -0.0679  0.6416 -0.3177
  422TMC3    C8 6357   0.501   0.556  12.671  0.0895  0.1195  0.0683
  422TMC3    O1 6358   0.337   0.113  12.320  0.3501 -0.0956 -0.1573
  422TMC3    O2 6359   0.598   0.585  12.739 -0.4715 -0.1956  0.3013
  423MPD2     C 6360   1.767   1.109   0.383 -0.6423 -0.5519 -0.3072
  423MPD2    C1 6361   1.837   1.004   0.446  0.0442 -0.1291  0.6496
  423MPD2    C2 6362   1.933   0.941   0.369  0.1168  0.0289 -0.0352
  423MPD2    C3 6363   1.940   0.959   0.231  0.0122 -1.0043 -0.5377
  423MPD2    C4 6364   1.866   1.055   0.175 -0.4915 -1.0244 -0.2092
  423MPD2    C5 6365   1.790   1.137   0.252 -0.4526 -0.0763 -0.2346
  423MPD2     H 6366   1.994   0.874   0.429 -2.2698 -1.5215  0.6785
  423MPD2    H1 6367   1.866   1.063   0.067 -2.6413  0.1533 -0.1340
  423MPD2    H2 6368   1.708   1.183   0.437  1.1362 -1.2175  2.5661
  423MPD2    H3 6369   1.738   1.213   0.195  1.0403  0.8369 -0.3880
  423MPD2     N 6370   2.030   0.882   0.154  0.5374 -0.0314  0.3849
  423MPD2    H5 6371   2.038   0.904   0.055  1.2172  0.8002  0.6233
  423MPD2    N1 6372   1.831   0.979   0.583 -0.3079 -0.6717 -0.0806
  423MPD2    H7 6373   1.904   0.927   0.629  1.4212  0.5276 -1.4920
  424TMC3    C1 6374   1.727   0.966   0.798  0.4213  0.3489  0.3744
  424TMC3    C2 6375   1.845   0.936   0.853 -0.2849  0.8955  0.6390
  424TMC3    C3 6376   1.839   0.890   0.983  0.6567  0.1761  0.2457
  424TMC3    C4 6377   1.615   0.978   0.877  0.4068 -1.1051  0.1308
  424TMC3    C5 6378   1.617   0.950   1.004 -0.3196 -0.4763  0.5100
  424TMC3    C6 6379   1.724   0.891   1.061  0.1378  0.5965 -0.0049
  424TMC3     C 6380   1.720   1.010   0.660 -0.9942  0.2672 -0.2749
  424TMC3     O 6381   1.622   1.076   0.634 -0.1916  0.1248 -1.1360
  424TMC3     H 6382   1.934   0.927   0.791 -0.0635  0.5851  0.9983
  424TMC3    H1 6383   1.520   0.996   0.828  1.2887 -0.3558 -1.3068
  424TMC3    H2 6384   1.727   0.841   1.158  0.2977 -0.7686 -0.7143
  424TMC3    C7 6385   1.499   0.948   1.089  0.6060  0.3843 -0.3822
  424TMC3    C8 6386   1.960   0.838   1.034  0.9158 -0.7631  0.4677
  424TMC3    O1 6387   1.488   0.874   1.177 -0.0712 -0.5278  0.5880
  424TMC3    O2 6388   1.946   0.769   1.133  0.1139  0.1587 -0.3895
  425MPD2     C 6389   1.014   0.464  17.281  0.2527 -0.5036 -0.3307
  425MPD2    C1 6390   0.932   0.441  17.170 -0.5220  0.1075 -0.3460
  425MPD2    C2 6391   0.819   0.522  17.158 -0.6328  0.0113 -0.2084
  425MPD2    C3 6392   0.782   0.616  17.249  0.4901 -0.6472 -0.1650
  425MPD2    C4 6393   0.874   0.645  17.351 -0.3577 -0.2495 -0.0169
  425MPD2    C5 6394   0.991   0.573  17.362  0.4143 -0.4431  0.5190
  425MPD2     H 6395   0.758   0.509  17.070  0.2205 -4.3696 -0.1410
  425MPD2    H1 6396   0.860   0.716  17.431  1.6023  2.1993 -1.8408
  425MPD2    H2 6397   1.107   0.411  17.297  0.8547  0.7603  0.3729
  425MPD2    H3 6398   1.064   0.609  17.433 -0.9587 -0.4356  1.9124
  425MPD2     N 6399   0.652   0.669  17.228 -0.0241  0.0960  0.2917
  425MPD2    H5 6400   0.603   0.640  17.144 -0.1731 -0.3408  0.5324
  425MPD2    N1 6401   0.968   0.339  17.076  0.4715 -0.5175 -0.2162
  425MPD2    H7 6402   1.050   0.285  17.101 -0.1534 -0.6707  1.4339
  426TMC3    C1 6403   0.979   0.214  16.873  0.0592  0.0922  0.0888
  426TMC3    C2 6404   0.965   0.228  16.733 -0.0571  0.5473 -0.0868
  426TMC3    C3 6405   1.040   0.144  16.656 -0.4881 -0.3934 -0.0720
  426TMC3    C4 6406   1.065   0.133  16.935 -0.3288  0.6646  0.0511
  426TMC3    C5 6407   1.139   0.053  16.854 -0.2656  0.4800  0.3166
  426TMC3    C6 6408   1.134   0.068  16.717 -0.3754 -0.0921  1.0093
  426TMC3     C 6409   0.915   0.323  16.951  0.7072  0.1032 -0.2707
  426TMC3     O 6410   0.840   0.397  16.887 -0.2201 -0.4004 -0.1104
  426TMC3     H 6411   0.892   0.296  16.689 -1.3065 -0.9689 -0.3720
  426TMC3    H1 6412   1.082   0.136  17.042 -0.2025 -2.4086  0.1180
  426TMC3    H2 6413   1.204   0.008  16.661 -1.6309 -0.6764  0.0751
  426TMC3    C7 6414   1.207   4.672  16.902 -0.2619 -0.0566  0.0925
  426TMC3    C8 6415   0.995   0.092  16.537 -0.3133 -0.1849 -0.3560
  426TMC3    O1 6416   1.276   4.601  16.826 -0.4439 -0.2367  0.6847
  426TMC3    O2 6417   1.075   0.049  16.460 -0.0663  0.1838 -0.2582
  427MPD2     C 6418   4.504   2.724  15.216 -0.4831 -0.2474 -0.0763
  427MPD2    C1 6419   4.459   2.596  15.207 -0.2113  0.0052  0.2747
  427MPD2    C2 6420   4.323   2.576  15.172 -0.3540  0.0657 -0.1353
  427MPD2    C3 6421   4.230   2.679  15.160  0.3396  0.1031  0.2965
  427MPD2    C4 6422   4.279   2.806  15.164 -0.2982  0.1043  0.1333
  427MPD2    C5 6423   4.411   2.823  15.196 -0.7028 -0.2955 -1.2531
  427MPD2     H 6424   4.300   2.471  15.159  1.4821 -0.1590 -1.4433
  427MPD2    H1 6425   4.220   2.893  15.138 -2.1288 -1.4049 -0.6976
  427MPD2    H2 6426   4.605   2.744  15.249  0.3198 -3.7384 -0.4483
  427MPD2    H3 6427   4.451   2.924  15.198  1.0060 -1.0740  2.6787
  427MPD2     N 6428   4.095   2.660  15.125  0.1776  0.6235 -0.2863
  427MPD2    H5 6429   4.042   2.746  15.113 -1.9734 -0.2683  2.9686
  427MPD2    N1 6430   4.558   2.496  15.206  0.6552 -0.3783  0.4898
  427MPD2    H7 6431   4.652   2.522  15.235  0.1696 -0.6618  2.3016
  428TMC3    C1 6432   4.659   2.271  15.187 -0.5071  0.1539  0.5399
  428TMC3    C2 6433   4.636   2.137  15.207  0.3914  1.3179 -0.6787
  428TMC3    C3 6434   0.010   2.057  15.220 -0.5113 -0.0273 -0.4848
  428TMC3    C4 6435   0.046   2.317  15.176 -0.0050  0.7439 -0.2083
  428TMC3    C5 6436   0.155   2.237  15.190  0.2841 -0.5133 -0.4224
  428TMC3    C6 6437   0.138   2.104  15.213 -0.7795 -0.2971 -0.0914
  428TMC3     C 6438   4.544   2.365  15.170 -0.3520  0.5729 -0.6334
  428TMC3     O 6439   4.452   2.307  15.121  0.3411  0.3224 -0.0630
  428TMC3     H 6440   4.538   2.102  15.235  0.9924 -0.6826 -1.1020
  428TMC3    H1 6441   0.066   2.414  15.131 -2.3692  2.5326  2.6612
  428TMC3    H2 6442   0.224   2.039  15.201 -1.4479 -1.6913  2.6855
  428TMC3    C7 6443   0.276   2.254  15.110 -0.4087 -0.1362 -0.3078
  428TMC3    C8 6444   0.006   1.912  15.224  0.1241  0.3327  0.0610
  428TMC3    O1 6445   0.375   2.236  15.183 -0.0284  0.4775  0.5981
  428TMC3    O2 6446   0.071   1.851  15.307 -0.5838 -0.5033 -0.1875
  429MPD2     C 6447   1.264   2.678  17.749 -0.6950 -0.1990  0.6748
  429MPD2    C1 6448   1.297   2.575  17.662  0.1427  0.5258 -0.2859
  429MPD2    C2 6449   1.360   2.614  17.544 -0.0583  0.2397 -0.6312
  429MPD2    C3 6450   1.407   2.738  17.526  0.7653  0.4798 -0.1485
  429MPD2    C4 6451   1.379   2.836  17.628  0.2172  0.2797  0.5223
  429MPD2    C5 6452   1.301   2.807  17.738 -0.0025  0.2970  1.0103
  429MPD2     H 6453   1.382   2.535  17.474 -2.3373 -1.9538  1.1506
  429MPD2    H1 6454   1.411   2.938  17.609 -0.3994  0.3681 -0.0518
  429MPD2    H2 6455   1.219   2.645   0.087 -0.7492  0.5059  0.8937
  429MPD2    H3 6456   1.263   2.884   0.049  0.3778 -1.0914  2.8383
  429MPD2     N 6457   1.469   2.767  17.405 -0.0736  0.3209 -0.4452
  429MPD2    H5 6458   1.477   2.685  17.345 -0.8183  0.2522 -0.4532
  429MPD2    N1 6459   1.260   2.441  17.678 -0.8934  0.1200 -0.2387
  429MPD2    H7 6460   1.296   2.381  17.605 -1.2286  0.4152 -0.6464
  430TMC3    C1 6461   1.580   2.890  17.237 -0.5106  0.2038  0.2064
  430TMC3    C2 6462   1.569   2.991  17.148  0.0779  0.0010  0.3251
  430TMC3    C3 6463   1.618   2.973  17.024  0.2748  0.0244 -0.0944
  430TMC3    C4 6464   1.659   2.786  17.218 -0.4442  0.5427  0.2779
  430TMC3    C5 6465   1.713   2.776  17.097 -0.1036  0.2438  0.0420
  430TMC3    C6 6466   1.691   2.865  16.998  0.4742  0.7308  1.1075
  430TMC3     C 6467   1.497   2.892  17.352  1.2990  0.7407  0.3634
  430TMC3     O 6468   1.476   3.003  17.404  0.2060  0.2385 -0.5494
  430TMC3     H 6469   1.505   3.070  17.186 -0.8264 -1.2094  1.3245
  430TMC3    H1 6470   1.671   2.714  17.298  0.2653  0.0442 -0.2731
  430TMC3    H2 6471   1.749   2.850  16.907 -0.8631 -0.8404  0.5255
  430TMC3    C7 6472   1.677   2.643  17.039 -0.0009 -0.1041  0.8484
  430TMC3    C8 6473   1.531   3.018  16.911  0.4788 -0.0083  0.3675
  430TMC3    O1 6474   1.675   2.544  17.111 -0.3539 -0.2564  0.1679
  430TMC3    O2 6475   1.551   2.956  16.802 -0.0359  0.3240 -0.2718
  431MPD2     C 6476   1.389   2.620  12.250  0.3579 -0.4162  0.6480
  431MPD2    C1 6477   1.489   2.689  12.176  0.2962 -0.6417  0.5102
  431MPD2    C2 6478   1.512   2.640  12.050 -0.0625  0.6939  0.4168
  431MPD2    C3 6479   1.452   2.523  12.000 -0.1123  0.1059 -0.1488
  431MPD2    C4 6480   1.377   2.447  12.085 -0.1387  0.3678  0.8804
  431MPD2    C5 6481   1.338   2.495  12.207 -0.0953  0.5565  0.1261
  431MPD2     H 6482   1.591   2.691  11.997  0.9005 -2.5527 -1.2925
  431MPD2    H1 6483   1.334   2.351  12.057 -0.0430  0.0665  1.7562
  431MPD2    H2 6484   1.357   2.660  12.346  0.8335 -0.5052  0.8423
  431MPD2    H3 6485   1.266   2.432  12.259  1.2949 -0.6479  0.5925
  431MPD2     N 6486   1.503   2.465  11.885 -0.8159  0.0684 -0.3527
  431MPD2    H5 6487   1.495   2.364  11.875  0.7883 -0.0271 -0.7382
  431MPD2    N1 6488   1.558   2.806  12.224 -0.1834 -0.6084 -0.1615
  431MPD2    H7 6489   1.615   2.855  12.156 -0.6328  0.2623  0.0993
  432TMC3    C1 6490   1.708   2.487  11.790  0.3191 -0.3911  0.9238
  432TMC3    C2 6491   1.794   2.567  11.720 -0.1056  0.7726 -0.4126
  432TMC3    C3 6492   1.925   2.560  11.754  0.2792 -0.8453  0.0162
  432TMC3    C4 6493   1.755   2.394  11.877 -0.2787 -0.1585  1.1117
  432TMC3    C5 6494   1.891   2.375  11.893  0.6231 -0.1875 -0.6944
  432TMC3    C6 6495   1.976   2.476  11.847  0.0466  0.7961  0.0664
  432TMC3     C 6496   1.573   2.539  11.801  0.4436  0.3131  0.7103
  432TMC3     O 6497   1.547   2.651  11.771 -0.2497 -0.2447  0.4037
  432TMC3     H 6498   1.751   2.638  11.649 -1.3936 -0.0419 -0.4567
  432TMC3    H1 6499   1.684   2.321  11.916 -0.6450  0.5904  1.8380
  432TMC3    H2 6500   2.080   2.464  11.875  0.3647 -1.7879 -2.1498
  432TMC3    C7 6501   1.945   2.296  12.000 -0.8139  0.3015 -0.2712
  432TMC3    C8 6502   1.997   2.685  11.734 -0.3257  0.8898  0.3465
  432TMC3    O1 6503   2.064   2.261  11.991 -0.0087  0.8005 -0.6747
  432TMC3    O2 6504   1.927   2.772  11.693  0.8282 -0.4554  0.4769
  433MPD2     C 6505   0.435   1.399  10.669 -0.5754  0.1036  0.6424
  433MPD2    C1 6506   0.497   1.303  10.749  0.3377  0.7725 -0.1735
  433MPD2    C2 6507   0.516   1.330  10.884  0.1069  0.1927  0.1131
  433MPD2    C3 6508   0.483   1.459  10.935 -0.2405 -0.3108  0.6508
  433MPD2    C4 6509   0.419   1.556  10.859 -0.8508 -0.6899  0.3743
  433MPD2    C5 6510   0.400   1.522  10.725  0.6940 -0.0434 -0.1640
  433MPD2     H 6511   0.576   1.262  10.943  1.2354  1.0242 -0.0824
  433MPD2    H1 6512   0.384   1.651  10.898 -2.1391 -1.5470  1.2720
  433MPD2    H2 6513   0.422   1.388  10.562 -0.2159 -0.4548  0.6546
  433MPD2    H3 6514   0.355   1.590  10.653 -1.0650 -2.6187 -1.5097
  433MPD2     N 6515   0.521   1.482  11.067 -0.3895 -0.5008  0.1314
  433MPD2    H5 6516   0.576   1.410  11.112 -1.4001 -2.5792 -1.9524
  433MPD2    N1 6517   0.552   1.186  10.696  0.1088 -0.3598 -0.8020
  433MPD2    H7 6518   0.572   1.118  10.768  2.9030 -0.3994 -1.6004
  434TMC3    C1 6519   0.593   1.000  10.552  0.0318  0.0562 -0.1823
  434TMC3    C2 6520   0.663   0.939  10.655 -0.1195 -0.5874  0.3104
  434TMC3    C3 6521   0.700   0.808  10.642 -0.4181  0.0585  0.0393
  434TMC3    C4 6522   0.557   0.923  10.448 -0.4952  0.4917 -0.6340
  434TMC3    C5 6523   0.592   0.789  10.444 -0.2700 -0.2007  0.1299
  434TMC3    C6 6524   0.664   0.725  10.538 -0.4228  0.1787  0.0039
  434TMC3     C 6525   0.548   1.143  10.563 -0.5272  0.4814  0.0753
  434TMC3     O 6526   0.533   1.216  10.460 -0.6268 -0.5277 -0.3414
  434TMC3     H 6527   0.692   0.995  10.743  3.2767 -1.0427 -0.4938
  434TMC3    H1 6528   0.484   0.951  10.373  0.5711  1.8616 -1.1683
  434TMC3    H2 6529   0.689   0.620  10.528 -0.7835  0.0886  0.0419
  434TMC3    C7 6530   0.511   0.704  10.358  0.3036  0.3289 -0.0393
  434TMC3    C8 6531   0.782   0.759  10.755  0.2877 -0.8593  0.4303
  434TMC3    O1 6532   0.480   0.747  10.251 -0.0326  0.0808  0.5492
  434TMC3    O2 6533   0.839   0.846  10.820 -0.2882  0.5708  0.0224
  435MPD2     C 6534   2.823   1.439  15.327  0.1075  0.4731 -0.4726
  435MPD2    C1 6535   2.748   1.448  15.442 -0.1138 -0.1367  0.5147
  435MPD2    C2 6536   2.815   1.408  15.558  0.3133 -0.4152 -0.2934
  435MPD2    C3 6537   2.931   1.332  15.558  0.0224 -0.0308 -0.0373
  435MPD2    C4 6538   2.988   1.302  15.436 -0.1367 -0.7993 -0.4772
  435MPD2    C5 6539   2.938   1.361  15.324 -0.0413 -0.0933 -0.3507
  435MPD2     H 6540   2.776   1.427  15.658  1.5404  1.0153 -0.0888
  435MPD2    H1 6541   3.075   1.238  15.422 -0.6703 -1.7995  0.6779
  435MPD2    H2 6542   2.786   1.480  15.234  0.0159  0.4750 -0.4361
  435MPD2    H3 6543   2.991   1.351  15.230  2.4024 -1.4735  1.1478
  435MPD2     N 6544   2.979   1.279  15.683  0.4891 -0.3769  0.6379
  435MPD2    H5 6545   2.931   1.307  15.768 -1.0835 -2.5199  0.4633
  435MPD2    N1 6546   2.615   1.508  15.454 -0.2455 -0.2932  0.3100
  435MPD2    H7 6547   2.564   1.484  15.539 -1.7841 -0.5428 -0.6944
  436TMC3    C1 6548   2.331   1.660  15.637 -0.4996  0.7427 -0.0715
  436TMC3    C2 6549   2.441   1.666  15.559  0.5264 -0.3742 -0.0916
  436TMC3    C3 6550   2.436   1.642  15.425 -1.1480 -0.2285 -0.4542
  436TMC3    C4 6551   2.204   1.640  15.574 -0.5836 -0.4221  0.0690
  436TMC3    C5 6552   2.200   1.619  15.440  0.4615  0.3711  0.1020
  436TMC3    C6 6553   2.312   1.616  15.365  0.1765  0.6548 -0.0779
  436TMC3     C 6554   2.349   1.701  15.764  0.2720 -0.0845 -0.2444
  436TMC3     O 6555   2.465   1.725  15.796  0.2572  0.1582  0.2551
  436TMC3     H 6556   2.542   1.684  15.595  0.8511 -1.0764 -0.6475
  436TMC3    H1 6557   2.114   1.661  15.632 -0.2991 -4.3624  1.9537
  436TMC3    H2 6558   2.314   1.601  15.257  0.7639  0.8710 -0.0966
  436TMC3    C7 6559   2.075   1.611  15.376  0.0589 -0.3084 -0.4748
  436TMC3    C8 6560   2.555   1.588  15.365 -0.0582 -0.3168  0.6776
  436TMC3    O1 6561   2.076   1.618  15.253  0.2351 -0.4488 -0.2632
  436TMC3    O2 6562   2.591   1.622  15.255 -0.2367 -0.0807 -0.0798
  437TMC3    C1 6563   1.183   3.918  12.218 -0.0752 -0.9686 -0.2260
  437TMC3    C2 6564   1.259   3.934  12.105  0.1025 -0.0430  0.0187
  437TMC3    C3 6565   1.366   3.855  12.097  0.3688  0.4104  0.5066
  437TMC3    C4 6566   1.203   3.822  12.314  0.2153  0.8786 -0.1553
  437TMC3    C5 6567   1.309   3.741  12.292  0.6960 -0.4674  0.2067
  437TMC3    C6 6568   1.394   3.757  12.189 -0.0642 -0.3252  0.0040
  437TMC3     C 6569   1.053   3.982  12.227 -0.5634  0.5339  0.7463
  437TMC3     O 6570   0.956   3.914  12.191 -0.2880 -0.3254  0.2585
  437TMC3     H 6571   1.225   4.003  12.028  0.9086  0.2151 -0.1110
  437TMC3    H1 6572   1.132   3.795  12.391 -1.4532 -0.0343 -1.9865
  437TMC3    H2 6573   1.486   3.701  12.180 -0.8254 -1.4193 -0.9478
  437TMC3    C7 6574   1.314   3.618  12.358  0.2463  0.3790  0.5948
  437TMC3    C8 6575   1.448   3.896  11.985  0.0079  0.5106  0.3993
  437TMC3    O1 6576   1.208   3.564  12.394 -0.6006 -0.0391  0.1017
  437TMC3    O2 6577   1.449   4.006  11.927 -0.2260  0.0073  0.1631
  438MPD2     C 6578   3.402   4.167  16.421  0.0446 -0.5768 -0.5367
  438MPD2    C1 6579   3.472   4.057  16.480  0.1827 -0.2209 -0.4331
  438MPD2    C2 6580   3.457   4.040  16.619  0.1093  0.1367 -0.1813
  438MPD2    C3 6581   3.370   4.118  16.692  0.2732  0.2491 -0.7030
  438MPD2    C4 6582   3.294   4.219  16.639 -0.1997 -0.7998  0.3244
  438MPD2    C5 6583   3.319   4.246  16.507  0.4763  0.7032  0.7824
  438MPD2     H 6584   3.538   3.982  16.662  0.0793  1.2907  1.4409
  438MPD2    H1 6585   3.223   4.274  16.701 -0.9370 -0.3679 -0.8941
  438MPD2    H2 6586   3.417   4.187  16.316  0.2114 -0.8600 -0.5676
  438MPD2    H3 6587   3.263   4.323  16.456  2.4134  1.3513 -0.3679
  438MPD2     N 6588   3.340   4.078  16.830  0.2399  0.7093 -1.1427
  438MPD2    H5 6589   3.261   4.128  16.870  1.1165  2.3539 -1.4658
  438MPD2    N1 6590   3.562   3.973  16.415  0.5779  0.3031  0.0366
  438MPD2    H7 6591   3.607   3.908  16.480 -1.6241 -2.2720 -1.0382
  439TMC3    C1 6592   3.696   3.886  16.242 -0.6253 -0.0602 -0.3003
  439TMC3    C2 6593   3.710   3.844  16.112  0.4725 -0.1066 -0.2162
  439TMC3    C3 6594   3.802   3.747  16.082  0.4069  0.4689 -0.2823
  439TMC3    C4 6595   3.767   3.820  16.347 -0.2396  0.2150 -0.9081
  439TMC3    C5 6596   3.850   3.714  16.312  0.5289 -0.3646 -0.1559
  439TMC3    C6 6597   3.862   3.676  16.185 -0.1036 -0.1019  1.1051
  439TMC3     C 6598   3.580   3.964  16.285  0.1707  0.0831  1.0619
  439TMC3     O 6599   3.531   4.022  16.190 -0.7300  0.1003 -0.1309
  439TMC3     H 6600   3.663   3.901  16.033  3.0017  0.0814 -1.6007
  439TMC3    H1 6601   3.753   3.842  16.452  0.1126 -0.2744 -0.7591
  439TMC3    H2 6602   3.951   3.619  16.162  0.4726  1.5024 -0.6505
  439TMC3    C7 6603   3.943   3.655  16.408  0.1463 -0.0938 -0.5082
  439TMC3    C8 6604   3.845   3.736  15.946  0.4926  0.3712 -0.2846
  439TMC3    O1 6605   3.981   3.729  16.497 -0.7914  0.6783 -0.1676
  439TMC3    O2 6606   3.885   3.622  15.921  0.2731 -0.5471 -0.7678
  440MPD2     C 6607   2.033   3.888  15.066  0.5296 -0.0722 -0.2859
  440MPD2    C1 6608   2.150   3.933  15.122  0.3573 -0.1161 -0.3549
  440MPD2    C2 6609   2.259   3.858  15.151  0.5757 -0.0784 -0.8734
  440MPD2    C3 6610   2.255   3.719  15.119  0.2609  0.6791  0.3654
  440MPD2    C4 6611   2.147   3.673  15.058 -0.2446 -0.0471  0.0939
  440MPD2    C5 6612   2.036   3.760  15.039  0.0817  0.2601 -0.3353
  440MPD2     H 6613   2.342   3.897  15.209  0.1981 -0.3087 -0.1739
  440MPD2    H1 6614   2.135   3.569  15.032  0.2713  0.2862 -1.4514
  440MPD2    H2 6615   1.946   3.947  15.037  0.5146  0.4801  0.8721
  440MPD2    H3 6616   1.942   3.729  14.993  0.1207 -1.2095  0.5487
  440MPD2     N 6617   2.357   3.623  15.152 -0.4763  0.0470 -0.3184
  440MPD2    H5 6618   2.339   3.523  15.145 -2.2755  0.4559 -1.3337
  440MPD2    N1 6619   2.158   4.063  15.173  0.2778 -0.1743  0.1900
  440MPD2    H7 6620   2.249   4.089  15.210 -0.6642  0.2866  2.1769
  441TMC3    C1 6621   2.543   3.556  15.279  0.0759 -0.3660 -0.2494
  441TMC3    C2 6622   2.673   3.576  15.308  0.6419 -0.7148  0.3787
  441TMC3    C3 6623   2.728   3.510  15.416  0.6497  0.2639  0.3300
  441TMC3    C4 6624   2.463   3.489  15.366  0.1518  0.4091  0.0848
  441TMC3    C5 6625   2.524   3.426  15.479  0.2255  0.1363  0.4205
  441TMC3    C6 6626   2.660   3.428  15.499  0.0158  0.1654 -0.5258
  441TMC3     C 6627   2.476   3.658  15.206 -0.3410 -0.3959  0.2295
  441TMC3     O 6628   2.533   3.769  15.194 -0.2777  0.1280 -0.2152
  441TMC3     H 6629   2.725   3.646  15.244 -0.3046  0.7401  1.1852
  441TMC3    H1 6630   2.355   3.490  15.371  0.2518  2.1528  1.7009
  441TMC3    H2 6631   2.702   3.388  15.590  2.2690 -1.4024 -2.2533
  441TMC3    C7 6632   2.464   3.454  15.606  0.3159 -0.3550 -0.4377
  441TMC3    C8 6633   2.848   3.564  15.476 -0.1267 -0.6011 -1.1972
  441TMC3    O1 6634   2.389   3.549  15.609  0.7592 -0.6941  0.4697
  441TMC3    O2 6635   2.917   3.493  15.547  0.0383 -0.6096 -0.4166
  442MPD2     C 6636   0.607   0.408  16.259  0.2054 -0.1962  0.0937
  442MPD2    C1 6637   0.478   0.357  16.231  0.4311  0.1391  1.0721
  442MPD2    C2 6638   0.472   0.215  16.224  0.1774  0.2127 -0.1302
  442MPD2    C3 6639   0.581   0.133  16.238  0.0244 -0.0684 -0.1678
  442MPD2    C4 6640   0.707   0.192  16.263  0.3544  0.0130  0.1971
  442MPD2    C5 6641   0.720   0.327  16.271  0.3225  0.1527 -0.8496
  442MPD2     H 6642   0.377   0.176  16.190  0.3604  1.3771 -1.9612
  442MPD2    H1 6643   0.796   0.130  16.264  2.3841  2.8854 -0.3881
  442MPD2    H2 6644   0.616   0.516  16.262  2.3590 -0.4375  2.0797
  442MPD2    H3 6645   0.812   0.377  16.299 -0.4296  1.0262  0.0814
  442MPD2     N 6646   0.575   4.730  16.217 -0.5286 -0.3675  0.3487
  442MPD2    H5 6647   0.660   4.676  16.205 -1.4149 -1.9542  1.1281
  442MPD2    N1 6648   0.362   0.439  16.206  0.3598 -0.0908 -0.3006
  442MPD2    H7 6649   0.273   0.391  16.201 -0.4447  1.2167  1.7493
  443TMC3    C1 6650   0.234   0.631  16.166  0.1475  0.0552  0.1748
  443TMC3    C2 6651   0.186   0.613  16.038  0.5172 -0.0279 -0.0074
  443TMC3    C3 6652   0.047   0.598  16.019  0.3202 -0.5712 -0.1370
  443TMC3    C4 6653   0.163   0.623  16.276 -0.1805  0.3352 -0.2571
  443TMC3    C5 6654   0.021   0.612  16.259 -0.5955 -0.4590  1.0004
  443TMC3    C6 6655   4.706   0.589  16.129  0.2893  0.5577 -0.0238
  443TMC3     C 6656   0.366   0.575  16.188  0.1958  0.1576 -0.4934
  443TMC3     O 6657   0.459   0.652  16.188  0.4633 -0.6988 -0.6694
  443TMC3     H 6658   0.258   0.624  15.958 -0.9994 -0.9035 -1.4796
  443TMC3    H1 6659   0.210   0.618  16.373  0.0646 -0.2609 -0.4079
  443TMC3    H2 6660   4.599   0.574  16.133  0.5388 -1.4225 -0.8936
  443TMC3    C7 6661   4.686   0.553  16.370 -0.7383  0.8541  0.5489
  443TMC3    C8 6662   4.736   0.525  15.900 -0.2484 -0.2997  0.0448
  443TMC3    O1 6663   4.586   0.480  16.349  0.2707 -0.2262 -0.2081
  443TMC3    O2 6664   4.663   0.426  15.918  0.5127 -0.0165  0.2817
  444MPD2     C 6665   0.752   4.503  16.821 -0.1409 -0.0978  0.0973
  444MPD2    C1 6666   0.658   4.408  16.797  0.1047 -0.3997 -0.1497
  444MPD2    C2 6667   0.707   4.289  16.742  0.0479 -1.0152  0.1573
  444MPD2    C3 6668   0.840   4.272  16.702  1.5919  0.0723  0.3983
  444MPD2    C4 6669   0.927   4.368  16.737  0.3130  0.1479 -0.2178
  444MPD2    C5 6670   0.886   4.486  16.794 -0.5435  0.5474 -0.2315
  444MPD2     H 6671   0.643   4.202  16.733 -0.6166 -0.3226 -1.7594
  444MPD2    H1 6672   1.033   4.352  16.720  0.3059 -0.2249  0.0867
  444MPD2    H2 6673   0.735   4.591  16.882  1.8217  1.0122 -0.9759
  444MPD2    H3 6674   0.959   4.555  16.836 -0.7795  1.3942 -1.2053
  444MPD2     N 6675   0.879   4.141  16.661  1.0133  0.2491  0.3673
  444MPD2    H5 6676   0.805   4.072  16.651  0.4724  0.9142 -0.2669
  444MPD2    N1 6677   0.526   4.416  16.848  0.9366 -0.2383  0.0829
  444MPD2    H7 6678   0.480   4.330  16.817  0.1406 -0.3312  1.5066
  445TMC3    C1 6679   1.018   3.952  16.623  0.3673  0.3902  0.4121
  445TMC3    C2 6680   0.902   3.894  16.573  0.3764 -0.1849 -0.0122
  445TMC3    C3 6681   0.912   3.784  16.491 -0.1064  0.3711 -0.8201
  445TMC3    C4 6682   1.139   3.898  16.598 -0.3735  0.4556  0.0016
  445TMC3    C5 6683   1.141   3.781  16.528  0.6558  0.0397 -0.6681
  445TMC3    C6 6684   1.031   3.726  16.464  0.0629  0.2111  0.0146
  445TMC3     C 6685   1.010   4.094  16.655  0.6819  0.2470 -0.3272
  445TMC3     O 6686   1.115   4.155  16.654  0.0395 -0.1380  0.0058
  445TMC3     H 6687   0.806   3.920  16.615  0.0067  1.0448 -1.6492
  445TMC3    H1 6688   1.226   3.951  16.636 -0.3655  0.9695 -0.7402
  445TMC3    H2 6689   1.046   3.639  16.402  1.1211  0.4435 -0.0548
  445TMC3    C7 6690   1.271   3.726  16.496 -0.6846  0.7669  0.2784
  445TMC3    C8 6691   0.789   3.723  16.441  0.1145  0.0131 -1.0616
  445TMC3    O1 6692   1.360   3.801  16.485  0.3892 -0.2529 -0.0669
  445TMC3    O2 6693   0.682   3.782  16.452  0.1730 -0.3968  0.2920
  446MPD2     C 6694   0.494   0.483  11.161  1.7647  0.0196 -0.2635
  446MPD2    C1 6695   0.460   0.559  11.053 -0.6749 -0.0237 -0.3533
  446MPD2    C2 6696   0.543   0.672  11.024  0.0213 -0.6240 -0.0636
  446MPD2    C3 6697   0.651   0.705  11.103  0.6457  0.1951  0.6716
  446MPD2    C4 6698   0.684   0.619  11.210 -0.1933 -0.1576  0.0423
  446MPD2    C5 6699   0.602   0.513  11.241 -0.0099 -0.6006 -0.0619
  446MPD2     H 6700   0.514   0.734  10.940  2.0354  0.4418  0.0292
  446MPD2    H1 6701   0.761   0.639  11.284 -1.9044  0.1313  1.7481
  446MPD2    H2 6702   0.432   0.405  11.204  0.0276  0.1727 -2.5305
  446MPD2    H3 6703   0.634   0.447  11.321 -2.1259 -1.2364  0.2393
  446MPD2     N 6704   0.727   0.823  11.078  0.6168  0.3038 -0.2725
  446MPD2    H5 6705   0.685   0.878  11.005 -1.7199  0.8352  1.4687
  446MPD2    N1 6706   0.342   0.530  10.977 -0.3752 -0.3026  0.5621
  446MPD2    H7 6707   0.314   0.602  10.910  1.4487 -0.9567 -0.8974
  447TMC3    C1 6708   0.914   0.970  11.111  0.2154 -0.8490 -0.5208
  447TMC3    C2 6709   0.866   1.056  11.020  0.4242  0.0663  0.2856
  447TMC3    C3 6710   0.939   1.173  11.003  0.4353  0.4901  0.3438
  447TMC3    C4 6711   1.032   0.998  11.169  0.1108  0.0146 -0.0403
  447TMC3    C5 6712   1.103   1.116  11.155 -0.2155 -0.5792 -0.8056
  447TMC3    C6 6713   1.052   1.213  11.074 -0.7666 -0.2944 -0.4586
  447TMC3     C 6714   0.849   0.850  11.137 -0.5529  0.3458  0.4427
  447TMC3     O 6715   0.921   0.777  11.199 -0.1790 -0.8089 -0.4596
  447TMC3     H 6716   0.778   1.041  10.958  2.0267 -4.1792 -1.0052
  447TMC3    H1 6717   1.074   0.925  11.236  0.3498 -0.8604 -1.1368
  447TMC3    H2 6718   1.104   1.306  11.058  1.3251 -1.6248 -1.4705
  447TMC3    C7 6719   1.252   1.112  11.158 -0.3504 -0.4159 -0.4974
  447TMC3    C8 6720   0.891   1.257  10.898  0.0122  0.2924  0.1005
  447TMC3    O1 6721   1.291   1.002  11.196  0.1455  0.0568  0.1812
  447TMC3    O2 6722   0.836   1.202  10.805 -0.1237 -0.3866 -0.0277
  448TMC3    C1 6723   3.488   0.674  16.879 -0.7376  0.8145  0.5073
  448TMC3    C2 6724   3.471   0.562  16.794 -0.7259  0.4091  0.3342
  448TMC3    C3 6725   3.534   0.447  16.831 -0.1625  0.2084  0.0867
  448TMC3    C4 6726   3.567   0.668  16.988  0.3360 -0.0466  0.3066
  448TMC3    C5 6727   3.628   0.548  17.017  0.3896 -0.4710 -0.6313
  448TMC3    C6 6728   3.622   0.437  16.940 -0.1446  0.2026 -0.2836
  448TMC3     C 6729   3.397   0.784  16.853 -0.3486 -0.6288  0.2467
  448TMC3     O 6730   3.365   0.790  16.736 -0.5964  0.4943 -0.5848
  448TMC3     H 6731   3.412   0.561  16.703  2.9160 -1.5953 -2.0136
  448TMC3    H1 6732   3.595   0.757  17.043 -0.6371  0.6726 -0.3773
  448TMC3    H2 6733   3.685   0.354  16.970 -2.5723 -0.6664  2.4332
  448TMC3    C7 6734   3.699   0.537  17.147  0.1341  0.4049 -0.4030
  448TMC3    C8 6735   3.536   0.328  16.744  0.3351  0.1101 -0.2675
  448TMC3    O1 6736   3.753   0.640  17.194  0.1789 -0.7303 -0.1447
  448TMC3    O2 6737   3.583   0.229  16.799 -0.2628  0.6551  0.1691
  449MPD2     C 6738   0.428   3.323  13.643 -0.4932  0.0964  0.6608
  449MPD2    C1 6739   0.300   3.345  13.593 -0.3413 -0.1269 -0.8723
  449MPD2    C2 6740   0.198   3.345  13.682 -0.0127 -0.3090 -0.3263
  449MPD2    C3 6741   0.210   3.328  13.818 -0.0903  0.2686 -0.4712
  449MPD2    C4 6742   0.338   3.314  13.872 -0.3987 -0.7221  0.0689
  449MPD2    C5 6743   0.443   3.298  13.783  0.9426 -0.4741 -1.1543
  449MPD2     H 6744   0.098   3.360  13.644 -0.3075 -1.8757 -0.1604
  449MPD2    H1 6745   0.366   3.308  13.976 -2.0306  3.2457  0.7548
  449MPD2    H2 6746   0.508   3.328  13.570 -0.8274 -1.5114  0.1859
  449MPD2    H3 6747   0.540   3.274  13.825  1.1466 -1.1648 -2.0268
  449MPD2     N 6748   0.099   3.340  13.900  0.8444  0.0802 -0.4387
  449MPD2    H5 6749   0.008   3.349  13.855  0.1436  1.3923  1.2467
  449MPD2    N1 6750   0.269   3.367  13.457 -0.4067 -0.2427 -0.0900
  449MPD2    H7 6751   0.170   3.374  13.437  0.0025 -0.4093 -2.0773
  450TMC3    C1 6752   0.288   3.457  13.235  0.0341  0.8935  0.3212
  450TMC3    C2 6753   0.335   3.576  13.200  0.2097 -0.1619 -0.3495
  450TMC3    C3 6754   0.245   3.673  13.167  0.4198  0.2959  0.3313
  450TMC3    C4 6755   0.155   3.425  13.232 -0.3241 -0.2174 -0.0354
  450TMC3    C5 6756   0.065   3.527  13.214 -0.1386  0.4517  0.5346
  450TMC3    C6 6757   0.108   3.654  13.178  0.1616 -0.2594  0.2494
  450TMC3     C 6758   0.356   3.400  13.353 -0.1841  0.3168  0.6128
  450TMC3     O 6759   0.478   3.412  13.355 -0.0996  0.1326 -0.3395
  450TMC3     H 6760   0.437   3.598  13.229 -0.4778  1.8049  0.5237
  450TMC3    H1 6761   0.124   3.326  13.264  0.8338 -1.1273 -1.7352
  450TMC3    H2 6762   0.035   3.734  13.174 -0.5484 -0.8599  1.3046
  450TMC3    C7 6763   4.701   3.518  13.318 -0.4499 -0.2264  0.5097
  450TMC3    C8 6764   0.289   3.786  13.087 -0.4914  0.1279 -0.0340
  450TMC3    O1 6765   4.718   3.422  13.392  0.8006 -0.3648 -0.2707
  450TMC3    O2 6766   0.196   3.847  13.031 -0.1454  0.2910 -0.2140
  451MPD2     C 6767   1.485   1.865   1.004  0.2742 -0.0455 -0.4322
  451MPD2    C1 6768   1.587   1.954   1.016  0.6246 -0.3711  1.5430
  451MPD2    C2 6769   1.717   1.910   0.980  0.2159  0.1961  0.3088
  451MPD2    C3 6770   1.740   1.775   0.949  0.1090 -0.1417 -0.0717
  451MPD2    C4 6771   1.638   1.689   0.943 -0.0299  0.3324 -0.2399
  451MPD2    C5 6772   1.510   1.729   0.973  0.9469 -0.2466  0.8015
  451MPD2     H 6773   1.802   1.977   0.987  1.5463 -1.6002  1.2822
  451MPD2    H1 6774   1.645   1.582   0.929 -1.5671  0.1882  0.0659
  451MPD2    H2 6775   1.379   1.878   1.024  0.6512  0.2528  1.3389
  451MPD2    H3 6776   1.429   1.659   0.960 -0.5636  1.6093  0.1586
  451MPD2     N 6777   1.880   1.729   0.914 -0.0877  0.1605  0.0061
  451MPD2    H5 6778   1.909   1.632   0.910 -1.4206 -0.1933 -1.2098
  451MPD2    N1 6779   1.562   2.090   1.036  0.0444  0.8501 -0.2263
  451MPD2    H7 6780   1.469   2.122   1.064 -0.2717  0.5081 -0.8677
  452TMC3    C1 6781   2.090   1.747   0.811 -0.3148  0.0794 -0.4177
  452TMC3    C2 6782   2.065   1.619   0.768 -0.6566  0.7667  0.0714
  452TMC3    C3 6783   2.108   1.594   0.642 -0.5739  0.1576  0.5319
  452TMC3    C4 6784   2.163   1.843   0.744  0.3949 -0.2593  0.1039
  452TMC3    C5 6785   2.208   1.812   0.622  0.1991 -0.3850 -0.4046
  452TMC3    C6 6786   2.179   1.686   0.575  0.1872  0.2602 -0.1646
  452TMC3     C 6787   1.992   1.807   0.902 -0.8889 -0.4298 -0.8371
  452TMC3     O 6788   2.005   1.922   0.941 -0.0642 -0.4625 -0.3818
  452TMC3     H 6789   2.018   1.541   0.827  0.9048  0.7324  1.2818
  452TMC3    H1 6790   2.168   1.941   0.789  1.1486 -1.0678  1.8037
  452TMC3    H2 6791   2.213   1.652   0.478  0.9370 -0.4210  0.3500
  452TMC3    C7 6792   2.224   1.917   0.518  0.2216 -0.0833  0.3580
  452TMC3    C8 6793   2.109   1.457   0.595  0.2878 -0.7680 -0.2699
  452TMC3    O1 6794   2.190   1.887   0.404 -0.6365 -0.5941  0.1822
  452TMC3    O2 6795   2.217   1.409   0.564  0.0644  0.5952 -0.1911
  453TMC3    C1 6796   2.859   4.091  11.814  0.3108  0.2144  0.1835
  453TMC3    C2 6797   2.762   4.007  11.847 -0.1935 -0.5890 -0.0139
  453TMC3    C3 6798   2.659   3.975  11.771 -0.6295  0.6500  0.2623
  453TMC3    C4 6799   2.846   4.163  11.697  0.3503 -0.0188 -0.2344
  453TMC3    C5 6800   2.742   4.130  11.617  0.1532 -0.1554 -0.3165
  453TMC3    C6 6801   2.648   4.034  11.642  0.0437 -0.9027 -0.0639
  453TMC3     C 6802   2.964   4.141  11.909 -0.2981 -0.1991 -0.0971
  453TMC3     O 6803   3.042   4.215  11.851 -0.2951  0.1470 -0.4954
  453TMC3     H 6804   2.766   3.967  11.948  1.8150 -1.3705 -0.4164
  453TMC3    H1 6805   2.930   4.223  11.662 -0.3572  0.0272 -1.8387
  453TMC3    H2 6806   2.581   4.006  11.562 -0.0313  0.5315 -0.4950
  453TMC3    C7 6807   2.763   4.179  11.478 -0.1165  0.1058  0.8114
  453TMC3    C8 6808   2.530   3.949  11.832  0.8193 -0.6081  0.3346
  453TMC3    O1 6809   2.883   4.186  11.439 -0.2538 -0.3649 -0.5382
  453TMC3    O2 6810   2.427   3.982  11.770 -0.3576 -0.5640 -0.2057
  454MPD2     C 6811   1.617   3.881  16.195 -0.4697 -0.4241  0.1219
  454MPD2    C1 6812   1.546   3.985  16.135  0.1029 -0.2193  0.7258
  454MPD2    C2 6813   1.500   4.089  16.214  0.0935  0.1533  0.0109
  454MPD2    C3 6814   1.510   4.077  16.354  0.0999 -0.4949  0.6223
  454MPD2    C4 6815   1.595   3.982  16.406 -0.0897  0.7831 -0.2143
  454MPD2    C5 6816   1.648   3.890  16.326  0.6772 -0.1424 -0.0266
  454MPD2     H 6817   1.450   4.177  16.173 -2.2345 -3.1977 -4.3199
  454MPD2    H1 6818   1.610   3.968  16.512  0.5239  1.3388 -0.2290
  454MPD2    H2 6819   1.656   3.796  16.140 -1.0180 -1.0824  0.7364
  454MPD2    H3 6820   1.711   3.814  16.371  0.4690 -1.0660 -1.2803
  454MPD2     N 6821   1.448   4.171  16.442  0.0439  0.6788 -0.5193
  454MPD2    H5 6822   1.485   4.183  16.536  1.3215  0.1739 -0.9560
  454MPD2    N1 6823   1.489   3.973  16.004  0.0253  0.1965 -0.5760
  454MPD2    H7 6824   1.428   4.047  15.970 -1.5720 -0.8325  0.0595
  455TMC3    C1 6825   1.249   4.235  16.307 -0.1506 -0.4674 -0.3811
  455TMC3    C2 6826   1.166   4.341  16.279  0.2854 -0.0135 -0.7008
  455TMC3    C3 6827   1.050   4.313  16.210 -0.0807  0.1117  0.0621
  455TMC3    C4 6828   1.211   4.107  16.279 -1.2424 -0.2788 -0.4841
  455TMC3    C5 6829   1.100   4.084  16.207 -0.2361 -0.6629  0.0938
  455TMC3    C6 6830   1.016   4.184  16.172 -0.2900 -0.3627 -0.0719
  455TMC3     C 6831   1.333   4.249  16.428  0.4150 -0.3995  0.0390
  455TMC3     O 6832   1.308   4.354  16.489  0.1248 -0.0145 -0.0083
  455TMC3     H 6833   1.201   4.442  16.297  0.8880 -0.1719 -0.9890
  455TMC3    H1 6834   1.266   4.025  16.323  1.4519  0.8532 -1.7267
  455TMC3    H2 6835   0.918   4.160  16.133 -0.1813 -0.7805 -0.0936
  455TMC3    C7 6836   1.077   3.948  16.145 -0.1358  0.0754 -0.3391
  455TMC3    C8 6837   0.954   4.423  16.212  1.1759 -0.4361 -0.0377
  455TMC3    O1 6838   0.962   3.927  16.111 -0.0197  0.0275 -0.8860
  455TMC3    O2 6839   0.989   4.536  16.176 -0.5483  0.2125  0.7309
  456MPD2     C 6840   4.173   4.021  15.931  0.1913  0.9002  0.2351
  456MPD2    C1 6841   4.169   3.936  16.040 -0.5176 -0.3254 -0.6817
  456MPD2    C2 6842   4.093   3.975  16.146 -0.1553 -0.0721 -0.4484
  456MPD2    C3 6843   4.026   4.102  16.156 -0.3533  0.3972  0.1843
  456MPD2    C4 6844   4.036   4.179  16.038 -0.2622  0.1836  0.4767
  456MPD2    C5 6845   4.108   4.143  15.930  0.4064  0.2670 -0.4597
  456MPD2     H 6846   4.077   3.914  16.235  0.4127  0.5213  0.0599
  456MPD2    H1 6847   3.996   4.279  16.027 -0.7587  0.1354  1.8451
  456MPD2    H2 6848   4.207   3.977  15.838 -1.2771 -0.8309  0.5151
  456MPD2    H3 6849   4.119   4.204  15.841  1.8098 -0.6699 -0.9351
  456MPD2     N 6850   3.949   4.138  16.264 -0.6891  0.0310  0.8528
  456MPD2    H5 6851   3.955   4.091  16.353 -2.1410 -2.3779 -0.3126
  456MPD2    N1 6852   4.239   3.813  16.034  0.2603 -0.2663 -0.2304
  456MPD2    H7 6853   4.306   3.801  15.960 -1.5997  0.1701 -1.9855
  457TMC3    C1 6854   3.792   4.281  16.379 -0.5452  0.5860 -0.6621
  457TMC3    C2 6855   3.720   4.399  16.374 -0.9114  0.4937  0.1339
  457TMC3    C3 6856   3.653   4.444  16.487 -0.0182 -0.3888  0.7699
  457TMC3    C4 6857   3.794   4.208  16.497  1.1340  0.4167 -0.3861
  457TMC3    C5 6858   3.723   4.253  16.608 -0.0688  0.1835  0.7163
  457TMC3    C6 6859   3.658   4.377  16.601 -0.3866 -0.8811  0.3349
  457TMC3     C 6860   3.857   4.244  16.255 -0.5749  0.3166  0.0864
  457TMC3     O 6861   3.813   4.306  16.158 -0.6174  0.1552 -0.0806
  457TMC3     H 6862   3.715   4.468  16.290  0.2014 -1.8837 -1.8969
  457TMC3    H1 6863   3.855   4.121  16.518 -2.0284 -1.5938  0.3237
  457TMC3    H2 6864   3.586   4.400  16.679  0.3263  2.1339  0.1246
  457TMC3    C7 6865   3.772   4.219  16.742 -0.1640  0.7024 -0.2778
  457TMC3    C8 6866   3.618   4.582  16.514  0.1277  0.0820  0.1281
  457TMC3    O1 6867   3.806   4.104  16.768 -0.2729 -0.2631 -0.1935
  457TMC3    O2 6868   3.642   4.621  16.625  0.6462 -0.6300 -0.2423
  458MPD2     C 6869   1.590   3.317  12.654 -0.5390 -0.5820  0.8849
  458MPD2    C1 6870   1.668   3.422  12.625 -1.0101 -0.0143  0.1068
  458MPD2    C2 6871   1.618   3.512  12.540  0.7873 -0.5115  0.8169
  458MPD2    C3 6872   1.487   3.499  12.484  0.5627 -0.4114 -0.5478
  458MPD2    C4 6873   1.413   3.393  12.512  0.4332  0.1287  0.1919
  458MPD2    C5 6874   1.470   3.305  12.592 -0.4565 -0.2491  0.3489
  458MPD2     H 6875   1.675   3.601  12.517 -1.4184  0.8544  0.6048
  458MPD2    H1 6876   1.314   3.373  12.472  0.3673 -1.1039  0.9740
  458MPD2    H2 6877   1.625   3.244  12.726 -2.3676 -0.6285  1.7229
  458MPD2    H3 6878   1.403   3.227  12.627  0.9184 -0.5462  2.3048
  458MPD2     N 6879   1.436   3.605  12.412 -0.5461  0.5868 -0.4731
  458MPD2    H5 6880   1.498   3.685  12.397  0.9401 -0.7614 -1.5873
  458MPD2    N1 6881   1.794   3.422  12.684  0.0674 -0.5173  0.4764
  458MPD2    H7 6882   1.808   3.339  12.740  0.7473 -0.2738  0.6735
  459TMC3    C1 6883   1.996   3.499  12.765  0.2117  0.3234 -0.8133
  459TMC3    C2 6884   2.119   3.506  12.703  1.1365 -0.1251 -0.2596
  459TMC3    C3 6885   2.223   3.439  12.756  0.6984 -0.5159 -0.2191
  459TMC3    C4 6886   1.981   3.426  12.872 -0.4319  0.1181 -0.3685
  459TMC3    C5 6887   2.082   3.353  12.919 -0.2765  0.0195  0.4664
  459TMC3    C6 6888   2.200   3.352  12.860 -0.1835  0.1656 -0.6483
  459TMC3     C 6889   1.886   3.528  12.682 -0.7611  0.2476 -0.2144
  459TMC3     O 6890   1.885   3.631  12.621 -0.2750 -0.7657 -0.6200
  459TMC3     H 6891   2.133   3.569  12.615  0.4808  2.4263  1.4712
  459TMC3    H1 6892   1.883   3.424  12.919 -0.7008 -2.5845 -1.0222
  459TMC3    H2 6893   2.280   3.301  12.912 -2.3210 -0.2586  2.2012
  459TMC3    C7 6894   2.070   3.281  13.049 -0.3573  0.7525  0.2172
  459TMC3    C8 6895   2.352   3.510  12.759  0.4620  0.2105 -0.4808
  459TMC3    O1 6896   2.116   3.165  13.054 -0.2118  0.6195  0.5589
  459TMC3    O2 6897   2.437   3.465  12.835  0.1557 -0.7400  0.0970
  460MPD2     C 6898   0.828   1.620  10.949  0.6023  0.8044  0.5786
  460MPD2    C1 6899   0.840   1.508  10.867 -0.5298  0.4789  0.1990
  460MPD2    C2 6900   0.788   1.515  10.739 -0.0867  0.3107  0.4105
  460MPD2    C3 6901   0.717   1.623  10.690  0.8752  0.5317 -0.0307
  460MPD2    C4 6902   0.700   1.731  10.776 -0.3026  0.1293  0.1322
  460MPD2    C5 6903   0.755   1.726  10.901  0.7863  0.0885  0.1178
  460MPD2     H 6904   0.796   1.432  10.669  0.0633 -0.1083  0.9248
  460MPD2    H1 6905   0.647   1.825  10.766  2.7690  1.6179 -2.0442
  460MPD2    H2 6906   0.863   1.620  11.052  2.4879 -1.4110 -0.0795
  460MPD2    H3 6907   0.750   1.806  10.974  0.4318  0.5466 -0.4096
  460MPD2     N 6908   0.668   1.625  10.556 -0.1472  0.2720  0.1294
  460MPD2    H5 6909   0.680   1.544  10.497  0.3386  1.5341 -1.5014
  460MPD2    N1 6910   0.893   1.392  10.931 -0.4167 -0.2496 -0.1938
  460MPD2    H7 6911   0.933   1.406  11.023 -1.9029  0.8336  0.2908
  461TMC3    C1 6912   0.528   1.718  10.379  0.5200 -0.4551  0.4611
  461TMC3    C2 6913   0.474   1.598  10.354 -0.2228 -0.5808 -0.4004
  461TMC3    C3 6914   0.361   1.578  10.281 -0.5244  0.1529 -0.6493
  461TMC3    C4 6915   0.465   1.828  10.329  0.8636  0.2877 -0.3200
  461TMC3    C5 6916   0.358   1.812  10.248  0.1280 -0.0087  0.8892
  461TMC3    C6 6917   0.302   1.687  10.228 -0.8677  0.5893  0.7367
  461TMC3     C 6918   0.608   1.737  10.501  0.3040  0.1993  0.1406
  461TMC3     O 6919   0.611   1.857  10.536  0.1356  0.2801  0.0916
  461TMC3     H 6920   0.531   1.518  10.401  0.4002 -0.1340 -0.4002
  461TMC3    H1 6921   0.509   1.926  10.343  0.7536  0.6666 -2.6036
  461TMC3    H2 6922   0.209   1.671  10.175 -0.7542  0.9527  0.4364
  461TMC3    C7 6923   0.274   1.922  10.208  0.4755 -0.0374  0.4112
  461TMC3    C8 6924   0.321   1.446  10.236  0.5103  0.2705  0.9615
  461TMC3    O1 6925   0.167   1.893  10.150 -0.4905 -0.5332  0.4393
  461TMC3    O2 6926   0.347   1.430  10.122 -0.0528  0.3412  0.8228
  462TMC3    C1 6927   1.121   2.522   0.627 -0.5106 -0.0806 -0.5100
  462TMC3    C2 6928   1.226   2.554   0.546 -0.4040  0.0205 -0.7935
  462TMC3    C3 6929   1.253   2.465   0.443 -0.5481  0.2132 -0.0414
  462TMC3    C4 6930   1.038   2.414   0.607  0.2043 -0.1372  0.5306
  462TMC3    C5 6931   1.069   2.333   0.501  0.4629 -0.5071 -0.1847
  462TMC3    C6 6932   1.180   2.352   0.424  0.4150  0.6016 -0.4099
  462TMC3     C 6933   1.080   2.615   0.739  0.0880  0.3081  0.7693
  462TMC3     O 6934   0.974   2.582   0.798 -0.3497  0.5717 -0.2473
  462TMC3     H 6935   1.288   2.642   0.542 -0.0401 -0.1269  1.2049
  462TMC3    H1 6936   0.949   2.403   0.668 -0.0891  0.5190  0.2236
  462TMC3    H2 6937   1.171   2.302   0.328  1.5601  0.9349 -0.6876
  462TMC3    C7 6938   0.993   2.209   0.477  0.1536 -0.0821 -0.1373
  462TMC3    C8 6939   1.374   2.494   0.362  0.6196  0.0143  0.1946
  462TMC3    O1 6940   1.048   2.125   0.408 -0.1126  0.5343  0.7880
  462TMC3    O2 6941   1.379   2.600   0.303 -0.3541  0.6990 -0.2811
  463MPD2     C 6942   2.455   0.500   1.585 -0.0406 -0.4036  0.4082
  463MPD2    C1 6943   2.358   0.588   1.591 -0.0173 -0.0165  0.6190
  463MPD2    C2 6944   2.374   0.706   1.524  0.4829  0.0578  0.0637
  463MPD2    C3 6945   2.489   0.740   1.463  0.2061  0.7180  0.2071
  463MPD2    C4 6946   2.594   0.654   1.472 -0.1718 -0.1726  0.0381
  463MPD2    C5 6947   2.576   0.534   1.523 -0.7784  0.1529 -0.7871
  463MPD2     H 6948   2.291   0.775   1.525 -0.2931 -0.8839  0.4428
  463MPD2    H1 6949   2.694   0.676   1.438 -1.0780  1.4072 -1.6313
  463MPD2    H2 6950   2.449   0.398   1.622  2.3848 -0.8221 -0.3413
  463MPD2    H3 6951   2.650   0.455   1.513 -1.5601 -0.6581 -0.1615
  463MPD2     N 6952   2.505   0.862   1.395 -0.1795 -0.6290  0.3280
  463MPD2    H5 6953   2.601   0.891   1.378 -0.3969 -0.8254 -1.1624
  463MPD2    N1 6954   2.230   0.572   1.660  0.3559 -0.0770 -0.5231
  463MPD2    H7 6955   2.160   0.642   1.642 -0.1843 -0.5496 -0.2465
  464TMC3    C1 6956   2.062   0.478   1.787 -0.3957  0.0508  0.3382
  464TMC3    C2 6957   1.970   0.556   1.721  0.1576  0.3345  0.1500
  464TMC3    C3 6958   1.837   0.552   1.764  0.2751 -0.2621 -0.1101
  464TMC3    C4 6959   2.029   0.398   1.888 -0.1742  0.0930 -0.1787
  464TMC3    C5 6960   1.901   0.389   1.925  1.2084  0.1551 -1.0121
  464TMC3    C6 6961   1.809   0.462   1.856 -0.1453 -0.5943 -0.0650
  464TMC3     C 6962   2.199   0.469   1.744 -0.1842  0.5976 -0.0480
  464TMC3     O 6963   2.275   0.385   1.791 -0.2754  0.3274  0.5093
  464TMC3     H 6964   1.996   0.611   1.632 -0.5993  1.1486  0.4231
  464TMC3    H1 6965   2.087   0.314   1.924 -2.1555 -1.5323 -0.7846
  464TMC3    H2 6966   1.707   0.450   1.890  0.2729  0.3651  1.5332
  464TMC3    C7 6967   1.859   0.254   1.947 -0.5375 -0.0111 -0.5894
  464TMC3    C8 6968   1.736   0.589   1.670  0.6031 -0.4001 -0.0309
  464TMC3    O1 6969   1.920   0.200   2.040  0.2660  0.4774  0.4775
  464TMC3    O2 6970   1.757   0.610   1.552  0.3241  0.0045 -0.5119
  465MPD2     C 6971   3.282   4.673  16.867  0.7731  0.3901 -0.4446
  465MPD2    C1 6972   3.164   4.607  16.884  0.4581 -0.3515 -0.3220
  465MPD2    C2 6973   3.092   4.560  16.774 -0.0294 -0.1700 -0.3452
  465MPD2    C3 6974   3.139   4.588  16.648  0.0522 -0.2405  0.2971
  465MPD2    C4 6975   3.262   4.649  16.629  0.6923  0.0974  0.2893
  465MPD2    C5 6976   3.324   4.694  16.743 -0.0125 -0.1020 -0.2414
  465MPD2     H 6977   2.999   4.506  16.790  0.2066 -0.7625 -0.9899
  465MPD2    H1 6978   3.315   4.674  16.538 -1.7500  1.7857 -0.6604
  465MPD2    H2 6979   3.327   4.715  16.956 -0.9806  1.1226  0.1002
  465MPD2    H3 6980   3.415   0.012  16.731  0.8690 -1.3272  0.6803
  465MPD2     N 6981   3.053   4.557  16.542 -0.1744 -0.0188 -0.0773
  465MPD2    H5 6982   2.966   4.511  16.567  0.7394 -1.0868  1.1822
  465MPD2    N1 6983   3.118   4.589  17.017 -0.2849  0.0735 -0.3133
  465MPD2    H7 6984   3.170   4.642  17.086  0.3543 -1.5042  0.4035
  466TMC3    C1 6985   2.727   4.492  16.343  0.0237 -0.8558 -0.3216
  466TMC3    C2 6986   2.681   4.594  16.262  0.0436 -0.4909  0.5906
  466TMC3    C3 6987   2.773   4.681  16.213  0.0214  0.3428 -0.1441
  466TMC3    C4 6988   2.853   4.487  16.392 -0.1750 -0.3006  0.1330
  466TMC3    C5 6989   2.940   4.579  16.345  0.9278 -0.2233 -0.1553
  466TMC3    C6 6990   2.903   4.676  16.256  0.0497 -0.0906 -0.5060
  466TMC3     C 6991   2.631   4.428  16.431  0.1983  0.7314  0.1742
  466TMC3     O 6992   2.676   4.344  16.515  0.2304 -0.6107 -0.3645
  466TMC3     H 6993   2.578   4.605  16.231  0.2228 -1.6120 -0.4043
  466TMC3    H1 6994   2.901   4.401  16.438  1.0311  1.0009  1.3331
  466TMC3    H2 6995   2.967   0.022  16.236  1.8014 -1.6014 -1.3458
  466TMC3    C7 6996   3.065   4.602  16.416  0.6121 -0.3987  0.2043
  466TMC3    C8 6997   2.724   0.061  16.163  0.0412  0.5883 -0.4920
  466TMC3    O1 6998   3.147   4.670  16.360  0.4236 -0.2592 -0.2158
  466TMC3    O2 6999   2.792   0.112  16.075 -0.6136  0.5136  0.2334
  467TMC3    C1 7000   3.792   2.890  13.867 -0.5106 -0.8351  1.0575
  467TMC3    C2 7001   3.736   2.966  13.770  0.9194 -0.2169 -0.2813
  467TMC3    C3 7002   3.611   2.934  13.719 -0.0735  0.3696 -0.0271
  467TMC3    C4 7003   3.726   2.779  13.923 -0.4041 -0.0302 -0.0986
  467TMC3    C5 7004   3.602   2.755  13.871 -0.1018 -0.1677 -0.3641
  467TMC3    C6 7005   3.543   2.823  13.765 -0.4453  0.0580  0.4286
  467TMC3     C 7006   3.934   2.872  13.854 -0.0755  0.9143  0.0157
  467TMC3     O 7007   3.994   2.981  13.870  0.2333 -0.1709 -0.1853
  467TMC3     H 7008   3.807   3.026  13.714  1.7825 -1.2013 -0.2458
  467TMC3    H1 7009   3.787   2.720  13.990 -0.3759 -0.7974 -0.7983
  467TMC3    H2 7010   3.442   2.800  13.731 -0.9752  0.7798  1.5481
  467TMC3    C7 7011   3.522   2.689  13.972  0.3835 -0.5493 -0.4084
  467TMC3    C8 7012   3.629   2.940  13.573  0.0703 -0.5092 -0.1801
  467TMC3    O1 7013   3.588   2.648  14.064 -0.0321 -0.1243  0.3613
  467TMC3    O2 7014   3.679   3.042  13.526  0.3813  0.1997  0.2174
  468MPD2     C 7015   3.312   1.159  10.395 -0.4178  0.1629 -0.4792
  468MPD2    C1 7016   3.327   1.121  10.523  0.3569 -0.3948  0.2106
  468MPD2    C2 7017   3.287   0.992  10.571  0.2121  0.4110  0.3614
  468MPD2    C3 7018   3.249   0.896  10.477  0.2417 -0.1060  0.5381
  468MPD2    C4 7019   3.240   0.937  10.346  0.4572  0.2896 -0.3426
  468MPD2    C5 7020   3.274   1.064  10.303 -0.0771 -0.0158 -0.2666
  468MPD2     H 7021   3.306   0.961  10.673 -0.7554 -1.7425 -0.1101
  468MPD2    H1 7022   3.214   0.860  10.274 -0.4629  0.4803 -0.2160
  468MPD2    H2 7023   3.336   1.258  10.357 -1.6522  0.0579 -1.5551
  468MPD2    H3 7024   3.288   1.092  10.199 -1.5638  0.0359 -0.4484
  468MPD2     N 7025   3.209   0.766  10.513  0.5988 -0.0361 -0.0188
  468MPD2    H5 7026   3.196   0.695  10.441 -1.9870 -0.2485  0.6513
  468MPD2    N1 7027   3.384   1.210  10.616  0.0309 -0.4302 -0.6559
  468MPD2    H7 7028   3.420   1.168  10.701 -2.3574 -1.1515 -0.0200
  469TMC3    C1 7029   3.410   1.414  10.735  0.7782 -0.2811 -0.0435
  469TMC3    C2 7030   3.511   1.355  10.805  0.5846 -0.3215  1.1064
  469TMC3    C3 7031   3.521   1.376  10.939 -0.0022 -0.6029 -0.0618
  469TMC3    C4 7032   3.308   1.487  10.796 -0.2174  0.6839 -0.4856
  469TMC3    C5 7033   3.320   1.498  10.932 -0.8732 -0.0504  0.8312
  469TMC3    C6 7034   3.418   1.439  11.008 -0.1980  0.0667  0.1293
  469TMC3     C 7035   3.367   1.344  10.614 -0.5724 -0.3394 -0.2178
  469TMC3     O 7036   3.281   1.404  10.548  0.7290  0.0662  0.6944
  469TMC3     H 7037   3.587   1.298  10.754 -0.0178 -1.5562  1.6044
  469TMC3    H1 7038   3.239   1.545  10.735 -1.8836  0.0574  0.8213
  469TMC3    H2 7039   3.407   1.457  11.114 -1.6240 -0.7870  0.1295
  469TMC3    C7 7040   3.212   1.569  11.003 -0.1725 -0.1289 -0.3256
  469TMC3    C8 7041   3.632   1.309  11.012 -0.5226 -0.2871  0.6658
  469TMC3    O1 7042   3.099   1.547  10.956  0.1058 -0.3232  0.6313
  469TMC3    O2 7043   3.721   1.258  10.949  0.2715  0.0070  0.4246
  470TMC3    C1 7044   4.419   1.701   0.820  0.4743 -0.2153 -0.0065
  470TMC3    C2 7045   4.519   1.797   0.814  0.4115 -0.7137  0.1658
  470TMC3    C3 7046   4.492   1.925   0.847 -0.6186 -0.2423  0.0491
  470TMC3    C4 7047   4.292   1.740   0.854  0.8064  0.3287  0.5624
  470TMC3    C5 7048   4.269   1.867   0.893 -0.2635 -0.0673  0.8356
  470TMC3    C6 7049   4.366   1.962   0.889  0.4315 -0.0354 -0.5517
  470TMC3     C 7050   4.422   1.570   0.760  1.1174 -0.5678  0.4648
  470TMC3     O 7051   4.315   1.512   0.757  0.1555 -0.5676 -0.4325
  470TMC3     H 7052   4.618   1.768   0.783 -0.1127 -0.2347 -2.0048
  470TMC3    H1 7053   4.209   1.672   0.872 -1.4647  3.1471  0.7119
  470TMC3    H2 7054   4.346   2.065   0.917  0.6450  0.1869 -1.2279
  470TMC3    C7 7055   4.135   1.902   0.928  0.5604  0.0695  0.8320
  470TMC3    C8 7056   4.609   2.012   0.873 -0.0714  0.5228 -0.9490
  470TMC3    O1 7057   4.067   1.813   0.975  0.8591 -0.2024 -0.0351
  470TMC3    O2 7058   4.599   2.086   0.970  0.6292  0.1457  0.1055
  471MPD2     C 7059   1.090   3.184  16.748  0.1964 -0.4200 -0.5622
  471MPD2    C1 7060   1.172   3.097  16.691 -0.0114 -0.4493 -0.2031
  471MPD2    C2 7061   1.288   3.060  16.763  0.1692 -0.0843  0.3782
  471MPD2    C3 7062   1.315   3.125  16.882  0.1896  0.4188  0.9084
  471MPD2    C4 7063   1.217   3.208  16.936 -0.1275 -0.5121  0.1266
  471MPD2    C5 7064   1.107   3.242  16.865  0.0325  0.6457  0.1527
  471MPD2     H 7065   1.358   2.990  16.719 -0.8838 -1.8742  1.5590
  471MPD2    H1 7066   1.233   3.255  17.033  0.6511  0.0947 -0.2941
  471MPD2    H2 7067   0.996   3.214  16.702 -0.6550  3.0270  3.3855
  471MPD2    H3 7068   1.030   3.305  16.908 -0.8404 -1.0227  1.0084
  471MPD2     N 7069   1.432   3.105  16.951 -0.5857 -0.3572 -0.9380
  471MPD2    H5 7070   1.447   3.168  17.029  0.7296  1.5089 -2.7111
  471MPD2    N1 7071   1.144   3.029  16.572  0.2613  0.1836  0.0605
  471MPD2    H7 7072   1.213   2.961  16.543 -0.7368 -0.7969 -0.0351
  472TMC3    C1 7073   1.040   2.968  16.362 -0.0802 -0.0299  0.6510
  472TMC3    C2 7074   0.955   3.004  16.269  0.5924  0.0324 -0.5517
  472TMC3    C3 7075   0.923   2.914  16.176  0.5205  0.0097  0.4295
  472TMC3    C4 7076   1.092   2.843  16.380 -0.1519  0.3302  0.6949
  472TMC3    C5 7077   1.046   2.749  16.297  0.7392 -0.5155 -0.1129
  472TMC3    C6 7078   0.967   2.786  16.190 -0.0494 -0.1996  0.4781
  472TMC3     C 7079   1.046   3.060  16.482 -0.3634  0.1835  0.3869
  472TMC3     O 7080   0.962   3.150  16.494 -0.2801 -0.4026  0.2977
  472TMC3     H 7081   0.915   3.103  16.250  2.0415  0.9113  0.9790
  472TMC3    H1 7082   1.149   2.822  16.469  0.7696 -1.4887 -0.3276
  472TMC3    H2 7083   0.928   2.715  16.118 -0.9471  2.4611 -1.6439
  472TMC3    C7 7084   1.033   2.616  16.348  0.1819 -0.3546  0.4648
  472TMC3    C8 7085   0.795   2.914  16.116  0.1801  0.1691 -0.4827
  472TMC3    O1 7086   1.072   2.596  16.463  0.1144 -0.4194 -0.4232
  472TMC3    O2 7087   0.767   3.000  16.036 -0.2596  0.1777  0.2188
  473MPD2     C 7088   0.367   0.320  13.593 -0.1979 -0.2522  0.3152
  473MPD2    C1 7089   0.344   0.430  13.514  0.3793  0.8819  0.8400
  473MPD2    C2 7090   0.405   0.555  13.546  0.0175  0.5557  0.2109
  473MPD2    C3 7091   0.491   0.558  13.659  0.0085 -0.0780 -0.4410
  473MPD2    C4 7092   0.503   0.446  13.744  0.5283  0.6329 -0.0330
  473MPD2    C5 7093   0.440   0.330  13.708 -0.4921  0.4150 -0.2493
  473MPD2     H 7094   0.398   0.642  13.482  0.4767  0.3163 -0.1745
  473MPD2    H1 7095   0.562   0.463  13.833  0.7753 -1.5117  0.2232
  473MPD2    H2 7096   0.325   0.225  13.562  1.2190 -1.0993  1.0047
  473MPD2    H3 7097   0.465   0.246  13.771  2.5243  2.5610  1.3622
  473MPD2     N 7098   0.553   0.675  13.711  0.2857 -0.4142 -0.4539
  473MPD2    H5 7099   0.592   0.673  13.805 -0.1572 -0.8276 -0.2794
  473MPD2    N1 7100   0.253   0.426  13.399 -0.2634 -1.0034 -0.1390
  473MPD2    H7 7101   0.261   0.506  13.338 -0.5821 -1.7206 -1.1218
  474TMC3    C1 7102   0.643   0.878  13.718 -0.8995  0.3765  0.4139
  474TMC3    C2 7103   0.760   0.921  13.666  0.0406  0.1395  0.2038
  474TMC3    C3 7104   0.860   0.963  13.752 -0.2572  0.1019 -0.3202
  474TMC3    C4 7105   0.628   0.865  13.852 -0.3633 -0.4413  0.2982
  474TMC3    C5 7106   0.730   0.901  13.935  0.5110  0.6735 -0.8360
  474TMC3    C6 7107   0.848   0.958  13.889  0.2665  0.3553  0.3044
  474TMC3     C 7108   0.565   0.789  13.637  0.0004  0.2069  0.1207
  474TMC3     O 7109   0.543   0.795  13.515 -0.0182  0.0936 -0.2771
  474TMC3     H 7110   0.761   0.940  13.560 -0.7505  1.5013  0.4430
  474TMC3    H1 7111   0.536   0.830  13.897  0.3686  0.8796  2.8309
  474TMC3    H2 7112   0.929   0.985  13.957  1.5501  0.5011 -1.2918
  474TMC3    C7 7113   0.717   0.826  14.056  0.4624  0.2381 -0.4727
  474TMC3    C8 7114   0.964   1.044  13.692  0.5368  0.2907  0.0832
  474TMC3    O1 7115   0.696   0.703  14.047 -0.6823 -0.2379 -0.2845
  474TMC3    O2 7116   0.994   1.010  13.578  0.6399 -0.2246  0.3312
  475MPD2     C 7117   3.501   3.686  11.535 -0.7241  0.1431  0.2171
  475MPD2    C1 7118   3.538   3.701  11.402  0.7042  0.3604 -0.1067
  475MPD2    C2 7119   3.446   3.749  11.310  0.9545 -0.4725 -0.2052
  475MPD2    C3 7120   3.312   3.759  11.350  0.5617  0.7603 -1.2273
  475MPD2    C4 7121   3.277   3.725  11.477  0.0885 -0.1012 -0.0339
  475MPD2    C5 7122   3.370   3.684  11.566  0.2652  0.5255 -0.3520
  475MPD2     H 7123   3.475   3.772  11.209  0.4321 -0.7086 -0.4102
  475MPD2    H1 7124   3.174   3.730  11.509  0.8020  0.2136  2.2306
  475MPD2    H2 7125   3.574   3.662  11.612  1.8352 -0.5052 -2.4330
  475MPD2    H3 7126   3.338   3.665  11.668  1.3483  1.6268  0.1883
  475MPD2     N 7127   3.220   3.795  11.249  0.3315 -0.4412  0.4651
  475MPD2    H5 7128   3.260   3.818  11.158 -0.1420 -0.3883  0.2683
  475MPD2    N1 7129   3.678   3.705  11.376 -0.2456  0.1243 -0.2204
  475MPD2    H7 7130   3.735   3.712  11.459  1.3617 -0.3995 -1.2925
  476TMC3    C1 7131   3.881   3.746  11.268  0.0052  0.6024 -0.8621
  476TMC3    C2 7132   3.913   3.792  11.142  0.1488 -0.2327 -0.1188
  476TMC3    C3 7133   3.984   3.910  11.142 -0.6932  0.6862  0.0299
  476TMC3    C4 7134   3.909   3.808  11.387 -0.4529 -0.5864 -0.6546
  476TMC3    C5 7135   3.957   3.935  11.385 -0.4924 -0.5345  0.0312
  476TMC3    C6 7136   4.005   3.974  11.263 -0.3070 -0.6174 -0.4804
  476TMC3     C 7137   3.741   3.707  11.255  0.2135 -0.2308  0.1433
  476TMC3     O 7138   3.687   3.710  11.146  0.1254 -0.5329 -0.0282
  476TMC3     H 7139   3.905   3.733  11.052 -0.3926 -1.3274  0.6443
  476TMC3    H1 7140   3.888   3.764  11.483  2.6157 -0.3241  0.1429
  476TMC3    H2 7141   4.053   4.071  11.268 -1.1486 -0.2778  0.8061
  476TMC3    C7 7142   3.872   4.031  11.449 -0.0725  0.0217  0.1108
  476TMC3    C8 7143   3.943   4.012  11.050  0.0721  0.2364 -1.1083
  476TMC3    O1 7144   3.804   4.006  11.546 -0.0584 -0.1415  0.0980
  476TMC3    O2 7145   3.923   4.125  11.089 -0.2280  0.4279 -0.6174
  477MPD2     C 7146   1.687   0.673  11.880 -0.4316 -0.0235  0.1421
  477MPD2    C1 7147   1.640   0.588  11.777 -0.5041 -0.1878  0.0010
  477MPD2    C2 7148   1.639   0.451  11.792  0.3418  0.8427  0.5350
  477MPD2    C3 7149   1.673   0.398  11.912 -0.0633  0.0790 -0.3095
  477MPD2    C4 7150   1.714   0.482  12.014  0.8740  0.2884  0.7171
  477MPD2    C5 7151   1.726   0.616  12.000  0.3462 -0.1977  0.2925
  477MPD2     H 7152   1.620   0.387  11.707 -0.6296  1.3880  0.3460
  477MPD2    H1 7153   1.732   0.432  12.109 -1.4394 -0.6442  0.6783
  477MPD2    H2 7154   1.700   0.779  11.861  1.2665  0.0905  1.9439
  477MPD2    H3 7155   1.765   0.666  12.088  1.4242 -2.0042  0.8377
  477MPD2     N 7156   1.671   0.259  11.937  0.7737  0.2123  0.8535
  477MPD2    H5 7157   1.695   0.228  12.031  2.1205 -0.3194  0.3378
  477MPD2    N1 7158   1.602   0.653  11.661  0.0371  0.1809  0.1442
  477MPD2    H7 7159   1.597   0.754  11.661 -2.9828  0.0249 -0.2205
  478TMC3    C1 7160   1.476   0.667  11.463  0.3393  0.1556  0.1948
  478TMC3    C2 7161   1.387   0.759  11.514  0.3552 -0.6857  0.1868
  478TMC3    C3 7162   1.270   0.791  11.450  0.1608  0.4865 -0.4953
  478TMC3    C4 7163   1.452   0.623  11.332 -0.6384  0.1959 -0.3489
  478TMC3    C5 7164   1.335   0.659  11.270 -0.4335  0.0025 -1.1170
  478TMC3    C6 7165   1.236   0.733  11.331 -0.3080  0.0980 -0.3759
  478TMC3     C 7166   1.570   0.595  11.544 -0.1017  0.2125 -0.4959
  478TMC3     O 7167   1.611   0.487  11.506  0.5888  0.1415  0.1619
  478TMC3     H 7168   1.401   0.800  11.613  0.4773  1.5425 -0.7482
  478TMC3    H1 7169   1.533   0.575  11.278  0.2374  1.8302 -0.4674
  478TMC3    H2 7170   1.135   0.743  11.294  0.2484  0.5576 -1.7628
  478TMC3    C7 7171   1.283   0.563  11.168 -0.3618 -0.4260 -0.1147
  478TMC3    C8 7172   1.164   0.828  11.545  0.6491  0.0743 -0.7603
  478TMC3    O1 7173   1.344   0.459  11.154  0.4545 -0.3201  0.1222
  478TMC3    O2 7174   1.182   0.784  11.655 -0.7369  0.6404  0.2838
  479MPD2     C 7175   0.329   2.382  14.774 -0.0197  0.4756  0.5372
  479MPD2    C1 7176   0.360   2.370  14.906  1.1179 -0.1707 -0.0464
  479MPD2    C2 7177   0.488   2.395  14.954 -0.2357  0.3883 -0.4808
  479MPD2    C3 7178   0.584   2.451  14.866  0.3928  0.8798  0.2016
  479MPD2    C4 7179   0.550   2.449  14.730  0.3487 -0.3270 -0.1732
  479MPD2    C5 7180   0.429   2.418  14.689 -0.5195  0.9185 -0.4276
  479MPD2     H 7181   0.520   2.364  15.053 -0.2543 -2.1106 -1.2677
  479MPD2    H1 7182   0.622   2.470  14.652 -2.0694  1.0800 -2.0411
  479MPD2    H2 7183   0.229   2.349  14.747  0.7906  1.5744 -3.6682
  479MPD2    H3 7184   0.411   2.427  14.582  0.0770 -0.4685 -0.6452
  479MPD2     N 7185   0.718   2.489  14.901 -0.4559  0.5066 -0.2258
  479MPD2    H5 7186   0.782   2.505  14.824 -2.4231 -0.8208 -2.1455
  479MPD2    N1 7187   0.257   2.315  14.992  1.4896  0.4256 -0.1930
  479MPD2    H7 7188   0.161   2.315  14.959  0.8901  0.6491  1.5323
  480TMC3    C1 7189   0.626   2.463  15.365 -0.0453 -0.5959  0.3339
  480TMC3    C2 7190   0.521   2.553  15.347 -0.1700 -0.8065 -0.3256
  480TMC3    C3 7191   0.522   2.624  15.227  0.1957 -0.4350 -0.5116
  480TMC3    C4 7192   0.711   2.431  15.263 -0.1589 -0.2579  0.4179
  480TMC3    C5 7193   0.699   2.498  15.142 -0.1437  0.4721  0.5908
  480TMC3    C6 7194   0.613   2.601  15.124 -0.1371  0.5046  0.7048
  480TMC3     C 7195   0.606   2.359  15.464 -0.0857 -0.6075  0.2798
  480TMC3     O 7196   0.634   2.243  15.429 -0.0724  0.2784 -0.3101
  480TMC3     H 7197   0.443   2.566  15.422 -0.8478 -0.9306 -1.0012
  480TMC3    H1 7198   0.784   2.351  15.269 -1.1187 -1.3257 -2.2598
  480TMC3    H2 7199   0.625   2.666  15.038  0.3154  0.1352  0.4861
  480TMC3    C7 7200   0.785   2.475  15.023 -0.9246  0.0481 -0.1915
  480TMC3    C8 7201   0.394   2.668  15.178 -0.2120  0.2493 -0.3226
  480TMC3    O1 7202   0.905   2.464  15.037 -0.0478  0.3911 -0.2886
  480TMC3    O2 7203   0.295   2.682  15.248  0.2446 -0.0945  0.0531
  481MPD2     C 7204   2.182   1.912  14.115 -0.3902 -0.2783 -0.2654
  481MPD2    C1 7205   2.060   1.860  14.154 -0.0371 -0.2143 -0.0506
  481MPD2    C2 7206   2.035   1.818  14.286  0.4426 -0.5213  0.8051
  481MPD2    C3 7207   2.140   1.835  14.374  0.2849 -0.1363  0.7374
  481MPD2    C4 7208   2.264   1.885  14.331  0.5206 -0.7850 -0.2729
  481MPD2    C5 7209   2.283   1.936  14.205  0.0811 -0.2865 -0.3343
  481MPD2     H 7210   1.940   1.773  14.314  0.1105 -1.0125 -1.1188
  481MPD2    H1 7211   2.342   1.914  14.400 -0.7264  1.9887 -0.0019
  481MPD2    H2 7212   2.197   1.948  14.014 -0.8483 -2.1721 -1.0202
  481MPD2    H3 7213   2.375   1.987  14.180  0.6751 -1.0937  0.2130
  481MPD2     N 7214   2.126   1.799  14.514  0.3219 -0.3333  0.6036
  481MPD2    H5 7215   2.208   1.775  14.568 -0.3545  2.3067  2.7591
  481MPD2    N1 7216   1.958   1.867  14.057 -0.7931  0.4907 -0.2833
  481MPD2    H7 7217   1.978   1.902  13.963  1.4696 -2.7718 -0.9923
  482TMC3    C1 7218   1.743   1.902  13.977  0.0045  0.4999  0.5675
  482TMC3    C2 7219   1.630   1.834  13.948  0.0017  0.7710  0.4974
  482TMC3    C3 7220   1.552   1.882  13.848  0.5561 -0.1981  0.5666
  482TMC3    C4 7221   1.779   2.027  13.936 -0.8179  0.3689  0.4488
  482TMC3    C5 7222   1.694   2.066  13.832 -0.1782 -0.4476  0.0153
  482TMC3    C6 7223   1.582   2.000  13.786  0.2090 -0.2794 -0.7483
  482TMC3     C 7224   1.825   1.840  14.082 -0.8810  0.4833 -0.0635
  482TMC3     O 7225   1.771   1.769  14.167  0.2407 -0.7717  0.0997
  482TMC3     H 7226   1.624   1.732  13.985  0.6732  1.3064  2.0621
  482TMC3    H1 7227   1.862   2.088  13.970 -0.6704  0.9276 -0.9038
  482TMC3    H2 7228   1.502   2.054  13.737 -0.2401  0.3053  0.6426
  482TMC3    C7 7229   1.704   2.203  13.788  0.7048  0.0787  0.0191
  482TMC3    C8 7230   1.486   1.785  13.762  0.8407  0.2645 -0.3992
  482TMC3    O1 7231   1.724   2.296  13.870 -0.3588 -0.5956 -0.0386
  482TMC3    O2 7232   1.443   1.687  13.819 -0.0446 -0.5435  0.0602
  483TMC3    C1 7233   1.263   0.344   0.268  0.3204 -0.1484 -0.4263
  483TMC3    C2 7234   1.255   0.483   0.269  0.0896  0.0844  0.2193
  483TMC3    C3 7235   1.268   0.540   0.395  0.4112  0.2247 -0.4888
  483TMC3    C4 7236   1.288   0.268   0.383  0.6070 -0.6309  0.4105
  483TMC3    C5 7237   1.314   0.332   0.502  0.1949 -0.0102  0.0314
  483TMC3    C6 7238   1.294   0.469   0.511 -0.3897 -0.7728 -0.1416
  483TMC3     C 7239   1.190   0.279   0.163  0.1134  0.5754 -0.5096
  483TMC3     O 7240   1.169   0.331   0.060  0.5493  0.0246  0.2150
  483TMC3     H 7241   1.229   0.532   0.176 -0.5708 -0.4090  0.1463
  483TMC3    H1 7242   1.328   0.168   0.375  1.5077 -0.1183 -1.3917
  483TMC3    H2 7243   1.289   0.520   0.606  0.3221  0.9440 -1.0363
  483TMC3    C7 7244   1.263   0.253   0.604 -0.5416  0.6911 -0.7327
  483TMC3    C8 7245   1.216   0.673   0.406  0.5711 -0.0923  0.3856
  483TMC3    O1 7246   1.194   0.155   0.569 -0.1592  0.5226 -0.1293
  483TMC3    O2 7247   1.144   0.718   0.317 -0.2528 -0.1648  0.1434
  484MPD2     C 7248   2.452   3.804  12.555  0.6819  0.4525 -0.5829
  484MPD2    C1 7249   2.463   3.703  12.650 -0.2945 -0.0287  0.4796
  484MPD2    C2 7250   2.594   3.683  12.704 -0.4051  0.3819 -0.1993
  484MPD2    C3 7251   2.698   3.761  12.671  0.2231 -0.7615  0.2119
  484MPD2    C4 7252   2.689   3.843  12.561 -0.6833  0.3705  0.4897
  484MPD2    C5 7253   2.572   3.858  12.505 -0.9816 -0.0829 -0.2344
  484MPD2     H 7254   2.606   3.602  12.775  0.2371  0.1644 -0.5578
  484MPD2    H1 7255   2.772   3.897  12.518 -1.8524 -0.0415 -2.3405
  484MPD2    H2 7256   2.362   3.823  12.498 -1.4932  1.5226  3.1986
  484MPD2    H3 7257   2.566   3.932  12.426 -0.6070  0.0584 -0.1307
  484MPD2     N 7258   2.823   3.750  12.728  0.8182  0.0624  0.4964
  484MPD2    H5 7259   2.885   3.817  12.685  0.4681  0.3507  0.4376
  484MPD2    N1 7260   2.355   3.627  12.685  0.3712  0.1421  0.4778
  484MPD2    H7 7261   2.271   3.652  12.635 -0.0999  2.4743  2.4468
  485TMC3    C1 7262   2.994   3.703  12.879  0.0912 -0.1412  0.0924
  485TMC3    C2 7263   3.041   3.639  12.990  0.1807  0.4764 -0.4050
  485TMC3    C3 7264   3.168   3.656  13.024  0.5740 -0.0208 -0.1031
  485TMC3    C4 7265   3.079   3.779  12.798  0.5980 -0.4294 -0.0393
  485TMC3    C5 7266   3.200   3.809  12.854  0.1681 -0.0661  0.5985
  485TMC3    C6 7267   3.253   3.751  12.971 -0.4492  0.1641  0.0306
  485TMC3     C 7268   2.860   3.677  12.838  0.3146  0.1084 -0.7466
  485TMC3     O 7269   2.795   3.613  12.920  0.6438  0.4937  0.4621
  485TMC3     H 7270   2.977   3.581  13.056 -0.0768  1.1821 -0.0301
  485TMC3    H1 7271   3.042   3.811  12.702  0.8317 -2.3772 -0.7829
  485TMC3    H2 7272   3.343   3.776  13.026 -0.0018  1.0781 -1.1340
  485TMC3    C7 7273   3.310   3.844  12.766  0.1626 -0.3146  0.2139
  485TMC3    C8 7274   3.232   3.530  13.022  0.8424 -0.6704  0.3592
  485TMC3    O1 7275   3.418   3.829  12.819 -0.1043 -0.2440  0.2611
  485TMC3    O2 7276   3.168   3.433  13.056  0.2402 -0.8783 -0.5681
  486MPD2     C 7277   0.032   2.304  12.909  0.2519 -0.0515  0.3093
  486MPD2    C1 7278   4.650   2.302  12.839  0.2409  0.3556  0.2023
  486MPD2    C2 7279   4.620   2.415  12.765 -0.6943  0.0274  0.3607
  486MPD2    C3 7280   4.696   2.534  12.767  0.8559  0.8287  0.0122
  486MPD2    C4 7281   0.069   2.532  12.847  0.2530 -0.6020 -0.4389
  486MPD2    C5 7282   0.110   2.414  12.907  0.4186 -0.4330  0.0383
  486MPD2     H 7283   4.529   2.423  12.706 -0.7632 -0.7255  0.3565
  486MPD2    H1 7284   0.133   2.619  12.843  1.6735 -1.6622 -0.9711
  486MPD2    H2 7285   0.068   2.213  12.956 -2.7317 -2.5036 -2.1513
  486MPD2    H3 7286   0.207   2.412  12.956  0.2268 -0.7339  0.4119
  486MPD2     N 7287   4.677   2.654  12.702 -0.1053  0.5470  0.2940
  486MPD2    H5 7288   0.018   2.716  12.698 -0.3309  0.9522  1.9254
  486MPD2    N1 7289   4.568   2.193  12.849 -0.1286  0.1111  0.1935
  486MPD2    H7 7290   4.614   2.113  12.892 -1.3754 -0.7767 -0.1250
  487TMC3    C1 7291   4.370   2.058  12.857  0.5138 -0.2216  0.4911
  487TMC3    C2 7292   4.280   2.003  12.769 -0.2296 -0.1396  0.2123
  487TMC3    C3 7293   4.187   1.916  12.831  0.2984 -0.1918 -0.2839
  487TMC3    C4 7294   4.387   2.019  12.984 -0.4732  0.3523 -0.3150
  487TMC3    C5 7295   4.314   1.910  13.025 -0.2821  0.1153  0.2757
  487TMC3    C6 7296   4.197   1.869  12.957  0.3560 -0.3200  0.5549
  487TMC3     C 7297   4.436   2.186  12.815 -0.2753 -0.2835  0.1068
  487TMC3     O 7298   4.367   2.271  12.764  0.2777  0.4690 -0.0823
  487TMC3     H 7299   4.267   2.042  12.669 -3.2775  1.2588  1.1687
  487TMC3    H1 7300   4.479   2.047  13.034  0.9691 -2.5310 -1.3915
  487TMC3    H2 7301   4.139   1.783  12.988 -0.0196  0.1166  1.0547
  487TMC3    C7 7302   4.301   1.902  13.172  0.0766  0.1433  0.6507
  487TMC3    C8 7303   4.109   1.846  12.738  0.8614 -0.4409 -0.0249
  487TMC3    O1 7304   4.381   1.975  13.234 -0.2117 -0.0396 -0.1759
  487TMC3    O2 7305   4.156   1.846  12.625  0.2927  0.2737 -0.4552
  488MPD2     C 7306   0.003   4.212  16.085  0.0531 -0.0986  0.7124
  488MPD2    C1 7307   0.015   4.352  16.086 -0.0293  0.0963 -0.3668
  488MPD2    C2 7308   4.700   4.423  16.194 -0.2408  0.2524 -0.2082
  488MPD2    C3 7309   4.640   4.366  16.310  0.8140 -0.0009 -0.0783
  488MPD2    C4 7310   4.627   4.228  16.302  0.4129 -0.0920 -0.0598
  488MPD2    C5 7311   4.684   4.158  16.198 -0.4252  0.1174 -0.5257
  488MPD2     H 7312   4.693   4.530  16.176  0.1685  0.3194  0.0374
  488MPD2    H1 7313   4.583   4.179  16.388 -1.7631  1.1072 -0.4803
  488MPD2    H2 7314   0.031   4.143  16.006 -2.8843  1.0962 -1.3564
  488MPD2    H3 7315   4.673   4.050  16.200 -2.5880  0.3571  1.1329
  488MPD2     N 7316   4.593   4.448  16.415  0.1329  0.0351  0.5241
  488MPD2    H5 7317   4.626   4.543  16.424  0.7792  0.0162 -1.7318
  488MPD2    N1 7318   0.071   4.423  15.975 -0.2638  0.2225  0.7312
  488MPD2    H7 7319   0.055   4.523  15.968  0.4182  0.2820  0.0792
  489TMC3    C1 7320   4.504   4.495  16.619  0.3227  0.3813  0.3181
  489TMC3    C2 7321   4.508   4.629  16.589 -0.2262 -0.2206 -0.0804
  489TMC3    C3 7322   4.550   4.712  16.688  0.2963 -0.2099 -0.0566
  489TMC3    C4 7323   4.515   4.452  16.747 -0.3627 -0.0960  1.2373
  489TMC3    C5 7324   4.545   4.539  16.854  0.4663  0.3660  0.6224
  489TMC3    C6 7325   4.561   4.673  16.823 -0.0938 -0.2231 -0.0682
  489TMC3     C 7326   4.513   4.398  16.516 -0.7853 -0.3637  0.6474
  489TMC3     O 7327   4.456   4.289  16.525 -0.7868 -0.4582  0.0300
  489TMC3     H 7328   4.487   4.669  16.491 -0.7704 -1.6705 -0.5507
  489TMC3    H1 7329   4.508   4.346  16.770 -0.5109 -0.0696  1.3117
  489TMC3    H2 7330   4.568   0.006  16.904 -0.4818 -0.0112 -0.2268
  489TMC3    C7 7331   4.534   4.504  16.997 -0.4898  0.2559  0.1820
  489TMC3    C8 7332   4.598   0.105  16.649 -0.1913 -0.3679  0.6395
  489TMC3    O1 7333   4.535   4.601  17.074 -0.1336  0.1475 -0.1937
  489TMC3    O2 7334   4.622   0.114  16.531 -0.5848  0.0862  0.1929
  490MPD2     C 7335   0.793   4.187  17.099 -0.4298 -1.0494  0.7887
  490MPD2    C1 7336   0.794   4.071  17.168 -0.1544  0.4999  0.0433
  490MPD2    C2 7337   0.916   4.027  17.221 -0.2621  0.0345 -0.2776
  490MPD2    C3 7338   1.039   4.095  17.200 -0.0776  0.6524 -0.1916
  490MPD2    C4 7339   1.036   4.208  17.122 -0.2132  0.2456  0.0332
  490MPD2    C5 7340   0.914   4.254  17.087  0.7620 -0.5604  0.3755
  490MPD2     H 7341   0.916   3.926  17.260  0.4577 -1.2473 -3.5914
  490MPD2    H1 7342   1.131   4.255  17.097  0.1035 -0.0566  0.6898
  490MPD2    H2 7343   0.699   4.227  17.062  0.6164  0.1666 -0.5386
  490MPD2    H3 7344   0.901   4.344  17.029  0.2418 -0.4394  0.6758
  490MPD2     N 7345   1.161   4.042  17.255 -0.1880 -0.1996  0.0697
  490MPD2    H5 7346   1.245   4.082  17.216 -0.8869 -0.0144 -1.2574
  490MPD2    N1 7347   0.678   3.990  17.188  0.0873 -0.2135  0.7367
  490MPD2    H7 7348   0.692   3.901  17.234 -0.1951  0.7724  2.7027
  491TMC3    C1 7349   0.463   3.905  17.168  0.7272  0.1723  0.1739
  491TMC3    C2 7350   0.473   3.859  17.296  0.0576  0.4127 -1.1086
  491TMC3    C3 7351   0.390   3.750  17.334  0.4224 -0.1748  0.2492
  491TMC3    C4 7352   0.380   3.855  17.073 -0.3927 -0.1847  0.2939
  491TMC3    C5 7353   0.303   3.753  17.112  0.2657  0.3359 -0.2052
  491TMC3    C6 7354   0.311   3.697  17.236  0.4582  0.5661 -0.2335
  491TMC3     C 7355   0.550   4.010  17.125  0.5274 -0.3050  0.2424
  491TMC3     O 7356   0.505   4.082  17.037 -0.0952  0.0971  0.0260
  491TMC3     H 7357   0.541   3.905  17.368 -2.4378 -0.9912  2.1179
  491TMC3    H1 7358   0.367   3.901  16.976  2.1981 -0.7448 -0.3246
  491TMC3    H2 7359   0.250   3.610  17.254  2.2669 -0.9841 -1.5687
  491TMC3    C7 7360   0.203   3.699  17.023 -0.1102  0.8651  0.2328
  491TMC3    C8 7361   0.377   3.696  17.476  0.0941 -0.3364  0.3888
  491TMC3    O1 7362   0.169   3.584  17.038 -0.3160  0.4478  0.0268
  491TMC3    O2 7363   0.291   3.614  17.495 -0.3747 -0.6031 -0.4332
  492MPD2     C 7364   1.172   3.264  11.423  0.1426  0.2821  1.1131
  492MPD2    C1 7365   1.037   3.282  11.389 -0.3902  0.3084  0.3679
  492MPD2    C2 7366   0.946   3.253  11.491 -0.6363  0.2686  0.5725
  492MPD2    C3 7367   0.984   3.217  11.617  0.4181 -0.1041 -0.6567
  492MPD2    C4 7368   1.120   3.207  11.650  0.4635  0.2665 -0.3250
  492MPD2    C5 7369   1.215   3.231  11.553  0.1421 -1.2036  0.6066
  492MPD2     H 7370   0.842   3.265  11.463 -0.6670  0.0459  0.5844
  492MPD2    H1 7371   1.161   3.186  11.749 -0.5847  0.4704  0.1498
  492MPD2    H2 7372   1.248   3.285  11.349 -1.5307  0.6918 -0.5041
  492MPD2    H3 7373   1.317   3.235  11.589  0.9614  1.5728 -1.9819
  492MPD2     N 7374   0.896   3.184  11.719 -0.8189 -0.2027  0.5555
  492MPD2    H5 7375   0.935   3.166  11.811  2.8256  0.7442 -0.8288
  492MPD2    N1 7376   1.004   3.325  11.256  0.2126 -0.4844 -0.4126
  492MPD2    H7 7377   1.083   3.353  11.198  0.9208  0.2020  0.8892
  493TMC3    C1 7378   0.883   3.427  11.080 -0.2934 -0.1127  1.4594
  493TMC3    C2 7379   1.000   3.494  11.045 -0.6737 -0.1202  0.7869
  493TMC3    C3 7380   1.006   3.534  10.914  0.5805  0.5289 -0.2498
  493TMC3    C4 7381   0.783   3.397  10.987  0.2315 -0.2100 -0.4901
  493TMC3    C5 7382   0.807   3.426  10.861  0.1747  0.1182  0.2467
  493TMC3    C6 7383   0.912   3.498  10.817 -0.5387 -0.6950  0.4796
  493TMC3     C 7384   0.881   3.355  11.207  0.3186  0.0907  0.8246
  493TMC3     O 7385   0.774   3.339  11.262  0.2405 -0.4318 -0.2232
  493TMC3     H 7386   1.078   3.513  11.118 -1.5259  1.2902  1.3201
  493TMC3    H1 7387   0.701   3.337  11.022  0.8939 -0.9926 -0.2745
  493TMC3    H2 7388   0.929   3.517  10.712 -0.8106  0.5596  0.6613
  493TMC3    C7 7389   0.722   3.375  10.757  0.0799  0.6319 -0.4937
  493TMC3    C8 7390   1.120   3.620  10.881 -0.2894 -0.3223 -0.5603
  493TMC3    O1 7391   0.660   3.270  10.778  0.6365 -0.1443  0.1344
  493TMC3    O2 7392   1.230   3.607  10.934 -0.6453 -0.1315 -0.1758
  494TMC3    C1 7393   1.723   0.596   0.322  0.2683  0.2312  0.5372
  494TMC3    C2 7394   1.792   0.475   0.308 -0.8779 -0.6921  0.8223
  494TMC3    C3 7395   1.833   0.448   0.184 -0.3572  0.4009  0.3421
  494TMC3    C4 7396   1.687   0.682   0.224 -0.0061  0.1861 -0.1273
  494TMC3    C5 7397   1.737   0.646   0.094 -0.4396  0.0666  0.3215
  494TMC3    C6 7398   1.808   0.531   0.070 -0.2574  0.3711  0.1196
  494TMC3     C 7399   1.670   0.614   0.461  0.0947 -0.2425  0.4496
  494TMC3     O 7400   1.571   0.688   0.470 -0.6753 -0.2278 -0.0897
  494TMC3     H 7401   1.830   0.416   0.391  0.4110 -0.1445  0.6112
  494TMC3    H1 7402   1.633   0.775   0.237 -0.0717 -0.2881  3.0562
  494TMC3    H2 7403   1.848   0.507  17.727  1.5269  1.4263  0.5933
  494TMC3    C7 7404   1.722   0.740  17.738 -0.7231  0.3937  0.0150
  494TMC3    C8 7405   1.898   0.321   0.168 -0.3439  0.1965 -0.1872
  494TMC3    O1 7406   1.776   0.700  17.638  0.1908  0.4444 -0.1816
  494TMC3    O2 7407   1.952   0.274   0.267 -0.3616  0.5699  0.2742
  495TMC3    C1 7408   0.418   2.499  14.253 -0.3998 -0.5629 -0.8857
  495TMC3    C2 7409   0.334   2.544  14.155 -0.3018 -0.0628  0.2692
  495TMC3    C3 7410   0.260   2.656  14.172  0.6999 -0.1375  0.0449
  495TMC3    C4 7411   0.433   2.567  14.365 -0.9843 -0.2379  0.5549
  495TMC3    C5 7412   0.356   2.680  14.386 -0.3750  0.3647  0.1965
  495TMC3    C6 7413   0.263   2.719  14.293  0.0142  0.4687 -0.2136
  495TMC3     C 7414   0.497   2.377  14.227 -0.0631 -0.2891  0.7092
  495TMC3     O 7415   0.524   2.314  14.328 -0.4435  0.1068  0.0084
  495TMC3     H 7416   0.322   2.483  14.066  0.6433  1.8334 -1.1553
  495TMC3    H1 7417   0.494   2.522  14.442  0.3230  0.2017 -0.2234
  495TMC3    H2 7418   0.220   2.816  14.313 -0.2058  0.0535  1.3377
  495TMC3    C7 7419   0.363   2.739  14.518 -0.0531  0.3119 -0.8669
  495TMC3    C8 7420   0.140   2.664  14.097 -0.3557 -0.0561 -0.3755
  495TMC3    O1 7421   0.473   2.726  14.572 -0.1469 -0.3142 -0.2162
  495TMC3    O2 7422   0.040   2.708  14.157  0.1149  0.0347 -0.4821
  496MPD2     C 7423   2.309   3.135  15.007 -0.0257 -0.4635  0.9117
  496MPD2    C1 7424   2.381   3.059  15.101  0.4440  0.1969 -0.2274
  496MPD2    C2 7425   2.313   2.955  15.163 -0.0195 -0.0110 -0.1487
  496MPD2    C3 7426   2.179   2.924  15.137 -0.0025 -0.2144 -0.7381
  496MPD2    C4 7427   2.119   2.994  15.031 -0.4010  0.4753  0.4274
  496MPD2    C5 7428   2.183   3.106  14.978  0.4846 -0.5293 -0.3319
  496MPD2     H 7429   2.364   2.888  15.231  3.6215  1.5085 -1.4137
  496MPD2    H1 7430   2.013   2.986  15.011 -0.1241  3.1325 -2.1055
  496MPD2    H2 7431   2.338   3.218  14.944 -0.7390 -2.3844 -1.9215
  496MPD2    H3 7432   2.131   3.166  14.904 -0.0204 -1.8098 -1.0297
  496MPD2     N 7433   2.112   2.814  15.203 -0.2403 -0.3114  0.0662
  496MPD2    H5 7434   2.018   2.792  15.172 -0.3872 -0.4485  0.6187
  496MPD2    N1 7435   2.515   3.098  15.137  0.1323  0.0184  0.1241
  496MPD2    H7 7436   2.552   3.181  15.093  1.1135 -0.8364 -0.6617
  497TMC3    C1 7437   2.097   2.640  15.366  0.5222 -0.3012 -0.2508
  497TMC3    C2 7438   2.022   2.568  15.270 -0.3240  0.0328  0.1658
  497TMC3    C3 7439   1.965   2.446  15.305 -0.6169 -0.6830  0.9927
  497TMC3    C4 7440   2.124   2.582  15.486 -1.0596 -0.1157  0.2244
  497TMC3    C5 7441   2.056   2.465  15.519 -0.4797  0.2959 -0.0468
  497TMC3    C6 7442   1.984   2.396  15.431  0.6630 -0.8477  0.4818
  497TMC3     C 7443   2.162   2.768  15.326  0.1839  0.3587  0.3015
  497TMC3     O 7444   2.249   2.806  15.401  0.2150 -0.3545  0.0836
  497TMC3     H 7445   2.012   2.607  15.170 -0.3851 -0.1955  0.0829
  497TMC3    H1 7446   2.187   2.642  15.551  0.5018 -1.2208 -0.2717
  497TMC3    H2 7447   1.946   2.297  15.457 -0.2278 -0.7156 -0.3001
  497TMC3    C7 7448   2.044   2.425  15.657 -0.3231 -0.1712 -0.7035
  497TMC3    C8 7449   1.869   2.378  15.232 -0.0890  1.1486  0.2763
  497TMC3    O1 7450   1.950   2.348  15.687  0.2372 -0.0990  0.2170
  497TMC3    O2 7451   1.786   2.313  15.292  0.0101 -0.7196 -0.1906
  498MPD2     C 7452   3.307   3.400   9.435 -0.1293  0.7712  0.2517
  498MPD2    C1 7453   3.356   3.452   9.554  0.0424  0.1647 -0.5103
  498MPD2    C2 7454   3.289   3.419   9.672  0.0756 -0.1090  0.3547
  498MPD2    C3 7455   3.171   3.339   9.672  0.0617 -0.1908 -0.3836
  498MPD2    C4 7456   3.125   3.296   9.547 -0.1665  0.6899 -0.2332
  498MPD2    C5 7457   3.199   3.322   9.435 -0.4308  0.3615 -0.4760
  498MPD2     H 7458   3.311   3.467   9.767 -0.8835 -0.3339  0.6967
  498MPD2    H1 7459   3.034   3.240   9.527 -1.4408  2.3941  0.8696
  498MPD2    H2 7460   3.364   3.398   9.342 -0.4443  0.8804  0.0560
  498MPD2    H3 7461   3.168   3.276   9.342 -0.8714  0.3516 -0.3255
  498MPD2     N 7462   3.099   3.320   9.794  0.4320  0.5891  0.0587
  498MPD2    H5 7463   3.146   3.345   9.880  1.6896  1.8429 -0.9854
  498MPD2    N1 7464   3.471   3.531   9.559  0.0877  0.3000 -0.4391
  498MPD2    H7 7465   3.489   3.575   9.649  0.7113  0.0491 -0.4441
  499TMC3    C1 7466   3.668   3.660   9.503 -0.0389  0.0995 -0.6290
  499TMC3    C2 7467   3.694   3.668   9.634  0.3274  0.7491  0.8928
  499TMC3    C3 7468   3.776   3.776   9.666  0.4957  0.5085  0.0411
  499TMC3    C4 7469   3.704   3.754   9.406  0.2207 -0.5459 -0.0945
  499TMC3    C5 7470   3.781   3.859   9.449 -0.3885 -0.5876  0.1698
  499TMC3    C6 7471   3.814   3.879   9.579 -0.3074  0.0434 -0.0284
  499TMC3     C 7472   3.557   3.569   9.456  0.5551  0.0615  0.1715
  499TMC3     O 7473   3.552   3.525   9.340 -0.0439  0.3216  0.1937
  499TMC3     H 7474   3.649   3.609   9.713 -1.5921  2.2636  0.9379
  499TMC3    H1 7475   3.663   3.748   9.306  1.3415 -0.7682 -0.5379
  499TMC3    H2 7476   3.875   3.959   9.618 -2.2074  0.6317  1.8090
  499TMC3    C7 7477   3.796   3.978   9.360 -0.4028  0.4632 -0.6115
  499TMC3    C8 7478   3.827   3.791   9.805  0.0392  0.1241  0.1811
  499TMC3    O1 7479   3.839   4.081   9.409 -0.0567 -0.2639  0.3021
  499TMC3    O2 7480   3.841   3.905   9.840  0.5008  0.1786  0.1231
  500MPD2     C 7481   4.611   4.331  10.746 -0.1985 -0.0624  0.1533
  500MPD2    C1 7482   4.659   4.434  10.664 -0.0309 -0.1216 -0.5807
  500MPD2    C2 7483   4.594   4.461  10.540 -0.4206 -0.1985  0.2038
  500MPD2    C3 7484   4.491   4.376  10.491  0.0073 -0.5626 -0.2426
  500MPD2    C4 7485   4.447   4.273  10.576  0.3951 -0.5740 -0.4914
  500MPD2    C5 7486   4.507   4.251  10.699  0.3160 -0.3690 -0.2414
  500MPD2     H 7487   4.637   4.529  10.468  1.1862 -0.1363  1.2125
  500MPD2    H1 7488   4.363   4.214  10.541 -0.5595 -0.1617  1.0909
  500MPD2    H2 7489   4.649   4.311  10.845  0.3725 -0.5616 -0.1638
  500MPD2    H3 7490   4.456   4.177  10.759  2.1128  0.4863  2.3238
  500MPD2     N 7491   4.433   4.390  10.365 -0.2985 -0.1823  0.9403
  500MPD2    H5 7492   4.361   4.322  10.341  2.1055 -2.3258 -0.1839
  500MPD2    N1 7493   0.037   4.515  10.702  0.1241  0.4484 -0.5302
  500MPD2    H7 7494   0.061   4.580  10.628  0.0970  1.9235  0.7563
  501TMC3    C1 7495   0.231   4.582  10.818  0.6299  0.3151  0.3016
  501TMC3    C2 7496   0.223   4.704  10.757  0.1245 -0.7044  0.1897
  501TMC3    C3 7497   0.332   0.047  10.760 -0.5100  0.1739 -0.2242
  501TMC3    C4 7498   0.348   4.545  10.879  0.0931 -0.6424 -0.3690
  501TMC3    C5 7499   0.457   4.633  10.888  0.4387  0.3360  0.1403
  501TMC3    C6 7500   0.448   0.017  10.827 -0.4885  0.1208 -0.0244
  501TMC3     C 7501   0.115   4.497  10.812 -0.0586  0.8811 -0.2184
  501TMC3     O 7502   0.107   4.412  10.901 -0.9837 -0.4331  0.4121
  501TMC3     H 7503   0.139   0.006  10.702 -0.4240  1.0131  2.3559
  501TMC3    H1 7504   0.353   4.452  10.933 -0.4157  1.6239  3.5950
  501TMC3    H2 7505   0.533   0.084  10.826 -1.3917  1.2384 -1.1150
  501TMC3    C7 7506   0.577   4.590  10.942 -0.2151 -0.1121 -0.1047
  501TMC3    C8 7507   0.337   0.169  10.691 -0.0453  0.5280  0.1519
  501TMC3    O1 7508   0.587   4.471  10.974  0.4316 -0.3855 -0.0871
  501TMC3    O2 7509   0.410   0.252  10.743  0.1500 -0.2159 -0.2593
  502TMC3    C1 7510   4.352   3.123  14.423  0.2570 -0.2470 -0.5736
  502TMC3    C2 7511   4.399   3.226  14.345  0.2587 -0.0691 -0.6684
  502TMC3    C3 7512   4.349   3.346  14.370 -0.0210  0.5162 -0.7728
  502TMC3    C4 7513   4.233   3.130  14.492 -0.0065  0.6973  0.6118
  502TMC3    C5 7514   4.178   3.257  14.506 -0.8816 -0.8825 -0.5251
  502TMC3    C6 7515   4.236   3.370  14.440  0.0691  0.3593 -0.5407
  502TMC3     C 7516   4.461   3.082  14.514  0.4843  0.2548 -0.8448
  502TMC3     O 7517   4.573   3.101  14.469 -0.0720 -0.6003 -0.2968
  502TMC3     H 7518   4.493   3.214  14.292  0.8398 -0.7860  0.5227
  502TMC3    H1 7519   4.190   3.042  14.538 -2.5128  0.8507 -1.4377
  502TMC3    H2 7520   4.206   3.471  14.461 -0.8382 -0.1485  0.5614
  502TMC3    C7 7521   4.125   3.275  14.640  0.2429 -0.0612  1.0068
  502TMC3    C8 7522   4.447   3.439  14.414  0.2344  0.7081  0.8029
  502TMC3    O1 7523   4.163   3.186  14.713 -0.0289 -0.1685 -0.8324
  502TMC3    O2 7524   4.425   3.555  14.395  0.4381  0.3540 -0.2034
  503MPD2     C 7525   1.727   3.996  16.976 -0.2337  0.2328  0.4958
  503MPD2    C1 7526   1.834   4.066  17.028  0.6229  0.2304  0.0456
  503MPD2    C2 7527   1.936   3.996  17.094  0.1545 -0.3118  0.0427
  503MPD2    C3 7528   1.937   3.860  17.096  0.1624 -0.2219  0.7785
  503MPD2    C4 7529   1.828   3.788  17.041 -0.0631  0.3626 -0.6804
  503MPD2    C5 7530   1.725   3.851  16.980  0.6399  0.6923 -0.1724
  503MPD2     H 7531   2.016   4.051  17.141  0.8224 -1.9984  0.9010
  503MPD2    H1 7532   1.833   3.680  17.034 -1.0990  0.1757  1.3092
  503MPD2    H2 7533   1.637   4.040  16.935 -0.6402  0.1530  1.3058
  503MPD2    H3 7534   1.640   3.800  16.937  0.6022  1.0446 -0.5134
  503MPD2     N 7535   2.051   3.803  17.157  0.1198 -0.4259 -0.4775
  503MPD2    H5 7536   2.125   3.868  17.182  0.8729 -2.1828  1.8707
  503MPD2    N1 7537   1.831   4.205  17.049  0.2596 -0.1422  0.7252
  503MPD2    H7 7538   1.922   4.249  17.056  0.2625  0.2195 -1.6929
  504TMC3    C1 7539   2.185   3.636  17.250  0.7495  0.0490 -0.0834
  504TMC3    C2 7540   2.169   3.515  17.325  0.9967 -0.2462  0.4592
  504TMC3    C3 7541   2.280   3.433  17.334  0.4238 -0.4332 -0.0532
  504TMC3    C4 7542   2.299   3.668  17.182  0.7959  0.9221 -0.2442
  504TMC3    C5 7543   2.408   3.582  17.209 -0.2606  0.1728 -0.8272
  504TMC3    C6 7544   2.403   3.470  17.287  0.4354 -0.1698 -0.9479
  504TMC3     C 7545   2.068   3.671  17.179 -0.0076  0.8361  0.4516
  504TMC3     O 7546   1.982   3.589  17.167 -0.2769  0.2312 -0.4209
  504TMC3     H 7547   2.072   3.486  17.362  0.5907  0.5968  0.0741
  504TMC3    H1 7548   2.297   3.743  17.105  2.3092 -0.2906 -1.4679
  504TMC3    H2 7549   2.484   3.398  17.283  1.6757  0.9789  4.6822
  504TMC3    C7 7550   2.539   3.631  17.158 -0.1834 -0.1052 -0.0669
  504TMC3    C8 7551   2.262   3.306  17.388  0.2332  0.1937  0.4805
  504TMC3    O1 7552   2.543   3.717  17.073  0.1390 -0.0978 -0.8742
  504TMC3    O2 7553   2.152   3.262  17.394 -0.5553 -0.6010  0.0935
  505MPD2     C 7554   2.313   3.495  10.707  0.4697 -0.0773 -0.0066
  505MPD2    C1 7555   2.346   3.413  10.813 -0.0648  0.0369 -0.4934
  505MPD2    C2 7556   2.466   3.436  10.879  0.3053 -0.1291  0.4061
  505MPD2    C3 7557   2.551   3.547  10.852  0.0064  0.5793  0.0023
  505MPD2    C4 7558   2.508   3.638  10.755  0.0311  0.2797  0.6897
  505MPD2    C5 7559   2.386   3.610  10.688 -0.2363  0.4282  0.5063
  505MPD2     H 7560   2.491   3.374  10.965  0.6938 -0.6586 -0.0903
  505MPD2    H1 7561   2.569   3.720  10.719  1.4890  0.0655  2.6267
  505MPD2    H2 7562   2.224   3.474  10.649 -0.5646 -0.1421  1.6086
  505MPD2    H3 7563   2.348   3.679  10.614  0.1125  0.5575  0.4456
  505MPD2     N 7564   2.672   3.561  10.931  0.7075 -0.0279 -0.5621
  505MPD2    H5 7565   2.696   3.480  10.987  0.6423  0.9385  0.8631
  505MPD2    N1 7566   2.258   3.305  10.843 -0.4217  0.0301  0.5447
  505MPD2    H7 7567   2.183   3.288  10.777 -1.9607  2.3527  1.6890
  506TMC3    C1 7568   2.201   3.096  10.937  0.0758 -0.1325  0.2261
  506TMC3    C2 7569   2.168   3.059  10.809  0.5242  0.6177 -0.1082
  506TMC3    C3 7570   2.200   2.935  10.774 -0.3963  0.3762  0.3445
  506TMC3    C4 7571   2.241   3.005  11.028  0.2425  0.6784 -0.1645
  506TMC3    C5 7572   2.275   2.884  10.987 -0.2338 -0.1198 -0.1344
  506TMC3    C6 7573   2.263   2.843  10.858  0.0448 -0.2219  0.8709
  506TMC3     C 7574   2.282   3.208  10.938  0.9457 -0.5713 -0.4363
  506TMC3     O 7575   2.366   3.192  11.027 -0.0773  0.3928  0.0281
  506TMC3     H 7576   2.127   3.126  10.735 -1.7094 -0.6711 -0.0341
  506TMC3    H1 7577   2.256   3.034  11.132  2.0821  1.9826 -0.8012
  506TMC3    H2 7578   2.272   2.739  10.828  0.6018  0.0184  0.2068
  506TMC3    C7 7579   2.389   2.835  11.054 -1.0433 -0.1685  0.6068
  506TMC3    C8 7580   2.197   2.916  10.631 -0.3825  0.6151  0.9903
  506TMC3    O1 7581   2.400   2.712  11.056  0.0810 -0.7534 -0.8554
  506TMC3    O2 7582   2.089   2.895  10.582  0.1604 -0.2310 -0.1070
  507TMC3    C1 7583   2.614   3.841  14.845 -0.7102  0.4551  0.5785
  507TMC3    C2 7584   2.723   3.829  14.768  0.6155 -0.3714  0.1457
  507TMC3    C3 7585   2.816   3.929  14.772  0.2246 -0.5924 -1.0014
  507TMC3    C4 7586   2.595   3.952  14.926  0.0809  0.1453 -0.2523
  507TMC3    C5 7587   2.692   4.045  14.935  0.3635 -0.1092 -0.3064
  507TMC3    C6 7588   2.807   4.031  14.863 -0.2920  0.7079  0.0578
  507TMC3     C 7589   2.492   3.800  14.776  0.2547  0.0910  0.1101
  507TMC3     O 7590   2.495   3.697  14.710 -0.4327  0.4521 -0.0430
  507TMC3     H 7591   2.731   3.743  14.702  0.4601 -0.7551  0.6296
  507TMC3    H1 7592   2.511   3.959  14.993 -0.3323  0.5844 -0.8181
  507TMC3    H2 7593   2.894   4.095  14.875 -0.0057  0.3611 -0.1730
  507TMC3    C7 7594   2.646   4.187  14.936  0.5960  0.7552  0.1432
  507TMC3    C8 7595   2.833   3.991  14.640 -0.6407 -0.0439 -0.3969
  507TMC3    O1 7596   2.584   4.217  15.035 -0.4980  0.0038  0.3054
  507TMC3    O2 7597   2.869   4.110  14.639 -0.3075  0.2207 -0.4047
  508MPD2     C 7598   4.212   0.875  15.583 -0.5578 -0.0449  0.2667
  508MPD2    C1 7599   4.190   0.999  15.645 -0.4386 -0.3946 -0.0985
  508MPD2    C2 7600   4.167   1.112  15.569  0.4073 -0.2227 -0.9118
  508MPD2    C3 7601   4.189   1.106  15.431 -0.0806 -0.0096 -0.3200
  508MPD2    C4 7602   4.220   0.981  15.374  0.1400 -0.3334  0.4227
  508MPD2    C5 7603   4.232   0.864  15.449  0.9961 -0.4243  0.4053
  508MPD2     H 7604   4.173   1.210  15.614 -1.9780 -0.5313  0.1145
  508MPD2    H1 7605   4.239   0.980  15.268 -1.4893 -0.6752  0.1337
  508MPD2    H2 7606   4.216   0.783  15.641  0.2513 -0.7669 -0.9242
  508MPD2    H3 7607   4.264   0.771  15.405  0.1848 -0.7353  0.4636
  508MPD2     N 7608   4.213   1.234  15.371 -0.1525 -0.0769  0.6316
  508MPD2    H5 7609   4.208   1.314  15.434  1.3946  0.8636 -0.4432
  508MPD2    N1 7610   4.182   1.015  15.788 -0.2240 -0.2900  0.3215
  508MPD2    H7 7611   4.213   0.935  15.842  0.2360 -0.1652  0.2377
  509TMC3    C1 7612   4.268   1.576  15.089  0.1257  0.0445  0.1331
  509TMC3    C2 7613   4.347   1.647  15.180 -0.3763 -0.1225 -0.8087
  509TMC3    C3 7614   4.384   1.594  15.299  0.1586 -0.0121 -0.2975
  509TMC3    C4 7615   4.241   1.445  15.112 -0.1534 -0.0985  0.3439
  509TMC3    C5 7616   4.289   1.391  15.226 -0.5957 -0.2537 -0.2727
  509TMC3    C6 7617   4.366   1.457  15.317  0.0433  0.4049 -0.1039
  509TMC3     C 7618   4.222   1.640  14.966  0.0011 -0.0485  1.0617
  509TMC3     O 7619   4.220   1.565  14.867  0.1103  0.1592  0.0216
  509TMC3     H 7620   4.380   1.749  15.163  1.9551 -0.5149  1.4243
  509TMC3    H1 7621   4.199   1.389  15.029 -1.7835  1.4598  0.1117
  509TMC3    H2 7622   4.391   1.408  15.410 -0.7428  0.7067  0.2710
  509TMC3    C7 7623   4.260   1.250  15.244 -0.1596 -0.3056 -0.5676
  509TMC3    C8 7624   4.430   1.665  15.408 -0.2522  0.4794 -0.8298
  509TMC3    O1 7625   4.233   1.181  15.150 -0.3619  0.9582 -0.2751
  509TMC3    O2 7626   4.458   1.593  15.507 -0.2310 -0.3943  0.2164
  510MPD2     C 7627   1.613   3.079  14.746 -0.0249  0.0583 -0.2653
  510MPD2    C1 7628   1.670   2.959  14.781 -0.1554 -1.0886  0.7933
  510MPD2    C2 7629   1.808   2.943  14.759 -0.3353 -0.1778 -0.4540
  510MPD2    C3 7630   1.882   3.047  14.698 -0.0709 -0.5311  0.2198
  510MPD2    C4 7631   1.815   3.162  14.664 -0.3412  0.0728  0.9331
  510MPD2    C5 7632   1.681   3.178  14.678 -0.4917 -0.3363  0.1200
  510MPD2     H 7633   1.857   2.851  14.788 -0.0117  0.5010  1.2126
  510MPD2    H1 7634   1.860   3.253  14.625 -1.5312  0.0527 -0.4687
  510MPD2    H2 7635   1.506   3.096  14.752  0.4760  1.6891  3.9099
  510MPD2    H3 7636   1.635   3.274  14.658  0.0087 -0.3813 -1.2643
  510MPD2     N 7637   2.020   3.022  14.678 -0.0545  0.4820  0.1339
  510MPD2    H5 7638   2.051   2.926  14.695 -0.6011  0.4795  1.0526
  510MPD2    N1 7639   1.584   2.858  14.822  0.5586  0.2223  0.3720
  510MPD2    H7 7640   1.483   2.864  14.812  0.5600  0.1909  0.3389
  511TMC3    C1 7641   1.488   2.669  14.890 -0.3535  0.4245  0.0274
  511TMC3    C2 7642   1.384   2.735  14.949 -0.5609 -0.4444 -0.3495
  511TMC3    C3 7643   1.261   2.685  14.966 -0.1716  0.5902 -0.2433
  511TMC3    C4 7644   1.468   2.541  14.856 -0.4166 -0.2723  0.2952
  511TMC3    C5 7645   1.346   2.482  14.876 -0.0678  0.1878  0.6011
  511TMC3    C6 7646   1.236   2.556  14.925 -0.1340  0.1383 -0.0677
  511TMC3     C 7647   1.612   2.738  14.873 -0.2768 -0.2023  0.7261
  511TMC3     O 7648   1.720   2.676  14.876  0.6144  0.4407  0.2831
  511TMC3     H 7649   1.397   2.839  14.979 -0.7821 -0.2670 -0.8505
  511TMC3    H1 7650   1.547   2.487  14.805  1.6693  1.6927  1.4601
  511TMC3    H2 7651   1.133   2.523  14.913 -0.3918  0.2589  1.8809
  511TMC3    C7 7652   1.323   2.376  14.783 -0.3262 -0.3326 -0.2879
  511TMC3    C8 7653   1.190   2.749  15.075 -0.1370 -0.0424 -0.3941
  511TMC3    O1 7654   1.404   2.363  14.689 -0.4565  0.6114  0.2418
  511TMC3    O2 7655   1.194   2.871  15.089  0.5027  0.3167  0.0205
  512TMC3    C1 7656   1.225   2.034  13.188  0.0283 -0.2369 -0.6136
  512TMC3    C2 7657   1.291   2.069  13.297 -0.4540  0.4184 -0.5781
  512TMC3    C3 7658   1.222   2.109  13.408  0.5318 -0.0118  0.2317
  512TMC3    C4 7659   1.086   2.026  13.189 -0.0706 -0.1128 -0.0964
  512TMC3    C5 7660   1.017   2.074  13.299 -0.1886  0.2284  0.5869
  512TMC3    C6 7661   1.086   2.112  13.413 -0.6630  0.7198  0.5853
  512TMC3     C 7662   1.310   1.991  13.071 -0.2724 -0.1798  0.3696
  512TMC3     O 7663   1.417   1.951  13.104 -0.6335  0.0094 -0.5780
  512TMC3     H 7664   1.399   2.075  13.290 -0.4054  0.3765  0.1503
  512TMC3    H1 7665   1.035   1.985  13.102  1.5117 -1.9460 -0.1775
  512TMC3    H2 7666   1.038   2.153  13.501 -0.5729  1.2927  0.3704
  512TMC3    C7 7667   0.893   2.010  13.335  0.2306 -0.1411 -0.7719
  512TMC3    C8 7668   1.290   2.170  13.513  0.1059  0.5528  0.2985
  512TMC3    O1 7669   0.811   2.094  13.372  0.0246 -0.7601  0.2407
  512TMC3    O2 7670   1.392   2.117  13.556  0.1113  0.0543 -0.1461
  513MPD2     C 7671   2.559   2.623  13.599  0.1867 -0.1314 -0.7939
  513MPD2    C1 7672   2.507   2.498  13.575  0.1532 -0.1300  0.0514
  513MPD2    C2 7673   2.536   2.397  13.663  0.3381  0.4278  0.1013
  513MPD2    C3 7674   2.626   2.418  13.765 -0.5792 -0.3725 -0.5179
  513MPD2    C4 7675   2.678   2.541  13.789 -0.8444  0.6337  0.1607
  513MPD2    C5 7676   2.642   2.643  13.703  0.1959  0.4641 -0.2352
  513MPD2     H 7677   2.496   2.301  13.631 -1.2234  1.9657 -2.5212
  513MPD2    H1 7678   2.756   2.563  13.862  0.4108 -1.5826 -0.4857
  513MPD2    H2 7679   2.551   2.707  13.531 -0.2200 -0.5695 -1.2905
  513MPD2    H3 7680   2.688   2.739  13.723  0.1287  0.4257  0.1060
  513MPD2     N 7681   2.651   2.309  13.850 -1.4797  0.6997  0.1860
  513MPD2    H5 7682   2.618   2.221  13.811  0.2977 -0.8762  2.2572
  513MPD2    N1 7683   2.437   2.464  13.462  0.0022 -0.6497 -0.0361
  513MPD2    H7 7684   2.412   2.366  13.452 -1.2701 -0.2383 -0.9966
  514TMC3    C1 7685   2.351   2.458  13.259 -0.2972 -0.7565  1.1637
  514TMC3    C2 7686   2.407   2.460  13.132 -0.3889  0.0656 -0.0185
  514TMC3    C3 7687   2.409   2.337  13.068  0.6477 -0.3430 -0.0974
  514TMC3    C4 7688   2.289   2.347  13.312 -0.0826 -0.4313  0.0235
  514TMC3    C5 7689   2.314   2.226  13.247  0.3704 -0.0590  0.1157
  514TMC3    C6 7690   2.374   2.217  13.126  0.0232  0.2204 -0.3242
  514TMC3     C 7691   2.414   2.540  13.352  0.1831 -0.3247 -0.1255
  514TMC3     O 7692   2.469   2.640  13.312  0.4922  0.0950  0.0425
  514TMC3     H 7693   2.468   2.539  13.089  0.3624 -2.0616 -2.8984
  514TMC3    H1 7694   2.225   2.339  13.399 -0.6886 -1.5516 -0.5249
  514TMC3    H2 7695   2.372   2.126  13.068 -1.9970  0.2516 -0.2946
  514TMC3    C7 7696   2.365   2.131  13.347 -0.4630  0.4575 -0.5330
  514TMC3    C8 7697   2.511   2.314  12.965 -0.2970 -0.5005 -0.1830
  514TMC3    O1 7698   2.374   2.171  13.465 -0.3324  0.0459 -0.4556
  514TMC3    O2 7699   2.575   2.209  12.971 -0.2663 -0.2542  0.6911
  515MPD2     C 7700   0.825   4.213  14.136  0.2263  0.2544  0.5631
  515MPD2    C1 7701   0.788   4.156  14.254  0.3160  0.0459  0.2721
  515MPD2    C2 7702   0.832   4.207  14.376 -0.7185 -0.3085 -0.5673
  515MPD2    C3 7703   0.928   4.308  14.379  0.3614 -0.3790 -0.3118
  515MPD2    C4 7704   0.960   4.363  14.258  0.4433  0.2945  0.2438
  515MPD2    C5 7705   0.907   4.320  14.141 -0.6219 -0.5211  0.2482
  515MPD2     H 7706   0.793   4.167  14.469  3.2864 -1.0476  0.7616
  515MPD2    H1 7707   1.035   4.441  14.254 -1.8823  2.4496 -1.2492
  515MPD2    H2 7708   0.788   4.180  14.040 -1.7054  0.3259  1.2799
  515MPD2    H3 7709   0.929   4.365  14.045  0.7866  1.8110  1.6530
  515MPD2     N 7710   0.998   4.361  14.496  0.1497  0.4469 -0.3363
  515MPD2    H5 7711   1.057   4.441  14.478  0.3111  0.4150  0.0452
  515MPD2    N1 7712   0.704   4.041  14.247 -0.1818  0.0036 -0.0420
  515MPD2    H7 7713   0.693   3.998  14.156  0.5939 -1.7578  0.7093
  516TMC3    C1 7714   0.594   3.843  14.303  0.6222 -0.5313  0.9416
  516TMC3    C2 7715   0.493   3.875  14.218 -0.1839 -0.0311 -0.3794
  516TMC3    C3 7716   0.399   3.784  14.182  0.1599 -0.2145 -0.2392
  516TMC3    C4 7717   0.594   3.723  14.361  0.0626  0.1308  0.0341
  516TMC3    C5 7718   0.507   3.625  14.309 -0.7670 -0.0580 -0.1524
  516TMC3    C6 7719   0.411   3.654  14.215  0.0995  0.4705  0.4577
  516TMC3     C 7720   0.674   3.955  14.345  0.1257  0.4199  0.3145
  516TMC3     O 7721   0.719   3.952  14.457 -0.0596 -0.1911  0.1832
  516TMC3     H 7722   0.486   3.977  14.183 -2.0217 -0.0480 -0.0621
  516TMC3    H1 7723   0.665   3.707  14.442  1.7510  1.7132 -1.1458
  516TMC3    H2 7724   0.333   3.584  14.188 -0.9158  0.8990  2.2499
  516TMC3    C7 7725   0.499   3.508  14.396 -0.2428 -0.1761  0.6262
  516TMC3    C8 7726   0.320   3.823  14.060 -0.1740  0.2208  0.2854
  516TMC3    O1 7727   0.572   3.516  14.497  0.0024 -0.2702  0.9022
  516TMC3    O2 7728   0.280   3.936  14.039 -0.2960 -0.1914  0.6957
  517MPD2     C 7729   0.145   1.083   0.044  0.3007  0.3250  0.0996
  517MPD2    C1 7730   0.274   1.057   0.000  0.1457  0.2870 -0.0144
  517MPD2    C2 7731   0.375   1.113   0.070 -0.4959 -0.0044  0.4029
  517MPD2    C3 7732   0.354   1.196   0.179 -0.3528 -0.2601  0.8066
  517MPD2    C4 7733   0.231   1.227   0.216  0.8283  0.2856 -0.4214
  517MPD2    C5 7734   0.129   1.168   0.149  1.0281 -0.1871  0.3423
  517MPD2     H 7735   0.472   1.095   0.024  0.2963  0.3971  1.9098
  517MPD2    H1 7736   0.217   1.289   0.304  0.3825  1.4348 -1.3148
  517MPD2    H2 7737   0.055   1.051  17.748 -0.3854  0.1339  1.4270
  517MPD2    H3 7738   0.029   1.191   0.183  1.9083  0.6341  2.4495
  517MPD2     N 7739   0.451   1.259   0.263  0.7243  0.1468  0.0426
  517MPD2    H5 7740   0.421   1.328   0.331  0.6531  0.7713 -0.6119
  517MPD2    N1 7741   0.311   0.980  17.641 -0.2088  0.0335 -0.8861
  517MPD2    H7 7742   0.409   0.958  17.625 -0.4855 -1.3337 -0.6627
  518TMC3    C1 7743   0.285   0.832  17.457  0.2109  0.5970 -0.6147
  518TMC3    C2 7744   0.212   0.725  17.421  0.0440 -0.3260 -0.1323
  518TMC3    C3 7745   0.259   0.641  17.317 -0.8332 -0.0412 -0.3386
  518TMC3    C4 7746   0.404   0.862  17.391 -0.7641 -0.3175 -0.2843
  518TMC3    C5 7747   0.455   0.776  17.299 -0.8156 -0.1354 -0.3002
  518TMC3    C6 7748   0.380   0.667  17.257  0.7810 -0.1957  0.5003
  518TMC3     C 7749   0.223   0.920  17.556  1.4969 -0.9049  0.5397
  518TMC3     O 7750   0.105   0.904  17.579  0.5462 -0.3108  0.1674
  518TMC3     H 7751   0.114   0.707  17.464 -0.2593 -0.8149 -1.0007
  518TMC3    H1 7752   0.450   0.954  17.423  2.8647 -2.2246  0.0698
  518TMC3    H2 7753   0.419   0.591  17.190 -0.5856  0.0347 -0.5704
  518TMC3    C7 7754   0.606   0.773  17.308  0.4608 -0.4654 -0.4275
  518TMC3    C8 7755   0.202   0.504  17.287  0.4358  0.7649 -1.2431
  518TMC3    O1 7756   0.662   0.830  17.398  0.1247 -0.0942 -0.0677
  518TMC3    O2 7757   0.254   0.447  17.191 -0.5181 -0.0634 -0.3853
  519MPD2     C 7758   1.968   4.022  14.331 -0.2599 -0.0787  0.1833
  519MPD2    C1 7759   1.892   3.954  14.235 -0.7171 -0.6516  0.1481
  519MPD2    C2 7760   1.952   3.868  14.143 -0.4141  0.4308 -0.3300
  519MPD2    C3 7761   2.081   3.833  14.151 -0.0401 -0.1133  0.2956
  519MPD2    C4 7762   2.157   3.890  14.256 -0.3103  0.4229  0.1565
  519MPD2    C5 7763   2.101   3.983  14.341  0.4176  0.3300  0.2825
  519MPD2     H 7764   1.896   3.834  14.057  0.4954  2.7210 -1.8359
  519MPD2    H1 7765   2.262   3.869  14.268 -0.2345  0.0715 -1.1059
  519MPD2    H2 7766   1.932   4.096  14.402  1.1923  1.0143 -0.2212
  519MPD2    H3 7767   2.163   4.030  14.417  1.0307  1.5037 -0.9325
  519MPD2     N 7768   2.143   3.742  14.061 -0.3073  0.3482  0.2512
  519MPD2    H5 7769   2.238   3.714  14.085  0.9858  2.7187 -2.0522
  519MPD2    N1 7770   1.752   3.977  14.235  1.0222  0.2965  0.8141
  519MPD2    H7 7771   1.717   4.055  14.289 -0.8802 -0.3343  0.5229
  520TMC3    C1 7772   2.189   3.619  13.856 -0.6378  0.1271  0.1897
  520TMC3    C2 7773   2.183   3.645  13.718 -0.4073 -0.4233 -0.2710
  520TMC3    C3 7774   2.275   3.574  13.643 -0.2501 -0.5040 -0.1695
  520TMC3    C4 7775   2.273   3.542  13.922 -0.8616  0.0428 -0.2427
  520TMC3    C5 7776   2.358   3.475  13.842  0.3209 -0.9535  0.3980
  520TMC3    C6 7777   2.367   3.488  13.709 -0.4992 -0.2607 -0.4368
  520TMC3     C 7778   2.099   3.709  13.935 -0.0468 -0.3780 -0.2337
  520TMC3     O 7779   1.993   3.730  13.875 -0.1263 -0.0852 -0.2030
  520TMC3     H 7780   2.120   3.729  13.692 -0.3388  0.8186  3.5852
  520TMC3    H1 7781   2.265   3.531  14.029 -2.6948 -2.3319 -0.6159
  520TMC3    H2 7782   2.435   3.437  13.641  0.4718 -0.0992  0.4222
  520TMC3    C7 7783   2.446   3.382  13.910  0.3203 -0.7008  0.7239
  520TMC3    C8 7784   2.279   3.579  13.497  0.0212  0.2263  0.1578
  520TMC3    O1 7785   2.436   3.384  14.030  0.6317  0.4008 -0.3512
  520TMC3    O2 7786   2.364   3.510  13.445  0.1069 -0.0795  0.2849
  521MPD2     C 7787   2.842   1.810  17.282 -0.0877 -0.4035  0.2980
  521MPD2    C1 7788   2.785   1.758  17.172 -0.1247  0.0759  0.2951
  521MPD2    C2 7789   2.869   1.712  17.070 -0.4498  0.3390  0.2492
  521MPD2    C3 7790   3.006   1.705  17.090 -0.6932 -0.3568  0.0730
  521MPD2    C4 7791   3.059   1.741  17.212  0.4439 -0.2509 -0.1095
  521MPD2    C5 7792   2.979   1.797  17.304 -0.6702 -0.1119 -0.0427
  521MPD2     H 7793   2.833   1.688  16.970 -0.6445 -1.8447  0.8580
  521MPD2    H1 7794   3.165   1.735  17.233  0.4251  0.2902  0.1450
  521MPD2    H2 7795   2.779   1.855  17.358 -1.7149 -0.6216 -0.9198
  521MPD2    H3 7796   3.032   1.830  17.392  0.9955  0.6695 -1.3162
  521MPD2     N 7797   3.088   1.667  16.981  0.0559 -0.2983 -0.3965
  521MPD2    H5 7798   3.039   1.647  16.895 -3.1722 -2.3335  1.9329
  521MPD2    N1 7799   2.641   1.767  17.167  0.0826 -0.1047  0.2148
  521MPD2    H7 7800   2.600   1.797  17.255  1.0112  1.0722  0.2480
  522TMC3    C1 7801   3.265   1.603  16.846 -0.1130 -0.4573  0.1909
  522TMC3    C2 7802   3.364   1.510  16.851 -0.4869  0.5847  0.0821
  522TMC3    C3 7803   3.450   1.509  16.742  0.2735 -0.6100 -0.6443
  522TMC3    C4 7804   3.237   1.686  16.743  0.3088  0.5791  0.6751
  522TMC3    C5 7805   3.342   1.679  16.641 -0.6142  0.1158 -0.8976
  522TMC3    C6 7806   3.452   1.607  16.650 -0.1982  0.1150 -0.3537
  522TMC3     C 7807   3.227   1.655  16.977 -0.1403 -0.9849  0.1903
  522TMC3     O 7808   3.300   1.618  17.068  0.0876  0.4438  0.2353
  522TMC3     H 7809   3.372   1.440  16.933 -0.9935  1.3788  0.8144
  522TMC3    H1 7810   3.153   1.754  16.739 -1.7331 -2.0620 -1.3758
  522TMC3    H2 7811   3.526   1.607  16.570 -1.5433 -0.7904 -1.6120
  522TMC3    C7 7812   3.352   1.785  16.544 -0.4393 -0.2608  0.1586
  522TMC3    C8 7813   3.572   1.442  16.771 -0.3342  0.3927  0.1430
  522TMC3    O1 7814   3.466   1.819  16.510 -0.3930  0.2748 -0.5410
  522TMC3    O2 7815   3.588   1.389  16.879  0.4389 -0.1801 -0.6367
  523MPD2     C 7816   0.292   2.283  10.267  0.0379  0.1357  0.0117
  523MPD2    C1 7817   0.254   2.168  10.208 -0.2547  0.2283 -0.3431
  523MPD2    C2 7818   0.164   2.177  10.096 -0.3853  0.8767 -0.2479
  523MPD2    C3 7819   0.112   2.302  10.059 -0.5009  0.6081 -0.1363
  523MPD2    C4 7820   0.146   2.415  10.127 -0.7909 -0.0756 -0.2989
  523MPD2    C5 7821   0.238   2.405  10.228  0.7218 -0.6404  0.4008
  523MPD2     H 7822   0.131   2.090  10.040 -1.0302 -0.0937  1.6326
  523MPD2    H1 7823   0.102   2.510  10.101  1.0342  0.8914  0.1925
  523MPD2    H2 7824   0.379   2.289  10.331 -0.1842 -1.9803  0.5251
  523MPD2    H3 7825   0.258   2.498  10.280 -0.0292 -0.9898  1.3124
  523MPD2     N 7826   0.002   2.311   9.968 -0.2382  0.4067  0.0849
  523MPD2    H5 7827   4.702   2.404   9.969  3.2237  1.8588  2.3693
  523MPD2    N1 7828   0.317   2.049  10.247 -0.3753 -0.0253  0.1593
  523MPD2    H7 7829   0.395   2.067  10.309  0.4953 -1.1202 -0.6262
  524TMC3    C1 7830   4.560   2.254   9.835  0.2913 -0.2241 -0.1216
  524TMC3    C2 7831   4.519   2.181   9.728 -0.3252 -0.8803  0.0890
  524TMC3    C3 7832   4.413   2.243   9.658  0.0391  0.4137 -0.0347
  524TMC3    C4 7833   4.494   2.364   9.888  0.0510 -0.5641  0.4273
  524TMC3    C5 7834   4.379   2.409   9.820  0.3505  0.6619 -0.7056
  524TMC3    C6 7835   4.348   2.359   9.696  0.8119  0.3092 -0.0377
  524TMC3     C 7836   4.681   2.207   9.900 -0.1354 -0.2342  0.2082
  524TMC3     O 7837   4.726   2.100   9.865 -0.4253 -0.0187  0.3089
  524TMC3     H 7838   4.594   2.119   9.681  0.0969 -0.1127 -0.2566
  524TMC3    H1 7839   4.524   2.413   9.980 -1.5642  1.8161 -0.3226
  524TMC3    H2 7840   4.254   2.384   9.648  0.5284 -0.8699 -0.1142
  524TMC3    C7 7841   4.304   2.520   9.883  0.2223  0.1639 -0.4450
  524TMC3    C8 7842   4.374   2.188   9.526  0.6778  0.5889  0.5716
  524TMC3    O1 7843   4.335   2.548  10.000  0.2763 -0.1800  0.3015
  524TMC3    O2 7844   4.296   2.255   9.461 -0.4404  0.3882  0.2673
  525MPD2     C 7845   3.506   3.270  14.393 -0.0852 -0.2493  0.8527
  525MPD2    C1 7846   3.621   3.283  14.471 -0.5589  0.0759  0.4400
  525MPD2    C2 7847   3.723   3.373  14.439  0.0684 -0.1340  0.4840
  525MPD2    C3 7848   3.698   3.460  14.333 -0.0343  0.6395 -0.1645
  525MPD2    C4 7849   3.587   3.437  14.258  0.6525  0.1897 -0.1730
  525MPD2    C5 7850   3.498   3.345  14.281  0.5546 -0.1011 -0.7640
  525MPD2     H 7851   3.815   3.372  14.497 -1.1857  0.7258  2.5090
  525MPD2    H1 7852   3.585   3.502  14.171 -1.2168  1.3407  0.7309
  525MPD2    H2 7853   3.417   3.215  14.421 -1.6723  1.1964 -1.3977
  525MPD2    H3 7854   3.407   3.352  14.222 -0.6061  1.7902  1.2325
  525MPD2     N 7855   3.770   3.578  14.311  0.3540  0.2614 -0.4672
  525MPD2    H5 7856   3.719   3.646  14.255  2.7441  1.6297 -0.9836
  525MPD2    N1 7857   3.638   3.211  14.586 -0.2356 -0.4919  0.0252
  525MPD2    H7 7858   3.721   3.245  14.634  2.0529 -2.5278 -2.4561
  526TMC3    C1 7859   3.628   3.078  14.766  0.4508 -0.0532 -0.1880
  526TMC3    C2 7860   3.547   3.048  14.876 -0.6422  0.2645  0.2729
  526TMC3    C3 7861   3.605   3.043  14.996 -0.2979  0.0501  0.3660
  526TMC3    C4 7862   3.768   3.088  14.779  0.8205 -0.3154 -0.5985
  526TMC3    C5 7863   3.819   3.061  14.901 -0.0958 -0.1520  1.2429
  526TMC3    C6 7864   3.744   3.043  15.010 -0.0121 -0.3032  0.4277
  526TMC3     C 7865   3.564   3.108  14.644  0.7652 -0.5490  0.0451
  526TMC3     O 7866   3.453   3.061  14.614 -0.0966  0.3430 -0.6797
  526TMC3     H 7867   3.442   3.026  14.863 -0.4742 -0.9173  0.9226
  526TMC3    H1 7868   3.836   3.118  14.700  2.3081 -0.1503  0.7513
  526TMC3    H2 7869   3.793   3.030  15.106  1.4875 -0.9347 -0.4126
  526TMC3    C7 7870   3.952   3.000  14.917 -0.1857 -0.1899  0.6244
  526TMC3    C8 7871   3.536   3.084  15.115  0.7603 -0.0526 -0.0611
  526TMC3    O1 7872   3.999   2.965  15.028  0.1449  0.5301  0.4688
  526TMC3    O2 7873   3.594   3.072  15.221 -0.0087 -0.4906  0.2323
  527MPD2     C 7874   1.000   1.083   1.159 -0.4977 -0.0769 -0.5589
  527MPD2    C1 7875   1.056   1.158   1.056 -0.9385  0.0796  0.3240
  527MPD2    C2 7876   1.181   1.127   1.011 -0.0976  0.9296  0.6873
  527MPD2    C3 7877   1.265   1.043   1.077  0.1159 -0.1482 -0.3312
  527MPD2    C4 7878   1.210   0.972   1.178 -0.8635 -0.0178  0.1332
  527MPD2    C5 7879   1.079   0.990   1.218  0.3884  0.2134  0.6412
  527MPD2     H 7880   1.218   1.172   0.920 -0.1950 -2.0719 -0.8416
  527MPD2    H1 7881   1.271   0.916   1.248 -0.5789  0.6921  0.4504
  527MPD2    H2 7882   0.903   1.109   1.201 -1.3124 -2.1649 -1.1245
  527MPD2    H3 7883   1.033   0.946   1.307 -1.4028  1.4567  0.3406
  527MPD2     N 7884   1.398   1.028   1.042  0.5479 -0.5141 -0.4865
  527MPD2    H5 7885   1.423   1.086   0.963 -2.4796 -0.2590 -1.2424
  527MPD2    N1 7886   0.980   1.248   0.979  0.7633 -0.1940 -0.0909
  527MPD2    H7 7887   1.020   1.293   0.898 -0.9814  1.7107  0.0944
  528TMC3    C1 7888   0.803   1.382   0.906  0.0783 -0.2371 -0.2657
  528TMC3    C2 7889   0.894   1.474   0.870  0.3088  0.0596  0.0235
  528TMC3    C3 7890   0.865   1.607   0.841 -0.3345  0.6999 -0.4961
  528TMC3    C4 7891   0.672   1.417   0.912 -0.5139 -0.1704 -0.0661
  528TMC3    C5 7892   0.645   1.555   0.891 -0.4290  0.4328  0.1082
  528TMC3    C6 7893   0.739   1.650   0.862  0.2019 -1.0014 -0.3879
  528TMC3     C 7894   0.846   1.278   0.997 -0.2308  0.1302  0.2910
  528TMC3     O 7895   0.768   1.255   1.087 -0.0968 -0.5232 -0.3946
  528TMC3     H 7896   0.995   1.442   0.847  0.3980 -0.9657  1.8196
  528TMC3    H1 7897   0.599   1.351   0.959  0.4589 -1.8687 -0.9541
  528TMC3    H2 7898   0.697   1.749   0.849  1.1467 -0.6258 -0.6131
  528TMC3    C7 7899   0.507   1.608   0.914 -0.5154  0.1925 -0.2378
  528TMC3    C8 7900   0.971   1.706   0.832 -0.0407  0.5095  0.8561
  528TMC3    O1 7901   0.491   1.730   0.913  0.5939  0.3774 -0.1189
  528TMC3    O2 7902   1.080   1.671   0.786  0.1395  0.2335 -0.0207
  529MPD2     C 7903   3.470   4.006   0.484 -0.2037  0.7336  0.5417
  529MPD2    C1 7904   3.586   4.080   0.484  0.0096  0.2374 -0.8722
  529MPD2    C2 7905   3.592   4.196   0.410 -0.0066  0.3712 -0.3943
  529MPD2    C3 7906   3.486   4.239   0.335  0.4807 -0.3393  0.2535
  529MPD2    C4 7907   3.368   4.167   0.347  0.2548  0.6296  0.5092
  529MPD2    C5 7908   3.365   4.043   0.410 -0.2214 -0.2701 -0.2448
  529MPD2     H 7909   3.683   4.256   0.413  1.0638 -1.2019 -1.2282
  529MPD2    H1 7910   3.289   4.194   0.278  0.7787  2.6745  0.7241
  529MPD2    H2 7911   3.463   3.909   0.531 -0.2414  1.5258  2.1579
  529MPD2    H3 7912   3.275   3.983   0.406  0.1900 -0.8110 -1.3279
  529MPD2     N 7913   3.480   4.360   0.259  0.0937  0.2673 -0.2297
  529MPD2    H5 7914   3.388   4.391   0.229 -0.5383 -1.2662  0.1147
  529MPD2    N1 7915   3.694   4.044   0.576 -0.4388  0.1608  0.1837
  529MPD2    H7 7916   3.769   4.111   0.588 -0.8893  0.8505 -0.7774
  530TMC3    C1 7917   3.811   3.932   0.754 -0.1788  0.2811  0.0864
  530TMC3    C2 7918   3.918   4.013   0.731 -0.0897 -0.6254 -0.5255
  530TMC3    C3 7919   4.022   4.001   0.812  0.1373 -0.0204  1.2734
  530TMC3    C4 7920   3.795   3.855   0.862  0.2155  0.4189 -1.0456
  530TMC3    C5 7921   3.894   3.854   0.953 -0.3777  0.2327  0.4270
  530TMC3    C6 7922   4.009   3.930   0.935  0.4029 -0.7167 -0.1450
  530TMC3     C 7923   3.699   3.932   0.655  0.8695  0.1196  0.4627
  530TMC3     O 7924   3.614   3.851   0.678 -0.1005  0.5187 -0.2355
  530TMC3     H 7925   3.937   4.059   0.634 -1.1227  0.9450  0.0121
  530TMC3    H1 7926   3.699   3.804   0.872  1.1611 -1.4383 -1.3544
  530TMC3    H2 7927   4.098   3.910   0.994 -0.2406 -2.8877  0.0954
  530TMC3    C7 7928   3.864   3.783   1.072 -0.1883 -0.1676  0.5481
  530TMC3    C8 7929   4.153   4.056   0.779  0.1527 -0.5507  0.2342
  530TMC3    O1 7930   3.969   3.737   1.122  0.0985  0.0939  0.0221
  530TMC3    O2 7931   4.161   4.138   0.685 -0.2532  0.2647  0.1291
  531MPD2     C 7932   2.600   1.717  13.509  0.3556 -0.1120 -1.2278
  531MPD2    C1 7933   2.586   1.842  13.559 -0.2031  0.2347 -0.2355
  531MPD2    C2 7934   2.523   1.943  13.492 -0.4351  0.4096 -0.8898
  531MPD2    C3 7935   2.484   1.921  13.364 -0.1541 -0.2642 -0.3472
  531MPD2    C4 7936   2.523   1.802  13.304  0.0932  0.0126 -0.0351
  531MPD2    C5 7937   2.564   1.692  13.378  0.0555 -0.4972  0.0646
  531MPD2     H 7938   2.520   2.044  13.534 -1.9167  0.6523 -1.6077
  531MPD2    H1 7939   2.485   1.784  13.205 -0.2831  0.8394 -0.0426
  531MPD2    H2 7940   2.647   1.639  13.568 -3.0335 -1.2319 -0.0087
  531MPD2    H3 7941   2.563   1.598  13.325 -1.4153 -0.8035  0.6286
  531MPD2     N 7942   2.407   2.016  13.293 -0.5422 -0.0479 -0.1536
  531MPD2    H5 7943   2.385   1.999  13.195 -0.7218 -2.9063  0.3612
  531MPD2    N1 7944   2.636   1.852  13.694  0.0895 -0.0041  0.3672
  531MPD2    H7 7945   2.686   1.770  13.726  1.9923 -0.2063 -3.2471
  532TMC3    C1 7946   2.678   1.958  13.899 -0.2171  0.2934 -0.3068
  532TMC3    C2 7947   2.642   2.077  13.961 -0.6837  0.2466  0.1782
  532TMC3    C3 7948   2.734   2.163  14.007 -0.6299  0.3469  0.3007
  532TMC3    C4 7949   2.814   1.930  13.890  0.2824 -0.1331  0.1154
  532TMC3    C5 7950   2.904   2.019  13.938  0.0737 -0.1434 -0.1455
  532TMC3    C6 7951   2.866   2.126  14.008 -0.4333  0.3793 -0.6993
  532TMC3     C 7952   2.608   1.960  13.781  0.0983 -0.1103 -0.1630
  532TMC3     O 7953   2.547   2.063  13.756  0.0976  0.0258 -0.1753
  532TMC3     H 7954   2.540   2.113  13.969 -0.7593 -0.2753  1.4476
  532TMC3    H1 7955   2.836   1.833  13.847  1.7557  0.5032 -0.5918
  532TMC3    H2 7956   2.937   2.205  14.027  1.5655 -1.7614  0.6593
  532TMC3    C7 7957   3.043   1.980  13.938  0.8987 -0.2676 -1.0271
  532TMC3    C8 7958   2.721   2.303  13.963 -0.4094 -0.3743  0.2013
  532TMC3    O1 7959   3.119   2.049  14.004 -0.3903 -0.4064  0.5575
  532TMC3    O2 7960   2.784   2.391  14.020 -0.4031  0.6273  0.0726
  533TMC3    C1 7961   3.943   3.739  14.332  0.1672 -0.3291  0.3005
  533TMC3    C2 7962   4.077   3.767  14.300 -0.4513 -0.6998  1.1022
  533TMC3    C3 7963   4.097   3.900  14.273 -0.2617  0.0748 -0.0108
  533TMC3    C4 7964   3.857   3.837  14.364 -0.1855  0.3575  0.4959
  533TMC3    C5 7965   3.879   3.966  14.331 -0.0379  0.1427  0.2265
  533TMC3    C6 7966   4.001   4.001  14.284  0.1324 -0.7560  0.2057
  533TMC3     C 7967   3.904   3.601  14.355  0.2473  0.9575 -0.2124
  533TMC3     O 7968   3.973   3.517  14.414  0.2979  0.8160  0.7487
  533TMC3     H 7969   4.139   3.689  14.258 -1.0042 -0.3933 -0.2875
  533TMC3    H1 7970   3.758   3.805  14.397 -0.4632 -1.0852 -1.7510
  533TMC3    H2 7971   4.021   4.106  14.266 -1.7735 -0.4079  0.1050
  533TMC3    C7 7972   3.808   4.068  14.397 -0.6323 -0.4006 -0.6435
  533TMC3    C8 7973   4.223   3.940  14.224  0.1812 -1.2924 -0.7603
  533TMC3    O1 7974   3.791   4.175  14.338  0.5584  0.2921 -0.2364
  533TMC3    O2 7975   4.308   3.850  14.216 -0.2624  0.1685  0.0582
  534MPD2     C 7976   1.714   4.733   1.945  0.4342 -0.1814  0.4084
  534MPD2    C1 7977   1.730   0.077   1.835  0.8543 -0.3814 -0.1114
  534MPD2    C2 7978   1.671   0.038   1.715  0.7920 -0.1989  0.1674
  534MPD2    C3 7979   1.619   4.651   1.693  0.0551  0.1422  0.5161
  534MPD2    C4 7980   1.617   4.564   1.802  0.0201 -0.1042  0.7961
  534MPD2    C5 7981   1.658   4.608   1.924  0.1659  0.4955  0.2956
  534MPD2     H 7982   1.672   0.120   1.645 -1.5070 -2.9102 -3.0427
  534MPD2    H1 7983   1.571   4.465   1.806 -1.2466  0.4092 -1.1383
  534MPD2    H2 7984   1.743   0.024   2.045  1.2690  2.6957 -0.7015
  534MPD2    H3 7985   1.637   4.544   2.009 -0.1094  0.7991  0.4557
  534MPD2     N 7986   1.566   4.610   1.567  0.2273 -0.1019  0.0989
  534MPD2    H5 7987   1.524   4.518   1.565 -0.0553 -0.0086  1.6102
  534MPD2    N1 7988   1.775   0.208   1.849 -0.0091 -0.5139 -0.5145
  534MPD2    H7 7989   1.754   0.273   1.773 -0.7340 -1.7603 -1.3814
  535TMC3    C1 7990   1.479   4.647   1.355  0.7404 -0.0254 -0.5728
  535TMC3    C2 7991   1.349   4.627   1.401  0.1463  0.2223  0.7825
  535TMC3    C3 7992   1.253   4.617   1.304 -0.1247 -1.2566 -0.3726
  535TMC3    C4 7993   1.507   4.683   1.226 -0.1640  0.4554 -0.4304
  535TMC3    C5 7994   1.404   4.682   1.135  0.3931 -0.2346 -0.8830
  535TMC3    C6 7995   1.281   4.629   1.170  0.4821  0.0462 -0.4009
  535TMC3     C 7996   1.578   4.689   1.452 -0.1685 -0.3063  0.2473
  535TMC3     O 7997   1.650   0.042   1.419  0.8460  0.9935 -0.8297
  535TMC3     H 7998   1.335   4.611   1.507  0.3220  1.2295  0.9534
  535TMC3    H1 7999   1.603   4.707   1.182  0.0260 -1.1869 -0.9063
  535TMC3    H2 8000   1.203   4.622   1.094  0.1312  0.5718 -0.0904
  535TMC3    C7 8001   1.424   4.685   0.987  0.1736 -0.0554 -0.2486
  535TMC3    C8 8002   1.118   4.612   1.342 -0.0695  0.3353 -1.2146
  535TMC3    O1 8003   1.345   4.621   0.915 -0.0564 -0.1983 -0.2527
  535TMC3    O2 8004   1.037   4.593   1.252 -0.4529 -0.0404  0.1274
  536MPD2     C 8005   0.133   3.340  15.882  0.0156  0.2645  0.0963
  536MPD2    C1 8006   0.013   3.292  15.917 -0.5450  0.0631  0.0527
  536MPD2    C2 8007   4.651   3.285  15.815  0.3619  0.8986  0.2176
  536MPD2    C3 8008   4.681   3.324  15.685  0.5771  0.4816 -0.9468
  536MPD2    C4 8009   0.067   3.367  15.656 -0.0287  0.8388 -0.3892
  536MPD2    C5 8010   0.165   3.387  15.754  0.0133 -0.0520  0.4645
  536MPD2     H 8011   4.554   3.254  15.851  1.3151 -0.4984  1.6136
  536MPD2    H1 8012   0.091   3.393  15.554  0.2654 -2.8535 -1.2577
  536MPD2    H2 8013   0.213   3.355  15.954  1.2810 -0.2499 -1.2001
  536MPD2    H3 8014   0.261   3.429  15.727  0.7637 -1.4604  0.9822
  536MPD2     N 8015   4.581   3.331  15.587  0.0564  0.3419 -0.4900
  536MPD2    H5 8016   4.613   3.358  15.495  2.1729  1.0102  0.4547
  536MPD2    N1 8017   4.716   3.260  16.046 -0.2780  0.5781 -0.0924
  536MPD2    H7 8018   4.623   3.222  16.059 -0.2664  1.0063  1.1992
  537TMC3    C1 8019   4.715   3.257  16.281  0.2135  0.3702  0.1414
  537TMC3    C2 8020   4.735   3.336  16.386  0.9141 -0.1143 -0.3894
  537TMC3    C3 8021   4.682   3.299  16.506  0.2152  0.2810 -0.1065
  537TMC3    C4 8022   4.652   3.137  16.300  0.2579  0.1050  0.1522
  537TMC3    C5 8023   4.608   3.095  16.422  0.3749  0.0253  0.1928
  537TMC3    C6 8024   4.623   3.174  16.532 -0.1539  0.0931  0.2011
  537TMC3     C 8025   0.054   3.272  16.158  0.2437  0.0672  0.8665
  537TMC3     O 8026   0.174   3.308  16.170 -0.3963  0.0467 -0.4382
  537TMC3     H 8027   0.056   3.426  16.380  0.0314  0.6270  1.6903
  537TMC3    H1 8028   4.653   3.061  16.223 -0.6375 -1.3246  1.5369
  537TMC3    H2 8029   4.604   3.134  16.631  1.8980 -0.5659  0.3340
  537TMC3    C7 8030   4.512   2.985  16.415  0.4483 -1.0021  0.0657
  537TMC3    C8 8031   4.711   3.385  16.623  0.1024  0.0294  0.4870
  537TMC3    O1 8032   4.493   2.926  16.308  0.1651 -0.0468  0.5237
  537TMC3    O2 8033   4.732   3.347  16.733 -0.3821 -0.8434  0.2063
  538TMC3    C1 8034   1.151   1.766  11.380 -0.5611 -0.0601 -0.1505
  538TMC3    C2 8035   1.196   1.677  11.287  0.1816  0.8369 -0.0710
  538TMC3    C3 8036   1.161   1.698  11.155 -0.4876  0.2590 -0.5491
  538TMC3    C4 8037   1.052   1.849  11.349 -0.2215 -0.2806  0.8509
  538TMC3    C5 8038   1.017   1.862  11.219  0.1534 -0.2323 -0.6746
  538TMC3    C6 8039   1.067   1.789  11.117 -0.4936  0.2492  0.4306
  538TMC3     C 8040   1.208   1.781  11.516  0.6029  0.3958 -0.2112
  538TMC3     O 8041   1.127   1.788  11.605  0.6093 -0.5906  0.1360
  538TMC3     H 8042   1.267   1.599  11.311 -0.2925 -0.0197 -1.5131
  538TMC3    H1 8043   1.014   1.927  11.414  0.1632 -0.4656  1.2970
  538TMC3    H2 8044   1.036   1.803  11.014 -1.2554 -0.0480  0.6208
  538TMC3    C7 8045   0.878   1.902  11.203  0.4042 -0.1930  0.9105
  538TMC3    C8 8046   1.217   1.611  11.053  0.1227 -0.6090  0.2584
  538TMC3    O1 8047   0.795   1.842  11.266 -0.4520 -0.2129 -0.0760
  538TMC3    O2 8048   1.236   1.493  11.084 -0.4393 -0.1474  0.2173
  539MPD2     C 8049   0.930   0.917  11.704 -0.1320  0.4695 -0.2093
  539MPD2    C1 8050   0.958   0.960  11.579  0.7135 -0.2135 -0.1010
  539MPD2    C2 8051   0.881   1.054  11.519  0.4034 -0.1817  0.3634
  539MPD2    C3 8052   0.774   1.104  11.589 -0.3482  0.5382 -0.2825
  539MPD2    C4 8053   0.752   1.076  11.725 -0.2052 -0.3406  0.8966
  539MPD2    C5 8054   0.824   0.970  11.780 -0.3916  0.0066  0.2594
  539MPD2     H 8055   0.899   1.078  11.415 -3.4881 -0.7688 -0.4264
  539MPD2    H1 8056   0.679   1.136  11.778 -0.0580 -0.7158  1.5270
  539MPD2    H2 8057   0.991   0.839  11.748  0.6840  1.3420  0.1974
  539MPD2    H3 8058   0.800   0.939  11.881 -0.5592  0.7519  0.4515
  539MPD2     N 8059   0.696   1.210  11.542  0.0410  0.3711  0.3901
  539MPD2    H5 8060   0.623   1.245  11.603  0.2431  0.3098  0.6712
  539MPD2    N1 8061   1.069   0.915  11.504  0.6202 -0.0261  0.2908
  539MPD2    H7 8062   1.082   0.950  11.409  2.3401 -3.3583 -0.7210
  540TMC3    C1 8063   0.644   1.400  11.405 -0.0658 -0.0661 -0.1930
  540TMC3    C2 8064   0.642   1.464  11.284  0.9319  0.0721  0.4014
  540TMC3    C3 8065   0.554   1.569  11.274  0.1986  0.2078  0.5124
  540TMC3    C4 8066   0.571   1.449  11.514 -0.3019  0.1750  0.1132
  540TMC3    C5 8067   0.499   1.567  11.499  0.0118 -0.1999 -0.3875
  540TMC3    C6 8068   0.474   1.623  11.377  0.2322 -0.1575  0.6070
  540TMC3     C 8069   0.713   1.273  11.421  0.9096 -1.1446 -0.8013
  540TMC3     O 8070   0.780   1.249  11.320 -0.7158  0.1371 -0.6120
  540TMC3     H 8071   0.718   1.440  11.211 -0.2499  0.0538 -0.8163
  540TMC3    H1 8072   0.584   1.411  11.615 -0.1630 -0.1407 -0.0257
  540TMC3    H2 8073   0.415   1.713  11.366 -0.8331 -0.9069  0.1995
  540TMC3    C7 8074   0.402   1.591  11.605  0.2504 -0.1480  0.5540
  540TMC3    C8 8075   0.509   1.599  11.143 -0.3821 -0.1784  0.5450
  540TMC3    O1 8076   0.388   1.501  11.689  0.0383  0.2419 -0.5915
  540TMC3    O2 8077   0.442   1.699  11.121  0.2388  0.0729 -0.4620
  541MPD2     C 8078   4.332   2.291  13.298 -0.0859 -0.4369 -0.3717
  541MPD2    C1 8079   4.199   2.320  13.278 -0.4236 -0.4646 -0.2056
  541MPD2    C2 8080   4.165   2.397  13.165 -1.0372 -0.0415 -0.3033
  541MPD2    C3 8081   4.258   2.437  13.070 -0.3444 -0.3494  0.1407
  541MPD2    C4 8082   4.383   2.393  13.091  0.3722  0.1650  0.3488
  541MPD2    C5 8083   4.424   2.325  13.199 -0.0676 -0.1873 -0.4850
  541MPD2     H 8084   4.059   2.410  13.147 -1.2308  1.7530  2.0618
  541MPD2    H1 8085   4.461   2.421  13.021 -0.5660  0.8552 -0.4220
  541MPD2    H2 8086   4.371   2.243  13.387  0.3393  0.1435 -0.2468
  541MPD2    H3 8087   4.531   2.306  13.206 -0.3308 -1.6910 -0.4450
  541MPD2     N 8088   4.222   2.502  12.949 -0.5306  0.1140 -0.3392
  541MPD2    H5 8089   4.296   2.510  12.880 -0.0672  0.4580  0.1936
  541MPD2    N1 8090   4.097   2.288  13.370 -0.5275  0.2007  0.2204
  541MPD2    H7 8091   4.001   2.291  13.338 -0.5802 -1.1697  0.2427
  542TMC3    C1 8092   4.076   2.602  12.794 -0.0097  0.3796 -0.3996
  542TMC3    C2 8093   4.153   2.558  12.691  0.7384 -0.3087 -0.3286
  542TMC3    C3 8094   4.118   2.603  12.563 -0.5861 -0.3557 -0.3454
  542TMC3    C4 8095   3.980   2.695  12.777  0.0366  0.3925 -0.3000
  542TMC3    C5 8096   3.951   2.727  12.651  0.5006  0.0321  0.5459
  542TMC3    C6 8097   4.014   2.683  12.538 -1.0814  0.3556  0.2046
  542TMC3     C 8098   4.098   2.557  12.927  0.4247  0.1758  0.2588
  542TMC3     O 8099   4.014   2.573  13.016  0.1511  0.3647 -0.7587
  542TMC3     H 8100   4.247   2.508  12.711 -0.1788 -0.9292  2.4148
  542TMC3    H1 8101   3.922   2.738  12.858  0.8412  0.7323  0.1033
  542TMC3    H2 8102   3.996   2.725  12.440  0.4598 -0.8971 -0.6224
  542TMC3    C7 8103   3.852   2.831  12.646 -0.3220 -0.7048 -0.1428
  542TMC3    C8 8104   4.160   2.529  12.454  0.1153  0.5698 -0.4854
  542TMC3    O1 8105   3.877   2.929  12.579  0.4857  0.5669  0.7694
  542TMC3    O2 8106   4.148   2.581  12.342 -0.0099 -0.2016 -0.7020
  543TMC3    C1 8107   3.375   3.953  17.030 -0.2219  0.4527 -0.3855
  543TMC3    C2 8108   3.407   3.834  17.077  0.0286 -0.0943 -0.1639
  543TMC3    C3 8109   3.367   3.809  17.203  0.1854  0.4179  0.3095
  543TMC3    C4 8110   3.314   4.054  17.102 -0.2390  0.1311 -0.2540
  543TMC3    C5 8111   3.300   4.022  17.235 -0.1472  0.5735  0.3302
  543TMC3    C6 8112   3.328   3.904  17.287  0.1554  0.0166  0.2041
  543TMC3     C 8113   3.418   3.978  16.894 -0.3653  0.4603 -0.6018
  543TMC3     O 8114   3.518   3.915  16.861  0.5491  0.5228  0.3495
  543TMC3     H 8115   3.441   3.755  17.010 -1.6234 -0.2321 -0.8419
  543TMC3    H1 8116   3.288   4.155  17.071  0.5344  0.4943  0.2497
  543TMC3    H2 8117   3.330   3.877  17.392  2.0548 -0.1436  0.1414
  543TMC3    C7 8118   3.287   4.121  17.331 -0.4817  0.3513 -0.8016
  543TMC3    C8 8119   3.406   3.683  17.268  0.4183 -0.5479  0.2511
  543TMC3    O1 8120   3.246   4.089  17.440 -0.2824 -0.3401 -0.3716
  543TMC3    O2 8121   3.401   3.670  17.389  1.1525 -0.6771 -0.2625
  544MPD2     C 8122   3.534   3.184  17.238 -0.9585 -0.0187 -0.2556
  544MPD2    C1 8123   3.498   3.222  17.115 -0.1304  0.5720 -0.3033
  544MPD2    C2 8124   3.460   3.356  17.101  0.5412 -0.4253 -0.0802
  544MPD2    C3 8125   3.465   3.446  17.207  0.0073 -0.2583  0.0985
  544MPD2    C4 8126   3.509   3.395  17.333  0.2869 -0.4909  0.3419
  544MPD2    C5 8127   3.526   3.268  17.354 -0.6169 -0.1347 -0.0675
  544MPD2     H 8128   3.422   3.401  17.010 -0.2111 -1.1766 -0.1393
  544MPD2    H1 8129   3.521   3.463  17.417  0.0144 -0.6571  0.5129
  544MPD2    H2 8130   3.569   3.082  17.252  1.6277  1.3920  3.7643
  544MPD2    H3 8131   3.565   3.228  17.447  0.9018 -1.6818 -1.3661
  544MPD2     N 8132   3.429   3.577  17.177 -0.1265  0.4618  0.3209
  544MPD2    H5 8133   3.412   3.598  17.079 -2.1254 -1.9662  0.1554
  544MPD2    N1 8134   3.500   3.133  17.007  0.0891 -0.0553  0.1419
  544MPD2    H7 8135   3.539   3.041  17.028  0.0088 -0.2912 -0.7455
  545TMC3    C1 8136   3.475   3.050  16.786  0.0162  0.8181 -0.0412
  545TMC3    C2 8137   3.477   3.072  16.651 -0.0794 -0.5257 -0.2808
  545TMC3    C3 8138   3.478   2.963  16.567 -0.3413 -0.4133 -0.7673
  545TMC3    C4 8139   3.455   2.927  16.840  0.7668 -0.1405  0.0950
  545TMC3    C5 8140   3.460   2.825  16.751 -0.4152  0.2404  0.1824
  545TMC3    C6 8141   3.477   2.840  16.616 -0.1434 -0.9591  0.1163
  545TMC3     C 8142   3.464   3.160  16.878 -0.4353 -0.5317 -0.2649
  545TMC3     O 8143   3.439   3.269  16.824 -0.1482  0.2808  0.1500
  545TMC3     H 8144   3.491   3.171  16.609  2.7217 -1.5676 -1.8106
  545TMC3    H1 8145   3.447   2.897  16.943  1.6939  0.7017  0.4136
  545TMC3    H2 8146   3.478   2.755  16.548  1.6575 -1.4661  0.7714
  545TMC3    C7 8147   3.454   2.689  16.797 -0.4944 -0.7060  0.2113
  545TMC3    C8 8148   3.431   2.986  16.426  0.2011 -0.3034  0.2916
  545TMC3    O1 8149   3.390   2.617  16.722  0.3242 -0.8164 -0.1194
  545TMC3    O2 8150   3.395   2.879  16.378  0.3396  0.3194  0.5250
  546MPD2     C 8151   0.026   3.837  17.451 -0.4516  0.8456 -0.7222
  546MPD2    C1 8152   4.724   3.851  17.316  0.0896  0.6445 -0.0307
  546MPD2    C2 8153   0.044   3.953  17.243  0.3519 -0.2199 -0.5848
  546MPD2    C3 8154   0.130   4.039  17.301  0.0938 -0.2098  0.5783
  546MPD2    C4 8155   0.158   4.034  17.433 -0.6019 -0.4493  0.2946
  546MPD2    C5 8156   0.103   3.933  17.511 -0.0512 -0.1575  0.3972
  546MPD2     H 8157   0.025   3.969  17.137  1.5204  0.2893 -0.7250
  546MPD2    H1 8158   0.229   4.100  17.481 -1.1159  0.8362 -0.7511
  546MPD2    H2 8159   4.722   3.752  17.502 -0.7827  1.4594  0.0095
  546MPD2    H3 8160   0.103   3.931  17.619 -0.1076  0.1954  0.4047
  546MPD2     N 8161   0.185   4.143  17.227 -0.5631 -0.1778  0.0747
  546MPD2    H5 8162   0.226   4.220  17.280  0.6959 -0.8671  0.0987
  546MPD2    N1 8163   4.640   3.759  17.251 -0.4951  0.2807  0.0203
  546MPD2    H7 8164   4.619   3.673  17.300  1.8843  1.7452  3.6385
  547TMC3    C1 8165   4.533   3.655  17.076  0.5372  0.2381  0.3881
  547TMC3    C2 8166   4.446   3.650  16.968  0.4089  0.2538  0.3243
  547TMC3    C3 8167   4.424   3.533  16.897 -0.6987  0.4050 -0.8987
  547TMC3    C4 8168   4.601   3.543  17.109  0.4870  0.8236  0.3422
  547TMC3    C5 8169   4.586   3.435  17.024 -0.0987  0.8323  0.0058
  547TMC3    C6 8170   4.506   3.422  16.913 -0.2237  0.3465 -0.0884
  547TMC3     C 8171   4.568   3.778  17.139 -0.5350  0.9929  0.2014
  547TMC3     O 8172   4.539   3.879  17.075 -0.4261 -0.0987  0.0708
  547TMC3     H 8173   4.372   3.729  16.969  0.2384  0.1261 -1.8339
  547TMC3    H1 8174   4.677   3.540  17.187  0.7835 -0.2824  0.0113
  547TMC3    H2 8175   4.487   3.327  16.863 -1.1594  1.2958 -1.5170
  547TMC3    C7 8176   4.641   3.314  17.065 -0.7733  0.0688 -0.2838
  547TMC3    C8 8177   4.333   3.540  16.778 -0.3160 -0.2275  0.2968
  547TMC3    O1 8178   4.679   3.309  17.178  0.0918  0.1936  0.6352
  547TMC3    O2 8179   4.249   3.629  16.790 -0.1025 -0.2602 -0.5162
  548MPD2     C 8180   0.182   4.128  12.587 -0.2574 -0.4674 -0.7751
  548MPD2    C1 8181   0.123   4.003  12.577  0.3644 -0.0352  0.2661
  548MPD2    C2 8182   0.173   3.915  12.482 -0.1987  1.1534  0.0247
  548MPD2    C3 8183   0.287   3.944  12.404 -0.2947 -0.0629  0.4395
  548MPD2    C4 8184   0.352   4.060  12.431  0.5932 -0.1134  0.1652
  548MPD2    C5 8185   0.303   4.153  12.517  0.5246 -0.1903  0.8073
  548MPD2     H 8186   0.123   3.820  12.466  3.2473 -0.6704  0.0512
  548MPD2    H1 8187   0.442   4.091  12.379  0.8241 -1.0953 -0.0292
  548MPD2    H2 8188   0.140   4.207  12.648 -1.1672 -2.1600  0.7877
  548MPD2    H3 8189   0.334   4.257  12.516 -0.3356  0.0584 -0.4953
  548MPD2     N 8190   0.334   3.850  12.316  0.1650 -0.0851  0.0885
  548MPD2    H5 8191   0.279   3.764  12.312 -1.1616  0.7719 -0.2446
  548MPD2    N1 8192   0.008   3.957  12.643  0.2452 -0.0115 -0.3340
  548MPD2    H7 8193   4.717   3.866  12.611  1.3140 -0.1399 -0.9997
  549TMC3    C1 8194   4.533   3.992  12.731  0.3855 -0.0293 -0.0115
  549TMC3    C2 8195   4.448   4.092  12.738  0.7987 -0.0692  0.4724
  549TMC3    C3 8196   4.316   4.067  12.725 -0.1425 -0.5503 -0.2567
  549TMC3    C4 8197   4.497   3.857  12.718  0.1416  0.2435 -0.2954
  549TMC3    C5 8198   4.365   3.840  12.696 -0.3884 -0.6454  0.5015
  549TMC3    C6 8199   4.274   3.936  12.710  0.6127 -0.9168 -0.1982
  549TMC3     C 8200   4.674   4.030  12.734  0.0538  0.3646 -0.8781
  549TMC3     O 8201   4.694   4.135  12.800 -0.2125  0.2243  0.2753
  549TMC3     H 8202   4.470   4.197  12.751 -0.4029  0.3639 -0.9917
  549TMC3    H1 8203   4.573   3.780  12.716 -0.5295 -0.4333  0.2687
  549TMC3    H2 8204   4.168   3.914  12.705  0.5167  0.3785 -3.8559
  549TMC3    C7 8205   4.307   3.704  12.697  0.3305 -0.3192 -0.2645
  549TMC3    C8 8206   4.232   4.156  12.650  0.2183  0.0969 -0.2319
  549TMC3    O1 8207   4.186   3.700  12.702  0.1235 -0.1091 -0.1976
  549TMC3    O2 8208   4.123   4.114  12.626  0.6370 -0.4060 -0.3420
  550TMC3    C1 8209   3.595   2.499  12.246 -0.5167 -0.2872  0.0062
  550TMC3    C2 8210   3.564   2.397  12.333  0.4873  0.1937 -0.0892
  550TMC3    C3 8211   3.539   2.427  12.464 -0.0192 -0.3830 -0.3049
  550TMC3    C4 8212   3.588   2.631  12.283  0.5909  0.0690  0.3239
  550TMC3    C5 8213   3.560   2.659  12.408  0.4710  0.1262 -0.4361
  550TMC3    C6 8214   3.536   2.561  12.503  0.0394  0.8148 -0.3581
  550TMC3     C 8215   3.542   2.486  12.113  0.3399 -0.3282 -0.2486
  550TMC3     O 8216   3.466   2.573  12.081  0.1501 -0.1013  0.1233
  550TMC3     H 8217   3.543   2.297  12.296 -2.1963  0.9933 -0.7008
  550TMC3    H1 8218   3.614   2.709  12.214  3.0322  0.2311  1.4024
  550TMC3    H2 8219   3.484   2.587  12.595  0.1848  0.4745 -0.1756
  550TMC3    C7 8220   3.443   2.747  12.409 -0.4418  0.0913 -1.0690
  550TMC3    C8 8221   3.467   2.346  12.559  0.3059 -0.0562  0.1265
  550TMC3    O1 8222   3.345   2.698  12.455 -0.0677  0.2845  0.3431
  550TMC3    O2 8223   3.497   2.358  12.679 -0.1614 -0.0670 -0.6875
  551TMC3    C1 8224   0.794   0.309  13.450 -1.0089 -0.3767 -0.3691
  551TMC3    C2 8225   0.890   0.278  13.353  0.5821 -0.3864  0.1613
  551TMC3    C3 8226   1.002   0.213  13.384 -0.1307 -0.0607  0.3438
  551TMC3    C4 8227   0.818   0.271  13.580 -0.7640  0.4243  0.1756
  551TMC3    C5 8228   0.929   0.193  13.605  0.2928  0.4891 -0.5478
  551TMC3    C6 8229   1.023   0.172  13.510  0.3271  0.1233 -0.8777
  551TMC3     C 8230   0.658   0.279  13.400 -0.3870  0.2861  0.3089
  551TMC3     O 8231   0.622   0.160  13.419 -0.0413 -0.5660  0.1599
  551TMC3     H 8232   0.859   0.291  13.250  0.6011  2.3592  0.5062
  551TMC3    H1 8233   0.737   0.268  13.651 -0.7850 -0.3074  0.1241
  551TMC3    H2 8234   1.111   0.116  13.537 -0.8027 -0.2412  2.0516
  551TMC3    C7 8235   0.985   0.193  13.742 -0.7450  0.1140  0.0249
  551TMC3    C8 8236   1.088   0.166  13.279 -0.0976 -0.4171  0.2818
  551TMC3    O1 8237   1.046   0.095  13.786 -0.6035  0.2795  0.0211
  551TMC3    O2 8238   1.141   0.055  13.291 -0.6356  0.1359  0.4082
  552MPD2     C 8239   2.624   1.671  14.138  0.4101 -0.8066  0.0944
  552MPD2    C1 8240   2.745   1.608  14.106  0.4700  0.2263 -0.4671
  552MPD2    C2 8241   2.864   1.674  14.139  0.2433  0.5888  0.4915
  552MPD2    C3 8242   2.867   1.788  14.220 -0.4628 -0.6818 -0.6635
  552MPD2    C4 8243   2.744   1.851  14.247 -0.2059 -0.2845  0.2869
  552MPD2    C5 8244   2.631   1.796  14.196  0.9453  0.1776 -0.1632
  552MPD2     H 8245   2.951   1.616  14.113 -1.6283 -1.4668 -1.2483
  552MPD2    H1 8246   2.748   1.935  14.316  0.1653  0.4999 -0.7003
  552MPD2    H2 8247   2.529   1.625  14.113  0.2797  0.5531 -1.9320
  552MPD2    H3 8248   2.538   1.843  14.227  0.4719 -0.7295 -0.2154
  552MPD2     N 8249   2.986   1.841  14.267 -0.1846 -1.0522  0.4413
  552MPD2    H5 8250   2.985   1.931  14.313 -0.3063 -1.0478  0.4307
  552MPD2    N1 8251   2.756   1.491  14.035  0.6263  0.4146 -0.3413
  552MPD2    H7 8252   2.854   1.467  14.021  1.0357  3.0835 -2.0505
  553TMC3    C1 8253   2.711   1.309  13.908 -0.8388 -0.4490  0.5673
  553TMC3    C2 8254   2.693   1.292  13.770  0.2186 -0.6165  0.5643
  553TMC3    C3 8255   2.785   1.212  13.697 -0.1054 -0.0169 -0.4048
  553TMC3    C4 8256   2.810   1.236  13.970  0.3869 -0.2591  0.2980
  553TMC3    C5 8257   2.898   1.161  13.894 -0.9980  1.3291  0.3730
  553TMC3    C6 8258   2.885   1.141  13.763  0.8869  0.2771  0.7214
  553TMC3     C 8259   2.657   1.425  13.960 -0.7211 -0.4889  0.1808
  553TMC3     O 8260   2.540   1.459  13.944  0.2782  0.2616  0.4694
  553TMC3     H 8261   2.631   1.365  13.720  1.7539  0.0715 -0.3411
  553TMC3    H1 8262   2.830   1.260  14.074  0.2569  0.9576  0.0451
  553TMC3    H2 8263   2.960   1.085  13.709 -0.0164 -0.8119  0.5787
  553TMC3    C7 8264   3.030   1.174  13.940  0.3500  0.0191  0.4095
  553TMC3    C8 8265   2.850   1.271  13.584  0.6918  0.8289  0.4228
  553TMC3    O1 8266   3.051   1.210  14.058 -0.3868 -0.7829 -0.1567
  553TMC3    O2 8267   2.974   1.270  13.588  0.5896  0.3783 -1.0620
  554TMC3    C1 8268   0.293   0.753  11.368  0.2165 -0.7626 -0.0916
  554TMC3    C2 8269   0.198   0.710  11.275 -0.0030 -0.1634 -0.3201
  554TMC3    C3 8270   0.188   0.783  11.159 -0.4886  0.3349  0.1442
  554TMC3    C4 8271   0.356   0.873  11.359 -0.0622  0.4451 -0.3185
  554TMC3    C5 8272   0.349   0.938  11.238 -0.5955  0.6419 -0.2641
  554TMC3    C6 8273   0.267   0.894  11.134  0.6545 -0.1200  0.0330
  554TMC3     C 8274   0.326   0.661  11.477  0.0811 -0.3401 -0.2660
  554TMC3     O 8275   0.301   0.541  11.454  0.0763  0.6315  0.3499
  554TMC3     H 8276   0.135   0.625  11.296  0.4038 -0.4682 -0.3208
  554TMC3    H1 8277   0.422   0.912  11.436 -1.4848 -1.4885  1.8761
  554TMC3    H2 8278   0.250   0.970  11.059  3.0097 -1.0087 -1.4007
  554TMC3    C7 8279   0.355   1.080  11.251 -0.1253  0.3633  0.3706
  554TMC3    C8 8280   0.099   0.756  11.055  0.2177  0.2235 -0.6690
  554TMC3    O1 8281   0.402   1.143  11.154  0.3264 -0.1798  0.6973
  554TMC3    O2 8282   0.142   0.772  10.941  0.2142  0.1858  0.6320
  555TMC3    C1 8283   3.845   0.753  15.548  0.0685  0.5400 -0.2378
  555TMC3    C2 8284   3.843   0.820  15.668 -0.2099  0.1031  0.2160
  555TMC3    C3 8285   3.895   0.753  15.779  0.4810  0.6020  0.2912
  555TMC3    C4 8286   3.885   0.621  15.531  0.4878 -0.2277  0.0587
  555TMC3    C5 8287   3.913   0.554  15.647 -0.1618  0.1653 -0.3711
  555TMC3    C6 8288   3.921   0.617  15.764 -0.4500 -0.4068  0.1036
  555TMC3     C 8289   3.804   0.821  15.431  0.6351 -0.1076  1.0076
  555TMC3     O 8290   3.781   0.748  15.330 -0.1008  0.0945  0.1160
  555TMC3     H 8291   3.820   0.926  15.678 -3.2403 -0.4848 -0.6383
  555TMC3    H1 8292   3.901   0.586  15.430  0.8982 -1.0247  0.4055
  555TMC3    H2 8293   3.927   0.548  15.848 -0.1676  0.5600  0.8811
  555TMC3    C7 8294   3.897   0.411  15.640  0.6643 -0.6498  0.0826
  555TMC3    C8 8295   3.913   0.825  15.902  0.4652 -0.4493 -0.0748
  555TMC3    O1 8296   3.818   0.357  15.715  0.1559 -0.1268 -0.2327
  555TMC3    O2 8297   3.865   0.937  15.896  0.7534  0.0843  0.0330
  556MPD2     C 8298   1.977   2.581  10.690  1.1058  0.0227 -0.2026
  556MPD2    C1 8299   1.961   2.478  10.779  0.0352  0.5077  0.5408
  556MPD2    C2 8300   1.951   2.346  10.733  0.3652 -0.0029  0.2201
  556MPD2    C3 8301   1.948   2.323  10.597  0.6642  0.1757 -0.1538
  556MPD2    C4 8302   1.957   2.425  10.505  0.1751  0.0601 -0.2884
  556MPD2    C5 8303   1.977   2.552  10.558  0.1681  0.5461 -0.0692
  556MPD2     H 8304   1.944   2.267  10.807  1.1263 -1.9241 -1.7741
  556MPD2    H1 8305   1.941   2.403  10.401  1.7830  0.3422 -0.5998
  556MPD2    H2 8306   2.001   2.681  10.725  2.0528 -0.9437  1.9009
  556MPD2    H3 8307   1.999   2.634  10.491  1.5573  0.8668  0.7848
  556MPD2     N 8308   1.913   2.191  10.556  0.5991 -0.0750  0.0529
  556MPD2    H5 8309   1.873   2.135  10.630  2.7023 -0.3031  1.0164
  556MPD2    N1 8310   1.969   2.494  10.917 -0.5592 -0.4377  0.0861
  556MPD2    H7 8311   1.976   2.410  10.974  1.3355  0.5138  1.2779
  557TMC3    C1 8312   1.853   2.010  10.406  0.1620  0.2138 -0.7527
  557TMC3    C2 8313   1.878   1.932  10.297  0.6034 -0.5182  0.5931
  557TMC3    C3 8314   1.800   1.828  10.278 -0.3396 -0.0339 -0.4756
  557TMC3    C4 8315   1.745   1.989  10.483 -0.1118 -0.9073 -0.0848
  557TMC3    C5 8316   1.681   1.874  10.461 -0.9165  0.1276  0.1847
  557TMC3    C6 8317   1.702   1.791  10.357  0.3476 -0.2843  0.1768
  557TMC3     C 8318   1.911   2.142  10.426 -0.4399 -0.7606  0.2642
  557TMC3     O 8319   1.965   2.194  10.325 -0.9679 -0.1648 -0.5565
  557TMC3     H 8320   1.952   1.965  10.225 -0.8688  5.2212  1.6722
  557TMC3    H1 8321   1.719   2.052  10.567  0.6773  2.0019 -2.0613
  557TMC3    H2 8322   1.650   1.701  10.328  1.5433 -0.4363 -1.5497
  557TMC3    C7 8323   1.597   1.826  10.570 -0.2605  0.0034 -0.5226
  557TMC3    C8 8324   1.782   1.799  10.135  0.4760 -0.1513  0.3617
  557TMC3    O1 8325   1.574   1.906  10.661 -0.7521 -0.8067  0.5364
  557TMC3    O2 8326   1.875   1.825  10.064  0.3077  0.1083  0.1851
  558TMC3    C1 8327   4.379   4.466  10.149 -0.6404 -0.4952  0.3474
  558TMC3    C2 8328   4.246   4.458  10.171  0.1959  0.6545 -0.2616
  558TMC3    C3 8329   4.166   4.485  10.064 -0.2127  0.4717 -0.6767
  558TMC3    C4 8330   4.426   4.515  10.031  0.6220 -0.0849 -0.1981
  558TMC3    C5 8331   4.343   4.539   9.920  0.8933  0.2643 -0.4301
  558TMC3    C6 8332   4.211   4.529   9.943 -0.3984  0.1423  0.5638
  558TMC3     C 8333   4.470   4.479  10.264  0.2966 -0.3784  0.4494
  558TMC3     O 8334   4.554   4.568  10.258  0.0422  0.7516 -0.0941
  558TMC3     H 8335   4.213   4.423  10.269 -0.7772  0.0273 -0.8173
  558TMC3    H1 8336   4.533   4.528  10.027  0.9421 -2.2170  1.4645
  558TMC3    H2 8337   4.138   4.539   9.864  0.2808 -0.5472 -0.1645
  558TMC3    C7 8338   4.409   4.590   9.806  0.0144 -0.2306  0.7752
  558TMC3    C8 8339   4.024   4.468  10.089  0.5272  0.4320  0.1050
  558TMC3    O1 8340   4.524   4.634   9.812 -0.4580  0.1449 -0.0225
  558TMC3    O2 8341   3.941   4.403  10.023 -0.4069  0.0684  0.4906
  559MPD2     C 8342   4.537   0.752  10.184 -0.9276  0.0306 -1.1288
  559MPD2    C1 8343   4.476   0.634  10.213  0.4840  0.1561  0.6228
  559MPD2    C2 8344   4.522   0.557  10.320  1.0451 -0.8583 -0.0447
  559MPD2    C3 8345   4.630   0.608  10.395 -0.3791  0.2891 -0.2305
  559MPD2    C4 8346   4.695   0.723  10.353 -0.2715  0.3809 -0.4822
  559MPD2    C5 8347   4.649   0.795  10.249  0.5586  0.5013  0.4103
  559MPD2     H 8348   4.461   0.472  10.351  0.7568 -0.2363  1.0916
  559MPD2    H1 8349   0.050   0.750  10.400 -0.2398 -0.2645 -0.1621
  559MPD2    H2 8350   4.508   0.813  10.099 -1.8837  0.2828 -0.6319
  559MPD2    H3 8351   4.696   0.885  10.213  0.7405 -0.3260 -1.4159
  559MPD2     N 8352   4.680   0.532  10.507 -0.4704 -0.0407 -0.0421
  559MPD2    H5 8353   4.630   0.447  10.528  1.3482 -1.0229  0.2162
  559MPD2    N1 8354   4.359   0.609  10.139  0.4504  0.0955 -0.0134
  559MPD2    H7 8355   4.323   0.681  10.076 -0.5661  0.3098  0.8132
  560TMC3    C1 8356   0.030   0.496  10.731 -0.0155  0.1228  0.5779
  560TMC3    C2 8357   4.648   0.444  10.768  0.5426 -0.6641 -0.6841
  560TMC3    C3 8358   4.642   0.380  10.892  0.3809 -0.4298  0.2849
  560TMC3    C4 8359   0.147   0.481  10.793 -0.6097  0.1922  0.3270
  560TMC3    C5 8360   0.140   0.417  10.914 -0.0306 -1.0304  0.0974
  560TMC3    C6 8361   0.018   0.372  10.970  0.6551 -0.2534 -0.3372
  560TMC3     C 8362   0.032   0.574  10.606  0.3312 -0.2772  0.6083
  560TMC3     O 8363   0.118   0.661  10.610 -0.3378  0.2129 -0.1969
  560TMC3     H 8364   4.557   0.458  10.711 -0.1939 -0.2490  0.5839
  560TMC3    H1 8365   0.236   0.525  10.751 -0.9442  1.2225  0.6868
  560TMC3    H2 8366   0.020   0.308  11.058 -1.6813  0.5182  0.2742
  560TMC3    C7 8367   0.262   0.417  10.996  0.0631 -0.3855 -0.5205
  560TMC3    C8 8368   4.524   0.316  10.932 -0.3395  0.1444 -0.2402
  560TMC3    O1 8369   0.280   0.323  11.076 -0.0500  0.4506  0.5148
  560TMC3    O2 8370   4.448   0.258  10.850 -0.0821  0.0430 -0.7344
  561TMC3    C1 8371   2.321   4.526  10.887 -0.2154 -0.3051  0.1266
  561TMC3    C2 8372   2.238   4.455  10.971 -0.2957  0.2096 -0.6481
  561TMC3    C3 8373   2.208   4.510  11.092  0.0486  0.5407 -0.0769
  561TMC3    C4 8374   2.367   4.656  10.918 -0.3656 -1.2168 -0.7747
  561TMC3    C5 8375   2.339   4.705  11.044  0.3599  0.1225  0.2185
  561TMC3    C6 8376   2.257   4.632  11.131  0.4279  0.3805  0.1305
  561TMC3     C 8377   2.387   4.450  10.777 -0.2354  0.5386 -0.1933
  561TMC3     O 8378   2.366   4.329  10.783 -0.0145 -0.1649 -0.0800
  561TMC3     H 8379   2.210   4.354  10.945 -0.4683 -0.3270  1.5803
  561TMC3    H1 8380   2.428   4.714  10.850  1.8073 -0.8071  1.5299
  561TMC3    H2 8381   2.225   4.687  11.219 -2.0817 -1.9236  0.6508
  561TMC3    C7 8382   2.384   0.100  11.084  0.8552  0.2615  0.3107
  561TMC3    C8 8383   2.173   4.416  11.193 -0.4969 -0.2231  0.4656
  561TMC3    O1 8384   2.337   0.147  11.185 -0.2491 -0.0216 -0.2349
  561TMC3    O2 8385   2.203   4.302  11.175  0.1200 -0.4957 -0.1689
  562TMC3    C1 8386   3.437   1.073  16.422 -0.1040 -0.7813 -0.1737
  562TMC3    C2 8387   3.491   1.196  16.410 -0.3235 -0.1988 -0.2346
  562TMC3    C3 8388   3.513   1.250  16.288 -0.4678  0.1832 -0.0675
  562TMC3    C4 8389   3.405   0.997  16.317 -0.4310  0.1461 -0.3896
  562TMC3    C5 8390   3.427   1.053  16.191  0.2337  0.9200 -0.1208
  562TMC3    C6 8391   3.476   1.178  16.173 -0.1875  0.0326  0.0403
  562TMC3     C 8392   3.509   0.990  16.516 -0.5185 -0.0666  0.1894
  562TMC3     O 8393   3.557   0.888  16.471 -0.2520  0.5443  0.3457
  562TMC3     H 8394   3.515   1.255  16.497 -0.7020 -1.1874  0.5293
  562TMC3    H1 8395   3.378   0.893  16.333 -0.6769  0.5743  1.9504
  562TMC3    H2 8396   3.521   1.207  16.078 -0.4004  2.8501  0.8160
  562TMC3    C7 8397   3.470   0.957  16.097  0.7704  0.8834  0.9064
  562TMC3    C8 8398   3.516   1.392  16.277  0.0929  0.1302  0.6884
  562TMC3    O1 8399   3.450   0.981  15.976 -0.0001  0.9155  0.1370
  562TMC3    O2 8400   3.516   1.464  16.376 -0.5567 -0.5318  0.3787
  563MPD2     C 8401   1.081   1.978  15.257  0.2999  0.3779 -0.9268
  563MPD2    C1 8402   1.118   2.066  15.356 -0.2829  0.5990  0.4979
  563MPD2    C2 8403   1.247   2.117  15.368  0.3709 -0.1738 -0.5764
  563MPD2    C3 8404   1.342   2.058  15.295 -0.3055 -0.7345 -0.0014
  563MPD2    C4 8405   1.309   1.974  15.193  0.2797 -0.4149  1.4271
  563MPD2    C5 8406   1.179   1.931  15.180 -0.0664  0.1671 -0.4350
  563MPD2     H 8407   1.283   2.191  15.439 -1.4962  0.2530 -0.0958
  563MPD2    H1 8408   1.376   1.910  15.135 -2.1712 -0.3548 -1.4574
  563MPD2    H2 8409   0.987   1.926  15.243  0.3191  0.2132 -0.4413
  563MPD2    H3 8410   1.173   1.857  15.101  1.2355  0.1799 -0.5521
  563MPD2     N 8411   1.478   2.070  15.331  0.2169 -0.4301 -0.1857
  563MPD2    H5 8412   1.504   2.120  15.416 -2.3048  1.5218 -0.5618
  563MPD2    N1 8413   1.018   2.096  15.455  0.9907 -0.1443 -0.0978
  563MPD2    H7 8414   0.924   2.057  15.447  1.2980 -0.8805 -0.1669
  564TMC3    C1 8415   0.934   2.191  15.663  0.1460 -0.0630  0.0421
  564TMC3    C2 8416   0.849   2.078  15.682 -0.1720  0.2308 -0.2611
  564TMC3    C3 8417   0.839   2.035  15.818  0.6415  0.0604  0.0535
  564TMC3    C4 8418   0.991   2.260  15.763 -0.2700  0.1440 -0.6534
  564TMC3    C5 8419   0.981   2.212  15.888 -0.1247  0.4441 -0.0496
  564TMC3    C6 8420   0.909   2.101  15.914  0.5462  0.4665  0.6187
  564TMC3     C 8421   1.021   2.202  15.541 -0.0477  0.3989 -0.1494
  564TMC3     O 8422   1.100   2.295  15.534  0.1344 -0.2854  0.0014
  564TMC3     H 8423   0.795   2.029  15.602 -1.5305  1.6770 -0.2120
  564TMC3    H1 8424   1.066   2.334  15.737  0.8485 -1.4600 -2.0306
  564TMC3    H2 8425   0.917   2.060  16.014 -0.2236 -1.2461 -0.0109
  564TMC3    C7 8426   1.113   2.185  15.937  0.4786  0.3461 -0.0821
  564TMC3    C8 8427   0.776   1.916  15.866 -1.3284 -0.0606  0.5514
  564TMC3    O1 8428   1.154   2.068  15.940  0.1265 -0.3531 -0.3126
  564TMC3    O2 8429   0.770   1.901  15.987  0.2091  0.0723  0.7344
  565TMC3    C1 8430   1.627   3.657  10.439 -0.3327 -0.2310 -0.0242
  565TMC3    C2 8431   1.627   3.521  10.438 -0.3919 -0.2952  1.2587
  565TMC3    C3 8432   1.503   3.470  10.408  0.2142 -0.1114 -0.0537
  565TMC3    C4 8433   1.522   3.746  10.421  0.2353 -0.3405  0.2513
  565TMC3    C5 8434   1.402   3.685  10.387 -0.4536  0.4151  0.0605
  565TMC3    C6 8435   1.390   3.548  10.386 -0.0986 -0.1487 -0.2225
  565TMC3     C 8436   1.752   3.734  10.462  0.2678  0.3926 -0.9674
  565TMC3     O 8437   1.759   3.854  10.489 -0.1526  0.5774  0.9874
  565TMC3     H 8438   1.719   3.465  10.439 -0.8108 -0.9953  0.9692
  565TMC3    H1 8439   1.538   3.854  10.416 -0.9684 -0.2017 -0.6032
  565TMC3    H2 8440   1.291   3.508  10.409 -0.9352  0.7903 -2.1510
  565TMC3    C7 8441   1.294   3.777  10.344 -0.2597 -0.7777 -0.2645
  565TMC3    C8 8442   1.496   3.331  10.384  0.2203 -0.1565  0.1516
  565TMC3    O1 8443   1.310   3.898  10.348  0.1467 -0.3882  0.3597
  565TMC3    O2 8444   1.594   3.264  10.419 -0.3030  0.2920 -0.2459
  566MPD2     C 8445   3.268   0.302  14.446  0.1249  0.9072  0.6486
  566MPD2    C1 8446   3.258   0.381  14.338 -0.8141  0.5247 -0.6119
  566MPD2    C2 8447   3.233   0.323  14.214 -0.1163 -0.0013  0.5702
  566MPD2    C3 8448   3.218   0.186  14.203 -0.3786  0.8855  0.4447
  566MPD2    C4 8449   3.240   0.104  14.309  0.5476 -0.4558 -0.1832
  566MPD2    C5 8450   3.261   0.167  14.431 -0.0454  0.0757  0.1653
  566MPD2     H 8451   3.230   0.382  14.123  0.6181 -2.1811 -0.8778
  566MPD2    H1 8452   3.233   4.737  14.290 -1.6555 -0.4114  0.2802
  566MPD2    H2 8453   3.267   0.343  14.546  1.5547  1.4035  0.4583
  566MPD2    H3 8454   3.261   0.108  14.522  2.3622 -0.6638 -0.3291
  566MPD2     N 8455   3.188   0.124  14.085 -0.0883 -0.1289  0.1321
  566MPD2    H5 8456   3.189   0.023  14.092  0.8200 -0.2850 -2.4569
  566MPD2    N1 8457   3.285   0.519  14.349 -0.3890 -0.9150 -0.2078
  566MPD2    H7 8458   3.327   0.555  14.435 -0.4367 -1.8843  0.2200
  567TMC3    C1 8459   3.316   0.736  14.260 -0.1877 -0.3694  0.6103
  567TMC3    C2 8460   3.337   0.783  14.135 -0.3408  0.2841  0.2307
  567TMC3    C3 8461   3.460   0.849  14.115  0.5770 -0.0987  0.0043
  567TMC3    C4 8462   3.397   0.760  14.365 -0.0289  0.0364 -0.4607
  567TMC3    C5 8463   3.517   0.829  14.344 -0.3024 -0.3603 -0.1445
  567TMC3    C6 8464   3.552   0.872  14.216 -0.0908  0.2997 -0.0841
  567TMC3     C 8465   3.249   0.608  14.254  0.6973  0.1870  0.4429
  567TMC3     O 8466   3.182   0.581  14.155  0.7948 -0.4017 -0.4281
  567TMC3     H 8467   3.269   0.754  14.055 -1.7347  2.6540  0.5632
  567TMC3    H1 8468   3.369   0.726  14.464  0.8958  2.0212  0.4832
  567TMC3    H2 8469   3.649   0.917  14.196  1.2987 -1.1259  3.5378
  567TMC3    C7 8470   3.600   0.892  14.453  0.0854 -0.8176  0.1907
  567TMC3    C8 8471   3.508   0.834  13.975 -0.1307  0.2097  0.4471
  567TMC3    O1 8472   3.653   0.998  14.423  0.3918 -0.1505 -0.6030
  567TMC3    O2 8473   3.435   0.771  13.899 -0.1376  0.8639  0.4031
  568MPD2     C 8474   0.603   0.602  16.613  0.3207 -0.4664  0.1059
  568MPD2    C1 8475   0.679   0.706  16.668  0.8419  0.2311 -0.2752
  568MPD2    C2 8476   0.641   0.840  16.631 -0.3614  0.5099 -0.5375
  568MPD2    C3 8477   0.533   0.865  16.546 -0.4079  0.1231 -0.5766
  568MPD2    C4 8478   0.468   0.759  16.493 -0.1712  0.5126 -0.2329
  568MPD2    C5 8479   0.497   0.627  16.532 -0.1521 -0.5903  0.4325
  568MPD2     H 8480   0.703   0.927  16.651  1.1640 -0.2399 -1.9719
  568MPD2    H1 8481   0.378   0.755  16.433 -0.6066 -0.0769  0.4553
  568MPD2    H2 8482   0.604   0.500  16.648  0.0400 -0.2074  0.8924
  568MPD2    H3 8483   0.439   0.546  16.491  1.4617 -0.9049 -1.2429
  568MPD2     N 8484   0.507   0.996  16.505  0.1641 -0.5022  0.2482
  568MPD2    H5 8485   0.576   1.062  16.540  1.8291 -2.8962  1.5008
  568MPD2    N1 8486   0.783   0.672  16.757 -0.2309 -0.2905  0.2279
  568MPD2    H7 8487   0.805   0.573  16.762 -0.8367 -0.3547  1.6993
  569TMC3    C1 8488   0.418   1.184  16.402 -0.6181 -0.5902 -0.0312
  569TMC3    C2 8489   0.449   1.264  16.503 -0.1883  0.4347 -0.2661
  569TMC3    C3 8490   0.504   1.381  16.477  0.2028  0.4573 -0.4372
  569TMC3    C4 8491   0.445   1.214  16.267  0.3515  0.7693  0.2036
  569TMC3    C5 8492   0.506   1.332  16.246  0.8749 -0.1284  0.3269
  569TMC3    C6 8493   0.550   1.413  16.352  0.1447  0.3429 -0.0892
  569TMC3     C 8494   0.402   1.044  16.430  0.7548  0.5352 -0.1374
  569TMC3     O 8495   0.322   0.977  16.364  0.3486 -0.1361 -0.1771
  569TMC3     H 8496   0.411   1.228  16.598  1.8549 -0.0680  0.3574
  569TMC3    H1 8497   0.400   1.150  16.192  1.6744 -2.3046  1.9996
  569TMC3    H2 8498   0.569   1.519  16.335  1.3906  0.6191  2.9272
  569TMC3    C7 8499   0.555   1.343  16.106  0.7098  0.2690  0.8471
  569TMC3    C8 8500   0.562   1.454  16.586 -0.4226  0.0058  0.3908
  569TMC3    O1 8501   0.535   1.245  16.033 -0.4318  0.3307  0.3731
  569TMC3    O2 8502   0.501   1.431  16.691  0.3529 -0.9011  0.0886
  570TMC3    C1 8503   0.169   4.454  15.759  0.7929  0.1447  0.4863
  570TMC3    C2 8504   0.305   4.443  15.721  0.6729  0.5386  0.0692
  570TMC3    C3 8505   0.353   4.550  15.642 -0.2638  0.2229  0.1577
  570TMC3    C4 8506   0.104   4.573  15.743  0.2988  0.1710  0.9854
  570TMC3    C5 8507   0.158   4.671  15.667 -1.0358 -1.2391 -0.3895
  570TMC3    C6 8508   0.280   4.666  15.612  0.4248  0.3821  0.7466
  570TMC3     C 8509   0.137   4.362  15.871 -0.5750  0.1653 -0.0905
  570TMC3     O 8510   0.186   4.250  15.872 -0.0124  0.2758 -0.6112
  570TMC3     H 8511   0.367   4.358  15.742 -0.6930 -0.2224  0.9940
  570TMC3    H1 8512   0.003   4.587  15.778  0.5031  2.5410  0.6678
  570TMC3    H2 8513   0.325   0.018  15.575  1.0838 -0.3141 -0.1510
  570TMC3    C7 8514   0.087   0.063  15.662  0.0781  0.5882 -0.1291
  570TMC3    C8 8515   0.491   4.563  15.613  0.5643 -0.0006  0.1274
  570TMC3    O1 8516   0.010   0.085  15.753  0.2915  0.7105 -0.2049
  570TMC3    O2 8517   0.528   4.677  15.590  0.2434 -0.5650  0.0126
  571MPD2     C 8518   2.456   1.502   0.260 -0.5843 -0.2778 -0.6216
  571MPD2    C1 8519   2.532   1.513   0.372  0.5941 -0.0237  1.4066
  571MPD2    C2 8520   2.565   1.640   0.418 -0.4997  0.4595 -0.5524
  571MPD2    C3 8521   2.535   1.743   0.337  0.1117  0.1468  0.2294
  571MPD2    C4 8522   2.468   1.727   0.215  0.3251  0.2266 -0.4053
  571MPD2    C5 8523   2.431   1.611   0.174 -0.5982  0.0511  0.5954
  571MPD2     H 8524   2.620   1.658   0.510  0.7071 -0.2496 -1.1332
  571MPD2    H1 8525   2.448   1.816   0.156 -0.4687 -0.8183 -1.7035
  571MPD2    H2 8526   2.439   1.407   0.211  0.3020 -0.2348 -1.0092
  571MPD2    H3 8527   2.374   1.592   0.083 -1.3129 -2.4213  1.5510
  571MPD2     N 8528   2.567   1.879   0.365  0.3829  0.2906 -0.0631
  571MPD2    H5 8529   2.548   1.948   0.292  1.6407 -0.3274 -0.9769
  571MPD2    N1 8530   2.588   1.400   0.432 -0.8143 -0.8791 -0.3150
  571MPD2    H7 8531   2.574   1.311   0.385 -2.1122 -1.9821  2.1584
  572TMC3    C1 8532   2.633   2.074   0.471  0.1522  0.0925 -0.2613
  572TMC3    C2 8533   2.651   2.154   0.587 -0.1360  0.8440  0.2203
  572TMC3    C3 8534   2.714   2.274   0.576 -0.0849 -0.3015 -0.0835
  572TMC3    C4 8535   2.665   2.133   0.345  0.0090  0.1136  0.3996
  572TMC3    C5 8536   2.697   2.269   0.350 -0.3031  0.0737  0.1082
  572TMC3    C6 8537   2.746   2.330   0.456  0.1871 -0.1677 -0.4526
  572TMC3     C 8538   2.613   1.934   0.480 -0.1332 -0.9895 -0.5064
  572TMC3     O 8539   2.622   1.887   0.594  0.1405  0.1637  0.0028
  572TMC3     H 8540   2.641   2.114   0.688  0.5256  2.4429  0.9144
  572TMC3    H1 8541   2.664   2.078   0.251  0.8656  0.0405  0.4358
  572TMC3    H2 8542   2.773   2.435   0.455  2.8422 -0.8624 -1.9102
  572TMC3    C7 8543   2.755   2.327   0.233  0.3683  0.1794 -0.0097
  572TMC3    C8 8544   2.712   2.369   0.692  0.3805  0.2658 -0.6154
  572TMC3    O1 8545   2.678   2.346   0.138  0.3895 -0.2908  0.6542
  572TMC3    O2 8546   2.816   2.433   0.701 -0.7030 -0.0287  0.5887
  573MPD2     C 8547   3.606   2.060   0.456  0.2815  0.7278 -0.4712
  573MPD2    C1 8548   3.732   2.108   0.462  0.0001 -0.5230 -0.2393
  573MPD2    C2 8549   3.800   2.138   0.341 -0.5879 -0.0713 -0.4189
  573MPD2    C3 8550   3.734   2.132   0.220 -0.1000 -0.1570  0.0772
  573MPD2    C4 8551   3.606   2.074   0.219 -0.0981 -0.1976 -0.5837
  573MPD2    C5 8552   3.547   2.030   0.340 -0.0839 -0.4656 -0.3904
  573MPD2     H 8553   3.896   2.188   0.342 -1.7174  2.0747  1.6230
  573MPD2    H1 8554   3.560   2.050   0.124 -3.7545  0.1119  1.1024
  573MPD2    H2 8555   3.560   2.024   0.547 -0.5092  0.8979 -0.8073
  573MPD2    H3 8556   3.448   1.985   0.345 -0.9994  1.2465 -2.8892
  573MPD2     N 8557   3.780   2.182   0.094 -0.3756 -0.4257  0.6446
  573MPD2    H5 8558   3.704   2.185   0.026 -0.0227  0.8898  0.3115
  573MPD2    N1 8559   3.781   2.143   0.586  0.2740 -0.3118 -0.3161
  573MPD2    H7 8560   3.722   2.150   0.668  1.4363 -1.0050  0.5956
  574TMC3    C1 8561   3.900   2.309  17.688 -0.3644  0.1432  0.8396
  574TMC3    C2 8562   3.805   2.282  17.593  0.7418  0.1912  0.1934
  574TMC3    C3 8563   3.823   2.338  17.466 -0.0038 -0.3060 -0.1182
  574TMC3    C4 8564   4.016   2.374  17.651  0.2990 -0.0119 -0.4031
  574TMC3    C5 8565   4.031   2.423  17.524 -0.0728 -0.3606 -0.1164
  574TMC3    C6 8566   3.929   2.412  17.435  0.0489  0.2788  0.0815
  574TMC3     C 8567   3.902   2.240   0.058  0.6687 -0.2818  0.2206
  574TMC3     O 8568   3.998   2.250   0.132  0.0740  0.0808  0.3941
  574TMC3     H 8569   3.717   2.221  17.609  0.5584  0.6349  0.8517
  574TMC3    H1 8570   4.095   2.368  17.724 -1.8368 -1.8919  1.7573
  574TMC3    H2 8571   3.946   2.444  17.332 -0.8529  1.9020  0.4411
  574TMC3    C7 8572   4.166   2.460  17.480  0.2068 -0.7294 -0.0442
  574TMC3    C8 8573   3.715   2.317  17.369  0.3030  0.3323  0.2333
  574TMC3    O1 8574   4.185   2.471  17.358  0.7464  0.4747 -0.1097
  574TMC3    O2 8575   3.633   2.236  17.402  0.6856  0.1707 -0.1118
  575TMC3    C1 8576   1.624   2.573  10.789 -0.2661  0.2585 -0.5774
  575TMC3    C2 8577   1.616   2.457  10.708 -0.1896  0.6075 -0.2865
  575TMC3    C3 8578   1.579   2.473  10.574  0.4153 -0.0261 -0.6332
  575TMC3    C4 8579   1.581   2.696  10.750 -0.5808  0.4146  0.0434
  575TMC3    C5 8580   1.545   2.700  10.616  0.4332 -0.5416 -0.2218
  575TMC3    C6 8581   1.547   2.594  10.529 -0.2982  0.2937 -0.0001
  575TMC3     C 8582   1.619   2.550  10.934  0.5255  0.0930 -0.1162
  575TMC3     O 8583   1.595   2.440  10.979 -0.4689 -0.0630 -0.6516
  575TMC3     H 8584   1.640   2.356  10.737  3.0856  0.9903 -1.6966
  575TMC3    H1 8585   1.578   2.787  10.809  0.7425  0.9606 -0.7204
  575TMC3    H2 8586   1.540   2.599  10.421  1.4456 -1.7619 -0.2192
  575TMC3    C7 8587   1.488   2.829  10.575  0.8721 -0.3223  0.5446
  575TMC3    C8 8588   1.549   2.349  10.498 -0.0644  0.0843 -0.2619
  575TMC3    O1 8589   1.500   2.927  10.653  0.8371  0.1301  0.9997
  575TMC3    O2 8590   1.499   2.257  10.557 -0.0084  0.5171 -0.2489
  576MPD2     C 8591   1.392   4.564  12.430  0.6218 -0.0323  0.2220
  576MPD2    C1 8592   1.408   4.686  12.374  0.5446  0.2213  0.0758
  576MPD2    C2 8593   1.337   0.053  12.422 -0.3595  0.5147  0.0761
  576MPD2    C3 8594   1.241   0.039  12.527  0.6260 -0.4442 -0.1167
  576MPD2    C4 8595   1.234   4.650  12.586 -1.1743 -0.0171 -0.3411
  576MPD2    C5 8596   1.307   4.543  12.537  0.7243 -0.6709 -0.9326
  576MPD2     H 8597   1.343   0.147  12.369  0.0178 -0.8141 -2.2329
  576MPD2    H1 8598   1.157   4.627  12.659 -2.3782  0.1104 -1.5678
  576MPD2    H2 8599   1.436   4.472  12.392 -1.0561 -1.1378  0.9571
  576MPD2    H3 8600   1.297   4.450  12.591 -0.6635  0.2412  0.3710
  576MPD2     N 8601   1.179   0.154  12.571 -0.6763 -0.0936  0.2552
  576MPD2    H5 8602   1.203   0.248  12.540 -2.3671  0.0026 -0.7323
  576MPD2    N1 8603   1.499   4.696  12.263 -0.6711 -0.3881 -0.2740
  576MPD2    H7 8604   1.510   0.053  12.233 -0.8123 -0.8135 -1.6992
  577TMC3    C1 8605   1.635   4.623  12.079  0.3731  0.4011  0.8335
  577TMC3    C2 8606   1.743   4.547  12.032 -0.4420 -0.3822  0.5969
  577TMC3    C3 8607   1.792   4.578  11.908 -0.2462  0.3308  0.2828
  577TMC3    C4 8608   1.599   4.739  12.014 -0.4090 -0.0574 -0.3998
  577TMC3    C5 8609   1.659   0.027  11.897 -0.1785 -0.0834  0.1410
  577TMC3    C6 8610   1.752   4.686  11.835 -0.2423  0.7226 -0.1891
  577TMC3     C 8611   1.580   4.595  12.211  0.0041  0.0263  0.3426
  577TMC3     O 8612   1.599   4.479  12.239 -0.4670 -0.1799 -0.3711
  577TMC3     H 8613   1.772   4.462  12.093  0.5644 -0.7461 -0.3932
  577TMC3    H1 8614   1.525   0.068  12.055  0.2952  1.7933 -2.2096
  577TMC3    H2 8615   1.788   4.714  11.736  1.0758  1.7812  0.6016
  577TMC3    C7 8616   1.657   0.160  11.842 -0.4279  0.3354 -0.7697
  577TMC3    C8 8617   1.888   4.486  11.857 -0.3734 -0.1866  0.1654
  577TMC3    O1 8618   1.661   0.175  11.722 -0.0482 -0.3526  0.8640
  577TMC3    O2 8619   1.902   4.382  11.919 -0.3762 -0.3843 -0.5075
  578MPD2     C 8620   0.420   0.035   0.717  0.6670  0.1100 -0.7174
  578MPD2    C1 8621   0.462   4.649   0.734 -0.1205  0.0815 -0.0634
  578MPD2    C2 8622   0.480   4.599   0.863 -0.5534  0.4546 -0.5223
  578MPD2    C3 8623   0.408   4.651   0.970  0.2824 -0.0031 -0.2516
  578MPD2    C4 8624   0.356   0.037   0.948 -0.8125 -0.1944  0.0969
  578MPD2    C5 8625   0.373   0.095   0.826 -0.8003  0.0392  0.1656
  578MPD2     H 8626   0.508   4.496   0.884  0.2972  0.8972  0.4823
  578MPD2    H1 8627   0.316   0.099   1.027  1.4961 -0.6998  1.6967
  578MPD2    H2 8628   0.425   0.088   0.623 -0.5757  1.1641 -0.2022
  578MPD2    H3 8629   0.333   0.194   0.810  1.3858  0.4972 -2.5762
  578MPD2     N 8630   0.405   4.589   1.092  0.3118 -0.0032 -0.2445
  578MPD2    H5 8631   0.456   4.501   1.091  1.6292  0.7222  2.1668
  578MPD2    N1 8632   0.517   4.571   0.621 -0.1147 -0.1629 -0.0541
  578MPD2    H7 8633   0.512   4.613   0.528 -0.2609 -0.9388 -0.3963
  579TMC3    C1 8634   0.361   4.521   1.310  0.0672  0.2430  0.2267
  579TMC3    C2 8635   0.387   4.570   1.433  0.3052 -0.1880 -0.1141
  579TMC3    C3 8636   0.420   4.481   1.524  0.2909  0.6489 -0.1948
  579TMC3    C4 8637   0.380   4.395   1.269 -0.1448  0.3465 -0.5263
  579TMC3    C5 8638   0.431   4.307   1.364 -0.2602  0.2985 -0.3504
  579TMC3    C6 8639   0.449   4.349   1.490 -0.5996 -0.7215 -0.3878
  579TMC3     C 8640   0.345   4.624   1.208 -0.2976  0.8583 -0.1019
  579TMC3     O 8641   0.298   4.732   1.241 -0.0527 -0.5277  0.8985
  579TMC3     H 8642   0.365   4.670   1.468  1.8113  0.3025 -0.5823
  579TMC3    H1 8643   0.368   4.362   1.166 -0.3751 -0.7796 -0.1355
  579TMC3    H2 8644   0.472   4.277   1.568 -1.5905  0.7518  1.2682
  579TMC3    C7 8645   0.478   4.172   1.335 -0.2280  0.2640  0.1474
  579TMC3    C8 8646   0.528   4.520   1.612 -0.4291  0.1709 -0.3640
  579TMC3    O1 8647   0.558   4.112   1.407  0.0879  0.2896 -0.4426
  579TMC3    O2 8648   0.502   4.523   1.731 -0.5677  0.2491  0.0148
  580TMC3    C1 8649   4.294   4.028  12.281  0.8164 -0.3793  0.5391
  580TMC3    C2 8650   4.418   4.090  12.290 -0.2322  0.5398 -0.8375
  580TMC3    C3 8651   4.525   4.012  12.319 -0.0094  0.5080  0.2730
  580TMC3    C4 8652   4.289   3.890  12.292  0.0894  0.5447  0.4290
  580TMC3    C5 8653   4.408   3.821  12.316 -0.2903  0.4077 -0.5986
  580TMC3    C6 8654   4.526   3.876  12.334  0.1756  0.4218  0.5443
  580TMC3     C 8655   4.196   4.093  12.186 -0.3055  0.3980  0.3652
  580TMC3     O 8656   4.248   4.156  12.093  0.3741 -0.3955 -0.4742
  580TMC3     H 8657   4.430   4.196  12.272 -1.6763  0.8742  0.1772
  580TMC3    H1 8658   4.198   3.834  12.274 -0.2555  1.5580 -1.0118
  580TMC3    H2 8659   4.616   3.818  12.352 -0.5292 -0.8441 -0.0438
  580TMC3    C7 8660   4.405   3.680  12.321 -0.8673 -0.0190 -1.1953
  580TMC3    C8 8661   4.634   4.070  12.254 -0.1860 -0.0378 -0.8408
  580TMC3    O1 8662   4.498   3.635  12.382  0.8028  0.4918  0.1246
  580TMC3    O2 8663   4.681   4.177  12.284  0.2484 -0.6932  0.0254
  581MPD2     C 8664   1.831   3.534  14.626  0.3897 -0.2290  0.9906
  581MPD2    C1 8665   1.741   3.531  14.733  0.0386 -0.0841  0.5639
  581MPD2    C2 8666   1.621   3.594  14.717  0.1333  0.4034  0.4014
  581MPD2    C3 8667   1.581   3.639  14.592  0.6283 -0.7946 -0.7334
  581MPD2    C4 8668   1.669   3.633  14.484 -0.2187  0.6514  0.9256
  581MPD2    C5 8669   1.796   3.590  14.509 -0.4196  0.6560 -0.1837
  581MPD2     H 8670   1.563   3.605  14.808 -2.0843 -0.5725 -0.8994
  581MPD2    H1 8671   1.654   3.673  14.384  1.5173 -1.2967 -0.1240
  581MPD2    H2 8672   1.922   3.475  14.618  0.1302 -0.4920 -0.0653
  581MPD2    H3 8673   1.865   3.587  14.425 -0.9330 -1.8945 -0.5271
  581MPD2     N 8674   1.457   3.699  14.570 -0.1683 -0.4760 -0.5845
  581MPD2    H5 8675   1.395   3.716  14.648  1.6830 -1.6796  1.1457
  581MPD2    N1 8676   1.786   3.468  14.855  0.5097 -0.2668 -0.3701
  581MPD2    H7 8677   1.882   3.435  14.854  0.6644  0.1770 -0.3355
  582TMC3    C1 8678   1.780   3.338  15.051 -0.6250  0.0815  0.4371
  582TMC3    C2 8679   1.917   3.349  15.069  0.6197  0.1231  0.1531
  582TMC3    C3 8680   1.976   3.253  15.152 -0.1904  0.2447 -0.3029
  582TMC3    C4 8681   1.710   3.244  15.113 -0.1773 -0.0806  0.3739
  582TMC3    C5 8682   1.774   3.143  15.186  0.1347  0.5556 -0.1296
  582TMC3    C6 8683   1.909   3.137  15.193 -0.1577  0.1208  0.7409
  582TMC3     C 8684   1.708   3.431  14.968  0.4904 -0.2780  0.1474
  582TMC3     O 8685   1.591   3.452  14.987 -0.0306 -0.5004 -0.0505
  582TMC3     H 8686   1.966   3.434  15.022  1.5866  1.3656  3.4335
  582TMC3    H1 8687   1.603   3.241  15.095 -0.0731 -1.5534 -0.0178
  582TMC3    H2 8688   1.946   3.057  15.257  0.4762  0.5060  0.8588
  582TMC3    C7 8689   1.733   3.149  15.326 -0.5752  0.3184  0.0877
  582TMC3    C8 8690   2.055   3.299  15.263 -0.6176  0.0011  0.2898
  582TMC3    O1 8691   1.787   3.077  15.413 -0.6868  0.4704  0.0451
  582TMC3    O2 8692   2.061   3.420  15.281  0.3602  0.0137 -0.2808
  583MPD2     C 8693   1.830   0.506  16.361  0.0556 -0.4902  0.3274
  583MPD2    C1 8694   1.813   0.645  16.338  0.2123 -0.5220  0.0839
  583MPD2    C2 8695   1.765   0.727  16.437 -0.3855 -0.3736 -0.6082
  583MPD2    C3 8696   1.721   0.662  16.549 -0.0970  0.0633  0.1066
  583MPD2    C4 8697   1.703   0.522  16.557 -0.2823 -0.3766  0.3400
  583MPD2    C5 8698   1.770   0.442  16.462  0.7880  0.1234 -0.2019
  583MPD2     H 8699   1.754   0.835  16.428  0.2756 -0.0576  2.3609
  583MPD2    H1 8700   1.657   0.473  16.642  0.4927  0.0390  1.0066
  583MPD2    H2 8701   1.874   0.445  16.283  1.3859  1.3040 -0.3400
  583MPD2    H3 8702   1.768   0.334  16.475  1.9800  0.1647  0.3249
  583MPD2     N 8703   1.656   0.750  16.639 -0.5509 -0.6756 -0.3583
  583MPD2    H5 8704   1.674   0.850  16.632  0.7418 -0.7539  1.8886
  583MPD2    N1 8705   1.871   0.708  16.223 -0.5894  0.4442 -0.9625
  583MPD2    H7 8706   1.835   0.801  16.202 -0.7741  0.4196 -0.7517
  584TMC3    C1 8707   1.584   0.817  16.858 -0.0333  0.5476  0.3015
  584TMC3    C2 8708   1.532   0.933  16.814  0.1467  0.0475  0.0088
  584TMC3    C3 8709   1.509   1.032  16.896 -0.4096 -0.0935 -0.2324
  584TMC3    C4 8710   1.594   0.794  16.990  0.3500  0.4146 -0.2239
  584TMC3    C5 8711   1.580   0.896  17.082  0.6377 -0.2308  0.3046
  584TMC3    C6 8712   1.532   1.016  17.032  0.2024  0.2194 -0.4906
  584TMC3     C 8713   1.632   0.712  16.774 -0.3650 -0.2728  0.5557
  584TMC3     O 8714   1.630   0.601  16.824 -0.8405 -0.6118  0.1545
  584TMC3     H 8715   1.525   0.943  16.707  1.3571  1.8764  0.0990
  584TMC3    H1 8716   1.633   0.699  17.024 -1.4948 -0.4673 -0.5246
  584TMC3    H2 8717   1.506   1.103  17.091  0.6201 -0.1156  0.1836
  584TMC3    C7 8718   1.621   0.882  17.221  0.1029  0.1086  0.9211
  584TMC3    C8 8719   1.540   1.160  16.836  0.2082 -0.5934  0.6319
  584TMC3    O1 8720   1.653   0.771  17.257  0.0527 -0.3696  0.2203
  584TMC3    O2 8721   1.504   1.168  16.720  0.6381 -0.2586  0.3484
  585MPD2     C 8722   1.346   4.063   0.449  0.1770  0.1024  0.1100
  585MPD2    C1 8723   1.457   4.079   0.378 -0.3983  0.4567 -0.2767
  585MPD2    C2 8724   1.475   3.997   0.265 -0.4647  0.1745 -0.1512
  585MPD2    C3 8725   1.367   3.919   0.210 -1.0518 -0.3489  0.0396
  585MPD2    C4 8726   1.256   3.895   0.290 -1.1507  0.8822  0.2983
  585MPD2    C5 8727   1.249   3.975   0.407 -0.2217 -0.2500 -0.1318
  585MPD2     H 8728   1.568   4.020   0.214  0.2815 -1.8057  0.3011
  585MPD2    H1 8729   1.177   3.831   0.253 -1.0223 -0.5425  2.4621
  585MPD2    H2 8730   1.329   4.126   0.535 -1.3112 -0.4364  0.2188
  585MPD2    H3 8731   1.166   3.956   0.473  0.3372 -1.8535  0.1209
  585MPD2     N 8732   1.378   3.865   0.077 -0.3722 -0.0638 -0.5410
  585MPD2    H5 8733   1.300   3.814   0.037 -0.9355  0.1777  0.2381
  585MPD2    N1 8734   1.551   4.177   0.422  0.3173 -0.2056 -0.4239
  585MPD2    H7 8735   1.526   4.257   0.479  0.5797 -1.2144  1.1287
  586TMC3    C1 8736   1.442   3.889  17.604 -0.0303 -0.2370 -0.6624
  586TMC3    C2 8737   1.534   3.850  17.512  0.0972  0.0119  0.2794
  586TMC3    C3 8738   1.503   3.851  17.380  0.1666 -0.4723  0.0870
  586TMC3    C4 8739   1.320   3.944  17.564  0.2971  0.1783 -0.0091
  586TMC3    C5 8740   1.298   3.945  17.426 -0.1163  0.0056  0.1308
  586TMC3    C6 8741   1.388   3.900  17.339  0.2938  0.6113 -0.4261
  586TMC3     C 8742   1.484   3.899  17.741 -0.2170 -0.0902  1.1265
  586TMC3     O 8743   1.602   3.908   0.015  0.1029 -0.2772 -0.1329
  586TMC3     H 8744   1.624   3.799  17.544 -0.8304 -1.4397  0.5493
  586TMC3    H1 8745   1.238   3.973  17.629  0.9800  0.3843  0.7471
  586TMC3    H2 8746   1.366   3.910  17.233  2.1706 -0.2717 -0.8822
  586TMC3    C7 8747   1.163   3.977  17.374 -0.4366 -0.3426 -0.8268
  586TMC3    C8 8748   1.563   3.746  17.305  0.3345  0.4189 -0.4051
  586TMC3    O1 8749   1.064   3.950  17.439  0.4134  0.7407  0.1998
  586TMC3    O2 8750   1.678   3.716  17.339  0.3348  0.2899 -0.0670
  587TMC3    C1 8751   3.683   2.862  16.188 -0.8660  0.5221  0.5624
  587TMC3    C2 8752   3.697   2.982  16.118 -0.0506 -0.2601  0.1013
  587TMC3    C3 8753   3.765   3.079  16.191 -0.5707  0.9123 -0.2533
  587TMC3    C4 8754   3.733   2.836  16.312  0.4748  0.1884 -0.3648
  587TMC3    C5 8755   3.797   2.938  16.381 -0.2842 -0.1466 -0.2394
  587TMC3    C6 8756   3.812   3.065  16.322 -1.1444  0.1506 -0.0795
  587TMC3     C 8757   3.623   2.753  16.111  0.3045 -0.3708 -0.9311
  587TMC3     O 8758   3.651   2.742  15.990  0.2783  0.5058 -0.4044
  587TMC3     H 8759   3.652   2.998  16.020 -1.3020  1.0631  0.8885
  587TMC3    H1 8760   3.713   2.741  16.361 -1.9011  0.7209 -0.2817
  587TMC3    H2 8761   3.881   3.140  16.358 -1.1688 -0.5205  1.3497
  587TMC3    C7 8762   3.818   2.920  16.518  0.2589  0.6764  0.2786
  587TMC3    C8 8763   3.751   3.220  16.149 -0.0980 -0.8682 -0.4071
  587TMC3    O1 8764   3.824   3.023  16.581  0.1936 -0.4678 -0.1020
  587TMC3    O2 8765   3.786   3.251  16.035  0.0543 -0.5579  0.5372
  588TMC3    C1 8766   0.835   0.622   9.802  0.2817 -0.0030 -0.2869
  588TMC3    C2 8767   0.791   0.500   9.764  0.6615  0.4084  0.5403
  588TMC3    C3 8768   0.875   0.394   9.786 -0.7485 -0.0204 -1.0237
  588TMC3    C4 8769   0.954   0.638   9.867  0.0369 -0.3163  0.0455
  588TMC3    C5 8770   1.032   0.525   9.894 -0.4135  0.2699  0.1246
  588TMC3    C6 8771   0.996   0.405   9.847  0.0514 -0.2518 -0.4744
  588TMC3     C 8772   0.738   0.730   9.829  0.7332 -0.1448 -0.0591
  588TMC3     O 8773   0.623   0.691   9.856 -0.5655  0.1568  0.0353
  588TMC3     H 8774   0.692   0.488   9.721  1.3497 -0.1070 -0.9099
  588TMC3    H1 8775   0.979   0.735   9.907 -1.8385 -0.2414  1.0294
  588TMC3    H2 8776   1.069   0.325   9.844 -1.7690 -1.9336 -0.1828
  588TMC3    C7 8777   1.158   0.539   9.969 -0.3957  0.2692  0.3509
  588TMC3    C8 8778   0.802   0.267   9.786  0.6466 -0.5723  0.0970
  588TMC3    O1 8779   1.215   0.443  10.016 -0.1023 -0.1523 -0.1317
  588TMC3    O2 8780   0.707   0.255   9.708 -0.1865 -0.2550 -0.6618
  589TMC3    C1 8781   0.252   2.752   1.120  0.0738  0.9569 -0.5161
  589TMC3    C2 8782   0.371   2.765   1.196  0.3730 -0.4770  0.3435
  589TMC3    C3 8783   0.480   2.682   1.176 -0.5090  0.2322 -0.5410
  589TMC3    C4 8784   0.249   2.638   1.035  0.2868 -0.3543 -0.4019
  589TMC3    C5 8785   0.355   2.560   1.023  0.1844 -0.0260  0.0162
  589TMC3    C6 8786   0.475   2.574   1.090 -0.5259  0.0398 -0.0927
  589TMC3     C 8787   0.144   2.847   1.100 -1.0580  0.3735 -0.3116
  589TMC3     O 8788   0.065   2.831   1.005 -0.5806  0.0441  0.0058
  589TMC3     H 8789   0.363   2.829   1.282  0.3897  1.5274 -1.1394
  589TMC3    H1 8790   0.156   2.614   0.985  0.9905 -0.9045 -1.4419
  589TMC3    H2 8791   0.555   2.504   1.071 -0.1810  0.1676  0.8848
  589TMC3    C7 8792   0.356   2.451   0.925 -0.3362 -0.3208  0.2583
  589TMC3    C8 8793   0.603   2.712   1.252  0.3852  0.0846 -0.2717
  589TMC3    O1 8794   0.468   2.417   0.884  0.5312 -0.0574 -0.4207
  589TMC3    O2 8795   0.592   2.775   1.358  0.5384  0.5802 -0.3403
  590MPD2     C 8796   4.675   1.236  16.452 -0.0795 -0.6543  0.7919
  590MPD2    C1 8797   4.620   1.244  16.327 -0.1523  0.0328  0.0639
  590MPD2    C2 8798   4.697   1.311  16.231 -0.2359 -0.1642 -0.7415
  590MPD2    C3 8799   0.078   1.383  16.259  0.5036  0.8225 -0.0428
  590MPD2    C4 8800   0.125   1.373  16.390 -0.3656  0.4332  0.5666
  590MPD2    C5 8801   0.056   1.293  16.478 -0.6334  0.5537 -0.1001
  590MPD2     H 8802   4.653   1.338  16.135 -1.4145  2.2338  0.4556
  590MPD2    H1 8803   0.216   1.421  16.425 -0.4250  0.4325  0.7226
  590MPD2    H2 8804   4.623   1.171  16.522 -0.2494 -0.4896  0.8194
  590MPD2    H3 8805   0.102   1.286  16.576  2.9380 -0.1549 -1.8397
  590MPD2     N 8806   0.139   1.462  16.154 -0.1670 -0.2529  0.4985
  590MPD2    H5 8807   0.096   1.468  16.062  0.1265  1.4614  0.4682
  590MPD2    N1 8808   4.500   1.179  16.299  0.0889 -0.0878  0.2811
  590MPD2    H7 8809   4.458   1.124  16.373  0.7572  2.2749  2.3792
  591TMC3    C1 8810   0.278   1.622  16.040  0.5613 -0.0628 -0.4290
  591TMC3    C2 8811   0.264   1.560  15.916  0.1898 -1.1202 -0.3115
  591TMC3    C3 8812   0.309   1.624  15.803  0.2853  0.8748  0.4556
  591TMC3    C4 8813   0.327   1.747  16.053 -0.1356  0.5960 -0.6786
  591TMC3    C5 8814   0.374   1.799  15.934  0.2142 -0.7248  0.1987
  591TMC3    C6 8815   0.353   1.754  15.809 -0.4845  0.3235 -0.6067
  591TMC3     C 8816   0.252   1.543  16.164 -0.3803 -0.5718 -0.6298
  591TMC3     O 8817   0.321   1.571  16.266  0.2441 -0.1640 -0.3336
  591TMC3     H 8818   0.237   1.455  15.913 -0.1925 -0.9812 -1.5998
  591TMC3    H1 8819   0.347   1.791  16.150 -0.7224 -1.5942  0.4444
  591TMC3    H2 8820   0.377   1.806  15.717  0.8877 -0.0891 -0.4832
  591TMC3    C7 8821   0.422   1.937  15.956  0.1857  0.0378  0.3448
  591TMC3    C8 8822   0.319   1.540  15.684 -0.8059 -0.1470 -0.1918
  591TMC3    O1 8823   0.444   1.972  16.069 -0.2291 -0.2362 -0.1934
  591TMC3    O2 8824   0.306   1.418  15.692 -0.1399 -0.4284 -0.0829
  592MPD2     C 8825   0.355   3.186  11.331 -0.6470 -0.3921 -0.2830
  592MPD2    C1 8826   0.354   3.235  11.464 -0.3185  0.1077  0.5167
  592MPD2    C2 8827   0.277   3.182  11.561  0.2508  0.0054  0.1742
  592MPD2    C3 8828   0.181   3.086  11.522 -0.7352 -0.2852 -0.1512
  592MPD2    C4 8829   0.189   3.035  11.391  0.9930  0.0628 -0.4867
  592MPD2    C5 8830   0.273   3.083  11.295 -0.1690 -0.2889  0.5723
  592MPD2     H 8831   0.283   3.201  11.668 -2.4262  0.2354  0.2753
  592MPD2    H1 8832   0.122   2.955  11.361  0.2824  1.2869 -2.1827
  592MPD2    H2 8833   0.428   3.224  11.261  0.3752  0.3307  1.1661
  592MPD2    H3 8834   0.278   3.030  11.201  1.9630  0.0940  0.4788
  592MPD2     N 8835   0.102   3.037  11.624  0.0607  0.3876 -0.5466
  592MPD2    H5 8836   0.141   3.057  11.716  1.4582 -3.5184 -0.2792
  592MPD2    N1 8837   0.448   3.342  11.491 -0.0928 -0.0396 -0.2476
  592MPD2    H7 8838   0.506   3.376  11.415  1.6918 -0.3358  0.9855
  593TMC3    C1 8839   0.571   3.503  11.616 -0.4079 -0.6431 -0.2827
  593TMC3    C2 8840   0.560   3.603  11.708 -0.7132 -0.0939 -0.4690
  593TMC3    C3 8841   0.671   3.680  11.733  0.1658  0.4739  0.1658
  593TMC3    C4 8842   0.686   3.492  11.541  0.5454 -0.5063 -0.6754
  593TMC3    C5 8843   0.801   3.556  11.586  0.3430  0.2602  0.1874
  593TMC3    C6 8844   0.795   3.648  11.687  0.4798 -0.3630  0.7995
  593TMC3     C 8845   0.472   3.397  11.618 -0.6776 -0.5586 -0.4824
  593TMC3     O 8846   0.413   3.381  11.725  0.4000  0.1731 -0.3547
  593TMC3     H 8847   0.464   3.612  11.756 -0.4807  0.0162 -0.0253
  593TMC3    H1 8848   0.700   3.421  11.461 -2.0842 -1.5551 -0.1897
  593TMC3    H2 8849   0.890   3.697  11.704 -0.7803  3.3336 -2.6524
  593TMC3    C7 8850   0.902   3.591  11.487  0.2854  0.0203 -0.1109
  593TMC3    C8 8851   0.653   3.804  11.795 -0.3800 -0.7185 -0.6049
  593TMC3    O1 8852   0.864   3.637  11.383  0.5846 -0.3779  0.1334
  593TMC3    O2 8853   0.552   3.818  11.856  0.0542 -0.1965 -0.2582
  594MPD2     C 8854   3.453   2.189  13.952  0.7030 -0.3746 -0.9057
  594MPD2    C1 8855   3.492   2.188  14.084  0.0731 -0.1133  0.6689
  594MPD2    C2 8856   3.619   2.238  14.116 -0.5461 -0.5547 -1.0544
  594MPD2    C3 8857   3.697   2.304  14.015 -0.6087 -0.3488  0.0390
  594MPD2    C4 8858   3.653   2.300  13.886  0.7480 -0.0523  0.2393
  594MPD2    C5 8859   3.537   2.228  13.850  0.3533 -0.1095 -0.4990
  594MPD2     H 8860   3.657   2.241  14.217 -2.3182  1.4406 -0.4589
  594MPD2    H1 8861   3.696   2.362  13.809  2.4084  0.0921  1.2752
  594MPD2    H2 8862   3.362   2.138  13.924  0.4511 -0.6933  0.4774
  594MPD2    H3 8863   3.497   2.252  13.752 -2.5130  0.3476  0.7521
  594MPD2     N 8864   3.814   2.370  14.061 -0.2261 -0.0516 -0.1993
  594MPD2    H5 8865   3.822   2.370  14.162 -0.4240 -2.7148 -0.1902
  594MPD2    N1 8866   3.405   2.127  14.169  0.2827  0.9153 -0.1179
  594MPD2    H7 8867   3.316   2.087  14.139  1.3618 -0.9900 -0.7371
  595TMC3    C1 8868   4.225   2.595  14.051 -0.2977  0.3564  0.0420
  595TMC3    C2 8869   4.130   2.527  13.984  0.0373 -0.7122  0.3717
  595TMC3    C3 8870   4.014   2.495  14.046  0.0894  0.4358  0.3017
  595TMC3    C4 8871   4.199   2.652  14.172  0.2614  0.0976 -0.7391
  595TMC3    C5 8872   4.072   2.636  14.221  0.7438  0.3199  0.5481
  595TMC3    C6 8873   3.981   2.559  14.160 -0.5662 -0.4038 -0.5486
  595TMC3     C 8874   4.368   2.579  14.032 -0.0318 -0.9680  0.5163
  595TMC3     O 8875   4.438   2.588  14.130 -0.1437  0.0352 -0.1857
  595TMC3     H 8876   4.158   2.468  13.898  0.3637  0.2107 -0.1587
  595TMC3    H1 8877   4.275   2.718  14.212  2.1074 -1.8543 -1.0196
  595TMC3    H2 8878   3.882   2.554  14.205 -0.3393 -4.1568 -0.4754
  595TMC3    C7 8879   4.045   2.687  14.356  0.1090 -0.4175 -0.1908
  595TMC3    C8 8880   3.914   2.421  13.978 -0.4986  1.0618  0.0058
  595TMC3    O1 8881   3.927   2.715  14.383  0.1333 -0.3559 -0.4181
  595TMC3    O2 8882   3.925   2.409  13.856 -0.2850  0.0380 -0.0816
  596MPD2     C 8883   3.104   0.342  16.659 -0.3662  0.3339  0.7745
  596MPD2    C1 8884   3.028   0.442  16.614 -0.0351  0.8072  0.6842
  596MPD2    C2 8885   2.990   0.446  16.484 -0.2383 -0.0979  0.1319
  596MPD2    C3 8886   3.042   0.360  16.388 -0.3542  0.3216 -0.0652
  596MPD2    C4 8887   3.106   0.258  16.434  0.4184 -0.3045  1.1143
  596MPD2    C5 8888   3.142   0.249  16.565 -0.3831  0.9794 -0.0643
  596MPD2     H 8889   2.924   0.525  16.450  1.6380  2.1061  1.6118
  596MPD2    H1 8890   3.138   0.180  16.366  0.6707 -0.2957  1.2222
  596MPD2    H2 8891   3.122   0.334  16.765  0.0332  0.1152  0.6884
  596MPD2    H3 8892   3.218   0.174  16.586 -0.5803  0.8198  0.0834
  596MPD2     N 8893   3.021   0.364  16.247  0.1616  0.4562 -0.1001
  596MPD2    H5 8894   3.064   0.292  16.190  0.6910  0.9947 -0.3871
  596MPD2    N1 8895   2.994   0.560  16.692  0.5746 -0.4150 -0.0192
  596MPD2    H7 8896   2.934   0.632  16.654 -1.1187 -2.3494 -0.9899
  597TMC3    C1 8897   3.008   0.715  16.865 -0.0985  0.1791  0.4773
  597TMC3    C2 8898   2.987   0.819  16.775 -0.5032 -0.2416  0.0681
  597TMC3    C3 8899   2.946   0.936  16.825  0.3389 -0.1109 -0.2796
  597TMC3    C4 8900   2.984   0.727  16.999  0.1890  0.1834 -0.0959
  597TMC3    C5 8901   2.936   0.845  17.045 -0.0228  0.3352  0.0886
  597TMC3    C6 8902   2.919   0.955  16.960  0.2908  0.9015 -0.4550
  597TMC3     C 8903   3.031   0.581  16.818  0.5635 -0.3277 -0.3460
  597TMC3     O 8904   3.073   0.502  16.902 -0.3327 -0.3240  0.4596
  597TMC3     H 8905   2.991   0.813  16.667 -0.2716  1.5470 -0.0327
  597TMC3    H1 8906   2.992   0.641  17.064 -1.1395 -1.3994 -2.0404
  597TMC3    H2 8907   2.889   1.053  16.995  0.0420  1.0801 -1.1674
  597TMC3    C7 8908   2.827   0.833  17.147 -0.3410 -0.2695  0.6399
  597TMC3    C8 8909   2.917   1.052  16.745 -0.0929 -0.1947  0.0931
  597TMC3    O1 8910   2.833   0.735  17.222 -0.2987 -0.1404  0.4168
  597TMC3    O2 8911   2.839   1.133  16.789 -0.0886  0.0697 -0.7362
  598TMC3    C1 8912   0.724   1.718  15.013 -0.4847 -0.6862  0.0293
  598TMC3    C2 8913   0.613   1.648  14.971  0.1177 -0.1868 -0.6958
  598TMC3    C3 8914   0.588   1.633  14.835  0.2513  0.1497 -0.1373
  598TMC3    C4 8915   0.807   1.764  14.916 -0.0753  0.0954  0.2530
  598TMC3    C5 8916   0.780   1.742  14.780  0.5727  0.0266 -0.9535
  598TMC3    C6 8917   0.662   1.686  14.737  0.3940  0.2534  0.5937
  598TMC3     C 8918   0.795   1.650  15.113 -0.4258  0.0029  0.0882
  598TMC3     O 8919   0.878   1.710  15.177  0.3685  0.0736 -0.0090
  598TMC3     H 8920   0.536   1.613  15.039 -0.5578 -2.9547 -2.8586
  598TMC3    H1 8921   0.898   1.806  14.958  0.7701  0.7242 -2.2590
  598TMC3    H2 8922   0.643   1.678  14.631  0.5662 -0.6568  0.6289
  598TMC3    C7 8923   0.854   1.827  14.685  1.0282 -0.7875 -0.2247
  598TMC3    C8 8924   0.458   1.586  14.799 -0.0078  0.1426 -0.7696
  598TMC3    O1 8925   0.808   1.836  14.571  0.7227  0.4986  0.1307
  598TMC3    O2 8926   0.379   1.578  14.890 -0.1790  0.4773  0.3038
  599MPD2     C 8927   1.160   4.419  15.754 -0.4535 -1.2289  0.6465
  599MPD2    C1 8928   1.097   4.299  15.779  0.2464 -0.3145 -0.1522
  599MPD2    C2 8929   0.965   4.303  15.832  0.2785  0.1640 -0.3564
  599MPD2    C3 8930   0.897   4.426  15.845 -0.7414  0.0813  0.1186
  599MPD2    C4 8931   0.963   4.544  15.824 -0.1234  0.5832  0.0110
  599MPD2    C5 8932   1.094   4.537  15.770  0.7706 -0.1425 -0.0174
  599MPD2     H 8933   0.917   4.207  15.850  0.9553 -0.3834 -1.4592
  599MPD2    H1 8934   0.909   4.635  15.848  0.3474  0.7506  0.4140
  599MPD2    H2 8935   1.259   4.421  15.710 -1.3695 -1.7485 -1.4190
  599MPD2    H3 8936   1.143   4.627  15.736  0.7559  0.0413  0.4417
  599MPD2     N 8937   0.763   4.442  15.891 -0.4834  0.0270  0.0174
  599MPD2    H5 8938   0.726   4.536  15.898 -2.2638 -0.8182  2.1758
  599MPD2    N1 8939   1.170   4.178  15.759 -0.1366  0.1718  0.2312
  599MPD2    H7 8940   1.271   4.187  15.748 -0.0252 -0.8640  0.3596
  600TMC3    C1 8941   0.566   4.379  16.003 -0.4378 -0.2250 -1.0394
  600TMC3    C2 8942   0.465   4.280  16.025  0.0129 -0.2465  0.0767
  600TMC3    C3 8943   0.374   4.314  16.118 -0.0022  0.5991 -0.3601
  600TMC3    C4 8944   0.557   4.506  16.057 -0.0812 -0.1822 -0.7462
  600TMC3    C5 8945   0.463   4.529  16.157  0.3744  0.4624  0.0856
  600TMC3    C6 8946   0.376   4.431  16.189 -0.7637 -0.5000  0.0123
  600TMC3     C 8947   0.693   4.340  15.951  0.3699  1.0149  0.1197
  600TMC3     O 8948   0.715   4.221  15.946  0.0776 -0.5931  0.4617
  600TMC3     H 8949   0.476   4.177  15.992  1.0593 -0.6128  1.5777
  600TMC3    H1 8950   0.631   4.581  16.032  1.5947 -1.3831  0.6177
  600TMC3    H2 8951   0.309   4.445  16.273  0.0605 -1.3195  0.8108
  600TMC3    C7 8952   0.453   4.662  16.213  0.0213 -0.1436  0.2609
  600TMC3    C8 8953   0.348   4.198  16.202 -0.6192  0.9970 -0.5007
  600TMC3    O1 8954   0.350   4.699  16.268  0.0300  0.0115 -0.0501
  600TMC3    O2 8955   0.371   4.209  16.325 -0.2214 -0.5258 -0.0599
  601MPD2     C 8956   3.146   2.540  17.738  0.3708  0.0738  0.5786
  601MPD2    C1 8957   3.023   2.506  17.689 -0.1510  0.2702 -0.6350
  601MPD2    C2 8958   2.931   2.447   0.021  0.1958  0.3454 -0.0411
  601MPD2    C3 8959   2.972   2.407   0.148 -0.8351 -0.2484 -0.7758
  601MPD2    C4 8960   3.098   2.439   0.193 -0.0321 -0.7316  0.1081
  601MPD2    C5 8961   3.184   2.508   0.113 -0.2626  0.1083 -0.1215
  601MPD2     H 8962   2.826   2.431   0.000  0.5433  1.4583 -2.5642
  601MPD2    H1 8963   3.128   2.413   0.294  0.0537 -0.5690  0.1236
  601MPD2    H2 8964   3.217   2.592  17.674 -0.5126  2.3471  1.4341
  601MPD2    H3 8965   3.276   2.551   0.150 -0.6608  0.4099  0.5029
  601MPD2     N 8966   2.886   2.344   0.243 -0.0881  0.5655  0.0781
  601MPD2    H5 8967   2.925   2.331   0.335 -2.0432 -1.2494  0.6511
  601MPD2    N1 8968   2.979   2.546  17.565 -0.3039 -0.4678 -0.0483
  601MPD2    H7 8969   2.883   2.519  17.545 -0.1180  0.6841 -2.5079
  602TMC3    C1 8970   2.955   2.687  17.370  0.6132 -0.2274  0.3777
  602TMC3    C2 8971   3.003   2.795  17.304 -0.4832  0.2109  0.1012
  602TMC3    C3 8972   2.972   2.803  17.176  0.4006  0.0165  0.0816
  602TMC3    C4 8973   2.855   2.605  17.317 -0.1170 -0.4609 -0.7301
  602TMC3    C5 8974   2.825   2.619  17.188 -0.1818  0.0241 -0.4547
  602TMC3    C6 8975   2.880   2.715  17.114  0.3217  0.4507  0.2883
  602TMC3     C 8976   3.038   2.645  17.483  0.4198 -0.0058 -0.4590
  602TMC3     O 8977   3.149   2.698  17.497  0.7777 -0.0862 -1.0732
  602TMC3     H 8978   3.076   2.864  17.347 -0.9585  0.0491  1.1643
  602TMC3    H1 8979   2.811   2.524  17.375 -0.5888  0.8842  0.7805
  602TMC3    H2 8980   2.857   2.718  17.008 -1.0486  1.4488  0.6078
  602TMC3    C7 8981   2.694   2.567  17.153  0.1123 -0.4366 -0.6252
  602TMC3    C8 8982   3.032   2.914  17.105  0.4814 -0.7448 -0.1462
  602TMC3    O1 8983   2.667   2.453  17.176  1.0646 -0.6538 -0.1984
  602TMC3    O2 8984   3.108   2.988  17.169 -0.3348 -0.3606 -0.0267
  603TMC3    C1 8985   1.167   2.658  10.679 -0.2259  0.0593 -0.1886
  603TMC3    C2 8986   1.205   2.627  10.803 -0.0005  0.0690 -0.3228
  603TMC3    C3 8987   1.244   2.732  10.885  0.1153 -1.0684  0.2120
  603TMC3    C4 8988   1.142   2.784  10.635 -0.2844  0.5955 -0.1962
  603TMC3    C5 8989   1.151   2.882  10.728  0.2565 -0.1035  0.4786
  603TMC3    C6 8990   1.200   2.856  10.856 -0.1869 -0.2745 -0.8153
  603TMC3     C 8991   1.121   2.552  10.588 -0.0216  0.0207  1.3423
  603TMC3     O 8992   1.123   2.577  10.469  0.1186 -0.3993  0.0117
  603TMC3     H 8993   1.240   2.526  10.820 -0.9748  0.0639  1.7334
  603TMC3    H1 8994   1.087   2.805  10.544  1.4817  0.9844 -1.1783
  603TMC3    H2 8995   1.235   2.938  10.918 -1.0781 -1.4307  1.2078
  603TMC3    C7 8996   1.122   3.017  10.699  0.0417 -1.2046 -0.4728
  603TMC3    C8 8997   1.261   2.691  11.022 -0.0247 -0.0855 -0.3683
  603TMC3    O1 8998   1.191   3.105  10.745 -0.0996 -0.2983 -0.7029
  603TMC3    O2 8999   1.250   2.570  11.045  0.3723  0.8397 -0.3409
  604MPD2     C 9000   2.232   1.765  16.250  0.2551  0.1919 -0.0697
  604MPD2    C1 9001   2.115   1.724  16.186 -0.1986  0.6203  0.1686
  604MPD2    C2 9002   2.117   1.701  16.049  0.8588 -0.1385  0.2582
  604MPD2    C3 9003   2.237   1.726  15.983  0.3122  0.4587  0.0960
  604MPD2    C4 9004   2.347   1.787  16.049  0.2521  0.9373 -0.4153
  604MPD2    C5 9005   2.342   1.798  16.184  0.1789  0.4868 -0.4723
  604MPD2     H 9006   2.030   1.657  16.002  0.7143 -0.6246  0.9930
  604MPD2    H1 9007   2.439   1.810  15.997  0.4292  0.0392 -0.4998
  604MPD2    H2 9008   2.237   1.780  16.357  1.2910 -0.3261 -0.0541
  604MPD2    H3 9009   2.428   1.827  16.242  0.2761  0.4058 -0.5755
  604MPD2     N 9010   2.242   1.684  15.847  0.2057 -0.1300 -0.0275
  604MPD2    H5 9011   2.168   1.624  15.812  0.8346 -1.3561  0.7165
  604MPD2    N1 9012   1.998   1.712  16.264  0.0014 -0.4569  0.5697
  604MPD2    H7 9013   2.004   1.718  16.365  0.4146  0.2597  0.5061
  605TMC3    C1 9014   1.775   1.747  16.324 -0.0934 -0.2865 -0.4447
  605TMC3    C2 9015   1.820   1.773  16.455  0.5641  0.8494 -0.5586
  605TMC3    C3 9016   1.752   1.867  16.520  0.6477  0.0927  0.9447
  605TMC3    C4 9017   1.671   1.812  16.261  0.2580  0.1965 -0.2038
  605TMC3    C5 9018   1.595   1.894  16.342 -0.7528 -0.9287 -0.1965
  605TMC3    C6 9019   1.644   1.932  16.466  0.2251 -0.1299  0.5309
  605TMC3     C 9020   1.872   1.686  16.233  0.4558  0.4565  0.2415
  605TMC3     O 9021   1.826   1.652  16.127 -0.8050 -0.6902  0.1655
  605TMC3     H 9022   1.896   1.720  16.511  0.2644  1.2544  0.2483
  605TMC3    H1 9023   1.634   1.788  16.163 -2.1830 -0.7172  0.9437
  605TMC3    H2 9024   1.604   2.016  16.522 -1.3750 -0.6721  0.2132
  605TMC3    C7 9025   1.493   1.972  16.277  0.6161 -0.0859  0.0841
  605TMC3    C8 9026   1.842   1.942  16.601 -0.1447  0.2701  0.4022
  605TMC3    O1 9027   1.411   1.905  16.213  0.1239 -0.2260 -0.1344
  605TMC3    O2 9028   1.809   1.969  16.715  0.5618 -0.0569  0.2448
  606TMC3    C1 9029   2.565   0.699   0.217 -0.1407  0.3756  0.4998
  606TMC3    C2 9030   2.627   0.614   0.293  0.4977 -0.6939  0.5008
  606TMC3    C3 9031   2.713   0.517   0.243  0.3031  0.0437  0.6567
  606TMC3    C4 9032   2.581   0.683   0.078  0.1105 -0.6661  0.0728
  606TMC3    C5 9033   2.652   0.579   0.031 -0.0084 -0.6853 -0.1503
  606TMC3    C6 9034   2.729   0.501   0.109 -0.3031  0.2999  0.1370
  606TMC3     C 9035   2.455   0.775   0.271  0.1046 -0.0756 -0.7640
  606TMC3     O 9036   2.406   0.749   0.381  0.6003  0.3363 -0.2235
  606TMC3     H 9037   2.612   0.632   0.399 -1.9618 -2.8915  0.5119
  606TMC3    H1 9038   2.533   0.744   0.002 -0.5340 -1.7524 -0.3862
  606TMC3    H2 9039   2.793   0.426   0.065 -1.1445 -0.3748  0.0532
  606TMC3    C7 9040   2.652   0.559  17.641 -0.4332  0.6673  0.0908
  606TMC3    C8 9041   2.795   0.445   0.341 -0.5168  0.3599  0.1505
  606TMC3    O1 9042   2.616   0.649  17.573 -0.0726 -0.4676  0.1832
  606TMC3    O2 9043   2.774   0.480   0.456  0.3080 -0.0387  0.0018
  607MPD2     C 9044   0.190   2.702  11.966  0.4513  0.6398  0.4919
  607MPD2    C1 9045   0.303   2.725  12.039 -0.0861  0.2112 -0.3116
  607MPD2    C2 9046   0.321   2.656  12.156  0.4659  0.4351  0.3868
  607MPD2    C3 9047   0.237   2.550  12.185 -0.0332  0.4206 -0.6774
  607MPD2    C4 9048   0.128   2.518  12.111  0.3992  0.0500  0.1066
  607MPD2    C5 9049   0.108   2.594  11.997  0.0317 -0.5827 -0.2400
  607MPD2     H 9050   0.413   2.675  12.210  0.4810 -1.0972  0.9046
  607MPD2    H1 9051   0.056   2.441  12.136 -1.3736  2.1093  1.4402
  607MPD2    H2 9052   0.177   2.757  11.873  0.7824  2.1813  1.3462
  607MPD2    H3 9053   0.025   2.575  11.931 -0.6503  0.6897  0.2485
  607MPD2     N 9054   0.270   2.484  12.303  0.1703  0.0096  0.6654
  607MPD2    H5 9055   0.346   2.524  12.357  1.4483 -0.7786 -0.5389
  607MPD2    N1 9056   0.404   2.820  12.003 -0.1448  0.0490  0.3833
  607MPD2    H7 9057   0.493   2.799  12.047 -0.0268 -0.9993 -0.3498
  608TMC3    C1 9058   0.512   3.008  11.924  0.4775 -0.0635  0.1871
  608TMC3    C2 9059   0.563   3.022  12.052  0.2171  0.8285 -0.1618
  608TMC3    C3 9060   0.688   3.074  12.064  1.1495  0.4435 -0.2970
  608TMC3    C4 9061   0.575   3.053  11.810 -0.5278  0.8452 -0.0827
  608TMC3    C5 9062   0.698   3.114  11.833  0.2256 -0.4257 -0.2813
  608TMC3    C6 9063   0.753   3.123  11.956 -0.5135  0.4925  0.0782
  608TMC3     C 9064   0.392   2.919  11.915  0.5964  0.4425 -0.3664
  608TMC3     O 9065   0.305   2.959  11.843 -0.1424 -0.0334  0.4357
  608TMC3     H 9066   0.491   3.006  12.132  0.4598  1.0211  0.0932
  608TMC3    H1 9067   0.520   3.059  11.718  1.4831  0.3727 -1.3161
  608TMC3    H2 9068   0.835   3.187  11.984  0.2655 -0.3164 -0.3489
  608TMC3    C7 9069   0.763   3.167  11.713  0.3610  0.0135  0.3881
  608TMC3    C8 9070   0.753   3.053  12.197  0.8266  0.2555  0.2267
  608TMC3    O1 9071   0.697   3.167  11.612  0.8191 -0.1922 -0.7933
  608TMC3    O2 9072   0.861   3.105  12.212 -0.0229 -0.9716  0.7018
  609TMC3    C1 9073   3.399   2.725   9.231  0.5377 -0.3442  0.3008
  609TMC3    C2 9074   3.355   2.760   9.106  0.4118 -0.4788 -0.3479
  609TMC3    C3 9075   3.418   2.709   8.993  0.3014  0.0931 -0.0202
  609TMC3    C4 9076   3.486   2.623   9.246  0.1674 -0.1469  0.3004
  609TMC3    C5 9077   3.545   2.573   9.131  0.3629 -1.2817  0.2103
  609TMC3    C6 9078   3.507   2.611   9.007  0.0969 -0.1949  0.1334
  609TMC3     C 9079   3.323   2.759   9.353  0.7085  0.7823 -0.0037
  609TMC3     O 9080   3.324   2.679   9.446 -0.0676  0.3614 -1.0172
  609TMC3     H 9081   3.269   2.824   9.089  0.1657 -0.8375 -0.4413
  609TMC3    H1 9082   3.526   2.587   9.340 -0.6759 -1.0599  0.3051
  609TMC3    H2 9083   3.556   2.573   8.918 -0.6105  2.5739 -1.4333
  609TMC3    C7 9084   3.641   2.463   9.143  0.4137 -0.3506  0.0373
  609TMC3    C8 9085   3.383   2.741   8.857 -0.1499  0.9159  0.1077
  609TMC3    O1 9086   3.685   2.444   9.255  0.1443 -0.2916  0.7466
  609TMC3    O2 9087   3.435   2.678   8.758  0.3756  0.3683  0.3875
  610TMC3    C1 9088   1.098   3.232  12.472 -0.1190 -0.7772  0.5640
  610TMC3    C2 9089   1.124   3.252  12.340 -0.1623  0.2256 -0.5425
  610TMC3    C3 9090   1.200   3.151  12.281 -0.7881 -0.2017  0.2516
  610TMC3    C4 9091   1.141   3.117  12.537 -0.0313 -0.0553  0.5353
  610TMC3    C5 9092   1.209   3.020  12.471 -0.7847 -0.1796  0.0871
  610TMC3    C6 9093   1.232   3.035  12.336  0.2335  0.1915  0.4040
  610TMC3     C 9094   0.992   3.307  12.537  0.2612  0.7067 -0.2941
  610TMC3     O 9095   0.923   3.258  12.625 -0.8993  0.6753 -0.4898
  610TMC3     H 9096   1.110   3.347  12.291  0.4895  0.3117 -0.5615
  610TMC3    H1 9097   1.118   3.102  12.642 -0.9738 -0.6115  0.2573
  610TMC3    H2 9098   1.282   2.952  12.288 -2.4447 -1.4757  0.4901
  610TMC3    C7 9099   1.218   2.890  12.537  0.0374 -0.1119  0.4657
  610TMC3    C8 9100   1.242   3.186  12.145  0.9912 -0.2613  0.3995
  610TMC3    O1 9101   1.273   2.872  12.647 -0.2791 -0.3180  0.8101
  610TMC3    O2 9102   1.244   3.304  12.116  0.1411 -0.4612 -0.2014
  611MPD2     C 9103   0.036   2.668  10.411  0.4490  0.0060 -0.9656
  611MPD2    C1 9104   4.738   2.758  10.317  1.0371  0.1962  0.1111
  611MPD2    C2 9105   0.089   2.849  10.263  0.3798 -0.2189 -0.2611
  611MPD2    C3 9106   0.223   2.836  10.307 -0.2828  0.2507  0.2356
  611MPD2    C4 9107   0.261   2.759  10.410 -0.1549 -0.1489 -0.0967
  611MPD2    C5 9108   0.165   2.675  10.457  0.1034 -0.7872 -1.2160
  611MPD2     H 9109   0.040   2.905  10.184  0.1866 -1.2816 -0.9058
  611MPD2    H1 9110   0.363   2.752  10.446  0.8756  0.2116 -2.8976
  611MPD2    H2 9111   4.708   2.595  10.454 -1.2261  0.7907 -2.3050
  611MPD2    H3 9112   0.195   2.602  10.531  0.9288  0.3597 -0.4160
  611MPD2     N 9113   0.319   2.911  10.236  0.1085  0.5129 -0.6618
  611MPD2    H5 9114   0.409   2.911  10.283  0.0645  0.1164 -0.5809
  611MPD2    N1 9115   4.600   2.759  10.282  0.5784 -0.1060  0.2221
  611MPD2    H7 9116   4.540   2.693  10.331 -0.3976  1.6559  1.4083
  612TMC3    C1 9117   0.423   3.059  10.071 -0.4563 -0.2985  0.1777
  612TMC3    C2 9118   0.503   3.132  10.158 -0.5337  0.1691  0.7900
  612TMC3    C3 9119   0.588   3.225  10.099 -0.3765 -0.5933 -0.2045
  612TMC3    C4 9120   0.420   3.083   9.933 -0.0672 -0.5355  0.0439
  612TMC3    C5 9121   0.504   3.172   9.884 -0.5836  0.5123  0.1925
  612TMC3    C6 9122   0.594   3.244   9.965  0.0454 -0.0983 -0.2034
  612TMC3     C 9123   0.301   2.985  10.120  0.0975  0.4769 -0.4366
  612TMC3     O 9124   0.208   2.987  10.041  0.0770  0.4421 -0.6249
  612TMC3     H 9125   0.504   3.123  10.266 -1.5238 -0.6631  0.7333
  612TMC3    H1 9126   0.348   3.037   9.867 -0.3426  0.8654 -0.6394
  612TMC3    H2 9127   0.670   3.308   9.921  1.3163  0.4368  2.8293
  612TMC3    C7 9128   0.510   3.184   9.738  0.8217  0.3968  0.6139
  612TMC3    C8 9129   0.700   3.286  10.183 -0.1053 -0.3804  0.3095
  612TMC3    O1 9130   0.481   3.081   9.678 -0.5000 -0.0191 -0.5582
  612TMC3    O2 9131   0.759   3.387  10.144  0.2409 -0.9071  0.0420
  613MPD2     C 9132   4.081   0.319  17.174 -0.1101 -0.5310  0.1044
  613MPD2    C1 9133   4.102   0.404  17.068  0.8057 -0.4016  0.0074
  613MPD2    C2 9134   4.027   0.387  16.953 -0.6232 -0.1961 -0.4172
  613MPD2    C3 9135   3.970   0.268  16.920  0.1147 -0.5704  0.5794
  613MPD2    C4 9136   3.961   0.180  17.030  0.1957  0.3014  0.7056
  613MPD2    C5 9137   4.003   0.211  17.159 -0.2143 -0.5922  0.0756
  613MPD2     H 9138   4.030   0.464  16.877 -1.1571  0.0922 -0.1501
  613MPD2    H1 9139   3.908   0.086  17.017  1.0114  0.2747 -2.4750
  613MPD2    H2 9140   4.135   0.328  17.267 -0.5474 -0.7182  0.3728
  613MPD2    H3 9141   3.998   0.142  17.242 -1.3019  1.0004  1.3349
  613MPD2     N 9142   3.912   0.232  16.797  0.5305  0.3676 -1.1393
  613MPD2    H5 9143   3.869   0.140  16.797 -0.5397  0.8650 -0.3477
  613MPD2    N1 9144   4.191   0.514  17.092  0.4792  0.5312  0.5809
  613MPD2    H7 9145   4.199   0.541  17.189  0.8089 -0.1372  0.7403
  614TMC3    C1 9146   4.262   0.570  16.866 -0.7326  0.4013  0.4318
  614TMC3    C2 9147   4.316   0.451  16.822 -0.3128  0.3559  0.0262
  614TMC3    C3 9148   4.323   0.427  16.686  0.3042 -0.1535 -0.2759
  614TMC3    C4 9149   4.226   0.671  16.780  0.2943  0.0749  0.0972
  614TMC3    C5 9150   4.233   0.641  16.648 -0.3519 -0.4491  0.5714
  614TMC3    C6 9151   4.297   0.528  16.599  0.7931 -0.5042 -0.0732
  614TMC3     C 9152   4.255   0.602  17.007 -0.3685 -0.8846 -0.4691
  614TMC3     O 9153   4.300   0.712  17.034 -0.1045 -0.1421  0.3143
  614TMC3     H 9154   4.350   0.387  16.903 -1.8200  0.2674  0.5776
  614TMC3    H1 9155   4.178   0.754  16.829  0.8951 -0.6700  1.9699
  614TMC3    H2 9156   4.308   0.515  16.492 -3.8040  1.8952 -0.8224
  614TMC3    C7 9157   4.170   0.736  16.562  0.1836 -1.0993 -0.3694
  614TMC3    C8 9158   4.297   0.289  16.640  0.0452  0.2147 -0.4622
  614TMC3    O1 9159   4.152   0.848  16.604 -0.5972  0.0745  0.0528
  614TMC3    O2 9160   4.267   0.271  16.522  0.3581 -0.6042 -0.0504
  615MPD2     C 9161   3.974   1.735  15.314  0.4993 -0.7011  0.0202
  615MPD2    C1 9162   3.912   1.822  15.406  0.3382  0.2285  0.2038
  615MPD2    C2 9163   3.785   1.868  15.369  0.1952 -0.1909 -0.7655
  615MPD2    C3 9164   3.733   1.839  15.240 -0.5283  0.7755  0.4543
  615MPD2    C4 9165   3.807   1.764  15.152 -0.1580  0.5942  0.0307
  615MPD2    C5 9166   3.928   1.708  15.187  1.2253 -0.1297  0.2629
  615MPD2     H 9167   3.731   1.928  15.441 -0.0747 -1.6875  0.2859
  615MPD2    H1 9168   3.759   1.737  15.059 -0.5647  3.3302 -0.5295
  615MPD2    H2 9169   4.063   1.682  15.347 -0.2936 -1.6539  0.6253
  615MPD2    H3 9170   3.981   1.634  15.129 -1.1589 -0.6377 -1.2339
  615MPD2     N 9171   3.610   1.892  15.195 -0.6318 -0.4715 -0.0284
  615MPD2    H5 9172   3.582   1.897  15.097  0.3296  1.3359 -0.2051
  615MPD2    N1 9173   3.973   1.867  15.533  0.6051  0.0921  0.3271
  615MPD2    H7 9174   3.929   1.941  15.587  0.3095  0.0133  0.1981
  616TMC3    C1 9175   4.166   1.900  15.677  0.5332  0.0404 -0.2730
  616TMC3    C2 9176   4.269   1.838  15.749 -0.2841 -0.2182 -0.3537
  616TMC3    C3 9177   4.344   1.903  15.850 -0.0655  0.6399 -1.3107
  616TMC3    C4 9178   4.135   2.034  15.712 -0.2014  0.4716  0.1346
  616TMC3    C5 9179   4.217   2.090  15.810 -0.2159  0.1177 -0.5091
  616TMC3    C6 9180   4.325   2.033  15.882 -0.1893 -0.2547  0.8234
  616TMC3     C 9181   4.096   1.821  15.571  0.2129 -0.8438 -0.0119
  616TMC3     O 9182   4.150   1.712  15.549  0.0321 -0.5863  0.5931
  616TMC3     H 9183   4.292   1.739  15.710 -0.2190 -0.1119 -0.5895
  616TMC3    H1 9184   4.067   2.090  15.649  0.6207 -0.3125 -1.4282
  616TMC3    H2 9185   4.370   2.080  15.969  1.4205 -1.3438  0.5913
  616TMC3    C7 9186   4.203   2.228  15.840 -0.0184 -0.0092  0.6825
  616TMC3    C8 9187   4.425   1.814  15.928  0.1627  0.8949  0.2153
  616TMC3    O1 9188   4.301   2.297  15.864  0.8337 -0.2926  0.1667
  616TMC3    O2 9189   4.400   1.694  15.931  0.3579 -0.1684 -0.2091
  617MPD2     C 9190   1.904   0.288  13.899  0.1842 -0.3457 -0.2687
  617MPD2    C1 9191   1.911   0.216  13.787  0.4299  0.1590 -0.5272
  617MPD2    C2 9192   1.797   0.155  13.734  1.3929 -0.0372 -0.8495
  617MPD2    C3 9193   1.673   0.185  13.794 -0.1433  0.4727  0.2732
  617MPD2    C4 9194   1.660   0.284  13.888 -0.1541 -0.5048  0.3681
  617MPD2    C5 9195   1.778   0.325  13.945  0.1537 -0.2852 -0.3606
  617MPD2     H 9196   1.806   0.089  13.648 -0.3615  1.2354 -2.0183
  617MPD2    H1 9197   1.563   0.306  13.931  0.7339  0.1281  2.0395
  617MPD2    H2 9198   1.978   0.321  13.972 -0.1600 -0.5748  0.1890
  617MPD2    H3 9199   1.773   0.379  14.039 -1.3682  1.3316 -1.3674
  617MPD2     N 9200   1.548   0.133  13.752 -0.4458 -0.2902  0.5502
  617MPD2    H5 9201   1.476   0.160  13.818 -0.7784  0.5399 -0.1521
  617MPD2    N1 9202   2.038   0.176  13.738 -0.1565  0.0858  0.4210
  617MPD2    H7 9203   2.039   0.094  13.677  0.1637 -1.2678  2.2668
  618TMC3    C1 9204   2.266   0.157  13.704  0.3386 -0.4652 -0.0801
  618TMC3    C2 9205   2.387   0.168  13.771  0.2542  0.3760  0.3217
  618TMC3    C3 9206   2.488   0.085  13.744 -0.3024  0.0972  0.5834
  618TMC3    C4 9207   2.237   0.048  13.624  0.0203 -0.6969 -0.3977
  618TMC3    C5 9208   2.350   4.722  13.585  0.4586 -0.1422  1.0073
  618TMC3    C6 9209   2.471   4.727  13.650 -0.3340  0.5181  1.1289
  618TMC3     C 9210   2.161   0.227  13.763  0.8775  0.5486 -0.4466
  618TMC3     O 9211   2.187   0.323  13.836 -0.3112  0.7199 -0.3112
  618TMC3     H 9212   2.398   0.246  13.846 -0.0424 -1.4340  2.2596
  618TMC3    H1 9213   2.153   0.054  13.556  0.9000 -2.6391 -1.6697
  618TMC3    H2 9214   2.555   4.665  13.620 -1.2825 -0.3126  0.1573
  618TMC3    C7 9215   2.333   4.630  13.473  0.5527 -1.1683 -0.2066
  618TMC3    C8 9216   2.608   0.091  13.837  0.2732 -0.1995  0.2599
  618TMC3    O1 9217   2.219   4.591  13.465 -0.4894 -0.5190 -0.4794
  618TMC3    O2 9218   2.615   0.193  13.903  0.4187 -0.1342  0.8344
  619MPD2     C 9219   3.305   1.069  13.470 -0.2689 -0.4931  0.3922
  619MPD2    C1 9220   3.258   1.120  13.351  0.3652 -0.4669  0.6206
  619MPD2    C2 9221   3.127   1.097  13.315  0.0715 -0.1338  0.1691
  619MPD2    C3 9222   3.035   1.012  13.382  0.3636  0.1216  0.3882
  619MPD2    C4 9223   3.092   0.952  13.496  0.1112  0.1160 -0.2054
  619MPD2    C5 9224   3.218   0.994  13.552 -0.2514 -0.2016 -0.5878
  619MPD2     H 9225   3.094   1.146  13.224  0.4540  0.3321  0.2785
  619MPD2    H1 9226   3.024   0.890  13.552  0.2470  2.4975  2.5901
  619MPD2    H2 9227   3.406   1.084  13.506  0.5359 -3.1525 -0.7173
  619MPD2    H3 9228   3.264   0.966  13.646  0.4561 -0.0885 -0.8971
  619MPD2     N 9229   2.904   0.988  13.337 -0.5430 -0.5382 -0.9879
  619MPD2    H5 9230   2.840   0.946  13.403  0.2786  0.9129  0.7447
  619MPD2    N1 9231   3.339   1.205  13.272 -0.2619  0.3546 -0.0209
  619MPD2    H7 9232   3.287   1.248  13.196  0.3295  4.2142  1.7596
  620TMC3    C1 9233   3.462   1.397  13.241  0.1486 -0.1818 -0.4737
  620TMC3    C2 9234   3.390   1.413  13.121  0.7796  0.5453 -0.0603
  620TMC3    C3 9235   3.310   1.525  13.116  0.1253 -0.9935  0.4198
  620TMC3    C4 9236   3.462   1.496  13.336  0.3071  0.4270  0.7521
  620TMC3    C5 9237   3.396   1.612  13.317 -0.8404 -0.8162 -0.0810
  620TMC3    C6 9238   3.314   1.619  13.209 -0.5166  0.3749 -0.4105
  620TMC3     C 9239   3.455   1.269  13.309  0.3974 -0.4702 -0.8529
  620TMC3     O 9240   3.520   1.260  13.414  0.2997  0.4986 -0.0636
  620TMC3     H 9241   3.384   1.335  13.045 -1.2891  0.9117 -0.2753
  620TMC3    H1 9242   3.501   1.475  13.435 -0.0274 -2.8133  0.1914
  620TMC3    H2 9243   3.241   1.699  13.203  0.9396  1.4757 -3.2259
  620TMC3    C7 9244   3.327   1.655  13.436  0.0227  0.8224  0.2081
  620TMC3    C8 9245   3.178   1.498  13.087  0.2904  0.3510 -0.1790
  620TMC3    O1 9246   3.209   1.623  13.438 -0.3213 -0.7338  0.2407
  620TMC3    O2 9247   3.143   1.459  12.977 -0.9092 -0.2142  0.8325
  621MPD2     C 9248   3.122   1.785   9.307 -0.2054  0.2841  0.1712
  621MPD2    C1 9249   3.188   1.735   9.418 -0.1605 -0.1966 -0.1034
  621MPD2    C2 9250   3.232   1.827   9.509  0.2267 -0.5810  0.2520
  621MPD2    C3 9251   3.213   1.961   9.494  0.3090  0.2594  0.7586
  621MPD2    C4 9252   3.139   2.011   9.385  0.4646  0.2285  0.0455
  621MPD2    C5 9253   3.090   1.919   9.286  0.7856  0.2909 -0.3844
  621MPD2     H 9254   3.290   1.791   9.593  2.0124  1.2019 -0.2271
  621MPD2    H1 9255   3.130   2.114   9.353  3.1027 -0.1059 -1.8210
  621MPD2    H2 9256   3.097   1.714   9.229  0.9705  0.0201  0.0341
  621MPD2    H3 9257   3.041   1.950   9.194 -1.8693 -0.1439  0.8977
  621MPD2     N 9258   3.278   2.044   9.587 -0.1026 -0.4557 -0.2117
  621MPD2    H5 9259   3.327   2.006   9.668  0.9167  0.9057 -0.1906
  621MPD2    N1 9260   3.203   1.593   9.446 -0.4122 -0.1137  0.0488
  621MPD2    H7 9261   3.253   1.570   9.532 -0.2916 -0.6455 -0.1623
  622TMC3    C1 9262   3.132   1.357   9.445  0.5296  0.3365  0.3355
  622TMC3    C2 9263   3.212   1.321   9.552  0.5130  0.0744 -0.1516
  622TMC3    C3 9264   3.184   1.206   9.620 -0.4058  0.1347  0.2402
  622TMC3    C4 9265   3.053   1.265   9.383 -0.3683  0.0290  0.0969
  622TMC3    C5 9266   3.048   1.139   9.438  0.0192 -0.4091  0.3265
  622TMC3    C6 9267   3.102   1.118   9.556 -0.6232  0.6955  0.0398
  622TMC3     C 9268   3.132   1.490   9.381  1.2002  0.2915  0.5461
  622TMC3     O 9269   3.063   1.495   9.283  0.5043 -0.5439  0.4741
  622TMC3     H 9270   3.281   1.395   9.591 -0.2191  1.5085 -1.5448
  622TMC3    H1 9271   3.006   1.279   9.286  0.6205  0.5924 -0.3009
  622TMC3    H2 9272   3.088   1.025   9.610 -0.0646  1.3626  1.3408
  622TMC3    C7 9273   2.978   1.033   9.359  0.3477  0.1591  0.1089
  622TMC3    C8 9274   3.267   1.163   9.726 -0.0186  0.2394  0.0992
  622TMC3    O1 9275   3.028   0.922   9.369  0.1392  0.4735 -0.4671
  622TMC3    O2 9276   3.295   1.045   9.715 -0.4485 -0.6803  0.3836
  623MPD2     C 9277   2.359   2.019  15.444  0.0847  0.3471 -0.0659
  623MPD2    C1 9278   2.265   2.039  15.537 -0.2807  0.2196 -0.0446
  623MPD2    C2 9279   2.308   2.073  15.665  0.7163 -0.8088  0.2668
  623MPD2    C3 9280   2.438   2.088  15.698  0.0775  0.3281 -0.3100
  623MPD2    C4 9281   2.532   2.067  15.603  0.6135  0.0671  0.5652
  623MPD2    C5 9282   2.490   2.032  15.478 -0.2994  0.6857 -0.3261
  623MPD2     H 9283   2.233   2.086  15.742  1.5581 -0.8807  1.1114
  623MPD2    H1 9284   2.639   2.068  15.620  0.7648  2.5901 -0.5558
  623MPD2    H2 9285   2.342   2.008  15.337 -1.7014 -1.2547  0.3745
  623MPD2    H3 9286   2.564   2.029  15.399 -0.1465 -1.5380 -0.1050
  623MPD2     N 9287   2.475   2.111  15.832  0.0364 -0.2227 -0.1473
  623MPD2    H5 9288   2.407   2.112  15.907 -0.4517 -1.3633 -0.5883
  623MPD2    N1 9289   2.123   2.046  15.514 -0.4318 -0.0541 -0.1145
  623MPD2    H7 9290   2.068   2.051  15.599 -1.8659 -0.1828 -1.0442
  624TMC3    C1 9291   2.707   2.126  16.213 -1.1241  0.5738 -0.6636
  624TMC3    C2 9292   2.594   2.131  16.274  0.5341 -0.4980  0.4536
  624TMC3    C3 9293   2.479   2.148  16.206 -0.0031  0.0447  0.8385
  624TMC3    C4 9294   2.715   2.160  16.080  0.1275 -0.7271  0.2757
  624TMC3    C5 9295   2.599   2.184  16.013  0.6368  0.1086 -0.0774
  624TMC3    C6 9296   2.477   2.182  16.072 -0.3563 -0.6853  0.0656
  624TMC3     C 9297   2.816   2.060  16.278 -0.5661 -0.0546 -0.1369
  624TMC3     O 9298   2.796   1.989  16.374 -0.5711 -0.6044 -0.7104
  624TMC3     H 9299   2.602   2.103  16.379 -1.1825  1.3332  1.0921
  624TMC3    H1 9300   2.803   2.134  16.022  1.0150 -1.1683  1.8067
  624TMC3    H2 9301   2.384   2.209  16.023  0.1770 -0.4342 -0.8007
  624TMC3    C7 9302   2.600   2.159  15.872 -0.0038  0.4326 -0.3877
  624TMC3    C8 9303   2.350   2.138  16.271 -0.2349 -0.0136 -0.0558
  624TMC3    O1 9304   2.703   2.179  15.806  0.2933 -0.2929  0.1851
  624TMC3    O2 9305   2.247   2.140  16.207 -0.2513 -0.1353 -0.5436
  625MPD2     C 9306   3.315   2.806   0.307  0.4377  0.1301  0.6617
  625MPD2    C1 9307   3.298   2.933   0.355  0.0847 -0.4455  0.5999
  625MPD2    C2 9308   3.411   3.013   0.391 -0.0582  0.2487 -0.0459
  625MPD2    C3 9309   3.535   2.959   0.376  0.1060  0.5232 -0.8842
  625MPD2    C4 9310   3.550   2.824   0.335  0.3907  0.3174 -0.6686
  625MPD2    C5 9311   3.440   2.751   0.304 -0.1516 -0.0215  0.1914
  625MPD2     H 9312   3.398   3.108   0.442  1.1911 -1.2194  3.0365
  625MPD2    H1 9313   3.644   2.769   0.326 -0.7920 -1.8097 -0.0411
  625MPD2    H2 9314   3.232   2.746   0.272 -0.2236  1.6305 -0.3180
  625MPD2    H3 9315   3.448   2.653   0.258 -2.7220  0.9254 -2.2913
  625MPD2     N 9316   3.650   3.035   0.403 -0.6128  0.0081 -0.7783
  625MPD2    H5 9317   3.637   3.134   0.422  0.2269  0.1689 -1.0670
  625MPD2    N1 9318   3.175   3.003   0.354  0.2727 -0.1782 -0.6656
  625MPD2    H7 9319   3.180   3.102   0.374 -0.3889  0.1863 -2.3371
  626TMC3    C1 9320   2.939   3.046   0.315  0.1434  0.0277 -0.3374
  626TMC3    C2 9321   2.858   3.044   0.214 -0.1498 -0.1704  0.0709
  626TMC3    C3 9322   2.751   3.131   0.227  0.5863 -0.1487  0.1168
  626TMC3    C4 9323   2.926   3.119   0.432  0.7897  0.4899 -0.2987
  626TMC3    C5 9324   2.813   3.195   0.446  0.5891  0.1939  0.1138
  626TMC3    C6 9325   2.735   3.216   0.335 -0.1161  0.3716  0.5106
  626TMC3     C 9326   3.049   2.951   0.310  0.2075 -0.2610  0.4781
  626TMC3     O 9327   3.020   2.843   0.257  0.0657 -0.1363 -0.3193
  626TMC3     H 9328   2.878   2.988   0.123  0.3524 -0.4522  0.3557
  626TMC3    H1 9329   3.001   3.110   0.510 -0.5979 -0.1405  0.9814
  626TMC3    H2 9330   2.652   3.286   0.339  0.1059  0.6190  0.8606
  626TMC3    C7 9331   2.777   3.224   0.578 -0.1789 -0.3391 -0.1096
  626TMC3    C8 9332   2.656   3.146   0.120 -0.1542 -0.1465 -0.0338
  626TMC3    O1 9333   2.871   3.216   0.657  0.0904 -0.0700 -0.4156
  626TMC3    O2 9334   2.619   3.261   0.099  0.0611 -0.4852 -0.3539
  627MPD2     C 9335   0.781   3.581  14.089 -0.0227  0.5962 -0.2627
  627MPD2    C1 9336   0.844   3.552  14.206 -0.6560 -0.4201 -0.2752
  627MPD2    C2 9337   0.818   3.425  14.271  0.4113  0.5469  0.1651
  627MPD2    C3 9338   0.736   3.330  14.214 -0.4383  0.1099  0.2163
  627MPD2    C4 9339   0.660   3.362  14.098  0.0282  0.1560  0.1231
  627MPD2    C5 9340   0.693   3.487  14.035 -0.2042 -0.1420  0.5673
  627MPD2     H 9341   0.868   3.398  14.363  1.7324 -1.8983 -1.2676
  627MPD2    H1 9342   0.585   3.295  14.056 -0.4256 -0.0880  1.3489
  627MPD2    H2 9343   0.800   3.677  14.043  1.9909 -0.1436 -0.9929
  627MPD2    H3 9344   0.627   3.522  13.956 -0.1781  2.1170  1.5395
  627MPD2     N 9345   0.716   3.217  14.288  0.2259  0.0347  0.1779
  627MPD2    H5 9346   0.771   3.198  14.371 -0.1449  2.0018  0.8594
  627MPD2    N1 9347   0.939   3.639  14.266 -0.2871  0.4167 -0.2968
  627MPD2    H7 9348   0.961   3.624  14.364  0.2960  2.0373 -0.1754
  628TMC3    C1 9349   1.081   3.819  14.315 -0.0331  0.2010  0.4027
  628TMC3    C2 9350   1.174   3.725  14.371 -0.4028 -0.7524  0.4892
  628TMC3    C3 9351   1.282   3.786  14.435  0.0971 -0.3422  0.0606
  628TMC3    C4 9352   1.110   3.948  14.318 -0.3101 -0.0760 -0.4726
  628TMC3    C5 9353   1.218   3.992  14.392  0.2218  0.6453 -0.0294
  628TMC3    C6 9354   1.301   3.916  14.466 -0.4373 -0.0633 -0.1888
  628TMC3     C 9355   0.977   3.765  14.223 -0.0463 -0.0699 -0.3465
  628TMC3     O 9356   0.948   3.834  14.124 -0.3268  0.3270  0.1430
  628TMC3     H 9357   1.165   3.619  14.349  2.5666 -1.0714  0.7584
  628TMC3    H1 9358   1.053   4.017  14.257  1.8412  0.8009 -1.4912
  628TMC3    H2 9359   1.398   3.948  14.502  0.1876 -1.8655 -0.2692
  628TMC3    C7 9360   1.264   4.121  14.365 -0.0870  0.0338  0.5105
  628TMC3    C8 9361   1.398   3.697  14.449  0.3737  1.0998  0.2311
  628TMC3    O1 9362   1.323   4.163  14.462 -0.1329  0.0428  0.8584
  628TMC3    O2 9363   1.406   3.609  14.364 -0.0517 -0.3035  0.3541
  629MPD2     C 9364   4.727   1.733  16.328 -0.0175  1.3693  0.2733
  629MPD2    C1 9365   0.024   1.857  16.280  0.4051 -0.7235 -0.3356
  629MPD2    C2 9366   4.683   1.908  16.181  0.2582  0.0774  0.1736
  629MPD2    C3 9367   4.579   1.838  16.124 -0.2500 -0.8689  0.1024
  629MPD2    C4 9368   4.548   1.715  16.172 -0.2132  0.1975  0.1905
  629MPD2    C5 9369   4.624   1.669  16.276  0.0434  0.3358 -0.9936
  629MPD2     H 9370   4.700   2.005  16.135  1.2006 -0.4886 -0.6539
  629MPD2    H1 9371   4.464   1.655  16.140  0.8613 -1.2630  0.1361
  629MPD2    H2 9372   0.044   1.671  16.398 -1.6176 -0.2399  0.1393
  629MPD2    H3 9373   4.593   1.571  16.310  0.9220 -0.4930 -2.5591
  629MPD2     N 9374   4.513   1.888  16.008  0.0552  0.0621 -0.0954
  629MPD2    H5 9375   4.524   1.985  15.978 -0.2820 -0.0330 -0.5351
  629MPD2    N1 9376   0.137   1.922  16.333  0.6247 -0.4256 -0.1819
  629MPD2    H7 9377   0.184   1.873  16.409 -0.3638  1.6218  1.7467
  630TMC3    C1 9378   0.299   2.085  16.372  0.1243  0.5548 -0.5594
  630TMC3    C2 9379   0.372   2.189  16.319 -0.7723  0.2675 -0.3133
  630TMC3    C3 9380   0.413   2.280  16.410 -0.3828  0.6829 -0.3289
  630TMC3    C4 9381   0.296   2.058  16.507 -1.3854 -0.2603 -0.0421
  630TMC3    C5 9382   0.329   2.162  16.593  0.0237  0.3097 -0.4970
  630TMC3    C6 9383   0.393   2.270  16.544 -0.0137 -0.1207  0.7997
  630TMC3     C 9384   0.194   2.040  16.290 -0.6848  0.4551  0.2270
  630TMC3     O 9385   0.156   2.115  16.202 -0.0437  0.1604  0.2392
  630TMC3     H 9386   0.368   2.205  16.212  0.7193  1.0684 -0.2561
  630TMC3    H1 9387   0.217   1.990  16.539 -1.0079  0.1650  1.7607
  630TMC3    H2 9388   0.407   2.355  16.610 -1.6221  1.6358 -1.1338
  630TMC3    C7 9389   0.268   2.165  16.725 -0.1091 -0.2481  0.4899
  630TMC3    C8 9390   0.452   2.412  16.372  0.6601 -0.8510 -0.0259
  630TMC3    O1 9391   0.275   2.267  16.794  0.5845  0.2673  0.1341
  630TMC3    O2 9392   0.513   2.483  16.452  0.5457 -0.4314  0.6344
  631MPD2     C 9393   2.765   2.554  15.412 -0.9995 -0.3389  0.0330
  631MPD2    C1 9394   2.876   2.615  15.362  0.8326  0.2439  0.2373
  631MPD2    C2 9395   2.985   2.542  15.318 -0.1146  0.4279 -0.0009
  631MPD2    C3 9396   2.988   2.402  15.327 -0.0053  0.1359 -0.1356
  631MPD2    C4 9397   2.874   2.345  15.380 -0.7142  0.1103 -0.0122
  631MPD2    C5 9398   2.764   2.418  15.418  0.5051  0.2167  0.2100
  631MPD2     H 9399   3.070   2.592  15.272 -1.3149  0.2520 -2.3871
  631MPD2    H1 9400   2.866   2.239  15.400 -3.9366  0.4432  0.4048
  631MPD2    H2 9401   2.676   2.612  15.434 -0.3204  0.2844  1.1232
  631MPD2    H3 9402   2.675   2.371  15.458 -0.1386  0.7956 -0.5405
  631MPD2     N 9403   3.096   2.332  15.279  0.0173  0.1148 -0.1715
  631MPD2    H5 9404   3.164   2.379  15.220  1.0315 -0.2705  0.6899
  631MPD2    N1 9405   2.864   2.757  15.370  0.1939 -0.0157 -0.8343
  631MPD2    H7 9406   2.782   2.800  15.412  0.6811 -1.0770  1.1982
  632TMC3    C1 9407   2.935   2.976  15.315  0.0374  0.0671 -0.9352
  632TMC3    C2 9408   2.801   3.002  15.333 -0.1992  0.3376  0.0895
  632TMC3    C3 9409   2.734   3.079  15.236 -0.1145 -0.3631  0.4260
  632TMC3    C4 9410   2.996   3.022  15.199  0.3317 -0.6476 -0.4796
  632TMC3    C5 9411   2.926   3.088  15.099 -0.1324  0.2090 -1.3058
  632TMC3    C6 9412   2.796   3.117  15.123  0.2107  0.6507 -0.6953
  632TMC3     C 9413   2.971   2.839  15.330 -0.9128 -0.3698 -0.2409
  632TMC3     O 9414   3.081   2.820  15.285 -0.3227 -0.0113 -0.0997
  632TMC3     H 9415   2.759   2.976  15.429 -1.7601 -1.0913 -0.9824
  632TMC3    H1 9416   3.103   3.012  15.186  0.8713  1.3271  2.5457
  632TMC3    H2 9417   2.747   3.176  15.045  0.5256 -0.5885 -1.8324
  632TMC3    C7 9418   2.937   3.013  14.977  0.0672  0.1228  0.0124
  632TMC3    C8 9419   2.594   3.035  15.229 -0.0075 -0.6070 -0.2246
  632TMC3    O1 9420   2.857   3.043  14.893  0.4168  0.2161 -0.0247
  632TMC3    O2 9421   2.579   2.939  15.306  0.4773  0.3896  0.0084
  633MPD2     C 9422   2.231   0.529  17.087  0.2350  0.3483 -0.6806
  633MPD2    C1 9423   2.170   0.431  17.014 -0.1798  0.1657  0.6056
  633MPD2    C2 9424   2.174   0.302  17.060 -0.4457 -0.2414 -0.9756
  633MPD2    C3 9425   2.256   0.272  17.170 -0.2921  0.0807 -0.3269
  633MPD2    C4 9426   2.312   0.367  17.249 -0.3220  0.1360  0.5479
  633MPD2    C5 9427   2.312   0.494  17.196 -0.1959 -0.7379 -0.1664
  633MPD2     H 9428   2.121   0.229  16.999  0.0687 -0.9323 -0.5963
  633MPD2    H1 9429   2.375   0.347  17.335 -1.9459  0.2796  1.7709
  633MPD2    H2 9430   2.212   0.635  17.069  0.1711  0.4071 -0.2764
  633MPD2    H3 9431   2.354   0.577  17.252 -0.9665 -0.6524  0.2935
  633MPD2     N 9432   2.283   0.139  17.211  0.3140  0.4539  0.1370
  633MPD2    H5 9433   2.349   0.126  17.287  0.5782 -2.3492 -0.5555
  633MPD2    N1 9434   2.093   0.452  16.902  0.0481 -0.1286 -0.3438
  633MPD2    H7 9435   2.065   0.367  16.855 -1.9248  1.1943 -1.5783
  634TMC3    C1 9436   2.043   0.564  16.696 -0.6508  0.0010  0.0363
  634TMC3    C2 9437   2.098   0.459  16.625 -0.2551 -0.4624  0.7852
  634TMC3    C3 9438   2.147   0.482  16.502  0.2476  0.0883 -0.3143
  634TMC3    C4 9439   2.034   0.690  16.649  0.8031 -0.1413  0.3194
  634TMC3    C5 9440   2.094   0.708  16.531  0.1058 -0.0418 -0.7331
  634TMC3    C6 9441   2.147   0.613  16.456 -0.1068 -0.5591 -0.0040
  634TMC3     C 9442   2.072   0.575  16.834  0.5455  0.3991 -0.0203
  634TMC3     O 9443   2.063   0.682  16.892 -0.3145  0.6180  0.1488
  634TMC3     H 9444   2.114   0.363  16.673  0.3187 -0.0055  1.5116
  634TMC3    H1 9445   1.985   0.771  16.702 -0.3290 -0.8983  0.4148
  634TMC3    H2 9446   2.187   0.637  16.359 -1.2511 -1.4199 -0.6868
  634TMC3    C7 9447   2.113   0.839  16.472 -0.2192 -0.0897 -0.4327
  634TMC3    C8 9448   2.221   0.379  16.439  0.7106  0.7650 -0.4166
  634TMC3    O1 9449   2.145   0.848  16.354  0.2820  0.2017 -0.2131
  634TMC3    O2 9450   2.242   0.274  16.500  0.3410  0.2496 -0.9035
  635TMC3    C1 9451   2.701   1.264   0.567  0.0848  0.3574  0.5437
  635TMC3    C2 9452   2.738   1.225   0.692 -0.5706 -0.6561  0.1137
  635TMC3    C3 9453   2.823   1.115   0.703 -0.5922  0.1671  0.4693
  635TMC3    C4 9454   2.744   1.199   0.453  0.0954 -0.6881  0.8252
  635TMC3    C5 9455   2.828   1.089   0.471  0.0142  0.4169 -0.0109
  635TMC3    C6 9456   2.865   1.041   0.596 -0.3705 -0.8667  0.2657
  635TMC3     C 9457   2.651   1.397   0.550 -0.5090  0.1888  0.1560
  635TMC3     O 9458   2.680   1.480   0.629 -0.5935 -0.5445  0.3113
  635TMC3     H 9459   2.710   1.286   0.777 -0.9884 -1.5144  0.5991
  635TMC3    H1 9460   2.736   1.242   0.354 -0.7514 -0.7210  0.8829
  635TMC3    H2 9461   2.918   0.951   0.626  0.2975 -0.4302  0.3860
  635TMC3    C7 9462   2.847   1.007   0.364  0.3848  0.0940  0.9518
  635TMC3    C8 9463   2.850   1.069   0.836  0.1729  0.1734  0.0030
  635TMC3    O1 9464   2.774   1.023   0.267 -0.1605  0.5109 -0.1340
  635TMC3    O2 9465   2.865   0.949   0.857  0.3661 -0.2659  0.2532
  636MPD2     C 9466   3.586   0.712  15.964 -0.1961  0.0517  0.6667
  636MPD2    C1 9467   3.593   0.739  16.097  0.3487 -0.3631 -0.3167
  636MPD2    C2 9468   3.654   0.646  16.185 -0.1458 -0.7275 -0.5012
  636MPD2    C3 9469   3.711   0.525  16.140 -0.1139 -0.7917 -0.0752
  636MPD2    C4 9470   3.705   0.508  16.009  0.4601 -0.0423  0.1811
  636MPD2    C5 9471   3.634   0.587  15.930 -0.3607  0.5332  0.3650
  636MPD2     H 9472   3.675   0.676  16.287 -1.1798 -0.0028 -0.5111
  636MPD2    H1 9473   3.741   0.417  15.962  1.4296  0.2041  0.4449
  636MPD2    H2 9474   3.530   0.776  15.897 -0.0047  0.6990  1.1315
  636MPD2    H3 9475   3.634   0.558  15.825 -0.8109  0.3844  0.4021
  636MPD2     N 9476   3.777   0.446  16.234  0.4203 -0.2322 -0.3189
  636MPD2    H5 9477   3.788   0.480  16.328  2.2840 -1.5269 -0.0793
  636MPD2    N1 9478   3.532   0.850  16.161 -0.1696 -0.1269 -0.4146
  636MPD2    H7 9479   3.533   0.851  16.263  1.1691 -0.2975 -0.4283
  637TMC3    C1 9480   3.865   0.250  16.341 -1.1118 -0.0946 -0.2419
  637TMC3    C2 9481   3.831   0.311  16.460 -0.4736  0.0324 -0.7220
  637TMC3    C3 9482   3.851   0.237  16.579  0.0274  0.3476 -0.6025
  637TMC3    C4 9483   3.918   0.129  16.336 -0.0526 -0.9551 -0.0330
  637TMC3    C5 9484   3.926   0.054  16.452  0.2126 -0.5462  0.2157
  637TMC3    C6 9485   3.882   0.096  16.580  0.2911  0.1675  0.0388
  637TMC3     C 9486   3.833   0.321  16.216 -0.2571 -0.0290 -0.3391
  637TMC3     O 9487   3.829   0.255  16.111  0.4296  0.1577  0.2767
  637TMC3     H 9488   3.778   0.406  16.468 -1.8755 -0.7912 -0.1827
  637TMC3    H1 9489   3.947   0.090  16.239 -0.6040  1.1801 -1.0650
  637TMC3    H2 9490   3.890   0.027  16.663  0.9438 -1.4341 -1.3506
  637TMC3    C7 9491   3.972   4.659  16.426 -0.5756  0.8063 -0.5270
  637TMC3    C8 9492   3.897   0.314  16.688  0.3412 -0.0707 -0.3543
  637TMC3    O1 9493   3.945   4.611  16.318  0.4072 -0.0734 -0.4961
  637TMC3    O2 9494   3.943   0.426  16.666 -0.9319  0.8488  0.0035
  638MPD2     C 9495   3.614   4.205  14.586 -0.0307  0.2944  0.1924
  638MPD2    C1 9496   3.695   4.095  14.613  0.9359 -1.3986  0.4119
  638MPD2    C2 9497   3.686   4.042  14.736  0.1359 -0.1353  0.5000
  638MPD2    C3 9498   3.600   4.091  14.830 -0.8676 -0.9016  0.3804
  638MPD2    C4 9499   3.528   4.204  14.812  0.0885  0.2514  0.0631
  638MPD2    C5 9500   3.537   4.262  14.689 -0.4368  0.2783  0.0194
  638MPD2     H 9501   3.760   3.966  14.758 -1.9306 -1.8740  1.3644
  638MPD2    H1 9502   3.455   4.237  14.884 -1.8024 -1.7639 -0.9459
  638MPD2    H2 9503   3.617   4.267  14.497  1.7151  0.9699  0.7070
  638MPD2    H3 9504   3.488   4.358  14.674 -0.1973  0.3886 -0.0597
  638MPD2     N 9505   3.584   4.007  14.948  0.1136 -0.0342  0.4199
  638MPD2    H5 9506   3.625   3.915  14.935  1.5329  0.9186 -1.7260
  638MPD2    N1 9507   3.770   4.023  14.519 -0.2252  0.2752  0.8009
  638MPD2    H7 9508   3.808   3.935  14.552 -1.5569 -0.6764 -0.1989
  639TMC3    C1 9509   3.466   3.892  15.114  0.5978 -0.0468 -0.2648
  639TMC3    C2 9510   3.336   3.854  15.152  0.3034 -0.1589  0.4285
  639TMC3    C3 9511   3.304   3.724  15.153 -0.2779 -0.3038 -0.1693
  639TMC3    C4 9512   3.559   3.797  15.088  0.6092  0.1524  0.4331
  639TMC3    C5 9513   3.520   3.663  15.086  1.3839 -0.3917 -0.5468
  639TMC3    C6 9514   3.393   3.620  15.133  0.4351 -0.3421 -0.9893
  639TMC3     C 9515   3.483   4.020  15.043 -1.0593  0.0394 -0.7990
  639TMC3     O 9516   3.386   4.094  15.047 -0.2365 -0.2061 -0.0980
  639TMC3     H 9517   3.260   3.925  15.183 -0.1245 -0.1960 -0.5314
  639TMC3    H1 9518   3.663   3.818  15.069  0.0072  0.9901 -1.8888
  639TMC3    H2 9519   3.366   3.516  15.145  0.3887 -0.0152  1.5977
  639TMC3    C7 9520   3.610   3.551  15.057  0.6360  0.6912 -0.2822
  639TMC3    C8 9521   3.165   3.704  15.117  0.5201  0.8144  0.3341
  639TMC3    O1 9522   3.591   3.452  15.124 -0.3421  0.0354 -0.2061
  639TMC3    O2 9523   3.078   3.787  15.144 -0.3904 -0.4874  0.3877
  640MPD2     C 9524   3.599   3.063  10.143 -0.1982  0.0718 -0.4015
  640MPD2    C1 9525   3.598   3.146  10.036  0.4941 -0.4553  0.1790
  640MPD2    C2 9526   3.585   3.281  10.044 -0.7037  0.2705  0.8552
  640MPD2    C3 9527   3.592   3.336  10.174 -0.4836  0.2377  0.0965
  640MPD2    C4 9528   3.601   3.257  10.284 -0.7565  0.8927 -0.3119
  640MPD2    C5 9529   3.607   3.121  10.267 -0.1904 -0.1408  0.5125
  640MPD2     H 9530   3.581   3.347   9.959 -0.8752 -0.9732 -0.1064
  640MPD2    H1 9531   3.621   3.285  10.387 -0.5917 -2.2391  0.5011
  640MPD2    H2 9532   3.611   2.956  10.131  0.7457  0.0341  0.8924
  640MPD2    H3 9533   3.630   3.065  10.357 -0.3491 -0.5206  0.3156
  640MPD2     N 9534   3.593   3.474  10.187 -0.1471  0.5813  0.2021
  640MPD2    H5 9535   3.587   3.509  10.282  0.8545 -2.3568  1.3558
  640MPD2    N1 9536   3.617   3.074   9.912 -0.1236 -0.0786 -0.0566
  640MPD2    H7 9537   3.636   2.975   9.919 -2.7024 -0.6111 -0.4427
  641TMC3    C1 9538   3.636   3.026   9.686 -0.1958  0.1381  0.0758
  641TMC3    C2 9539   3.692   2.905   9.716 -1.2274  0.0190 -0.2699
  641TMC3    C3 9540   3.712   2.822   9.616  0.3715  0.9233 -0.2743
  641TMC3    C4 9541   3.619   3.059   9.555 -0.2992 -0.2366  0.1012
  641TMC3    C5 9542   3.644   2.969   9.451 -0.3506  0.2575 -0.1263
  641TMC3    C6 9543   3.684   2.840   9.482 -0.1438  0.1497  0.3215
  641TMC3     C 9544   3.619   3.129   9.786 -0.0393 -0.3225 -0.0736
  641TMC3     O 9545   3.624   3.244   9.752 -0.6623 -0.6473 -0.2182
  641TMC3     H 9546   3.716   2.884   9.820  1.7981  0.4593 -0.9063
  641TMC3    H1 9547   3.575   3.156   9.537 -0.6736 -0.1213  1.6012
  641TMC3    H2 9548   3.703   2.766   9.405 -1.4644 -1.0772  1.1876
  641TMC3    C7 9549   3.599   3.008   9.319 -1.0473  0.1760  0.4965
  641TMC3    C8 9550   3.787   2.695   9.640  0.1183  0.2081  0.2777
  641TMC3    O1 9551   3.507   3.085   9.304 -0.6234  0.0545  0.0055
  641TMC3    O2 9552   3.821   2.634   9.540  0.2009  0.9450 -0.0174
  642TMC3    C1 9553   0.482   3.709  12.196 -0.1015  0.4318  0.2168
  642TMC3    C2 9554   0.613   3.696  12.146 -0.4343 -0.5490  0.4923
  642TMC3    C3 9555   0.660   3.570  12.133 -0.2868 -0.1349  0.0002
  642TMC3    C4 9556   0.401   3.600  12.223 -0.8236  0.9846 -1.0752
  642TMC3    C5 9557   0.461   3.482  12.207 -0.7708  0.2266  0.4412
  642TMC3    C6 9558   0.588   3.457  12.165  0.0764  1.0392 -0.2200
  642TMC3     C 9559   0.447   3.846  12.243  0.0259 -0.1657 -0.7141
  642TMC3     O 9560   0.539   3.927  12.242  0.0809 -0.8354 -0.1844
  642TMC3     H 9561   0.677   3.783  12.137  0.8937 -1.8014 -2.1806
  642TMC3    H1 9562   0.295   3.613  12.245 -0.6150  1.0046 -0.0863
  642TMC3    H2 9563   0.629   3.358  12.149 -0.3116  0.1619  4.1273
  642TMC3    C7 9564   0.373   3.370  12.189  0.4795  0.3778 -0.8468
  642TMC3    C8 9565   0.797   3.538  12.081  0.0855 -0.5847  0.0928
  642TMC3    O1 9566   0.262   3.407  12.145 -0.5947  0.4970  0.0902
  642TMC3    O2 9567   0.833   3.424  12.072 -0.0002  0.1503 -0.4937
  643TMC3    C1 9568   4.509   2.908  17.618  0.6117  0.5417  0.7870
  643TMC3    C2 9569   4.402   2.942  17.539  0.2108 -0.0364 -0.0872
  643TMC3    C3 9570   4.391   2.883  17.416  0.4759  0.0583 -0.1362
  643TMC3    C4 9571   4.613   2.837  17.569 -0.5239  0.2297 -0.6702
  643TMC3    C5 9572   4.611   2.803  17.434 -0.4182  0.1472 -0.3209
  643TMC3    C6 9573   4.497   2.821  17.362  0.4184 -0.5484 -0.6298
  643TMC3     C 9574   4.527   2.982  17.741  0.0137 -0.5187 -0.1081
  643TMC3     O 9575   4.452   3.077  17.749  0.1297  0.2380 -0.0861
  643TMC3     H 9576   4.318   2.993  17.583  1.0259 -1.7765  3.4380
  643TMC3    H1 9577   4.705   2.824  17.625 -0.6704 -0.3774 -0.5631
  643TMC3    H2 9578   4.503   2.803  17.255  1.9692  0.7710 -0.7559
  643TMC3    C7 9579   4.693   2.896  17.362 -0.1513 -0.1349 -0.3436
  643TMC3    C8 9580   4.314   2.952  17.313  0.0123 -0.2944  0.1296
  643TMC3    O1 9581   4.697   3.011  17.405 -0.5307  0.1583  0.5338
  643TMC3    O2 9582   4.281   2.889  17.215 -0.9679 -0.5172  0.7945
  644MPD2     C 9583   4.113   3.730   9.544 -0.1392 -0.3529  0.0701
  644MPD2    C1 9584   4.083   3.679   9.424  0.2552 -0.5573 -0.1621
  644MPD2    C2 9585   4.105   3.773   9.318  0.1734 -0.3390 -0.2937
  644MPD2    C3 9586   4.132   3.907   9.334 -0.8327  0.7351 -0.1019
  644MPD2    C4 9587   4.141   3.952   9.461 -0.3512 -0.6243 -0.0323
  644MPD2    C5 9588   4.146   3.863   9.562 -1.1384  0.5131 -0.1923
  644MPD2     H 9589   4.086   3.746   9.214 -0.6979  0.5439 -0.3615
  644MPD2    H1 9590   4.176   4.054   9.476  1.6440 -1.8005  3.3314
  644MPD2    H2 9591   4.118   3.682   9.641  0.5430  0.3156  0.3732
  644MPD2    H3 9592   4.169   3.894   9.663 -1.5495 -1.1341  0.3995
  644MPD2     N 9593   4.152   3.986   9.214  0.0578 -0.1656 -0.0394
  644MPD2    H5 9594   4.160   3.934   9.128 -1.4881 -0.0812 -0.2336
  644MPD2    N1 9595   4.048   3.540   9.415 -0.4811  0.0593  0.2197
  644MPD2    H7 9596   4.059   3.490   9.502  0.3321 -1.8389 -0.9629
  645TMC3    C1 9597   4.167   4.171   9.078 -0.6725  0.3964 -0.2676
  645TMC3    C2 9598   4.215   4.300   9.062  0.9711  0.3045 -0.5916
  645TMC3    C3 9599   4.201   4.353   8.935  0.8719  0.6040  0.3029
  645TMC3    C4 9600   4.078   4.113   8.994  0.0043 -1.0352  0.5089
  645TMC3    C5 9601   4.071   4.164   8.870 -0.5925  0.0392  0.0586
  645TMC3    C6 9602   4.129   4.286   8.834  0.7379  0.4390  0.2588
  645TMC3     C 9603   4.178   4.123   9.212  0.7570 -0.3686  0.7274
  645TMC3     O 9604   4.197   4.208   9.301 -0.5399 -0.5984 -0.3358
  645TMC3     H 9605   4.284   4.343   9.133  2.7740 -2.6336 -0.5970
  645TMC3    H1 9606   4.004   4.037   9.019  0.4499 -0.8696  2.2937
  645TMC3    H2 9607   4.122   4.313   8.729 -0.0912  1.6316  0.6200
  645TMC3    C7 9608   3.990   4.108   8.770  0.3710 -0.3294  0.5213
  645TMC3    C8 9609   4.275   4.473   8.901  0.2196 -0.2549  0.3943
  645TMC3    O1 9610   3.938   4.179   8.683 -0.1118  0.1227  0.7370
  645TMC3    O2 9611   4.364   4.503   8.980 -0.2339  0.0233  0.5590
  646MPD2     C 9612   3.452   2.461  14.604 -0.0824  0.5446  0.4640
  646MPD2    C1 9613   3.520   2.568  14.652 -0.4578  0.2121  0.4522
  646MPD2    C2 9614   3.458   2.690  14.643  0.0665 -0.4268 -0.4037
  646MPD2    C3 9615   3.327   2.707  14.593  0.6138  0.1393 -0.9757
  646MPD2    C4 9616   3.258   2.596  14.570  0.1187  0.2689  0.0244
  646MPD2    C5 9617   3.319   2.475  14.574  0.7136 -0.6309 -0.5264
  646MPD2     H 9618   3.508   2.778  14.680 -0.9194  0.9290 -2.3005
  646MPD2    H1 9619   3.157   2.591  14.529  0.4048  1.3101 -0.8032
  646MPD2    H2 9620   3.497   2.363  14.589  0.9783  1.1970 -0.6143
  646MPD2    H3 9621   3.259   2.390  14.543  2.6440 -1.6572 -1.4478
  646MPD2     N 9622   3.272   2.838  14.589 -0.1210  0.0153 -0.4774
  646MPD2    H5 9623   3.333   2.919  14.593 -0.2140  0.1121 -1.0810
  646MPD2    N1 9624   3.649   2.537  14.700 -0.4566  0.8904 -0.1474
  646MPD2    H7 9625   3.664   2.437  14.701  0.4110  1.0406  1.8457
  647TMC3    C1 9626   3.825   2.535  14.853  0.1561  0.0084 -0.6665
  647TMC3    C2 9627   3.816   2.396  14.841 -0.1639  0.5688  0.6510
  647TMC3    C3 9628   3.836   2.324  14.959  0.0192 -0.3483  0.2427
  647TMC3    C4 9629   3.878   2.599  14.960  0.9038  0.0055 -0.0775
  647TMC3    C5 9630   3.903   2.521  15.071  0.6313  0.3374 -0.4875
  647TMC3    C6 9631   3.872   2.390  15.079 -0.0809  0.0211  0.1447
  647TMC3     C 9632   3.743   2.620  14.764 -0.3769 -0.2485  0.8182
  647TMC3     O 9633   3.731   2.743  14.787  0.3567 -0.3631  0.2190
  647TMC3     H 9634   3.804   2.346  14.746  0.0265  0.6591  0.5787
  647TMC3    H1 9635   3.880   2.707  14.973 -0.4986 -0.0365  0.4397
  647TMC3    H2 9636   3.886   2.335  15.172  0.7259 -0.6825 -0.4014
  647TMC3    C7 9637   4.038   2.534  15.126  0.5869  0.2106 -0.7015
  647TMC3    C8 9638   3.902   2.199  14.950  0.9497 -0.4345 -0.7181
  647TMC3    O1 9639   4.095   2.427  15.139 -0.6359 -0.4114  0.3387
  647TMC3    O2 9640   3.894   2.135  15.057  0.3909 -0.1036  0.3885
  648TMC3    C1 9641   2.931   0.429  16.039  0.4586  0.4840  0.0329
  648TMC3    C2 9642   2.983   0.311  15.982  0.5882  0.9904  0.2797
  648TMC3    C3 9643   3.006   0.321  15.846 -0.4082  0.0999 -0.6049
  648TMC3    C4 9644   2.899   0.538  15.961 -0.1423 -1.1044  0.8845
  648TMC3    C5 9645   2.931   0.543  15.830  0.4013  0.4454  0.3598
  648TMC3    C6 9646   2.984   0.433  15.770  0.9372 -0.6073  0.7633
  648TMC3     C 9647   2.934   0.452  16.184 -0.2527 -0.3860  0.8158
  648TMC3     O 9648   2.867   0.546  16.234  0.5020  0.0727  0.2886
  648TMC3     H 9649   3.003   0.226  16.045  1.2980  0.7647 -0.2442
  648TMC3    H1 9650   2.862   0.627  16.012  0.0885 -1.1782  1.1782
  648TMC3    H2 9651   3.016   0.439  15.666  0.9449  1.9584  0.9106
  648TMC3    C7 9652   2.897   0.661  15.740 -0.9029 -0.3584 -0.3187
  648TMC3    C8 9653   3.040   0.206  15.765  0.0110  1.1374 -0.3320
  648TMC3    O1 9654   2.951   0.658  15.632 -0.6173 -0.1514 -0.0812
  648TMC3    O2 9655   3.080   0.221  15.649  0.3252 -0.3465  0.5222
  649TMC3    C1 9656   1.976   1.167  12.331  0.0049  0.2907  0.2684
  649TMC3    C2 9657   2.105   1.207  12.325  0.5431  0.9544  0.1380
  649TMC3    C3 9658   2.189   1.172  12.424  0.2388 -0.5923 -0.0886
  649TMC3    C4 9659   1.918   1.119  12.443  0.2399 -0.2507 -0.1443
  649TMC3    C5 9660   2.010   1.083  12.545  0.0025 -0.4043  0.1518
  649TMC3    C6 9661   2.150   1.102  12.531  0.3517 -0.4179 -0.0610
  649TMC3     C 9662   1.886   1.212  12.231 -0.6065  0.1955 -0.5841
  649TMC3     O 9663   1.768   1.228  12.270  0.1493 -0.1401 -0.5338
  649TMC3     H 9664   2.152   1.253  12.239  1.2968  1.8700  1.0333
  649TMC3    H1 9665   1.813   1.092  12.446  0.4582 -0.9528  1.1376
  649TMC3    H2 9666   2.219   1.084  12.612  1.3666 -0.4189 -0.9255
  649TMC3    C7 9667   1.960   1.044  12.678 -0.1935 -0.0781  0.7494
  649TMC3    C8 9668   2.325   1.211  12.408 -0.1550 -0.2660  0.3982
  649TMC3    O1 9669   1.843   1.066  12.700  0.0415 -0.2562  0.2883
  649TMC3    O2 9670   2.406   1.140  12.466  0.1905 -0.0771  0.2302
  650TMC3    C1 9671   4.571   2.815  12.581  0.4516 -0.1454  0.8061
  650TMC3    C2 9672   4.660   2.908  12.642  0.0454  0.3274  0.3458
  650TMC3    C3 9673   4.697   3.027  12.585  0.1468  0.0922 -0.1052
  650TMC3    C4 9674   4.525   2.849  12.461 -0.3158  0.3510  0.1330
  650TMC3    C5 9675   4.560   2.968  12.402  0.0180 -0.5501 -0.0818
  650TMC3    C6 9676   4.650   3.055  12.465 -0.1264 -0.2138 -0.1340
  650TMC3     C 9677   4.571   2.679  12.627  0.3632 -0.4056  0.1296
  650TMC3     O 9678   4.480   2.605  12.594  0.3673 -0.1481  1.2402
  650TMC3     H 9679   4.696   2.893  12.743  0.6304  2.1759  0.4001
  650TMC3    H1 9680   4.462   2.772  12.418  0.1174  0.6810 -1.0670
  650TMC3    H2 9681   4.684   3.147  12.420  0.4932 -0.5643 -0.3759
  650TMC3    C7 9682   4.441   3.027  12.341  0.0400 -0.0340  0.0620
  650TMC3    C8 9683   4.658   3.141  12.663  0.1151 -0.1763  0.1673
  650TMC3    O1 9684   4.367   2.953  12.277 -0.6735  0.7580  0.7587
  650TMC3    O2 9685   4.720   3.242  12.637 -0.3218 -0.0371  0.3917
  651MPD2     C 9686   3.483   0.102  10.337  0.2106 -0.3073  0.0863
  651MPD2    C1 9687   3.485   0.241  10.354  0.5942  0.3129  0.0583
  651MPD2    C2 9688   3.584   0.317  10.293  0.2362 -0.4669 -0.6862
  651MPD2    C3 9689   3.685   0.251  10.218  0.3694  0.0162 -0.2109
  651MPD2    C4 9690   3.690   0.117  10.213 -0.2181 -0.0938 -0.6940
  651MPD2    C5 9691   3.585   0.041  10.268 -0.6918  0.2437 -0.5606
  651MPD2     H 9692   3.578   0.426  10.291  0.6860 -0.4142  0.8865
  651MPD2    H1 9693   3.764   0.060  10.158 -2.3976 -1.6769 -2.0194
  651MPD2    H2 9694   3.411   0.039  10.388  1.3388 -1.6725  0.0151
  651MPD2    H3 9695   3.597   4.673  10.276 -1.4912  0.2921  1.2785
  651MPD2     N 9696   3.778   0.332  10.158 -0.1677 -0.3019  0.3057
  651MPD2    H5 9697   3.754   0.430  10.167 -1.0572 -0.3428 -1.5713
  651MPD2    N1 9698   3.388   0.308  10.432 -0.5878  0.2526  0.0078
  651MPD2    H7 9699   3.391   0.409  10.440  0.9636  0.2280 -0.2971
  652TMC3    C1 9700   4.154   0.505  10.072  1.0808 -0.2342 -0.7119
  652TMC3    C2 9701   4.096   0.388  10.044  0.1518 -0.0276 -0.7908
  652TMC3    C3 9702   3.964   0.393  10.025 -0.8883 -0.2690  0.1934
  652TMC3    C4 9703   4.092   0.629  10.090  0.1754 -0.8283 -0.2307
  652TMC3    C5 9704   3.958   0.624  10.060  0.0118 -0.2732  0.4610
  652TMC3    C6 9705   3.894   0.511  10.014 -0.1113  0.0271 -0.1868
  652TMC3     C 9706   4.279   0.491  10.145 -0.1615 -0.5977 -0.1569
  652TMC3     O 9707   4.303   0.389  10.209  0.4071  0.7160  0.4339
  652TMC3     H 9708   4.139   0.294  10.079  0.1798  0.2978  0.0583
  652TMC3    H1 9709   4.140   0.714  10.137 -0.9746 -0.3513  0.0796
  652TMC3    H2 9710   3.786   0.510  10.002 -0.1586 -1.5953  0.2717
  652TMC3    C7 9711   3.872   0.692  10.159  1.1864  0.2267 -0.6956
  652TMC3    C8 9712   3.886   0.286  10.084  0.0961  0.3882  0.4260
  652TMC3    O1 9713   3.769   0.635  10.185  0.3631 -0.6084  0.2372
  652TMC3    O2 9714   3.933   0.172  10.085  0.0705 -0.3000 -0.3201
  653MPD2     C 9715   2.266   0.096  17.654  0.2605 -0.3789  0.0508
  653MPD2    C1 9716   2.180   0.186  17.588 -0.1830  0.0615 -0.6744
  653MPD2    C2 9717   2.094   0.148  17.486 -0.1333  0.6213 -0.0506
  653MPD2    C3 9718   2.090   0.022  17.442  0.1428 -0.4179  0.7523
  653MPD2    C4 9719   2.178   4.669  17.501 -0.1124 -0.7173 -0.1736
  653MPD2    C5 9720   2.255   4.707  17.600  0.1266  0.1962 -0.2671
  653MPD2     H 9721   2.014   0.217  17.461 -1.0874 -0.0652  1.1227
  653MPD2    H1 9722   2.184   4.566  17.466 -4.3095 -1.5674  1.5665
  653MPD2    H2 9723   2.327   0.123  17.740  0.1140  0.2318 -0.0377
  653MPD2    H3 9724   2.314   4.629  17.646 -1.0487  0.3795  1.5948
  653MPD2     N 9725   1.992   4.721  17.340 -0.3618 -0.2491 -0.9184
  653MPD2    H5 9726   1.935   0.055  17.302 -0.2714 -0.8944 -2.3054
  653MPD2    N1 9727   2.191   0.322  17.614 -0.0499 -0.0055 -0.2238
  653MPD2    H7 9728   2.135   0.382  17.555 -1.1117 -0.0766  0.7074
  654TMC3    C1 9729   1.880   4.576  17.191 -0.8493  0.6461  0.1266
  654TMC3    C2 9730   1.814   4.682  17.135 -0.6613  0.9383 -0.2532
  654TMC3    C3 9731   1.732   4.659  17.028 -0.0663 -1.1189  0.1326
  654TMC3    C4 9732   1.846   4.453  17.156 -0.7108 -0.6991 -0.0076
  654TMC3    C5 9733   1.758   4.429  17.054 -0.7766 -0.8874  0.1199
  654TMC3    C6 9734   1.699   4.533  16.986  0.2874 -0.1822 -0.0878
  654TMC3     C 9735   1.974   4.591  17.297  0.2371 -1.1017 -0.0992
  654TMC3     O 9736   2.023   4.488  17.338  0.5974  0.1372  0.1084
  654TMC3     H 9737   1.844   0.044  17.157 -1.0233  0.7180  1.3029
  654TMC3    H1 9738   1.873   4.370  17.220  0.3099  0.8643  1.5804
  654TMC3    H2 9739   1.628   4.516  16.906 -1.0540  1.2331  0.8104
  654TMC3    C7 9740   1.736   4.291  17.006 -0.2755 -0.8213  0.1199
  654TMC3    C8 9741   1.655   0.033  16.977 -0.4386  0.0951 -0.2870
  654TMC3    O1 9742   1.629   4.255  16.969 -0.6301 -0.0682 -0.0978
  654TMC3    O2 9743   1.652   0.131  17.054 -0.5081  0.4140 -0.0151
  655MPD2     C 9744   3.294   0.524  15.951 -0.2603  0.1090 -0.3624
  655MPD2    C1 9745   3.273   0.615  15.848 -0.0483  0.0321  0.3365
  655MPD2    C2 9746   3.322   0.581  15.725 -0.0728  0.1322 -0.9329
  655MPD2    C3 9747   3.392   0.459  15.704 -0.3533 -0.2800 -0.0220
  655MPD2    C4 9748   3.396   0.368  15.808  0.1470  1.5290 -0.6568
  655MPD2    C5 9749   3.346   0.400  15.926  0.3209  1.0934  0.4349
  655MPD2     H 9750   3.312   0.660  15.652 -0.2433  1.6900  0.7730
  655MPD2    H1 9751   3.457   0.280  15.790 -0.4534  0.9308  0.2142
  655MPD2    H2 9752   3.263   0.551  16.051  1.1348 -0.6915  0.2739
  655MPD2    H3 9753   3.357   0.330  16.009  1.6962  0.4924 -0.2558
  655MPD2     N 9754   3.453   0.435  15.578  0.2775 -0.0369  0.4102
  655MPD2    H5 9755   3.500   0.345  15.570  0.0330 -0.1622  0.3777
  655MPD2    N1 9756   3.219   0.745  15.861  0.4109  0.1735 -0.4290
  655MPD2    H7 9757   3.208   0.803  15.779  2.2523 -1.0549 -1.5514
  656TMC3    C1 9758   3.111   0.936  15.963 -0.3888 -0.3527 -0.2893
  656TMC3    C2 9759   3.001   0.949  16.049 -0.0706 -0.0915  0.5079
  656TMC3    C3 9760   2.930   1.068  16.025 -0.5195 -0.1494  0.2522
  656TMC3    C4 9761   3.137   1.016  15.852  0.5058 -0.2712  0.1968
  656TMC3    C5 9762   3.066   1.134  15.840 -0.6475 -0.4591 -0.2923
  656TMC3    C6 9763   2.952   1.155  15.919 -0.0701  0.4988  0.0387
  656TMC3     C 9764   3.173   0.806  15.982  0.1338  0.3196  0.7827
  656TMC3     O 9765   3.165   0.749  16.088 -0.6248 -0.0057 -0.0377
  656TMC3     H 9766   2.978   0.873  16.122  2.4516 -1.1285  0.2333
  656TMC3    H1 9767   3.233   1.004  15.804 -0.8012 -1.0057 -2.1968
  656TMC3    H2 9768   2.886   1.240  15.909 -3.7855 -2.2976  0.6465
  656TMC3    C7 9769   3.072   1.184  15.701  0.5531 -0.3679  0.8748
  656TMC3    C8 9770   2.801   1.081  16.095 -0.5075 -0.8433 -0.9342
  656TMC3    O1 9771   3.138   1.117  15.621  0.9334 -0.3995 -0.5093
  656TMC3    O2 9772   2.718   1.161  16.052  0.4244 -0.0554 -0.1644
  657TMC3    C1 9773   2.109   4.287  15.213 -0.6502  0.0166  0.4502
  657TMC3    C2 9774   2.199   4.282  15.325 -0.4255 -0.6215 -0.0698
  657TMC3    C3 9775   2.236   4.401  15.384  0.1272  0.2316 -0.4570
  657TMC3    C4 9776   2.062   4.405  15.174  0.4611  0.0705 -0.5631
  657TMC3    C5 9777   2.101   4.525  15.242 -0.1195  0.2209  0.6456
  657TMC3    C6 9778   2.189   4.518  15.343 -0.5890 -0.6809  0.1902
  657TMC3     C 9779   2.084   4.169  15.135 -0.2935  0.2409  0.7405
  657TMC3     O 9780   1.991   4.177  15.053  0.0041 -0.3031  0.2895
  657TMC3     H 9781   2.246   4.188  15.352 -0.4791 -0.9824 -1.2619
  657TMC3    H1 9782   1.979   4.409  15.105  0.0288  1.3428  0.0378
  657TMC3    H2 9783   2.219   4.609  15.392  1.1338 -1.7142  1.0663
  657TMC3    C7 9784   1.994   4.626  15.265 -0.0482 -0.9285  1.0461
  657TMC3    C8 9785   2.320   4.411  15.503 -0.2387 -0.6989 -0.5443
  657TMC3    O1 9786   1.963   4.619  15.386 -0.5730  0.4466  0.0568
  657TMC3    O2 9787   2.390   4.507  15.515  0.8339 -0.3804 -0.1003
  658MPD2     C 9788   3.734   0.882  14.948  0.3269  0.0653 -0.0661
  658MPD2    C1 9789   3.678   0.764  14.922 -0.6404  0.4106  0.7003
  658MPD2    C2 9790   3.625   0.750  14.792  0.7163 -0.3894 -0.1041
  658MPD2    C3 9791   3.636   0.851  14.699  0.6742 -0.1639  0.0469
  658MPD2    C4 9792   3.716   0.961  14.730 -0.0683 -0.0883 -0.1115
  658MPD2    C5 9793   3.751   0.981  14.858 -0.4946 -0.0416  0.4753
  658MPD2     H 9794   3.571   0.661  14.764 -0.3248  0.6858 -1.5311
  658MPD2    H1 9795   3.731   1.040  14.656  1.6643 -0.4014 -0.0815
  658MPD2    H2 9796   3.775   0.901  15.046 -3.6543 -1.5689  1.9369
  658MPD2    H3 9797   3.799   1.073  14.890  3.6898 -2.2114  0.3838
  658MPD2     N 9798   3.578   0.824  14.568  0.2213  0.0113  0.2768
  658MPD2    H5 9799   3.529   0.735  14.556 -0.8809  0.6623 -0.0778
  658MPD2    N1 9800   3.659   0.675  15.034 -0.0792 -0.2662  0.5013
  658MPD2    H7 9801   3.691   0.703  15.126 -0.7610 -0.8433  0.9092
  659TMC3    C1 9802   3.613   0.469  15.147  0.1248 -0.1433 -0.0826
  659TMC3    C2 9803   3.563   0.529  15.257 -0.5071 -0.0581 -0.6051
  659TMC3    C3 9804   3.572   0.470  15.376 -0.1190 -0.2015 -0.0439
  659TMC3    C4 9805   3.664   0.338  15.157  0.5061 -0.2056 -0.6295
  659TMC3    C5 9806   3.658   0.283  15.284 -0.6631 -0.0619 -0.3524
  659TMC3    C6 9807   3.625   0.345  15.397  0.2259 -0.2357 -0.5317
  659TMC3     C 9808   3.630   0.540  15.022 -0.2458 -0.1475  0.0593
  659TMC3     O 9809   3.633   0.465  14.927  0.1306  0.0999 -0.3796
  659TMC3     H 9810   3.515   0.625  15.241  2.5176  1.7676  1.1573
  659TMC3    H1 9811   3.693   0.288  15.066 -1.3327  0.2389 -1.4541
  659TMC3    H2 9812   3.624   0.292  15.491  1.1502  0.0731 -0.3531
  659TMC3    C7 9813   3.603   0.148  15.297 -0.5884  0.0635  0.4850
  659TMC3    C8 9814   3.468   0.521  15.473 -0.1469 -0.0607  0.4444
  659TMC3    O1 9815   3.524   0.130  15.385 -0.0183 -0.3318  0.1719
  659TMC3    O2 9816   3.424   0.637  15.465 -0.3446  0.0041  0.4031
  660MPD2     C 9817   1.713   4.019  12.331  0.6514  0.2412  0.2755
  660MPD2    C1 9818   1.578   4.063  12.337 -0.3926 -0.3324  0.1820
  660MPD2    C2 9819   1.492   4.012  12.435 -0.1072  0.7905 -0.9007
  660MPD2    C3 9820   1.532   3.916  12.529  0.2157 -0.4159  0.1111
  660MPD2    C4 9821   1.668   3.876  12.516 -0.8124 -0.7634  0.1721
  660MPD2    C5 9822   1.752   3.930  12.429 -0.1203  0.1861 -0.1282
  660MPD2     H 9823   1.392   4.054  12.445 -0.2797  0.2593 -0.3958
  660MPD2    H1 9824   1.715   3.803  12.581 -0.2386 -0.5610 -0.0117
  660MPD2    H2 9825   1.791   4.048  12.262  1.4365 -0.0487  1.0330
  660MPD2    H3 9826   1.854   3.892  12.428  0.0391  0.5939  1.3041
  660MPD2     N 9827   1.451   3.854  12.626 -0.4465 -0.7911 -0.2986
  660MPD2    H5 9828   1.489   3.776  12.679  1.4680 -0.7909 -1.6434
  660MPD2    N1 9829   1.538   4.143  12.231 -0.2876 -0.0859 -0.3388
  660MPD2    H7 9830   1.606   4.163  12.159 -0.2478  0.9650 -0.0167
  661TMC3    C1 9831   1.383   4.267  12.092  0.4541  0.1044  0.1831
  661TMC3    C2 9832   1.478   4.299  12.002 -0.0828 -0.4601 -0.1139
  661TMC3    C3 9833   1.442   4.378  11.890 -0.1220 -0.7050  0.8281
  661TMC3    C4 9834   1.255   4.309  12.078 -0.1396 -0.2094 -0.1597
  661TMC3    C5 9835   1.221   4.382  11.969 -0.0976 -0.2971  0.2416
  661TMC3    C6 9836   1.312   4.426  11.883 -0.3943 -0.8484  0.7601
  661TMC3     C 9837   1.416   4.202  12.217 -0.5313 -0.7096  0.9587
  661TMC3     O 9838   1.322   4.209  12.300 -0.2430  0.0836 -0.2250
  661TMC3     H 9839   1.575   4.255  12.021  0.3958  0.9025  0.6209
  661TMC3    H1 9840   1.169   4.299  12.143  1.1113 -0.6607  1.4234
  661TMC3    H2 9841   1.273   4.456  11.786 -0.8898  0.2552  1.2984
  661TMC3    C7 9842   1.083   4.375  11.931  0.6263  0.2163  0.0735
  661TMC3    C8 9843   1.522   4.354  11.770  0.2495  0.2885 -0.0899
  661TMC3    O1 9844   1.007   4.467  11.954  0.4000  0.3185 -0.3352
  661TMC3    O2 9845   1.591   4.251  11.767  0.8297  0.1895  0.5660
  662MPD2     C 9846   1.554   3.400  16.924 -1.1278  0.0588  0.4915
  662MPD2    C1 9847   1.646   3.417  17.023 -0.0505  0.2774 -0.5025
  662MPD2    C2 9848   1.618   3.512  17.121 -0.0599 -0.0319  0.3771
  662MPD2    C3 9849   1.501   3.585  17.118  0.3799  0.4015  0.4039
  662MPD2    C4 9850   1.409   3.561  17.020 -0.2106 -0.4734  0.0922
  662MPD2    C5 9851   1.434   3.468  16.925  0.5527  0.0012 -0.3690
  662MPD2     H 9852   1.696   3.533  17.193  1.4170  0.2838 -1.3244
  662MPD2    H1 9853   1.312   3.609  17.022 -0.5963 -1.1865 -1.8198
  662MPD2    H2 9854   1.563   3.332  16.840 -0.5104 -2.9701  3.0096
  662MPD2    H3 9855   1.365   3.458  16.842 -0.9668  1.1479  0.7440
  662MPD2     N 9856   1.474   3.690  17.209  0.1306 -0.0220  0.0345
  662MPD2    H5 9857   1.382   3.731  17.199 -1.0567 -2.9676 -1.0309
  662MPD2    N1 9858   1.777   3.362  17.024  0.3501  0.0339 -0.7076
  662MPD2    H7 9859   1.842   3.389  17.097  0.9959 -0.0672 -1.2403
  663TMC3    C1 9860   1.964   3.244  16.953  0.6713 -0.3041  0.1263
  663TMC3    C2 9861   1.992   3.211  17.087 -0.5237 -0.2910 -1.0306
  663TMC3    C3 9862   2.084   3.111  17.107 -0.3988 -0.2140  0.0758
  663TMC3    C4 9863   2.027   3.187  16.849  0.5993  0.3017 -0.1633
  663TMC3    C5 9864   2.115   3.090  16.872 -0.0557  0.0245 -0.2312
  663TMC3    C6 9865   2.156   3.062  17.001 -0.2190 -0.6149 -0.5950
  663TMC3     C 9866   1.829   3.275  16.933  0.2523 -0.1821 -0.0021
  663TMC3     O 9867   1.780   3.222  16.832 -0.2439 -0.3446  0.5669
  663TMC3     H 9868   1.918   3.216  17.166 -0.4893  1.7370 -1.1498
  663TMC3    H1 9869   1.984   3.193  16.750  0.9345 -1.2772 -0.4082
  663TMC3    H2 9870   2.211   2.970  17.014 -2.2284 -1.8229 -0.8147
  663TMC3    C7 9871   2.097   2.978  16.785  0.7485  0.2244  0.2521
  663TMC3    C8 9872   2.047   2.996  17.191 -0.3431 -0.1456 -0.3052
  663TMC3    O1 9873   2.111   2.999  16.666  0.1514  0.4942  0.1565
  663TMC3    O2 9874   2.073   2.884  17.145  0.2025  0.6319 -0.1580
  664MPD2     C 9875   3.953   2.046  17.265  0.2241 -0.3812 -0.2507
  664MPD2    C1 9876   4.067   2.076  17.332  0.0879 -0.2620  0.5692
  664MPD2    C2 9877   4.083   2.036  17.464 -0.3332 -0.3696 -0.1175
  664MPD2    C3 9878   3.982   1.967  17.530  0.4405 -0.3535  0.2481
  664MPD2    C4 9879   3.876   1.925  17.463 -0.0274  0.3411 -0.5167
  664MPD2    C5 9880   3.863   1.960  17.326  0.0543  0.2031  0.1441
  664MPD2     H 9881   4.173   2.073  17.511  1.6774 -0.8831 -3.5568
  664MPD2    H1 9882   3.804   1.858  17.508  1.8846 -0.7988  0.7986
  664MPD2    H2 9883   3.944   2.065  17.159  0.0047 -3.8135 -0.8538
  664MPD2    H3 9884   3.772   1.923  17.281  0.1060 -0.0214  0.2278
  664MPD2     N 9885   4.011   1.925  17.662  0.9938  0.9213  0.2008
  664MPD2    H5 9886   4.105   1.934  17.700  0.6601  1.2256  0.9636
  664MPD2    N1 9887   4.168   2.148  17.263 -0.3838 -0.0879 -0.0690
  664MPD2    H7 9888   4.252   2.170  17.316 -0.0752  1.3158 -1.1336
  665TMC3    C1 9889   3.982   1.868   0.131  0.0690  0.0649 -0.2003
  665TMC3    C2 9890   3.909   1.791   0.217  0.4196 -0.1492  0.4945
  665TMC3    C3 9891   3.931   1.814   0.351 -0.7095  0.4229  0.2907
  665TMC3    C4 9892   4.079   1.957   0.161  0.3307 -0.4362  0.2449
  665TMC3    C5 9893   4.102   1.970   0.297  0.3987  0.1273 -0.5157
  665TMC3    C6 9894   4.027   1.900   0.395 -0.3342 -0.2537 -0.1747
  665TMC3     C 9895   3.923   1.878  17.754  0.1738  0.8129 -0.2134
  665TMC3     O 9896   3.802   1.868  17.736  0.2989  0.1374  0.2917
  665TMC3     H 9897   3.822   1.735   0.184 -0.0104  1.2179 -0.7097
  665TMC3    H1 9898   4.138   2.015   0.091 -2.3530  2.8330  0.6631
  665TMC3    H2 9899   4.059   1.898   0.498 -1.5326 -0.8468  0.1784
  665TMC3    C7 9900   4.235   2.018   0.323 -0.0210  0.2761  0.6280
  665TMC3    C8 9901   3.834   1.758   0.438 -0.3368 -0.3692  1.0084
  665TMC3    O1 9902   4.316   2.011   0.231  0.1839  0.2716 -0.1879
  665TMC3    O2 9903   3.733   1.718   0.384  0.3662  0.7284 -0.0381
  666TMC3    C1 9904   3.349   2.242   9.689  0.2755  0.6062  0.6363
  666TMC3    C2 9905   3.429   2.163   9.768  0.1795  1.2794  0.0804
  666TMC3    C3 9906   3.508   2.233   9.856  0.2039  0.2585 -0.0630
  666TMC3    C4 9907   3.337   2.377   9.702 -0.0480  0.2273 -0.3289
  666TMC3    C5 9908   3.431   2.436   9.782 -0.3267 -0.2621 -0.2401
  666TMC3    C6 9909   3.518   2.369   9.858 -0.0369  0.6214 -0.0872
  666TMC3     C 9910   3.284   2.184   9.574 -0.2998  0.1285  0.1675
  666TMC3     O 9911   3.254   2.259   9.481  0.0701 -0.0480  0.3580
  666TMC3     H 9912   3.446   2.057   9.753 -0.1185  0.8942  2.4935
  666TMC3    H1 9913   3.268   2.440   9.647  1.2305  0.1627 -2.0171
  666TMC3    H2 9914   3.591   2.422   9.918 -1.3595  0.9153  1.2331
  666TMC3    C7 9915   3.402   2.561   9.850  0.1929  0.2084  0.0207
  666TMC3    C8 9916   3.572   2.157   9.970 -0.6661 -0.2574  0.3698
  666TMC3    O1 9917   3.436   2.573   9.964  0.5215  0.3399  0.2801
  666TMC3    O2 9918   3.565   2.033   9.968  0.2407 -0.3634  0.3402
  667MPD2     C 9919   0.836   1.861  14.078  0.8766  0.5308  0.7572
  667MPD2    C1 9920   0.812   1.846  14.213 -0.1447  0.2270 -0.1507
  667MPD2    C2 9921   0.797   1.725  14.269 -0.7866  0.0341 -0.8328
  667MPD2    C3 9922   0.793   1.613  14.185  0.2019  0.7148  0.4840
  667MPD2    C4 9923   0.822   1.624  14.050 -0.8134 -0.2432  0.4557
  667MPD2    C5 9924   0.838   1.753  13.999 -0.5487  0.6158  0.4073
  667MPD2     H 9925   0.775   1.706  14.374  0.1283  0.1006 -0.6243
  667MPD2    H1 9926   0.814   1.542  13.979 -2.9289 -0.2496  0.6915
  667MPD2    H2 9927   0.833   1.961  14.037  2.5441  0.7488  1.1835
  667MPD2    H3 9928   0.855   1.759  13.892 -0.1600  0.8456  0.4794
  667MPD2     N 9929   0.762   1.481  14.232 -0.0271 -0.1182 -0.5796
  667MPD2    H5 9930   0.777   1.410  14.161 -1.9417  0.2641 -1.3731
  667MPD2    N1 9931   0.808   1.957  14.297  0.2862  0.2719  0.3589
  667MPD2    H7 9932   0.777   1.936  14.391  0.8313 -0.1628  0.4422
  668TMC3    C1 9933   0.803   2.172  14.384 -0.3665 -0.0357 -0.1893
  668TMC3    C2 9934   0.882   2.278  14.407 -0.7259 -0.2813 -0.3215
  668TMC3    C3 9935   0.885   2.333  14.528  0.5508  0.0346 -0.1772
  668TMC3    C4 9936   0.720   2.130  14.478  0.4889 -0.2157  0.2906
  668TMC3    C5 9937   0.725   2.185  14.603 -0.0132 -0.8531  0.2438
  668TMC3    C6 9938   0.815   2.281  14.634 -0.1202  0.4276 -0.3591
  668TMC3     C 9939   0.834   2.092  14.266  0.3922  0.1389 -0.0620
  668TMC3     O 9940   0.892   2.142  14.171 -0.2904 -0.1877 -0.1976
  668TMC3     H 9941   0.937   2.329  14.329  0.3938 -0.8219  0.1082
  668TMC3    H1 9942   0.643   2.056  14.461  1.2862 -1.2557  1.1553
  668TMC3    H2 9943   0.835   2.309  14.737 -1.5583 -1.7470  0.5047
  668TMC3    C7 9944   0.657   2.132  14.716  0.1807 -0.3942  0.0938
  668TMC3    C8 9945   0.934   2.471  14.556 -0.1296  0.2813 -0.1308
  668TMC3    O1 9946   0.717   2.120  14.821  0.1098 -0.2139  0.7584
  668TMC3    O2 9947   0.878   2.531  14.646  0.2743 -0.7442  0.1088
  669TMC3    C1 9948   3.344   1.839  14.522  0.6589  0.1223 -0.6439
  669TMC3    C2 9949   3.252   1.764  14.463  0.4779 -0.1291 -0.4049
  669TMC3    C3 9950   3.207   1.813  14.346  0.3179  0.5699 -0.2287
  669TMC3    C4 9951   3.382   1.957  14.484 -0.6368 -0.0997 -0.6187
  669TMC3    C5 9952   3.334   2.003  14.365 -0.4503 -0.0735 -0.0904
  669TMC3    C6 9953   3.240   1.930  14.289  0.3340  0.3557 -0.9161
  669TMC3     C 9954   3.423   1.782  14.632 -0.2050 -0.5406  0.4859
  669TMC3     O 9955   3.532   1.744  14.596 -0.2445 -0.7705 -0.1067
  669TMC3     H 9956   3.226   1.663  14.495  1.7099 -0.9001 -1.8109
  669TMC3    H1 9957   3.456   2.009  14.543 -1.1129  0.9300 -0.9197
  669TMC3    H2 9958   3.177   1.973  14.212 -1.2068  1.6036  1.0294
  669TMC3    C7 9959   3.421   2.106  14.306 -0.5437  0.1121 -0.0583
  669TMC3    C8 9960   3.088   1.754  14.297  0.2933  0.0488 -0.5054
  669TMC3    O1 9961   3.500   2.166  14.377 -0.1520  0.0122  0.2730
  669TMC3    O2 9962   3.081   1.633  14.314 -0.4415 -0.0559  0.5932
  670MPD2     C 9963   1.646   4.406  13.425 -0.3162 -0.1010  0.2032
  670MPD2    C1 9964   1.642   4.267  13.420 -0.2486 -0.4820  0.7727
  670MPD2    C2 9965   1.587   4.199  13.530  0.8999  0.3026  0.5855
  670MPD2    C3 9966   1.560   4.266  13.654 -0.5222 -0.2766 -0.3809
  670MPD2    C4 9967   1.583   4.400  13.661 -0.5463  0.1970  0.6122
  670MPD2    C5 9968   1.621   4.461  13.549  0.3590 -0.8369  0.0790
  670MPD2     H 9969   1.577   4.091  13.528 -0.1702  0.3788  1.7084
  670MPD2    H1 9970   1.564   4.465  13.745  0.6607  0.4293  0.7062
  670MPD2    H2 9971   1.687   4.469  13.348  2.3125 -0.3438  1.4074
  670MPD2    H3 9972   1.630   4.569  13.549  1.0109 -0.8921  0.0583
  670MPD2     N 9973   1.516   4.187  13.763 -0.3997  0.5303  0.0480
  670MPD2    H5 9974   1.512   4.089  13.738 -0.5134  0.7531 -0.7865
  670MPD2    N1 9975   1.696   4.199  13.310 -0.5000  0.1757  0.1470
  670MPD2    H7 9976   1.708   4.098  13.314  0.3686  0.2622 -0.2695
  671TMC3    C1 9977   1.460   4.125  13.985 -0.3083 -0.6536 -0.5506
  671TMC3    C2 9978   1.549   4.095  14.087  0.8138 -0.3028 -1.0775
  671TMC3    C3 9979   1.538   3.970  14.137  0.0808  0.9111 -0.1814
  671TMC3    C4 9980   1.369   4.037  13.947  0.8100  0.3482  0.4883
  671TMC3    C5 9981   1.350   3.916  14.014 -0.1621  0.3300  0.9104
  671TMC3    C6 9982   1.445   3.881  14.098 -0.4552  0.0074 -0.2318
  671TMC3     C 9983   1.512   4.224  13.897 -0.4597  0.0112 -0.4595
  671TMC3     O 9984   1.563   4.326  13.946 -0.1859  0.3571  0.4035
  671TMC3     H 9985   1.650   4.135  14.083  0.4715  0.6005 -0.6008
  671TMC3    H1 9986   1.291   4.080  13.885 -1.2902 -2.2158  1.3415
  671TMC3    H2 9987   1.442   3.783  14.145  2.1323  1.0089  2.0673
  671TMC3    C7 9988   1.293   3.799  13.936  0.2280  0.1317 -0.2357
  671TMC3    C8 9989   1.658   3.901  14.167 -0.3079  1.1356 -1.2401
  671TMC3    O1 9990   1.288   3.681  13.978 -0.6124  0.0615  0.1077
  671TMC3    O2 9991   1.665   3.779  14.149 -0.3398 -0.0223  0.4366
  672MPD2     C 9992   2.096   4.430   0.802  0.5693 -0.3722  0.5464
  672MPD2    C1 9993   2.197   4.500   0.744 -0.2266 -0.4227  0.7771
  672MPD2    C2 9994   2.265   4.590   0.824  0.4832 -0.3289  0.2114
  672MPD2    C3 9995   2.226   4.612   0.956  0.2621  0.5709 -0.4717
  672MPD2    C4 9996   2.122   4.544   1.012 -0.0604  0.1461  1.1084
  672MPD2    C5 9997   2.061   4.450   0.935  0.5834 -0.2456 -0.3650
  672MPD2     H 9998   2.350   4.647   0.787 -0.2616  1.0364  0.5825
  672MPD2    H1 9999   2.086   4.553   1.114  1.2080  1.3802  1.4386
  672MPD2    H210000   2.021   4.369   0.752  1.0453 -1.1618  0.7934
  672MPD2    H310001   1.986   4.380   0.971 -0.6972  1.4921  0.3315
  672MPD2     N10002   2.292   4.717   1.027 -1.1000 -0.4882  0.0342
  672MPD2    H510003   2.267   4.738   1.123 -0.3189  0.4835  0.0339
  672MPD2    N110004   2.243   4.478   0.614  0.1907 -0.0500  0.1625
  672MPD2    H710005   2.315   4.541   0.580  0.1358  0.1660  0.4449
  673TMC3    C110006   2.251   4.385   0.391 -0.8102  0.0058 -0.2695
  673TMC3    C210007   2.371   4.445   0.361 -0.1226  0.6483 -0.1544
  673TMC3    C310008   2.405   4.476   0.233  0.2108  0.4293 -0.1574
  673TMC3    C410009   2.162   4.363   0.288 -1.0598  0.4986  0.3976
  673TMC3    C510010   2.194   4.413   0.166  0.4434  0.4453 -0.4250
  673TMC3    C610011   2.311   4.469   0.136 -0.6489  0.1253  0.1011
  673TMC3     C10012   2.197   4.380   0.526 -0.2603 -0.5217  0.3354
  673TMC3     O10013   2.111   4.291   0.543  0.0796  0.1739  0.3111
  673TMC3     H10014   2.441   4.476   0.438  1.8858 -2.7322 -0.6275
  673TMC3    H110015   2.062   4.328   0.308 -0.0798 -3.4537 -1.5569
  673TMC3    H210016   2.329   4.491   0.032 -0.0093  0.9911  0.3972
  673TMC3    C710017   2.091   4.449   0.072 -0.0231  0.4985 -0.2658
  673TMC3    C810018   2.536   4.530   0.193 -0.3117 -0.6779 -0.4364
  673TMC3    O110019   2.028   4.369   0.007  0.2934  0.3326  0.1979
  673TMC3    O210020   2.546   4.571   0.079 -0.8059 -0.5333 -0.8412
  674MPD2     C10021   1.715   4.101  17.347 -0.1993  0.5985  0.0989
  674MPD2    C110022   1.825   4.089  17.431 -0.2074  0.0592  0.2047
  674MPD2    C210023   1.842   4.174  17.532  0.2151  0.0398 -0.7680
  674MPD2    C310024   1.741   4.265  17.559 -0.0910  0.3662 -0.4423
  674MPD2    C410025   1.632   4.277  17.481  0.2014  0.7712 -0.0828
  674MPD2    C510026   1.622   4.193  17.375  0.1269 -0.3804  1.1348
  674MPD2     H10027   1.924   4.163  17.601 -0.8628 -1.5003  0.2431
  674MPD2    H110028   1.550   4.345  17.502  0.4980  1.4031 -0.9410
  674MPD2    H210029   1.714   4.041  17.257  0.3130 -1.5880  1.5493
  674MPD2    H310030   1.541   4.207  17.303 -0.2878  0.0848  1.6905
  674MPD2     N10031   1.757   4.333  17.682 -0.0896  0.2594  0.0145
  674MPD2    H510032   1.849   4.311  17.718 -0.9854 -2.6191  0.5210
  674MPD2    N110033   1.921   3.984  17.406  0.0820  0.1915  0.0133
  674MPD2    H710034   1.896   3.910  17.342  0.3889 -1.6566  2.0028
  675TMC3    C110035   2.062   3.829  17.484  0.3398 -1.0015  0.1456
  675TMC3    C210036   1.959   3.777  17.555  0.1252 -0.2801  0.2967
  675TMC3    C310037   1.985   3.710  17.673  0.4216 -0.7034 -0.3567
  675TMC3    C410038   2.188   3.808  17.525 -0.4998  0.6286 -0.2233
  675TMC3    C510039   2.210   3.730  17.633  0.0369 -0.5885  0.5159
  675TMC3    C610040   2.110   3.673  17.708 -0.5121  0.7267 -0.2998
  675TMC3     C10041   2.035   3.968  17.469 -0.0351  0.3174 -0.1796
  675TMC3     O10042   2.103   4.050  17.528  0.2880 -0.7139  0.1863
  675TMC3     H10043   1.854   3.783  17.528 -0.7157 -1.5822  3.2162
  675TMC3    H110044   2.274   3.862  17.487  0.6546 -1.8702 -1.1649
  675TMC3    H210045   2.140   3.627   0.046 -0.9955 -0.7399 -0.8557
  675TMC3    C710046   2.347   3.710  17.693 -0.7847 -0.2162  0.2485
  675TMC3    C810047   1.875   3.662  17.751 -1.0793 -0.9148  0.2068
  675TMC3    O110048   2.438   3.723  17.606 -0.5061 -0.2869 -0.1556
  675TMC3    O210049   1.774   3.632  17.692 -0.0103  0.0336  0.2554
  676MPD2     C10050   4.355   2.774  11.130  0.2647  0.2914  0.3599
  676MPD2    C110051   4.243   2.721  11.197 -1.0514 -0.7461  0.1661
  676MPD2    C210052   4.205   2.594  11.165 -0.1978  0.5112 -0.2150
  676MPD2    C310053   4.280   2.513  11.080 -0.2484 -0.3945 -0.0794
  676MPD2    C410054   4.395   2.567  11.038  0.2165 -0.5339  0.6449
  676MPD2    C510055   4.427   2.698  11.053  0.0372  0.0425 -0.5670
  676MPD2     H10056   4.111   2.557  11.203  1.2114 -1.0362  1.7531
  676MPD2    H110057   4.460   2.497  10.986 -1.6619 -0.4925 -1.7617
  676MPD2    H210058   4.395   2.871  11.154 -0.3718  0.1958  1.8313
  676MPD2    H310059   4.520   2.744  11.020 -0.4056  3.7187  3.1951
  676MPD2     N10060   4.240   2.379  11.046  0.8983  0.2923  0.2339
  676MPD2    H510061   4.153   2.346  11.087  0.9740 -0.6608 -0.3806
  676MPD2    N110062   4.158   2.798  11.281 -0.1061 -0.2650  0.5226
  676MPD2    H710063   4.083   2.746  11.325 -0.7798  1.4504  1.3808
  677TMC3    C110064   4.078   2.994  11.404 -0.2650  0.2584  0.2385
  677TMC3    C210065   3.970   2.923  11.445  0.2001  0.4971  0.5397
  677TMC3    C310066   3.921   2.942  11.572 -0.2625  0.9508  0.1712
  677TMC3    C410067   4.127   3.098  11.487 -0.4115 -0.3065  0.0502
  677TMC3    C510068   4.069   3.120  11.612  0.4899 -0.3886  0.0374
  677TMC3    C610069   3.970   3.037  11.656  0.4921 -0.1768  0.1968
  677TMC3     C10070   4.178   2.930  11.319  0.0502  0.1928  0.1909
  677TMC3     O10071   4.267   3.007  11.282  0.3073 -0.1215  0.1035
  677TMC3     H10072   3.920   2.862  11.370  2.3436  0.6346 -1.0231
  677TMC3    H110073   4.213   3.155  11.453 -1.1731 -0.9746 -3.0158
  677TMC3    H210074   3.924   3.043  11.754  0.6520  0.2594  0.2467
  677TMC3    C710075   4.146   3.181  11.719  0.1894  0.0988  0.1583
  677TMC3    C810076   3.795   2.880  11.598 -0.1695 -0.2259  0.0888
  677TMC3    O110077   4.094   3.209  11.830 -0.2678  0.5296  0.4546
  677TMC3    O210078   3.716   2.903  11.508  0.3903 -0.3980 -0.7631
  678MPD2     C10079   1.102   2.626   1.317 -0.2534 -0.7220  0.2871
  678MPD2    C110080   1.071   2.596   1.184  0.7166 -0.0339  0.1221
  678MPD2    C210081   0.940   2.609   1.141  0.4322  0.9789 -0.7824
  678MPD2    C310082   0.846   2.662   1.226  0.3498  0.4677  0.2339
  678MPD2    C410083   0.878   2.698   1.353 -0.1223  0.8449  0.6747
  678MPD2    C510084   1.005   2.682   1.397 -0.8062  0.1909  0.2855
  678MPD2     H10085   0.911   2.581   1.040 -3.5557 -1.8702  1.1737
  678MPD2    H110086   0.812   2.737   1.429  0.9989  2.1948  0.9476
  678MPD2    H210087   1.200   2.602   1.355 -0.1660  0.1490  0.6161
  678MPD2    H310088   1.021   2.703   1.502 -1.4736  4.3827 -0.4554
  678MPD2     N10089   0.711   2.658   1.187 -0.6529 -1.0512  0.0451
  678MPD2    H510090   0.695   2.623   1.093  0.5733 -0.5778 -0.3302
  678MPD2    N110091   1.159   2.531   1.103  0.0966  0.5651 -0.2054
  678MPD2    H710092   1.139   2.531   1.004 -2.5618  0.1391  0.3308
  679TMC3    C110093   1.578   2.316   1.010 -0.3446  0.4659 -0.2273
  679TMC3    C210094   1.465   2.330   1.087 -0.1809  0.1799 -0.0456
  679TMC3    C310095   1.368   2.419   1.046 -0.3830  0.1443 -0.0119
  679TMC3    C410096   1.606   2.402   0.907 -0.3010 -0.6487 -0.1371
  679TMC3    C510097   1.513   2.498   0.876  0.1886  0.2947  0.2010
  679TMC3    C610098   1.387   2.503   0.935  0.4504 -0.4936 -0.3527
  679TMC3     C10099   1.649   2.192   0.995 -0.2461 -0.2252  0.4838
  679TMC3     O10100   1.761   2.191   0.941  0.2999 -0.1302 -0.0869
  679TMC3     H10101   1.448   2.258   1.167  0.3827 -0.7364 -0.7553
  679TMC3    H110102   1.692   2.386   0.843  0.4224  1.5638  0.3045
  679TMC3    H210103   1.329   2.592   0.912 -1.4796 -1.0859  2.3493
  679TMC3    C710104   1.555   2.605   0.790  0.5934  0.6638 -0.4983
  679TMC3    C810105   1.264   2.457   1.147 -0.4084  0.1149  0.1022
  679TMC3    O110106   1.470   2.682   0.756  0.0247 -0.3994 -0.7733
  679TMC3    O210107   1.287   2.410   1.257 -0.0023  0.4373 -0.5071
  680MPD2     C10108   1.513   1.560  13.303 -0.7500 -0.4348  0.6591
  680MPD2    C110109   1.487   1.502  13.425  0.2802 -0.3379 -0.1690
  680MPD2    C210110   1.472   1.587  13.540  0.3932 -0.0459 -0.0544
  680MPD2    C310111   1.488   1.728  13.530 -0.1642 -0.5630  0.4280
  680MPD2    C410112   1.507   1.790  13.400  0.2133  0.2107 -0.2032
  680MPD2    C510113   1.530   1.697  13.291 -0.2528  0.1650  0.3276
  680MPD2     H10114   1.473   1.544  13.639  0.2448 -0.0184 -0.0399
  680MPD2    H110115   1.502   1.896  13.378 -1.5185  0.1207 -0.2457
  680MPD2    H210116   1.538   1.507  13.211 -1.9741  0.5091 -0.2131
  680MPD2    H310117   1.554   1.749  13.199 -0.2520 -0.6591 -0.1374
  680MPD2     N10118   1.493   1.821  13.635  0.1296 -0.2746 -0.3506
  680MPD2    H510119   1.523   1.917  13.622 -1.6149  0.3883  0.5318
  680MPD2    N110120   1.500   1.364  13.451 -0.0006  0.0073  0.2978
  680MPD2    H710121   1.459   1.329  13.537  0.0712  0.9837  0.7321
  681TMC3    C110122   1.556   1.148  13.394  0.6106  0.0689 -1.0392
  681TMC3    C210123   1.453   1.086  13.468 -0.3971  0.1764  0.7835
  681TMC3    C310124   1.452   0.952  13.467 -0.2868  0.1234 -0.7269
  681TMC3    C410125   1.638   1.075  13.323 -0.3145  0.0284  0.1545
  681TMC3    C510126   1.632   0.936  13.332  0.0622 -0.1120  0.6874
  681TMC3    C610127   1.536   0.870  13.400 -0.5939  0.5226  0.4149
  681TMC3     C10128   1.562   1.285  13.360  0.3285  0.4960  0.7479
  681TMC3     O10129   1.645   1.322  13.278 -0.1890 -0.3833  0.4440
  681TMC3     H10130   1.384   1.139  13.533  0.6970 -0.4561  2.4416
  681TMC3    H110131   1.727   1.119  13.279  0.3529 -1.7709 -0.2843
  681TMC3    H210132   1.539   0.763  13.414 -1.2481  0.5359  0.6582
  681TMC3    C710133   1.741   0.866  13.268  0.2457 -0.2227 -0.1250
  681TMC3    C810134   1.372   0.889  13.568 -0.8618 -0.1453 -0.2216
  681TMC3    O110135   1.804   0.780  13.327  0.5460  0.0983  0.3007
  681TMC3    O210136   1.313   0.790  13.528 -0.4080 -0.4342 -1.0758
  682MPD2     C10137   3.477   3.422  10.841  0.1825 -0.2000 -0.4335
  682MPD2    C110138   3.383   3.328  10.867  0.1441  0.7306 -0.1145
  682MPD2    C210139   3.331   3.318  10.997 -0.5178  0.1176 -0.1684
  682MPD2    C310140   3.386   3.384  11.107 -0.0527  0.1205  0.4431
  682MPD2    C410141   3.482   3.476  11.076  0.4066 -0.3603  0.2177
  682MPD2    C510142   3.531   3.491  10.943 -0.1615 -0.3116  0.2963
  682MPD2     H10143   3.252   3.246  11.017 -1.5019  1.1673 -0.3324
  682MPD2    H110144   3.529   3.534  11.155  0.1523  0.7221 -0.4267
  682MPD2    H210145   3.512   3.454  10.743 -0.5919  0.7732 -0.3959
  682MPD2    H310146   3.614   3.557  10.924  0.6039 -1.4481 -0.2870
  682MPD2     N10147   3.344   3.359  11.241  0.1182 -0.6228  1.2905
  682MPD2    H510148   3.401   3.403  11.313  0.7999  0.6819 -0.0379
  682MPD2    N110149   3.332   3.240  10.770  0.2260 -0.1599 -0.3312
  682MPD2    H710150   3.275   3.162  10.800  0.4319  0.1990  0.9832
  683TMC3    C110151   3.265   3.382  11.641  0.4204  0.3417  0.3527
  683TMC3    C210152   3.140   3.365  11.679  1.1059 -0.5348 -0.1034
  683TMC3    C310153   3.051   3.326  11.588 -0.0340  0.0370  0.4325
  683TMC3    C410154   3.308   3.350  11.516 -0.3696 -0.1367 -0.3372
  683TMC3    C510155   3.205   3.328  11.423 -0.7380 -0.3511  0.0955
  683TMC3    C610156   3.073   3.316  11.453 -0.1663 -0.0557  0.0606
  683TMC3     C10157   3.356   3.375  11.750 -0.8307 -0.4379  0.5465
  683TMC3     O10158   3.364   3.478  11.820 -0.3283 -0.4549 -0.5950
  683TMC3     H10159   3.112   3.361  11.783 -1.4571 -1.9482 -0.8429
  683TMC3    H110160   3.413   3.356  11.490 -1.0445  0.2907 -2.9485
  683TMC3    H210161   2.997   3.274  11.389 -2.4194 -0.1277  2.7871
  683TMC3    C710162   3.233   3.297  11.283  0.1868 -0.0880  0.1492
  683TMC3    C810163   2.940   3.254  11.645 -0.1645 -0.0700  0.1355
  683TMC3    O110164   3.150   3.232  11.225 -0.8824 -0.2174  0.1971
  683TMC3    O210165   2.894   3.320  11.736 -0.0268  0.1476 -0.3607
  684MPD2     C10166   1.713   2.105  15.979 -0.1864 -0.6137  0.7126
  684MPD2    C110167   1.680   2.159  15.857 -0.1409  0.2154 -0.1315
  684MPD2    C210168   1.666   2.297  15.847  0.9891 -0.1431  0.4064
  684MPD2    C310169   1.675   2.379  15.956 -0.1269  0.4483 -0.1004
  684MPD2    C410170   1.682   2.318  16.079 -0.6644  0.4096  0.9527
  684MPD2    C510171   1.704   2.188  16.091 -0.9774 -0.0545 -1.1920
  684MPD2     H10172   1.659   2.336  15.747 -0.3791  0.4447  0.7188
  684MPD2    H110173   1.683   2.366  16.176 -1.2939 -0.3211  1.3199
  684MPD2    H210174   1.739   2.001  15.991  3.5298  0.1064 -1.1113
  684MPD2    H310175   1.723   2.150  16.191  0.2242 -0.8731 -1.7460
  684MPD2     N10176   1.665   2.514  15.945  0.2553  0.2487 -0.0189
  684MPD2    H510177   1.705   2.571  16.018  1.2542  1.0002 -1.1494
  684MPD2    N110178   1.691   2.089  15.737 -0.1031  0.4555 -0.1354
  684MPD2    H710179   1.667   2.138  15.652  0.8579  0.7114 -0.2562
  685TMC3    C110180   1.766   1.948  15.578 -0.5688 -0.2221  0.5863
  685TMC3    C210181   1.663   1.989  15.507 -0.5234  0.1632 -0.1783
  685TMC3    C310182   1.694   2.023  15.375 -0.4309  0.0134 -0.2186
  685TMC3    C410183   1.896   1.933  15.539  0.3783  0.5680  0.0918
  685TMC3    C510184   1.921   1.974  15.417  0.1519 -0.5031 -0.1257
  685TMC3    C610185   1.820   2.024  15.337 -0.0698  0.1114 -0.2115
  685TMC3     C10186   1.750   1.969  15.722  0.1890  0.3872 -0.4687
  685TMC3     O10187   1.812   1.891  15.795  0.3434  0.4784 -0.1312
  685TMC3     H10188   1.562   1.980  15.545 -0.4700 -1.0471 -0.3072
  685TMC3    H110189   1.963   1.890  15.612 -1.1291 -2.8178 -0.5106
  685TMC3    H210190   1.847   2.079  15.247 -0.8649 -0.6242 -0.8988
  685TMC3    C710191   2.056   2.018  15.394 -0.3723  0.2496 -0.3333
  685TMC3    C810192   1.586   2.010  15.274  0.4540 -0.1228  0.3779
  685TMC3    O110193   2.084   2.050  15.279 -0.0546  0.1827  0.2358
  685TMC3    O210194   1.607   1.967  15.164 -0.6350  0.2489 -0.1011
  686MPD2     C10195   3.382   2.714  15.317 -0.5368 -0.5888  0.3364
  686MPD2    C110196   3.388   2.585  15.343 -0.0420  0.1148  0.5898
  686MPD2    C210197   3.420   2.501  15.234  0.2235  0.0805 -0.4602
  686MPD2    C310198   3.429   2.546  15.101 -0.5054 -0.0137  0.1040
  686MPD2    C410199   3.421   2.679  15.079  0.3349  0.4849  0.1756
  686MPD2    C510200   3.405   2.764  15.192 -0.3361 -0.2420  0.2087
  686MPD2     H10201   3.438   2.396  15.252 -1.3778 -0.1802 -0.3760
  686MPD2    H110202   3.434   2.723  14.981  2.3642 -0.3631  0.0724
  686MPD2    H210203   3.349   2.776  15.399 -2.7773 -1.3814  0.0283
  686MPD2    H310204   3.405   2.872  15.186 -0.8016 -0.3109 -1.0409
  686MPD2     N10205   3.450   2.462  14.991 -0.4331 -0.7577 -0.5581
  686MPD2    H510206   3.446   2.510  14.902  1.2074 -0.9023 -0.7166
  686MPD2    N110207   3.350   2.548  15.466 -0.1099 -0.5643 -0.4349
  686MPD2    H710208   3.334   2.623  15.533 -2.7300 -0.3742 -1.2724
  687TMC3    C110209   3.417   2.236  15.077  0.2485  0.2666  0.1913
  687TMC3    C210210   3.283   2.246  15.117  0.0797  0.4249  0.1454
  687TMC3    C310211   3.228   2.158  15.208 -0.3671  0.2552 -0.4476
  687TMC3    C410212   3.480   2.117  15.112  0.3019  0.3528 -0.5964
  687TMC3    C510213   3.419   2.033  15.206 -0.0432  0.4854  0.0310
  687TMC3    C610214   3.292   2.052  15.254 -0.4809  0.2415 -0.5604
  687TMC3     C10215   3.478   2.331  14.989 -0.2509  1.0613 -0.6203
  687TMC3     O10216   3.538   2.273  14.895  0.1687 -0.7392 -0.2931
  687TMC3     H10217   3.218   2.322  15.077 -0.0081  0.5643  0.5579
  687TMC3    H110218   3.580   2.097  15.077  1.2788  2.0067  1.2777
  687TMC3    H210219   3.253   1.977  15.322  3.2325  0.2440  1.5617
  687TMC3    C710220   3.506   1.933  15.273 -0.1920  0.7645 -0.0833
  687TMC3    C810221   3.117   2.200  15.297 -0.1998 -0.3797 -0.4185
  687TMC3    O110222   3.477   1.901  15.388 -0.3452  0.1356 -0.8531
  687TMC3    O210223   3.077   2.122  15.383  0.6226 -0.3562 -0.0768
  688MPD2     C10224   2.338   0.907  17.254 -0.0636  0.0786 -0.3510
  688MPD2    C110225   2.435   0.839  17.326 -0.0964 -1.0746  0.2174
  688MPD2    C210226   2.567   0.843  17.281  0.0208  0.0933  0.0956
  688MPD2    C310227   2.594   0.910  17.169  0.1189 -0.4006 -0.6993
  688MPD2    C410228   2.497   0.979  17.098 -0.2873  0.2219 -0.0342
  688MPD2    C510229   2.365   0.972  17.136 -0.2224 -0.3386 -0.0934
  688MPD2     H10230   2.641   0.781  17.329 -0.2466  0.0758  0.4885
  688MPD2    H110231   2.513   1.045  17.014  0.4290 -0.5851 -0.5364
  688MPD2    H210232   2.236   0.906  17.290  1.1097  1.5473  2.9493
  688MPD2    H310233   2.283   1.026  17.090  0.5262  0.2661 -0.7156
  688MPD2     N10234   2.723   0.910  17.110  0.5230  0.1585 -0.5521
  688MPD2    H510235   2.733   0.958  17.022  0.2790  2.2661  0.5621
  688MPD2    N110236   2.404   0.779  17.451  0.3014  0.3102 -0.2274
  688MPD2    H710237   2.476   0.736  17.508  0.3166  0.0417 -0.4547
  689TMC3    C110238   2.278   0.724  17.634  0.6336  0.7400 -0.1293
  689TMC3    C210239   2.211   0.788  17.736  0.2231 -0.0603 -0.9655
  689TMC3    C310240   2.176   0.711   0.091 -0.2825  0.3944  0.6168
  689TMC3    C410241   2.292   0.585  17.627 -0.4625  0.5873 -0.0261
  689TMC3    C510242   2.248   0.517  17.738 -0.5840  0.2043  0.2627
  689TMC3    C610243   2.202   0.583   0.094 -1.0979  0.5289 -0.2429
  689TMC3     C10244   2.290   0.800  17.517 -0.1583  0.3149  0.0095
  689TMC3     O10245   2.196   0.880  17.501  0.3055 -0.2068  0.3049
  689TMC3     H10246   2.211   0.896  17.728  0.3613 -0.0056 -0.1743
  689TMC3    H110247   2.322   0.547  17.530 -1.1035 -1.1632  0.4555
  689TMC3    H210248   2.189   0.520   0.182  0.2456 -2.2806 -2.0596
  689TMC3    C710249   2.233   0.376  17.735  0.3946 -0.1436 -0.8550
  689TMC3    C810250   2.100   0.772   0.203  0.1785 -0.2069 -0.2711
  689TMC3    O110251   2.257   0.322   0.088 -0.6036 -0.0709 -0.2149
  689TMC3    O210252   2.083   0.704   0.305 -0.2261  0.2331 -0.0461
  690MPD2     C10253   0.050   2.994  15.634 -0.6208  0.3415 -0.2202
  690MPD2    C110254   0.040   2.904  15.530 -0.2950  0.2142  0.3236
  690MPD2    C210255   0.146   2.894  15.437  0.9067 -0.0428  0.0769
  690MPD2    C310256   0.258   2.972  15.450 -0.3364 -0.1622  0.7629
  690MPD2    C410257   0.270   3.057  15.560 -0.1145 -0.1380 -0.2245
  690MPD2    C510258   0.164   3.063  15.651  0.5128 -0.3791 -0.2684
  690MPD2     H10259   0.142   2.824  15.354  0.2241 -0.2605  0.2979
  690MPD2    H110260   0.356   3.119  15.581 -0.7710  0.8810 -0.5170
  690MPD2    H210261   4.712   3.002  15.710  0.0326  0.7178  0.3994
  690MPD2    H310262   0.171   3.140  15.726 -4.9647 -1.2380  1.1404
  690MPD2     N10263   0.346   2.978  15.342  0.0444  0.5245 -0.5016
  690MPD2    H510264   0.314   2.929  15.259  0.3582  0.8266 -0.8049
  690MPD2    N110265   4.677   2.811  15.519 -0.3402  0.5787  0.0112
  690MPD2    H710266   4.695   2.726  15.468 -0.8110 -0.5637  1.7344
  691TMC3    C110267   4.474   2.707  15.574 -0.4838  0.1315  0.0517
  691TMC3    C210268   4.335   2.731  15.560 -0.6220 -0.0602  0.4535
  691TMC3    C310269   4.262   2.616  15.541 -0.0547 -0.4524 -0.8110
  691TMC3    C410270   4.533   2.588  15.586 -0.5001  0.0438  0.8975
  691TMC3    C510271   4.451   2.482  15.583 -0.2157  0.3818 -0.3105
  691TMC3    C610272   4.316   2.494  15.558 -0.7516 -0.0764 -0.3738
  691TMC3     C10273   4.557   2.825  15.592 -0.2526  0.2544 -0.6449
  691TMC3     O10274   4.505   2.924  15.639 -0.2204  0.0511  0.2599
  691TMC3     H10275   4.295   2.824  15.524  1.2840  0.9524  0.9511
  691TMC3    H110276   4.636   2.577  15.617 -0.7721 -2.8998  0.7959
  691TMC3    H210277   4.247   2.410  15.564 -2.2479  1.1606 -0.3910
  691TMC3    C710278   4.508   2.360  15.631  0.2008  0.3951 -0.4633
  691TMC3    C810279   4.119   2.627  15.502  0.9037 -0.1204 -0.0331
  691TMC3    O110280   4.610   2.372  15.703 -0.9548 -0.5962 -0.3295
  691TMC3    O210281   4.066   2.527  15.450  0.3353  0.6528  0.1708
  692TMC3    C110282   1.225   3.954  15.739  0.2039 -0.1785  0.4602
  692TMC3    C210283   1.342   3.976  15.808  0.1542 -0.4280 -0.0709
  692TMC3    C310284   1.428   3.871  15.806 -0.0340 -0.3096  1.1898
  692TMC3    C410285   1.195   3.829  15.683  0.5697 -0.2971  0.3602
  692TMC3    C510286   1.282   3.726  15.707 -0.2210  0.2396  0.2809
  692TMC3    C610287   1.405   3.741  15.766 -0.6123 -0.4139  0.7402
  692TMC3     C10288   1.123   4.048  15.755 -0.2913  0.1946  0.3381
  692TMC3     O10289   1.008   4.011  15.744  0.3603  0.1274  0.0416
  692TMC3     H10290   1.366   4.078  15.837  0.6114 -0.5752  0.0577
  692TMC3    H110291   1.099   3.810  15.638  0.1086  2.4148  0.1706
  692TMC3    H210292   1.484   3.668  15.763 -1.0802 -0.8023 -2.2516
  692TMC3    C710293   1.252   3.608  15.634 -0.0244 -0.1209 -0.3558
  692TMC3    C810294   1.511   3.866  15.924 -0.0150 -0.1856 -0.3844
  692TMC3    O110295   1.180   3.618  15.534  0.2676 -0.5047  0.1544
  692TMC3    O210296   1.599   3.782  15.924 -0.3212 -0.8364  0.0568
  693MPD2     C10297   0.547   2.160  10.919  0.5181 -0.6706 -0.5045
  693MPD2    C110298   0.532   2.052  10.999  0.3620  0.0021 -0.3221
  693MPD2    C210299   0.632   2.007  11.084 -0.2062  0.1579  0.2584
  693MPD2    C310300   0.754   2.073  11.074  0.2433 -0.4219 -0.6671
  693MPD2    C410301   0.766   2.189  11.007  0.3257 -0.2284  0.7592
  693MPD2    C510302   0.660   2.236  10.937 -0.1331  0.2079  0.2528
  693MPD2     H10303   0.609   1.915  11.136 -0.6680 -0.7743 -1.5984
  693MPD2    H110304   0.849   2.259  11.011  2.3917 -2.5145 -1.3890
  693MPD2    H210305   0.469   2.210  10.861  0.6590  2.3793  1.9128
  693MPD2    H310306   0.673   2.327  10.878  0.7305 -0.3103 -0.3629
  693MPD2     N10307   0.873   2.007  11.119 -0.1081 -0.1875 -0.4360
  693MPD2    H510308   0.957   2.060  11.094  1.3448 -1.4001  1.9159
  693MPD2    N110309   0.416   1.976  10.994  0.0451 -0.1720 -0.3648
  693MPD2    H710310   0.411   1.885  11.039 -2.7641  1.6355  2.9751
  694TMC3    C110311   0.207   1.899  10.912  0.8967 -0.4843 -0.2140
  694TMC3    C210312   0.180   1.818  10.800  0.0230  0.0466  0.1309
  694TMC3    C310313   0.119   1.700  10.821 -0.4859 -0.2062  0.3199
  694TMC3    C410314   0.195   1.848  11.038 -1.1147 -0.6090 -0.3407
  694TMC3    C510315   0.126   1.733  11.049  0.0747  0.5244  0.4235
  694TMC3    C610316   0.092   1.655  10.945 -0.3119 -0.0500  0.5119
  694TMC3     C10317   0.316   1.993  10.898 -1.0728  0.8732 -0.2123
  694TMC3     O10318   0.315   2.057  10.796 -0.2148 -0.6028  0.5397
  694TMC3     H10319   0.217   1.857  10.705 -2.4117  0.3136 -0.6905
  694TMC3    H110320   0.228   1.900  11.127 -1.6933  0.2058 -0.6091
  694TMC3    H210321   0.046   1.558  10.961 -0.0113  0.0878  2.2550
  694TMC3    C710322   0.118   1.673  11.174 -0.2242  0.1892  0.6218
  694TMC3    C810323   0.076   1.615  10.716 -0.1246  1.1307 -0.2198
  694TMC3    O110324   0.110   1.750  11.270 -0.0950  0.2427 -0.1855
  694TMC3    O210325   0.037   1.504  10.737 -0.0855 -0.2213  0.1244
  695MPD2     C10326   2.229   3.647  13.222 -0.2728  0.3704 -0.6768
  695MPD2    C110327   2.139   3.677  13.323  1.0792  0.2769 -0.3779
  695MPD2    C210328   2.010   3.717  13.293  0.7137  0.0419 -0.3616
  695MPD2    C310329   1.976   3.728  13.160 -0.2433 -0.4134 -0.3838
  695MPD2    C410330   2.072   3.713  13.059  0.2476  0.2118  0.0371
  695MPD2    C510331   2.190   3.650  13.088 -0.2479  0.4396 -0.0927
  695MPD2     H10332   1.935   3.733  13.369  2.3675  0.5194  1.1485
  695MPD2    H110333   2.046   3.726  12.954 -2.4018  2.0828  0.9238
  695MPD2    H210334   2.327   3.611  13.250  0.2503  1.3437 -1.2499
  695MPD2    H310335   2.258   3.619  13.010  0.7145  3.0954 -0.3027
  695MPD2     N10336   1.838   3.759  13.132 -1.5077  0.4109 -1.0735
  695MPD2    H510337   1.784   3.799  13.208 -1.3993 -0.3112 -0.6092
  695MPD2    N110338   2.171   3.653  13.456 -0.0689 -0.0144  0.8456
  695MPD2    H710339   2.105   3.686  13.525 -0.7178 -1.2714  0.8247
  696TMC3    C110340   1.647   3.821  13.032 -1.1480 -0.0707  1.1781
  696TMC3    C210341   1.565   3.771  13.129  0.2718  0.1296  0.3610
  696TMC3    C310342   1.456   3.846  13.153  0.2632  0.2388 -0.4713
  696TMC3    C410343   1.609   3.913  12.945 -0.7101  0.1909 -0.2944
  696TMC3    C510344   1.487   3.973  12.967 -0.3460  0.3784  0.1389
  696TMC3    C610345   1.424   3.949  13.079  0.4530  0.9013  0.6529
  696TMC3     C10346   1.775   3.763  13.012  0.1095  0.3061 -0.7476
  696TMC3     O10347   1.815   3.740  12.898  0.3299  0.8487 -0.1325
  696TMC3     H10348   1.601   3.695  13.197 -1.4329  0.5222  1.7146
  696TMC3    H110349   1.675   3.930  12.861 -1.9796  0.2902 -1.2798
  696TMC3    H210350   1.326   3.985  13.108  0.1349 -0.0685  0.7960
  696TMC3    C710351   1.481   4.106  12.926 -0.0243  0.0847 -0.6676
  696TMC3    C810352   1.427   3.851  13.293  0.0170  0.1564  0.3121
  696TMC3    O110353   1.560   4.129  12.832  0.3366 -0.1490  0.6439
  696TMC3    O210354   1.487   3.933  13.361  0.1656  0.1401  0.5922
  697MPD2     C10355   1.177   0.677  15.308  0.9791 -0.7776  0.0504
  697MPD2    C110356   1.105   0.652  15.194 -0.5734 -0.1440 -0.2080
  697MPD2    C210357   1.091   0.752  15.104  0.2103 -0.0256 -0.2897
  697MPD2    C310358   1.137   0.877  15.136  0.2266  0.6399  0.5676
  697MPD2    C410359   1.213   0.901  15.248  0.7135 -0.2275  0.6469
  697MPD2    C510360   1.234   0.793  15.332 -0.5050 -0.5307 -0.3146
  697MPD2     H10361   1.019   0.730  15.027  0.4164  1.5367 -0.9234
  697MPD2    H110362   1.259   0.996  15.274 -0.1796  1.0004 -2.2293
  697MPD2    H210363   1.206   0.600  15.379  1.1103  0.3582  1.2250
  697MPD2    H310364   1.298   0.792  15.420  0.6955 -2.2841 -1.2056
  697MPD2     N10365   1.106   0.968  15.038 -0.3761 -0.2232  0.0331
  697MPD2    H510366   1.048   0.933  14.962  0.5990  1.2585 -1.4064
  697MPD2    N110367   1.050   0.524  15.167 -0.0912  0.0157  0.6190
  697MPD2    H710368   1.016   0.503  15.073  0.1335  0.5623  0.4178
  698TMC3    C110369   1.071   1.170  14.938  0.5845 -0.5226 -0.3640
  698TMC3    C210370   1.087   1.303  14.956 -0.2701  0.9098 -0.8857
  698TMC3    C310371   1.042   1.381  14.855 -0.7199 -0.4218  0.2743
  698TMC3    C410372   1.007   1.105  14.834  0.4975 -0.3074  0.3473
  698TMC3    C510373   0.957   1.193  14.733 -0.3562  0.2699  0.3832
  698TMC3    C610374   0.974   1.331  14.741  0.0895 -0.1235 -0.6278
  698TMC3     C10375   1.146   1.097  15.037  0.0285 -0.1524 -0.1402
  698TMC3     O10376   1.237   1.153  15.094 -0.1819  0.3247 -0.2602
  698TMC3     H10377   1.142   1.346  15.039 -0.7236  0.8808 -0.5630
  698TMC3    H110378   1.006   0.998  14.816 -2.4370 -0.1583 -0.3366
  698TMC3    H210379   0.954   1.389  14.652  1.9364  1.6299  0.0993
  698TMC3    C710380   0.923   1.128  14.611 -0.1417 -0.1910 -0.0707
  698TMC3    C810381   1.099   1.504  14.827 -0.4243 -0.0864  0.6760
  698TMC3    O110382   0.944   1.188  14.508  0.0856 -0.3344 -0.1677
  698TMC3    O210383   1.029   1.580  14.763 -0.8244  0.0429 -0.0454
  699TMC3    C110384   1.242   3.774  12.715 -0.1846 -0.2834 -0.2929
  699TMC3    C210385   1.295   3.653  12.750 -0.0264  0.1658 -0.3628
  699TMC3    C310386   1.211   3.560  12.800  0.7523  0.0271 -0.1437
  699TMC3    C410387   1.104   3.797  12.732  0.3132 -0.1785 -0.3618
  699TMC3    C510388   1.025   3.696  12.798  0.1797 -0.0498 -0.2308
  699TMC3    C610389   1.079   3.573  12.825  0.1074 -0.1863 -0.2545
  699TMC3     C10390   1.314   3.879  12.640 -0.1447  0.3188  0.0669
  699TMC3     O10391   1.241   3.971  12.604 -0.2921 -0.2475 -0.0469
  699TMC3     H10392   1.398   3.630  12.725  0.2086  1.9987 -1.1429
  699TMC3    H110393   1.063   3.894  12.707 -2.1301 -0.8590  0.9956
  699TMC3    H210394   1.019   3.485  12.845  1.0912 -1.3118 -2.2596
  699TMC3    C710395   0.897   3.721  12.859 -0.0222 -0.7744 -0.9751
  699TMC3    C810396   1.272   3.445  12.861  0.0446 -0.0445  0.0546
  699TMC3    O110397   0.848   3.626  12.918 -0.5559  0.3648 -0.6017
  699TMC3    O210398   1.207   3.344  12.873 -0.3758 -0.1861 -0.4757
  700TMC3    C110399   0.472   1.337  17.571  0.0368 -0.0944 -0.2868
  700TMC3    C210400   0.556   1.241  17.537 -0.6729  0.6849  0.5022
  700TMC3    C310401   0.678   1.229  17.593  0.5549 -0.2947  0.4755
  700TMC3    C410402   0.507   1.439  17.658 -0.6541  0.4038 -0.6265
  700TMC3    C510403   0.638   1.435  17.706  0.1474  0.0590  0.4019
  700TMC3    C610404   0.723   1.328  17.682  0.1616 -0.2072 -1.0454
  700TMC3     C10405   0.397   1.395  17.465 -0.1635  0.0862 -0.1155
  700TMC3     O10406   0.280   1.349  17.458 -0.1005 -0.1578 -0.3753
  700TMC3     H10407   0.534   1.186  17.446  0.8652  2.3475 -0.8725
  700TMC3    H110408   0.461   1.536  17.641  0.8395  1.2687  0.2164
  700TMC3    H210409   0.830   1.338  17.702  0.0824  0.3816 -0.9194
  700TMC3    C710410   0.694   1.546   0.025 -0.1779 -0.4427 -0.4460
  700TMC3    C810411   0.786   1.178  17.508  0.5271  0.8271 -0.5188
  700TMC3    O110412   0.815   1.549   0.033 -0.2006  0.5318 -0.3338
  700TMC3    O210413   0.768   1.169  17.387  0.2161 -0.4736 -0.3247
  701TMC3    C110414   0.536   4.525  15.216 -0.4234 -0.0925  0.5982
  701TMC3    C210415   0.627   4.496  15.125  0.1389  0.0535 -0.8890
  701TMC3    C310416   0.723   4.590  15.083 -0.1369  0.2925  1.0259
  701TMC3    C410417   0.529   4.647  15.270 -0.3267  0.5055 -0.0194
  701TMC3    C510418   0.616   0.002  15.230  0.0962 -0.0547 -0.0260
  701TMC3    C610419   0.717   4.710  15.142  0.7117 -0.4033  0.6440
  701TMC3     C10420   0.444   4.421  15.262 -0.3375 -1.1038  0.3098
  701TMC3     O10421   0.333   4.456  15.298 -0.3302  0.2173 -0.2891
  701TMC3     H10422   0.625   4.393  15.092  2.1865 -0.0223 -0.7891
  701TMC3    H110423   0.462   4.666  15.353 -0.1584  0.0423  0.2287
  701TMC3    H210424   0.787   0.049  15.115  0.4912 -1.1028 -1.9532
  701TMC3    C710425   0.613   0.135  15.288 -0.6541 -0.6196  0.2560
  701TMC3    C810426   0.776   4.601  14.951 -0.4067  0.3960  0.8186
  701TMC3    O110427   0.657   0.214  15.208 -0.0526 -0.7406 -0.1507
  701TMC3    O210428   0.851   4.694  14.928  0.3429 -0.3196 -0.3672
  702MPD2     C10429   4.283   2.083  10.337 -0.6145 -0.6428 -0.2886
  702MPD2    C110430   4.231   2.168  10.433 -0.0832  0.2196  0.0834
  702MPD2    C210431   4.197   2.296  10.390  0.6203 -0.2355 -0.3085
  702MPD2    C310432   4.230   2.344  10.270  0.1950 -0.4367 -0.4154
  702MPD2    C410433   4.295   2.258  10.179 -0.3476 -0.0876  0.5220
  702MPD2    C510434   4.314   2.129  10.212  0.1006  0.3163  0.4687
  702MPD2     H10435   4.139   2.354  10.461 -0.0844 -0.7185 -0.4892
  702MPD2    H110436   4.309   2.295  10.078  1.1854  0.8129  1.0634
  702MPD2    H210437   4.315   1.984  10.366  0.5964 -0.1809 -0.0473
  702MPD2    H310438   4.354   2.057  10.142  0.3792  1.2253 -0.3030
  702MPD2     N10439   4.206   2.478  10.230  0.3412 -0.4426 -0.2723
  702MPD2    H510440   4.253   2.511  10.146  0.2483  1.3730  0.4050
  702MPD2    N110441   4.207   2.134  10.566  0.0052  0.0719  0.2809
  702MPD2    H710442   4.185   2.212  10.627 -1.5031 -0.2753  0.1754
  703TMC3    C110443   4.219   2.698  10.292  0.0827  0.1248  0.7102
  703TMC3    C210444   4.142   2.806  10.316  0.6282 -0.8538  0.3007
  703TMC3    C310445   4.192   2.922  10.266 -0.4623 -0.3960 -0.1282
  703TMC3    C410446   4.346   2.704  10.247  0.0126 -0.2106 -0.0242
  703TMC3    C510447   4.388   2.830  10.204 -0.1657 -0.1959 -0.2063
  703TMC3    C610448   4.311   2.941  10.206 -0.4457  0.0375  0.5428
  703TMC3     C10449   4.156   2.573  10.308 -0.3985  0.3778  0.5133
  703TMC3     O10450   4.060   2.558  10.385 -0.2951  0.4045 -0.0238
  703TMC3     H10451   4.037   2.796  10.339  0.3682 -1.3710 -1.1097
  703TMC3    H110452   4.411   2.619  10.232  0.6281 -0.1076  2.0829
  703TMC3    H210453   4.366   3.034  10.203  0.8689 -0.7466 -0.0116
  703TMC3    C710454   4.535   2.849  10.192 -0.4100  0.5807  0.1649
  703TMC3    C810455   4.112   3.044  10.300  0.9380  0.2995 -0.2786
  703TMC3    O110456   4.575   2.939  10.118 -0.7181  0.7818  0.5890
  703TMC3    O210457   4.141   3.141  10.230 -0.0265  0.0373 -0.2633
  704TMC3    C110458   2.264   0.488  12.035  0.3897  0.5454  0.0974
  704TMC3    C210459   2.399   0.512  12.010 -1.2385 -0.9191 -0.0587
  704TMC3    C310460   2.481   0.488  12.115  0.6793 -0.0028  0.6544
  704TMC3    C410461   2.208   0.439  12.155  0.0324 -0.7538  0.4858
  704TMC3    C510462   2.297   0.417  12.251 -0.5906  0.1108  0.4922
  704TMC3    C610463   2.428   0.435  12.228 -0.3210  0.3484  0.2507
  704TMC3     C10464   2.173   0.564  11.953 -0.1520  0.5711  0.1343
  704TMC3     O10465   2.057   0.550  11.984 -0.3674  0.3243 -0.0020
  704TMC3     H10466   2.439   0.538  11.913  1.3718  0.0570  1.2895
  704TMC3    H110467   2.101   0.431  12.163  0.1046 -1.3769  0.8044
  704TMC3    H210468   2.492   0.402  12.309  0.2968 -0.3894 -0.5322
  704TMC3    C710469   2.270   0.294  12.324  0.0379  0.3682 -0.1221
  704TMC3    C810470   2.612   0.439  12.069  0.1024 -0.2198  0.3645
  704TMC3    O110471   2.366   0.222  12.342 -0.5323  0.6690 -0.3031
  704TMC3    O210472   2.633   0.424  11.949  0.2431  0.2775 -0.5199
  705MPD2     C10473   1.578   3.306  16.485 -0.0536 -0.3292 -0.1637
  705MPD2    C110474   1.586   3.427  16.413  0.0369 -0.0445 -0.2399
  705MPD2    C210475   1.483   3.527  16.438  0.5370 -0.1997  0.1483
  705MPD2    C310476   1.369   3.496  16.509 -0.0987 -0.7355  0.0309
  705MPD2    C410477   1.358   3.376  16.574  0.0395 -0.1770 -0.0749
  705MPD2    C510478   1.470   3.291  16.569 -0.5124  0.3999  0.4237
  705MPD2     H10479   1.504   3.624  16.395  0.9841 -0.2570  0.2368
  705MPD2    H110480   1.266   3.355  16.627  1.5745 -1.7284  1.9852
  705MPD2    H210481   1.642   3.219  16.474  0.8465  0.2473  0.5329
  705MPD2    H310482   1.471   3.195  16.620  1.9706 -0.7190 -1.7319
  705MPD2     N10483   1.267   3.594  16.529  0.0936 -0.0753 -0.2424
  705MPD2    H510484   1.182   3.551  16.565  0.2387  1.4700  1.9722
  705MPD2    N110485   1.700   3.465  16.338  0.2739 -0.1502  0.2576
  705MPD2    H710486   1.701   3.558  16.296  0.6341 -0.1487  0.2721
  706TMC3    C110487   2.013   3.409  16.003 -0.1514 -0.3640  0.3356
  706TMC3    C210488   2.048   3.539  16.003 -0.2905 -0.4066 -0.1530
  706TMC3    C310489   1.997   3.610  16.107  0.5404 -0.5897  0.5459
  706TMC3    C410490   1.930   3.353  16.093  0.1353 -0.7205  0.3859
  706TMC3    C510491   1.879   3.424  16.193  0.1792 -1.0538 -0.7277
  706TMC3    C610492   1.910   3.560  16.200 -0.2651 -0.1620 -0.6599
  706TMC3     C10493   2.090   3.315  15.910 -0.6238 -0.3665  0.3943
  706TMC3     O10494   2.090   3.201  15.948 -0.0276  0.3928 -0.3211
  706TMC3     H10495   2.132   3.574  15.944  0.8846 -1.7624  0.7048
  706TMC3    H110496   1.903   3.248  16.091  0.0260 -0.6838 -0.1544
  706TMC3    H210497   1.873   3.623  16.281  0.1794 -0.1814 -0.4398
  706TMC3    C710498   1.790   3.373  16.292 -0.8550  0.3024  0.4822
  706TMC3    C810499   1.979   3.753  16.078 -0.5102 -0.2516  0.5309
  706TMC3    O110500   1.794   3.252  16.300 -0.0782 -0.0585 -0.4593
  706TMC3    O210501   1.967   3.783  15.959 -0.0363 -0.2509  0.6660
  707TMC3    C110502   3.366   2.304  17.564  0.0063  0.1114  0.1131
  707TMC3    C210503   3.275   2.218  17.615 -0.2517 -0.1119 -0.1748
  707TMC3    C310504   3.162   2.199  17.542 -0.1392 -0.6319 -0.0950
  707TMC3    C410505   3.345   2.370  17.443 -0.5754  0.7177 -0.8647
  707TMC3    C510506   3.234   2.333  17.369  0.5593 -0.4255 -0.0875
  707TMC3    C610507   3.140   2.256  17.420  0.1940  0.3081 -0.9135
  707TMC3     C10508   3.471   2.352  17.648  0.0048 -0.1176  0.2609
  707TMC3     O10509   3.518   2.287  17.740 -0.1045 -0.1609  0.1214
  707TMC3     H10510   3.306   2.163  17.703 -1.9273 -1.0062 -0.1279
  707TMC3    H110511   3.426   2.422  17.392 -0.7666  1.4771 -0.3879
  707TMC3    H210512   3.044   2.249  17.370 -0.0118 -0.0173 -0.4739
  707TMC3    C710513   3.201   2.408  17.249 -0.2212 -0.6237 -0.1867
  707TMC3    C810514   3.054   2.105  17.593  0.2209 -0.0208 -0.4846
  707TMC3    O110515   3.262   2.515  17.240 -0.0701  0.0289  0.3225
  707TMC3    O210516   2.971   2.065  17.509 -0.0544 -0.5728 -0.0346
  708MPD2     C10517   0.133   1.998  13.671 -0.3245 -0.8269 -0.0438
  708MPD2    C110518   0.062   2.008  13.791  0.0661  0.2239 -0.0520
  708MPD2    C210519   0.098   1.916  13.889 -0.0999 -0.1992  0.7746
  708MPD2    C310520   0.202   1.821  13.873 -0.1085 -0.2578 -0.7220
  708MPD2    C410521   0.256   1.803  13.751 -0.5316  0.6562  0.2601
  708MPD2    C510522   0.221   1.893  13.652 -0.6200  0.8343  0.0196
  708MPD2     H10523   0.040   1.915  13.980 -2.6402  0.7017 -0.8555
  708MPD2    H110524   0.319   1.725  13.711  1.2179  1.9418  0.4826
  708MPD2    H210525   0.114   2.062  13.585 -0.8761  1.7001  1.9849
  708MPD2    H310526   0.262   1.877  13.553  1.0064  0.2738  0.7779
  708MPD2     N10527   0.221   1.728  13.976  0.2612  0.0271  0.2530
  708MPD2    H510528   0.157   1.739  14.054 -0.4704 -0.7022 -0.2430
  708MPD2    N110529   4.700   2.103  13.803 -0.1576 -0.1870 -0.0179
  708MPD2    H710530   4.674   2.147  13.715  0.0541 -0.8797 -0.4249
  709TMC3    C110531   4.524   2.221  13.900  0.2650  0.1191 -0.2539
  709TMC3    C210532   4.442   2.151  13.814  0.3560  0.3074  0.4767
  709TMC3    C310533   4.320   2.108  13.861 -0.3193  0.4285  0.9109
  709TMC3    C410534   4.481   2.249  14.020  0.2823  0.3291  0.2009
  709TMC3    C510535   4.355   2.213  14.060  0.3031 -0.2624  0.0341
  709TMC3    C610536   4.260   2.148  13.981  0.3798 -0.4051  0.6132
  709TMC3     C10537   4.639   2.137  13.918  0.2456  0.3878  0.5778
  709TMC3     O10538   4.668   2.105  14.030  0.0239 -0.2205  0.0389
  709TMC3     H10539   4.487   2.110  13.724 -1.2099  0.9850 -0.6031
  709TMC3    H110540   4.546   2.298  14.091 -1.3948  0.4114  1.6581
  709TMC3    H210541   4.175   2.104  14.031  0.1143 -0.5320  0.0483
  709TMC3    C710542   4.348   2.167  14.198  0.1870 -0.0570 -0.4292
  709TMC3    C810543   4.263   1.982  13.804 -0.4785  0.5395 -0.2746
  709TMC3    O110544   4.236   2.161  14.251  0.2000 -0.8642  0.7846
  709TMC3    O210545   4.207   1.911  13.880  0.7160  0.0156  0.1369
  710TMC3    C110546   1.443   3.243   0.196 -0.1239  0.1055 -0.5286
  710TMC3    C210547   1.505   3.226   0.077  0.1004  0.0901  0.2638
  710TMC3    C310548   1.607   3.131   0.071 -0.1030 -0.3838  0.2688
  710TMC3    C410549   1.453   3.145   0.294 -0.2005 -0.6013 -0.1526
  710TMC3    C510550   1.553   3.044   0.280 -0.3765  0.7745 -0.4080
  710TMC3    C610551   1.633   3.042   0.171 -0.2883 -1.0529  0.7403
  710TMC3     C10552   1.335   3.345   0.195 -0.0585  0.3936  0.4115
  710TMC3     O10553   1.277   3.372   0.090  0.2865  0.4005 -0.4540
  710TMC3     H10554   1.488   3.300  17.754  4.0166  1.0810  0.3692
  710TMC3    H110555   1.389   3.137   0.380 -0.8126  0.1962 -0.5411
  710TMC3    H210556   1.727   2.988   0.168  0.8238  1.0276 -1.8437
  710TMC3    C710557   1.593   2.985   0.406  0.5933  0.1024  0.9311
  710TMC3    C810558   1.670   3.114  17.700  0.0050 -0.5623  0.1265
  710TMC3    O110559   1.520   2.994   0.508 -0.1872 -0.3939 -0.1651
  710TMC3    O210560   1.673   3.215  17.624  0.2048  0.0727 -0.1463
  711TMC3    C110561   1.091   4.355  14.706 -0.3819 -0.6077  0.1150
  711TMC3    C210562   1.049   4.379  14.831  0.3103  0.1159  0.4921
  711TMC3    C310563   1.132   4.440  14.917 -0.4022  0.1872  0.3480
  711TMC3    C410564   1.222   4.388  14.659 -0.3887 -0.6743 -0.0281
  711TMC3    C510565   1.310   4.448  14.750 -0.3274 -0.1474 -0.0259
  711TMC3    C610566   1.267   4.465  14.875 -0.0576  0.1059 -0.6601
  711TMC3     C10567   0.985   4.312  14.620 -0.0751 -0.0259  0.4850
  711TMC3     O10568   0.905   4.228  14.662  0.1361 -0.0421  0.4949
  711TMC3     H10569   0.945   4.366  14.858  0.6584  0.3516  1.9912
  711TMC3    H110570   1.249   4.368  14.555 -0.6093 -1.2441  0.0224
  711TMC3    H210571   1.348   4.491  14.943 -0.6424 -1.2137  0.5287
  711TMC3    C710572   1.454   4.420  14.742 -0.3982  0.2161  0.4258
  711TMC3    C810573   1.129   4.383  15.048 -0.1553  0.2204  0.4228
  711TMC3    O110574   1.531   4.475  14.823  0.4615 -0.2020  0.3263
  711TMC3    O210575   1.024   4.335  15.082 -0.6365 -0.0138  0.3354
  712MPD2     C10576   2.294   0.329  13.359 -1.2283 -0.0769  0.1770
  712MPD2    C110577   2.234   0.441  13.418  0.6464 -0.3142 -0.0607
  712MPD2    C210578   2.306   0.564  13.402 -0.5393 -0.0105 -0.1813
  712MPD2    C310579   2.427   0.570  13.331  0.0206 -0.1881  0.0039
  712MPD2    C410580   2.485   0.457  13.284  0.2514  0.2695  0.1652
  712MPD2    C510581   2.417   0.339  13.299  0.5397  0.6586  0.8740
  712MPD2     H10582   2.269   0.658  13.441  1.0475 -0.2095  1.7660
  712MPD2    H110583   2.568   0.467  13.216 -0.7446  0.2161 -1.0733
  712MPD2    H210584   2.250   0.230  13.358 -0.7380 -0.3132  3.0833
  712MPD2    H310585   2.460   0.253  13.247  0.6347  2.3001 -1.7584
  712MPD2     N10586   2.493   0.688  13.304  0.0022 -0.0085 -0.3576
  712MPD2    H510587   2.587   0.670  13.268  0.0733 -1.5582  0.5917
  712MPD2    N110588   2.112   0.444  13.477  0.0768  0.1323  0.6239
  712MPD2    H710589   2.075   0.528  13.520 -0.9465  1.7130 -3.3153
  713TMC3    C110590   2.519   0.907  13.222  0.1840  0.4812  0.2148
  713TMC3    C210591   2.645   0.922  13.259  0.7513 -0.4145 -0.8336
  713TMC3    C310592   2.717   1.023  13.195  0.1528  0.2032 -0.2602
  713TMC3    C410593   2.453   0.990  13.137  0.0043 -0.0610 -1.1270
  713TMC3    C510594   2.526   1.085  13.069 -0.1451 -0.0409 -0.1841
  713TMC3    C610595   2.659   1.101  13.094 -0.8603  0.4739  0.2579
  713TMC3     C10596   2.431   0.814  13.284  0.3735  0.0677 -0.1071
  713TMC3     O10597   2.313   0.846  13.286 -0.0074 -0.2787 -0.5884
  713TMC3     H10598   2.689   0.840  13.314  0.8154 -1.2632 -2.1474
  713TMC3    H110599   2.353   0.963  13.104 -0.2812  0.4934 -0.7145
  713TMC3    H210600   2.724   1.176  13.050  0.6125 -0.4987  0.7687
  713TMC3    C710601   2.483   1.152  12.949  0.2621  0.9598  0.1428
  713TMC3    C810602   2.858   1.026  13.208  1.1757  0.2387  0.2165
  713TMC3    O110603   2.567   1.192  12.872  0.3867 -0.0724 -0.3200
  713TMC3    O210604   2.908   1.070  13.104 -0.7597  0.2168 -0.3366
  714MPD2     C10605   4.653   4.133   0.882 -0.0952  0.1711 -1.0351
  714MPD2    C110606   4.617   4.011   0.927  0.0130  0.8701  0.9832
  714MPD2    C210607   4.485   3.966   0.913 -0.1491 -0.0306  0.3459
  714MPD2    C310608   4.396   4.043   0.837  0.2408  0.1415 -0.2125
  714MPD2    C410609   4.445   4.159   0.778  0.1154 -0.0627  0.2363
  714MPD2    C510610   4.574   4.197   0.790  0.7078  0.0990 -0.3027
  714MPD2     H10611   4.453   3.871   0.954 -0.4385  0.1331  0.5008
  714MPD2    H110612   4.394   4.220   0.704 -1.8067 -1.3038  0.5360
  714MPD2    H210613   0.016   4.169   0.890 -0.9008  2.0045  0.9912
  714MPD2    H310614   4.612   4.280   0.731  0.4950  0.5693  0.2223
  714MPD2     N10615   4.260   3.996   0.839  0.3436 -0.8213 -0.6466
  714MPD2    H510616   4.241   3.920   0.903  0.4577 -0.1965  0.1276
  714MPD2    N110617   4.710   3.937   1.012  0.9235  0.1111 -0.9888
  714MPD2    H710618   0.056   3.988   1.031  2.0298 -2.1953  0.2502
  715TMC3    C110619   0.078   3.748   1.115 -0.6033 -0.0577  0.7614
  715TMC3    C210620   0.120   3.623   1.085  0.3088 -0.8538 -0.6122
  715TMC3    C310621   0.221   3.558   1.154 -0.3961  0.4096  0.4513
  715TMC3    C410622   0.139   3.816   1.223 -0.3709 -0.8869 -0.5556
  715TMC3    C510623   0.242   3.759   1.295  0.1959  0.4645 -0.0931
  715TMC3    C610624   0.277   3.626   1.263  0.1835  0.0063 -0.8124
  715TMC3     C10625   4.697   3.804   1.047  0.3328  0.4099  0.0699
  715TMC3     O10626   4.613   3.717   1.019 -0.1372 -0.2378 -0.6272
  715TMC3     H10627   0.063   3.569   1.010  0.7593 -0.7226 -1.0487
  715TMC3    H110628   0.125   3.923   1.216  1.3102 -0.6627 -0.5359
  715TMC3    H210629   0.360   3.586   1.321 -0.3193  3.6031  2.3610
  715TMC3    C710630   0.301   3.825   1.417 -0.2584 -0.3667 -0.1835
  715TMC3    C810631   0.290   3.440   1.086  0.0441  0.6278  0.2463
  715TMC3    O110632   0.395   3.772   1.474  0.4425 -0.1108  0.2574
  715TMC3    O210633   0.262   3.415   0.970  0.2969 -0.2086 -0.1352
  716MPD2     C10634   3.873   2.529   9.952  0.5507 -0.0143  0.8353
  716MPD2    C110635   3.847   2.537   9.813 -0.7357  0.1145  0.4994
  716MPD2    C210636   3.881   2.429   9.728 -0.2556 -0.8419  0.2901
  716MPD2    C310637   3.951   2.324   9.781 -0.5835  0.2685  0.8064
  716MPD2    C410638   3.973   2.321   9.914  0.5834 -0.0297  0.5057
  716MPD2    C510639   3.944   2.421  10.001  0.2615  0.0461  0.1951
  716MPD2     H10640   3.854   2.438   9.623 -0.4820  2.2735  0.6074
  716MPD2    H110641   4.020   2.234   9.958 -1.6486 -1.3947  0.2072
  716MPD2    H210642   3.854   2.611  10.020  0.5247 -0.1872  1.0364
  716MPD2    H310643   3.979   2.418  10.104 -0.9096  1.0139  0.6204
  716MPD2     N10644   3.971   2.214   9.695  0.1812 -0.7928 -0.1187
  716MPD2    H510645   3.934   2.236   9.603 -2.3345 -0.0851  1.0440
  716MPD2    N110646   3.785   2.653   9.769 -0.3274  0.0822  0.0503
  716MPD2    H710647   3.754   2.710   9.847  1.4901  1.2532 -0.0898
  717TMC3    C110648   4.075   2.008   9.613 -0.7702 -0.3031 -0.4414
  717TMC3    C210649   4.028   2.029   9.487  0.0216 -0.4883  0.0358
  717TMC3    C310650   4.060   1.932   9.395 -0.4538 -0.0309 -0.5323
  717TMC3    C410651   4.159   1.899   9.636 -0.1355 -0.1242 -0.0645
  717TMC3    C510652   4.186   1.805   9.539  0.4206 -0.0039  0.2927
  717TMC3    C610653   4.141   1.823   9.410  1.2278  0.6780  0.2734
  717TMC3     C10654   4.033   2.097   9.727 -0.2612  0.4576  0.9471
  717TMC3     O10655   4.080   2.062   9.836 -0.3729  0.4043 -0.6051
  717TMC3     H10656   3.979   2.119   9.451 -0.8761 -1.7369 -1.8691
  717TMC3    H110657   4.200   1.891   9.737  0.7512  0.3913 -0.3871
  717TMC3    H210658   4.166   1.755   9.330  0.0380 -0.1890  0.6386
  717TMC3    C710659   4.277   1.702   9.565  0.4960 -0.8869 -0.3691
  717TMC3    C810660   3.998   1.943   9.267  0.2305  0.2284  0.4240
  717TMC3    O110661   4.367   1.735   9.642  0.0770  1.0140  0.3433
  717TMC3    O210662   3.988   1.843   9.196 -0.5149 -0.5437  0.0515
  718MPD2     C10663   3.653   0.605  13.104 -0.8121 -0.0340 -0.8205
  718MPD2    C110664   3.628   0.600  12.969 -0.0866 -0.2507 -0.2213
  718MPD2    C210665   3.541   0.503  12.924  0.2144  0.5716  0.1301
  718MPD2    C310666   3.482   0.410  13.014 -0.2010  0.8943 -0.5901
  718MPD2    C410667   3.512   0.419  13.146 -0.0108  0.3242  0.2906
  718MPD2    C510668   3.595   0.518  13.191 -0.0197  0.5033 -0.2193
  718MPD2     H10669   3.526   0.478  12.820 -1.2432 -0.5283  0.5986
  718MPD2    H110670   3.485   0.341  13.217  0.0532  0.2824  0.2683
  718MPD2    H210671   3.730   0.671  13.143 -1.2395 -0.0785  0.1129
  718MPD2    H310672   3.620   0.508  13.297  1.3352 -0.5399 -0.6325
  718MPD2     N10673   3.415   0.308  12.949  0.2979 -0.2748  0.3616
  718MPD2    H510674   3.393   0.320  12.851 -0.5612  0.1761  0.6042
  718MPD2    N110675   3.692   0.693  12.886  0.0620  0.1142  0.2923
  718MPD2    H710676   3.762   0.753  12.929  3.1800 -4.2979  1.3475
  719TMC3    C110677   3.747   0.778  12.667  0.8287 -0.1929  0.0955
  719TMC3    C210678   3.691   0.796  12.543 -0.0607 -0.0174  0.6371
  719TMC3    C310679   3.766   0.764  12.436 -0.4031  0.8541 -0.8641
  719TMC3    C410680   3.884   0.757  12.679  0.4599 -0.2809 -0.2162
  719TMC3    C510681   3.959   0.755  12.566  0.1620 -0.1264 -0.0278
  719TMC3    C610682   3.903   0.757  12.443 -0.2809 -0.5107  0.3628
  719TMC3     C10683   3.662   0.706  12.757  0.1518  0.3087 -0.0724
  719TMC3     O10684   3.559   0.669  12.695 -0.2404  0.9319  0.4054
  719TMC3     H10685   3.583   0.799  12.527  0.0196  1.1027  0.2725
  719TMC3    H110686   3.940   0.744  12.770  1.0710 -0.1274 -0.5716
  719TMC3    H210687   3.957   0.747  12.350  0.2391  0.6774  0.5332
  719TMC3    C710688   4.096   0.797  12.577  0.0155 -0.2410  0.2256
  719TMC3    C810689   3.703   0.670  12.346 -0.0438 -0.4946 -0.1127
  719TMC3    O110690   4.166   0.748  12.664 -0.2154 -0.1389 -0.3591
  719TMC3    O210691   3.769   0.642  12.245  0.1060 -0.1214 -0.4201
  720MPD2     C10692   2.160   2.307  13.827  0.2469 -0.2413 -0.4724
  720MPD2    C110693   2.193   2.443  13.809  0.3832 -0.3646 -0.1078
  720MPD2    C210694   2.283   2.505  13.889 -0.1337  0.7589 -0.1837
  720MPD2    C310695   2.341   2.423  13.997  0.3755 -0.2903  0.5544
  720MPD2    C410696   2.313   2.289  14.013  0.3601  0.5053 -0.0617
  720MPD2    C510697   2.214   2.237  13.936  0.2172 -0.6269 -0.1751
  720MPD2     H10698   2.302   2.612  13.882  1.5800  0.4865  0.2183
  720MPD2    H110699   2.351   2.231  14.097 -3.8530 -3.0024 -0.5764
  720MPD2    H210700   2.084   2.253  13.772 -1.6649  1.8876  0.0836
  720MPD2    H310701   2.191   2.131  13.932 -0.7378 -0.4056 -0.5692
  720MPD2     N10702   2.432   2.495  14.080 -0.0358  0.0578 -0.2037
  720MPD2    H510703   2.438   2.591  14.048 -0.6748  0.1255 -0.1164
  720MPD2    N110704   2.136   2.522  13.708 -0.4169  0.2092 -0.6470
  720MPD2    H710705   2.173   2.616  13.701  0.1239 -0.1632 -2.7649
  721TMC3    C110706   2.603   2.543  14.236 -0.1540  0.5234 -0.1481
  721TMC3    C210707   2.643   2.530  14.368 -1.0512  0.0264  0.2523
  721TMC3    C310708   2.728   2.628  14.421  0.0037 -0.3065 -1.2837
  721TMC3    C410709   2.657   2.640  14.151 -0.0402 -0.0157  0.0718
  721TMC3    C510710   2.758   2.720  14.208 -0.7222 -0.0208 -0.3472
  721TMC3    C610711   2.777   2.728  14.340 -0.1260 -0.2908  0.0605
  721TMC3     C10712   2.510   2.442  14.188 -0.4957 -0.0163  0.0237
  721TMC3     O10713   2.514   2.328  14.229  0.2225 -0.2149 -0.4289
  721TMC3     H10714   2.620   2.442  14.427  0.3360 -0.5015  0.0054
  721TMC3    H110715   2.652   2.636  14.043  0.5184  1.9581 -0.0346
  721TMC3    H210716   2.853   2.796  14.376 -1.3913  2.1278 -1.7936
  721TMC3    C710717   2.880   2.729  14.132  0.5264 -0.0756 -1.6151
  721TMC3    C810718   2.821   2.576  14.521  0.2674  0.2027  0.5967
  721TMC3    O110719   2.878   2.730  14.009  0.4701  0.3603  0.3147
  721TMC3    O210720   2.884   2.471  14.502 -0.5964  0.0534  0.2863
  722MPD2     C10721   1.326   0.959  13.121  0.5762 -0.1820  0.3732
  722MPD2    C110722   1.291   1.092  13.133  0.1159 -0.3639  0.8446
  722MPD2    C210723   1.177   1.129  13.199  0.0038  0.4014  0.2447
  722MPD2    C310724   1.088   1.030  13.230 -0.0505 -0.1120  0.7258
  722MPD2    C410725   1.132   0.897  13.238  0.1307 -0.8345 -0.0249
  722MPD2    C510726   1.253   0.857  13.179  0.2793  0.4476 -0.2106
  722MPD2     H10727   1.153   1.235  13.208 -0.2214  0.4017 -0.4238
  722MPD2    H110728   1.071   0.826  13.292 -0.3727  0.3879  1.0010
  722MPD2    H210729   1.416   0.931  13.068  2.4464  2.0976  2.2855
  722MPD2    H310730   1.294   0.757  13.173  0.1857  0.3399  0.9649
  722MPD2     N10731   0.952   1.070  13.252  0.1997 -0.3471 -0.2300
  722MPD2    H510732   0.929   1.168  13.245  1.4799  0.0182  0.6476
  722MPD2    N110733   1.368   1.196  13.069 -0.5895 -0.3901 -0.2173
  722MPD2    H710734   1.331   1.290  13.078 -0.7205 -0.4683  0.0785
  723TMC3    C110735   0.719   1.049  13.261  0.3917  0.5041  0.7887
  723TMC3    C210736   0.614   0.994  13.193  0.3083 -0.1204  0.4385
  723TMC3    C310737   0.495   1.064  13.178  0.6469  0.1262 -0.6214
  723TMC3    C410738   0.713   1.158  13.335 -0.6177  0.2278  0.3730
  723TMC3    C510739   0.594   1.224  13.328  0.1528 -0.4952  0.7127
  723TMC3    C610740   0.489   1.181  13.257  0.3312 -0.4961  1.0166
  723TMC3     C10741   0.848   0.982  13.258  1.1122  0.5902 -0.1844
  723TMC3     O10742   0.846   0.861  13.239 -0.1946 -0.0668 -0.0571
  723TMC3     H10743   0.627   0.896  13.148  0.2559  1.3861 -2.8050
  723TMC3    H110744   0.795   1.199  13.393  0.4558  1.3058 -1.9160
  723TMC3    H210745   0.411   1.254  13.236 -0.4431 -0.7654  2.9717
  723TMC3    C710746   0.583   1.350  13.404 -0.0710 -0.4957  0.1820
  723TMC3    C810747   0.434   1.078  13.046 -0.2130 -0.3781 -0.5378
  723TMC3    O110748   0.481   1.364  13.467 -0.4846  0.0687 -0.0182
  723TMC3    O210749   0.393   1.185  13.008 -0.0853 -0.4611 -0.2683
  724TMC3    C110750   0.831   4.576   9.601  0.0650 -0.3330  0.2437
  724TMC3    C210751   0.861   4.690   9.526  0.3293  0.2182  0.7500
  724TMC3    C310752   0.985   0.004   9.523 -0.1370 -0.8442 -0.4498
  724TMC3    C410753   0.933   4.507   9.659 -0.1522 -0.4488  0.3662
  724TMC3    C510754   1.057   4.563   9.658  0.0325  0.0360  0.0224
  724TMC3    C610755   1.085   4.678   9.588 -0.4757  0.0281 -0.5384
  724TMC3     C10756   0.737   4.480   9.535 -0.7178 -0.0637 -0.0334
  724TMC3     O10757   0.784   4.369   9.529  0.1197  0.1061  0.5209
  724TMC3     H10758   0.780   0.006   9.479 -0.6650 -2.3807 -0.6292
  724TMC3    H110759   0.903   4.431   9.730 -3.8551  1.1044  0.4437
  724TMC3    H210760   1.186   4.715   9.576  0.3455 -1.8981  0.5045
  724TMC3    C710761   1.125   4.569   9.786 -0.3063  0.3211  0.3434
  724TMC3    C810762   1.004   0.137   9.471  0.8974  0.5093 -1.1639
  724TMC3    O110763   1.217   4.654   9.799 -0.0617  0.6118  0.1518
  724TMC3    O210764   0.911   0.189   9.407  0.1430 -0.6179 -0.0612
  725TMC3    C110765   3.123   2.559  13.236 -0.0593  0.6337  0.4230
  725TMC3    C210766   3.016   2.633  13.186  0.0969  1.1655  0.2318
  725TMC3    C310767   2.923   2.561  13.114  0.4038  0.4917 -0.3773
  725TMC3    C410768   3.145   2.426  13.195  0.7006 -0.1253  0.4746
  725TMC3    C510769   3.057   2.368  13.102 -0.4958  1.0135 -0.3457
  725TMC3    C610770   2.935   2.429  13.077  0.0852  0.6208  0.4846
  725TMC3     C10771   3.235   2.645  13.236 -0.1722 -0.2540 -0.3040
  725TMC3     O10772   3.208   2.763  13.265  0.6093 -0.0270 -0.1848
  725TMC3     H10773   2.989   2.733  13.217  0.2953  1.4038 -0.3479
  725TMC3    H110774   3.216   2.359  13.242  0.3403 -0.7899  0.0631
  725TMC3    H210775   2.845   2.380  13.042  1.9292 -2.1126 -0.3503
  725TMC3    C710776   3.137   2.330  12.987 -0.7101 -0.6868  0.2948
  725TMC3    C810777   2.794   2.630  13.094  0.1851  0.6476 -0.1227
  725TMC3    O110778   3.251   2.378  12.980  0.6229 -0.3719  0.2434
  725TMC3    O210779   2.696   2.563  13.120  0.3592  0.4871 -0.2589
  726MPD2     C10780   0.577   4.434  10.618 -0.1209  0.6170 -0.1379
  726MPD2    C110781   0.473   4.486  10.540 -0.6537 -1.1716  0.8744
  726MPD2    C210782   0.354   4.413  10.533  0.1372 -0.4777  0.0394
  726MPD2    C310783   0.346   4.290  10.601  0.4947  1.0062  0.4868
  726MPD2    C410784   0.447   4.251  10.692  0.6201 -0.4295 -0.9260
  726MPD2    C510785   0.564   4.322  10.697  0.2220 -0.4934 -0.0446
  726MPD2     H10786   0.267   4.463  10.492 -0.3118 -1.1683  0.1557
  726MPD2    H110787   0.443   4.162  10.752 -0.7477  0.5047  0.3509
  726MPD2    H210788   0.673   4.482  10.631 -0.3313  0.6311  1.3325
  726MPD2    H310789   0.647   4.284  10.755  0.7767  0.2529 -0.3528
  726MPD2     N10790   0.237   4.206  10.588  0.7468 -0.2586 -0.7839
  726MPD2    H510791   0.245   4.123  10.646 -1.1151  0.1112  0.0032
  726MPD2    N110792   0.488   4.604  10.461  0.1737 -0.0400 -0.3350
  726MPD2    H710793   0.410   4.618  10.398 -0.0605  0.2446  0.0144
  727TMC3    C110794   0.593   0.053  10.378  0.4129 -0.2099  0.5739
  727TMC3    C210795   0.654   0.168  10.421 -0.4629  0.3064  0.1819
  727TMC3    C310796   0.667   0.271  10.326  0.1978  0.1254  0.0736
  727TMC3    C410797   0.524   0.051  10.257  0.4988 -0.5665 -0.3490
  727TMC3    C510798   0.540   0.157  10.174 -0.5351 -0.5182  0.4374
  727TMC3    C610799   0.619   0.267  10.207  0.7965  0.4789  0.6809
  727TMC3     C10800   0.599   4.684  10.470 -0.0285 -0.2688 -0.9803
  727TMC3     O10801   0.683   4.691  10.555 -0.5170 -0.4432 -0.2160
  727TMC3     H10802   0.708   0.180  10.514 -1.4143  2.1008  0.4828
  727TMC3    H110803   0.488   4.697  10.214 -0.3725 -0.7226  0.7184
  727TMC3    H210804   0.635   0.346  10.134  0.0047  0.9023  0.9616
  727TMC3    C710805   0.445   0.165  10.063  0.5939  0.5984  0.3559
  727TMC3    C810806   0.775   0.369  10.358  0.0961  0.0718  0.3711
  727TMC3    O110807   0.377   0.060  10.050 -0.6297 -0.1818  0.0023
  727TMC3    O210808   0.866   0.326  10.428  0.4015  0.1777 -0.0588
  728TMC3    C110809   0.539   3.043  15.211 -0.1281 -0.7849 -0.2540
  728TMC3    C210810   0.672   3.063  15.213  0.2699  0.2751  0.6183
  728TMC3    C310811   0.734   3.088  15.095  0.1766 -0.3706 -0.0371
  728TMC3    C410812   0.467   3.042  15.099 -0.2449  0.1934 -0.5735
  728TMC3    C510813   0.528   3.057  14.973 -0.8171 -0.0584  0.1943
  728TMC3    C610814   0.665   3.076  14.971 -0.0832  0.2111 -0.1458
  728TMC3     C10815   0.472   3.030  15.344  0.2899  0.3891  0.4649
  728TMC3     O10816   0.532   3.074  15.437 -0.1897 -1.0488  0.7722
  728TMC3     H10817   0.722   3.067  15.309 -0.4029  1.5056  0.9168
  728TMC3    H110818   0.360   3.027  15.098  0.2367 -3.3180 -1.8397
  728TMC3    H210819   0.715   3.101  14.878  0.1431 -0.9124 -0.3209
  728TMC3    C710820   0.440   3.065  14.862  0.3657 -1.0948  0.3776
  728TMC3    C810821   0.874   3.115  15.096 -0.1984  1.1695 -0.2596
  728TMC3    O110822   0.321   3.042  14.879  0.2600  0.0989 -0.9109
  728TMC3    O210823   0.920   3.122  15.209 -0.0454 -0.0764 -0.0427
  729MPD2     C10824   2.268   4.411  16.436 -0.0171 -0.2548 -0.0914
  729MPD2    C110825   2.396   4.426  16.486 -0.1753  0.7080 -0.5291
  729MPD2    C210826   2.420   4.425  16.624 -0.3027  0.7337  0.9820
  729MPD2    C310827   2.315   4.407  16.718 -0.0261  1.0611 -0.3305
  729MPD2    C410828   2.192   4.390  16.659 -0.5688  0.5209  0.1038
  729MPD2    C510829   2.164   4.392  16.524  0.0357 -0.3620 -0.3887
  729MPD2     H10830   2.520   4.449  16.657  0.8877 -0.6959 -1.5330
  729MPD2    H110831   2.106   4.377  16.724 -0.3109  0.6626  0.4804
  729MPD2    H210832   2.245   4.410  16.330  3.1278 -1.1865 -0.7819
  729MPD2    H310833   2.064   4.376  16.487 -0.5017  0.9740  0.5002
  729MPD2     N10834   2.327   4.423  16.858 -0.4211 -0.4567 -0.4684
  729MPD2    H510835   2.249   4.441  16.920 -0.9485  1.1877 -1.5803
  729MPD2    N110836   2.499   4.442  16.393 -0.0691 -0.4716 -0.1496
  729MPD2    H710837   2.476   4.476  16.300  0.6653  1.2571  0.2825
  730TMC3    C110838   2.431   4.501  17.043  0.2860  0.7822  0.0011
  730TMC3    C210839   2.544   4.522  17.122 -0.1380  0.6257 -0.5208
  730TMC3    C310840   2.530   4.605  17.229  0.4719  0.4948  0.1371
  730TMC3    C410841   2.314   4.568  17.074  0.2072 -0.0943  0.5337
  730TMC3    C510842   2.305   4.646  17.185 -0.7418 -0.2604  0.5835
  730TMC3    C610843   2.408   4.649  17.274  0.0130  0.3205 -0.4786
  730TMC3     C10844   2.448   4.449  16.911 -0.8881 -1.1035 -0.4293
  730TMC3     O10845   2.561   4.423  16.875 -0.2484  0.4479  0.5781
  730TMC3     H10846   2.638   4.490  17.078 -0.2391 -0.8602  0.3315
  730TMC3    H110847   2.228   4.568  17.007  0.7004  0.0220 -0.1017
  730TMC3    H210848   2.396   4.722  17.353 -0.1420 -1.2373  0.9290
  730TMC3    C710849   2.236   0.029  17.145 -0.7283 -0.0972 -0.1437
  730TMC3    C810850   2.636   4.705  17.232  0.2020 -0.0953 -0.0991
  730TMC3    O110851   2.143   0.025  17.069  0.1408  0.0579  0.0638
  730TMC3    O210852   2.695   4.732  17.128 -0.3779  0.6532 -1.0123
  731MPD2     C10853   2.816   2.526  12.628  0.4678 -0.3078  0.1242
  731MPD2    C110854   2.711   2.614  12.639 -0.1320 -0.2006  0.1670
  731MPD2    C210855   2.612   2.575  12.726  0.7090  0.1338 -0.3629
  731MPD2    C310856   2.618   2.449  12.785 -0.3227 -0.5547  0.6630
  731MPD2    C410857   2.723   2.364  12.772  0.2532  0.0598  1.0123
  731MPD2    C510858   2.819   2.401  12.688  0.4226 -0.7267  1.1705
  731MPD2     H10859   2.525   2.633  12.754 -0.2539 -0.4056 -2.2428
  731MPD2    H110860   2.743   2.271  12.825  1.0314  0.0251  0.6516
  731MPD2    H210861   2.902   2.558  12.570 -0.6722  1.4195 -0.6371
  731MPD2    H310862   2.909   2.346  12.664 -0.2294 -1.1707 -0.2422
  731MPD2     N10863   2.515   2.423  12.878 -0.1125  0.1262  0.5632
  731MPD2    H510864   2.442   2.493  12.886 -0.2705  0.0430 -0.0811
  731MPD2    N110865   2.710   2.726  12.563 -0.1287  0.0406 -0.3152
  731MPD2    H710866   2.801   2.754  12.528  0.6172 -0.0877  1.4756
  732TMC3    C110867   2.627   2.901  12.435  0.0953  0.6496 -0.3810
  732TMC3    C210868   2.533   2.930  12.335 -0.3805 -0.8186  0.4917
  732TMC3    C310869   2.563   3.034  12.246  0.2014 -0.4514  0.0463
  732TMC3    C410870   2.746   2.972  12.448 -0.4278 -0.7090  0.3209
  732TMC3    C510871   2.771   3.069  12.358 -0.1715  0.1080 -0.3245
  732TMC3    C610872   2.676   3.110  12.263 -0.3500 -0.2860 -0.0977
  732TMC3     C10873   2.597   2.797  12.529  0.7929  0.5897 -0.4296
  732TMC3     O10874   2.483   2.762  12.545  0.5637  0.3248 -0.2041
  732TMC3     H10875   2.465   2.849  12.317  0.5090 -1.8238  1.6562
  732TMC3    H110876   2.816   2.948  12.527 -2.4736 -0.9580  2.0590
  732TMC3    H210877   2.705   3.183  12.188  1.4025  0.4604  1.3388
  732TMC3    C710878   2.899   3.122  12.343 -0.0712  0.0464  0.6099
  732TMC3    C810879   2.485   3.069  12.134 -1.0202 -0.0986 -0.0159
  732TMC3    O110880   2.904   3.240  12.314  0.2504  0.3008  0.1513
  732TMC3    O210881   2.494   3.183  12.102 -0.1797 -0.2556  0.7472
  733TMC3    C110882   3.069   0.079  12.820 -0.1698  0.2844  0.8627
  733TMC3    C210883   3.152   0.117  12.928 -0.4055 -0.2974  0.1679
  733TMC3    C310884   3.292   0.126  12.909 -0.7815 -0.2001 -0.2432
  733TMC3    C410885   3.126   0.054  12.694  0.8562  0.0457 -0.4609
  733TMC3    C510886   3.263   0.071  12.679 -0.0264  0.6256  0.3064
  733TMC3    C610887   3.340   0.101  12.784  0.3160 -0.6270  0.2524
  733TMC3     C10888   2.932   0.112  12.821  0.8096 -0.4552 -0.3025
  733TMC3     O10889   2.881   0.148  12.715  0.1671  0.1003  0.4906
  733TMC3     H10890   3.105   0.152  13.019  1.5604 -2.1310  1.9006
  733TMC3    H110891   3.062   0.064  12.608 -1.2394 -0.4614  1.0574
  733TMC3    H210892   3.446   0.115  12.766  0.6242  0.5225  3.0374
  733TMC3    C710893   3.313   0.082  12.542  0.3198  0.7936  0.1893
  733TMC3    C810894   3.364   0.198  13.009 -0.2554 -0.1263  0.0011
  733TMC3    O110895   3.251   0.034  12.451  0.9487 -0.3640 -0.0240
  733TMC3    O210896   3.351   0.179  13.129  0.2079 -0.2322  0.3596
  734MPD2     C10897   0.773   2.811  12.643 -0.3367  0.1540  0.2113
  734MPD2    C110898   0.673   2.756  12.569 -0.2403  0.1811 -0.4922
  734MPD2    C210899   0.651   2.810  12.445  0.3342  0.0227  0.0029
  734MPD2    C310900   0.725   2.916  12.402 -0.3068 -0.0737 -0.0600
  734MPD2    C410901   0.824   2.967  12.480 -0.0982 -0.2265 -0.1745
  734MPD2    C510902   0.845   2.918  12.605  0.5766  0.3456  0.2162
  734MPD2     H10903   0.578   2.771  12.375  0.4219  2.2520 -1.3390
  734MPD2    H110904   0.888   3.042  12.436 -1.8246  1.5287  0.3396
  734MPD2    H210905   0.806   2.766  12.736  0.5778  1.4858  0.5436
  734MPD2    H310906   0.923   2.961  12.667  1.4086 -0.6407 -0.1404
  734MPD2     N10907   0.681   2.970  12.279 -0.4258  0.6822 -0.6438
  734MPD2    H510908   0.604   2.921  12.234  1.0869 -0.9591 -1.4516
  734MPD2    N110909   0.604   2.643  12.622  0.2078 -0.5863 -0.5133
  734MPD2    H710910   0.642   2.598  12.704 -1.0173 -0.6797  0.0082
  735TMC3    C110911   0.458   2.461  12.604 -0.1810 -0.2470  0.4064
  735TMC3    C210912   0.327   2.439  12.553  0.6602  0.6078  0.1545
  735TMC3    C310913   0.296   2.333  12.473 -0.2551 -0.0804 -0.0619
  735TMC3    C410914   0.555   2.378  12.561  0.1565  0.1065  0.2152
  735TMC3    C510915   0.528   2.276  12.472 -0.2666 -0.4821 -0.3107
  735TMC3    C610916   0.399   2.253  12.430  0.4566  0.4465 -0.4229
  735TMC3     C10917   0.490   2.599  12.560  0.9158  0.2319  0.3380
  735TMC3     O10918   0.427   2.635  12.461  0.1301 -0.5406  0.1120
  735TMC3     H10919   0.254   2.517  12.569 -1.5470 -1.1423 -1.3908
  735TMC3    H110920   0.657   2.393  12.593  0.0246  0.3689  0.5061
  735TMC3    H210921   0.383   2.193  12.342  1.1741 -0.8989  0.3497
  735TMC3    C710922   0.636   2.242  12.380  0.0610 -0.1215  0.4265
  735TMC3    C810923   0.225   2.371  12.353  0.2650 -0.3869 -0.3808
  735TMC3    O110924   0.730   2.320  12.365 -0.4107 -0.3913  0.0133
  735TMC3    O210925   0.158   2.286  12.295 -0.4463 -0.8314 -0.5847
  736MPD2     C10926   0.695   1.905  12.231  0.1788 -0.1070  0.7247
  736MPD2    C110927   0.720   2.038  12.255 -0.1314 -0.1169  0.0933
  736MPD2    C210928   0.824   2.098  12.188 -0.8016 -0.7162  0.0576
  736MPD2    C310929   0.882   2.030  12.076 -0.1443 -0.5661  0.6428
  736MPD2    C410930   0.859   1.899  12.062  0.5907 -0.6572  0.1617
  736MPD2    C510931   0.773   1.835  12.145  0.5860 -0.6394 -0.0229
  736MPD2     H10932   0.846   2.203  12.203  0.7209 -1.0511  0.1716
  736MPD2    H110933   0.911   1.839  11.989  0.1843 -1.6360  0.6710
  736MPD2    H210934   0.620   1.851  12.288 -0.4072  1.0378  1.0243
  736MPD2    H310935   0.757   1.728  12.130 -2.1902 -0.5130  1.8654
  736MPD2     N10936   0.979   2.088  11.992  0.4657 -0.2567  0.1291
  736MPD2    H510937   1.007   2.028  11.916  1.0287  0.9012 -0.5801
  736MPD2    N110938   0.631   2.108  12.341  0.2942  0.3935  0.1212
  736MPD2    H710939   0.558   2.051  12.383  1.1409 -0.1066  0.8960
  737TMC3    C110940   1.088   2.258  11.870  0.5270 -0.1536 -0.8489
  737TMC3    C210941   1.096   2.386  11.835 -1.0447  0.6262  0.2292
  737TMC3    C310942   1.162   2.421  11.725 -0.7016 -0.2472 -0.0598
  737TMC3    C410943   1.176   2.173  11.816 -0.0356 -0.4484 -0.1102
  737TMC3    C510944   1.258   2.205  11.713  0.1259 -0.1542 -0.3487
  737TMC3    C610945   1.253   2.335  11.662  0.1050  0.4614 -0.7454
  737TMC3     C10946   1.012   2.217  11.983  0.3215  0.2355  0.0645
  737TMC3     O10947   0.984   2.308  12.064 -0.3480 -0.1988  0.4170
  737TMC3     H10948   1.035   2.461  11.885 -3.6066  0.9542 -3.3527
  737TMC3    H110949   1.181   2.069  11.848  0.6929  0.1432  1.6687
  737TMC3    H210950   1.320   2.381  11.590  2.2227 -1.6313 -0.1392
  737TMC3    C710951   1.390   2.158  11.730 -0.3762  0.3189  0.5984
  737TMC3    C810952   1.133   2.540  11.656 -0.3155  0.1234  0.6843
  737TMC3    O110953   1.424   2.127  11.842  0.3269  0.1105 -0.3056
  737TMC3    O210954   1.085   2.628  11.725 -0.0888 -0.0301  0.6805
  738MPD2     C10955   1.248   1.759  14.835  0.0292 -0.4732 -0.0396
  738MPD2    C110956   1.298   1.639  14.885  0.9365  0.0215 -0.2774
  738MPD2    C210957   1.431   1.616  14.910  0.1464  0.5566  0.8135
  738MPD2    C310958   1.517   1.728  14.899  0.4504 -0.5938  0.2960
  738MPD2    C410959   1.463   1.850  14.866  0.7421 -1.0671  0.2414
  738MPD2    C510960   1.332   1.867  14.829  0.1342  0.2823 -0.7121
  738MPD2     H10961   1.476   1.520  14.934  2.2051  1.3047  0.0044
  738MPD2    H110962   1.524   1.938  14.852  0.6738 -0.9441  0.7097
  738MPD2    H210963   1.145   1.765  14.803  0.0149  0.6790  0.2098
  738MPD2    H310964   1.290   1.963  14.802 -2.2122  0.4994  3.7026
  738MPD2     N10965   1.653   1.717  14.895 -0.2534  0.0534 -0.2967
  738MPD2    H510966   1.702   1.798  14.858  1.2901 -0.0025  1.6338
  738MPD2    N110967   1.221   1.521  14.886 -0.1919  0.1241  0.0981
  738MPD2    H710968   1.260   1.431  14.912 -0.0840  0.7086  1.9586
  739TMC3    C110969   1.866   1.623  14.877 -0.0265  0.7537 -0.2540
  739TMC3    C210970   1.884   1.691  14.753  0.2289 -0.8854  0.6136
  739TMC3    C310971   2.004   1.727  14.707  0.1083  0.2139 -0.2342
  739TMC3    C410972   1.973   1.566  14.944 -0.0853  0.0620 -0.0108
  739TMC3    C510973   2.094   1.594  14.886  0.2906  0.7718 -0.2405
  739TMC3    C610974   2.110   1.668  14.771 -0.6056  0.3498  0.3890
  739TMC3     C10975   1.732   1.606  14.919  0.6425 -0.3839  0.2237
  739TMC3     O10976   1.711   1.505  14.985 -0.6080  0.0322 -0.2008
  739TMC3     H10977   1.801   1.704  14.684  1.0049  1.0053  0.0379
  739TMC3    H110978   1.955   1.514  15.038  0.1182 -2.0936 -1.1698
  739TMC3    H210979   2.207   1.699  14.734 -0.4672 -0.4411  0.0887
  739TMC3    C710980   2.217   1.521  14.931  0.7733 -0.7310  0.2870
  739TMC3    C810981   2.005   1.784  14.572  0.4178 -0.3093 -0.6273
  739TMC3    O110982   2.319   1.535  14.867 -0.3482  0.0450  0.1436
  739TMC3    O210983   1.895   1.824  14.530  0.6077 -0.4190 -0.1733
  740TMC3    C110984   2.232   3.054  14.573  0.5358 -0.4325  0.2675
  740TMC3    C210985   2.295   2.981  14.670 -0.7500 -0.1642 -0.8242
  740TMC3    C310986   2.430   2.953  14.650  0.9350  0.2011 -0.1322
  740TMC3    C410987   2.295   3.107  14.465 -0.2322 -0.0094  0.8315
  740TMC3    C510988   2.427   3.080  14.449 -0.6503  0.4138 -0.2246
  740TMC3    C610989   2.496   3.003  14.539 -0.7473 -0.1438 -0.0753
  740TMC3     C10990   2.105   3.115  14.613  0.1237  0.3564  0.4427
  740TMC3     O10991   2.101   3.237  14.580  0.1783  0.2214 -0.2766
  740TMC3     H10992   2.237   2.946  14.754  0.0158 -0.0380 -0.2382
  740TMC3    H110993   2.230   3.156  14.393 -0.3203 -1.6961 -0.2430
  740TMC3    H210994   2.598   2.968  14.526  0.5364  2.7143  2.2983
  740TMC3    C710995   2.479   3.053  14.320 -0.4936  0.4730  0.1261
  740TMC3    C810996   2.500   2.859  14.734  0.6892  0.1825  0.4675
  740TMC3    O110997   2.603   3.044  14.314  0.5228  0.5041 -0.0928
  740TMC3    O210998   2.613   2.825  14.692 -0.1943 -0.0579  0.1295
  741TMC3    C110999   1.995   2.336  14.216  0.4972  0.8941  0.0486
  741TMC3    C211000   1.862   2.305  14.226  0.7354 -0.1858  0.5775
  741TMC3    C311001   1.842   2.191  14.302  0.2603 -0.2594 -0.0298
  741TMC3    C411002   2.086   2.294  14.309  0.0245  0.2820 -0.4983
  741TMC3    C511003   2.053   2.201  14.404  0.2217 -0.0471 -0.2741
  741TMC3    C611004   1.934   2.140  14.387  0.4487 -0.3607  0.1499
  741TMC3     C11005   2.024   2.463  14.147 -0.6262  0.1354  0.0506
  741TMC3     O11006   2.113   2.533  14.195  0.0740 -0.5051  0.3760
  741TMC3     H11007   1.777   2.337  14.165  1.8612 -0.5835 -1.1880
  741TMC3    H111008   2.189   2.328  14.312  0.6992 -1.7263 -0.9111
  741TMC3    H211009   1.909   2.055  14.449  0.4896 -0.6763 -0.2661
  741TMC3    C711010   2.144   2.165  14.512  0.2430  0.0637 -0.1506
  741TMC3    C811011   1.700   2.156  14.322 -0.2124 -0.2809  0.0694
  741TMC3    O111012   2.264   2.172  14.491 -0.0280  0.1897 -0.1100
  741TMC3    O211013   1.616   2.234  14.270  0.4369 -0.3404 -0.0359
  742TMC3    C111014   2.072   0.554  15.327 -0.7386 -0.1400 -0.6105
  742TMC3    C211015   1.976   0.499  15.248 -0.1019 -0.5107 -0.4852
  742TMC3    C311016   2.003   0.377  15.194 -0.3739  0.2157  0.1031
  742TMC3    C411017   2.175   0.479  15.377 -0.2487 -0.2256  0.2641
  742TMC3    C511018   2.186   0.350  15.327 -0.7870 -0.1160  0.2799
  742TMC3    C611019   2.097   0.293  15.245 -0.2403 -0.2183  0.0772
  742TMC3     C11020   2.057   0.688  15.388  0.5140 -0.1211 -0.1315
  742TMC3     O11021   1.948   0.741  15.379  0.6188  0.0992 -0.2686
  742TMC3     H11022   1.927   0.571  15.184  1.2417  1.4693  0.7298
  742TMC3    H111023   2.236   0.529  15.452  1.8133 -0.5878 -1.1676
  742TMC3    H211024   2.116   0.200  15.192  0.5093  1.1095 -1.9885
  742TMC3    C711025   2.304   0.270  15.358 -0.1544  0.4652 -0.5003
  742TMC3    C811026   1.916   0.333  15.089  0.0377  0.1651 -0.0057
  742TMC3    O111027   2.305   0.148  15.342  0.3679  0.7538  0.6623
  742TMC3    O211028   1.950   0.254  15.002  0.4854 -0.1876  0.1953
  743MPD2     C11029   3.056   2.542   0.951 -0.0027 -0.0010 -0.3915
  743MPD2    C111030   3.159   2.452   0.922 -0.2482 -0.2226  0.8075
  743MPD2    C211031   3.287   2.506   0.913 -0.8427 -0.3032 -0.9357
  743MPD2    C311032   3.320   2.634   0.954 -0.2624  0.5500 -0.0165
  743MPD2    C411033   3.214   2.715   0.997 -0.3425 -0.6661 -0.3711
  743MPD2    C511034   3.084   2.670   0.991  0.7393 -0.0648  0.1843
  743MPD2     H11035   3.366   2.449   0.866  0.5805  1.0499 -0.1623
  743MPD2    H111036   3.225   2.817   1.031 -1.1476 -1.1647  1.3860
  743MPD2    H211037   2.955   2.504   0.938  0.7338 -0.8569 -3.6050
  743MPD2    H311038   3.000   2.735   1.011  1.3330  0.4157  1.1132
  743MPD2     N11039   3.454   2.674   0.965 -0.1773  0.2766 -0.2500
  743MPD2    H511040   3.524   2.607   0.935  2.5215  3.3975 -0.9551
  743MPD2    N111041   3.130   2.327   0.865 -0.0378 -0.2068  0.2599
  743MPD2    H711042   3.033   2.314   0.839 -0.4308 -0.2819  1.7792
  744TMC3    C111043   3.178   2.102   0.784  0.1489  0.5251 -0.0579
  744TMC3    C211044   3.084   2.114   0.690 -0.0055  0.0719  0.3801
  744TMC3    C311045   3.069   2.007   0.604  0.8060  0.3400  0.2941
  744TMC3    C411046   3.257   1.989   0.794 -0.0508  0.3809 -0.0249
  744TMC3    C511047   3.232   1.885   0.709 -0.1011 -0.5212  0.6459
  744TMC3    C611048   3.138   1.894   0.614  0.2480 -0.2977  0.1683
  744TMC3     C11049   3.224   2.228   0.853 -0.1071  0.3322  0.3237
  744TMC3     O11050   3.336   2.216   0.907  0.5377  0.1975 -0.1503
  744TMC3     H11051   3.028   2.206   0.678 -0.9354 -0.4519  0.6625
  744TMC3    H111052   3.339   1.987   0.865  1.4569  0.6218 -1.7525
  744TMC3    H211053   3.132   1.814   0.541 -0.2597  2.0802 -2.4071
  744TMC3    C711054   3.349   1.811   0.670  0.1265  0.1946  0.2062
  744TMC3    C811055   3.016   2.032   0.472 -0.1405 -0.1484  0.1628
  744TMC3    O111056   3.365   1.794   0.551  0.0005 -0.4356  0.5481
  744TMC3    O211057   3.009   2.152   0.442  0.3843  0.1690  0.1875
  745TMC3    C111058   1.890   0.390  13.496 -0.1663 -0.3793 -0.3773
  745TMC3    C211059   1.879   0.486  13.590 -0.2048 -0.6679  0.4570
  745TMC3    C311060   1.755   0.538  13.604  0.2687 -0.1276  0.4294
  745TMC3    C411061   1.794   0.354  13.413  0.1326 -0.6729  0.8312
  745TMC3    C511062   1.676   0.412  13.420 -0.4588 -0.1502 -0.2390
  745TMC3    C611063   1.651   0.496  13.526 -0.3060 -0.6453  0.3345
  745TMC3     C11064   2.016   0.340  13.454 -0.4673  0.0476 -0.1503
  745TMC3     O11065   2.026   0.227  13.407 -0.3742  0.1907 -0.2993
  745TMC3     H11066   1.962   0.503  13.657 -1.0260 -2.1425  1.8466
  745TMC3    H111067   1.816   0.293  13.326  0.7864  0.8156 -0.0347
  745TMC3    H211068   1.550   0.527  13.551  0.6363  1.7202  1.2519
  745TMC3    C711069   1.615   0.468  13.297  0.6149  0.4844  0.3454
  745TMC3    C811070   1.716   0.615  13.717 -0.1673  0.3494 -0.1802
  745TMC3    O111071   1.509   0.526  13.306 -0.3594 -0.4968 -0.5025
  745TMC3    O211072   1.601   0.659  13.721 -0.2046  0.4040  0.2972
  746TMC3    C111073   4.239   2.168  10.930 -0.0739  0.5859  0.6477
  746TMC3    C211074   4.279   2.112  10.812 -0.0639 -0.5112 -0.2291
  746TMC3    C311075   4.200   2.013  10.758 -0.2390  0.9141 -0.4385
  746TMC3    C411076   4.133   2.126  11.002 -0.0569  0.1963 -0.7204
  746TMC3    C511077   4.054   2.027  10.950 -0.5098 -0.6893  0.0153
  746TMC3    C611078   4.090   1.969  10.828  0.0069  0.7187  0.7241
  746TMC3     C11079   4.300   2.295  10.954  0.0033  0.3358  0.9231
  746TMC3     O11080   4.377   2.326  10.868  0.0580 -0.3831 -0.2273
  746TMC3     H11081   4.371   2.131  10.757  0.3913 -0.4978  0.5296
  746TMC3    H111082   4.089   2.173  11.089 -0.0638 -0.3642 -0.4199
  746TMC3    H211083   4.013   1.913  10.777 -0.1357 -1.0081  2.8516
  746TMC3    C711084   3.909   2.019  10.978 -0.4111  0.2178  0.3975
  746TMC3    C811085   4.215   2.008  10.614  0.3456 -0.4584 -0.6766
  746TMC3    O111086   3.834   2.015  10.880 -0.0294 -0.0432  0.2421
  746TMC3    O211087   4.202   1.905  10.554 -0.9721  0.4325 -0.4512
  747TMC3    C111088   1.988   2.596  11.123 -0.3678 -1.2699 -0.2663
  747TMC3    C211089   1.982   2.476  11.187 -0.1424 -1.0137  0.0504
  747TMC3    C311090   2.020   2.483  11.315  0.1142 -0.1804 -0.6619
  747TMC3    C411091   2.008   2.717  11.187  0.2304  0.2058 -0.0695
  747TMC3    C511092   2.049   2.712  11.319 -0.0836  0.3922  0.1230
  747TMC3    C611093   2.062   2.592  11.384  0.5013  0.1578  0.2226
  747TMC3     C11094   1.984   2.615  10.982  0.3750 -0.4964  0.3118
  747TMC3     O11095   1.960   2.731  10.938 -0.4141 -0.0655  0.3440
  747TMC3     H11096   1.973   2.375  11.147 -2.3525 -1.0901  0.7592
  747TMC3    H111097   2.016   2.811  11.135 -0.8408  0.1683 -0.3108
  747TMC3    H211098   2.109   2.579  11.481  0.1947  1.9643  0.6137
  747TMC3    C711099   2.095   2.837  11.372 -0.2226  0.3339 -1.0812
  747TMC3    C811100   2.002   2.362  11.399 -0.1593 -0.4655 -0.5308
  747TMC3    O111101   2.039   2.934  11.323 -0.2401 -0.1557 -0.0185
  747TMC3    O211102   2.094   2.341  11.476 -0.5465  0.3494 -0.1080
  748MPD2     C11103   3.128   3.372   0.747  0.3289  0.3439  0.4674
  748MPD2    C111104   3.174   3.252   0.794 -0.1871 -0.0139 -0.8034
  748MPD2    C211105   3.292   3.243   0.865  0.1145  0.0552  0.2008
  748MPD2    C311106   3.374   3.355   0.870  0.1808  0.4833 -0.0621
  748MPD2    C411107   3.331   3.473   0.815  0.2835 -0.3066 -0.2073
  748MPD2    C511108   3.213   3.479   0.747  0.4320  0.2411  0.0084
  748MPD2     H11109   3.314   3.151   0.919  1.0281 -0.2006 -0.6186
  748MPD2    H111110   3.393   3.561   0.828 -0.8587  0.2158  1.8548
  748MPD2    H211111   3.034   3.379   0.694  0.1562  0.5250  0.7970
  748MPD2    H311112   3.174   3.573   0.710  0.0584 -1.1087 -3.0112
  748MPD2     N11113   3.488   3.348   0.951 -0.4292 -0.3101  0.6181
  748MPD2    H511114   3.504   3.257   0.994 -1.7786 -1.2451 -0.8326
  748MPD2    N111115   3.099   3.129   0.772 -0.2117  0.4803 -0.2405
  748MPD2    H711116   3.014   3.146   0.719  0.3931  1.2479 -0.9695
  749TMC3    C111117   3.715   3.392   1.017  0.8709 -0.3215  0.1373
  749TMC3    C211118   3.703   3.294   1.115  0.2205  0.4367  1.2224
  749TMC3    C311119   3.814   3.209   1.121  0.4217 -0.3442  0.1579
  749TMC3    C411120   3.834   3.429   0.962  0.3985  0.2241 -0.5126
  749TMC3    C511121   3.944   3.351   0.986  0.6786  0.3374 -0.7538
  749TMC3    C611122   3.929   3.231   1.052  0.2803  0.0330 -0.2474
  749TMC3     C11123   3.589   3.441   0.964 -0.6412  0.1029  0.4152
  749TMC3     O11124   3.599   3.548   0.900 -0.6767  0.1547 -0.0950
  749TMC3     H11125   3.615   3.282   1.177  0.8123 -1.4752  1.6946
  749TMC3    H111126   3.847   3.522   0.907  1.6560  1.0257  1.1441
  749TMC3    H211127   4.004   3.153   1.053 -0.8423 -1.0274  2.1369
  749TMC3    C711128   4.067   3.390   0.908  0.3606  0.1493  0.4685
  749TMC3    C811129   3.795   3.084   1.188 -0.9073  0.2323  0.1599
  749TMC3    O111130   4.084   3.509   0.879 -0.0197  1.0792 -0.3163
  749TMC3    O211131   3.678   3.063   1.217  0.6173  0.9261  0.8029
  750MPD2     C11132   4.210   4.309  11.073  0.2165 -0.3700  0.3926
  750MPD2    C111133   4.213   4.274  11.207 -0.1747  0.2131  0.4659
  750MPD2    C211134   4.283   4.159  11.247  0.4933  0.3567  0.3090
  750MPD2    C311135   4.340   4.073  11.150 -0.1924 -0.1568 -0.4952
  750MPD2    C411136   4.340   4.115  11.018  0.3984 -0.0037  0.3117
  750MPD2    C511137   4.281   4.231  10.979 -0.0086  0.2353  0.4466
  750MPD2     H11138   4.285   4.136  11.353 -3.4978  2.8155  0.8844
  750MPD2    H111139   4.367   4.043  10.942 -0.6482  1.6489 -1.6177
  750MPD2    H211140   4.153   4.395  11.040  0.5450 -0.0838  0.5734
  750MPD2    H311141   4.275   4.261  10.875 -2.0211 -0.5564  0.3271
  750MPD2     N11142   4.378   3.941  11.169  0.6421  0.2952 -0.1656
  750MPD2    H511143   4.407   3.890  11.086 -2.2126 -0.0273 -0.9688
  750MPD2    N111144   4.136   4.361  11.292 -0.1593  0.0657 -1.2975
  750MPD2    H711145   4.078   4.424  11.238 -2.9872 -2.1749 -0.9064
  751TMC3    C111146   4.393   3.737  11.287  0.3245  0.1361  0.4272
  751TMC3    C211147   4.307   3.670  11.373 -0.1805  0.7318  0.2498
  751TMC3    C311148   4.321   3.533  11.374 -0.1486  0.1518  0.3404
  751TMC3    C411149   4.493   3.675  11.224 -0.4867  0.2982 -0.4506
  751TMC3    C511150   4.514   3.541  11.247  0.2139  0.6233  0.4450
  751TMC3    C611151   4.429   3.468  11.326 -0.2549 -0.2879 -0.4257
  751TMC3     C11152   4.379   3.882  11.291  0.4541 -0.1055  0.3007
  751TMC3     O11153   4.340   3.929  11.396  0.3716 -0.1716  0.5428
  751TMC3     H11154   4.218   3.710  11.421 -1.0257  0.7858 -1.3523
  751TMC3    H111155   4.553   3.738  11.159  1.5384  1.6224  2.7449
  751TMC3    H211156   4.438   3.364  11.353  1.4923  0.0247  0.1897
  751TMC3    C711157   4.581   3.465  11.147  0.3016  0.1242  0.6410
  751TMC3    C811158   4.205   3.455  11.385  0.5282 -0.0333 -0.0775
  751TMC3    O111159   4.570   3.510  11.031 -0.2138  0.0499  0.3475
  751TMC3    O211160   4.198   3.360  11.309  0.5322  0.2007  0.3688
  752TMC3    C111161   2.988   4.522  17.197 -0.1852  0.8518  0.2097
  752TMC3    C211162   2.937   4.413  17.258  0.5822  0.1782 -0.1561
  752TMC3    C311163   2.900   4.427  17.387  0.0568  0.2376  0.4045
  752TMC3    C411164   3.016   4.641  17.258  0.1398  0.1466 -0.1766
  752TMC3    C511165   2.974   4.647  17.390 -0.0103 -0.4787 -0.0630
  752TMC3    C611166   2.920   4.545  17.457 -0.0844  0.6894 -0.1053
  752TMC3     C11167   3.019   4.505  17.059  0.2804  0.7002 -0.4755
  752TMC3     O11168   2.965   4.413  17.000 -0.6589 -0.1021  0.4875
  752TMC3     H11169   2.919   4.318  17.209 -0.6493 -0.3101  1.2588
  752TMC3    H111170   3.054   4.726  17.203 -0.6445 -0.4948 -1.7217
  752TMC3    H211171   2.888   4.559  17.560 -0.8020 -0.5872 -0.1538
  752TMC3    C711172   2.987   0.036  17.465  0.6407 -0.3285 -0.3146
  752TMC3    C811173   2.770   4.352  17.419  0.8258  0.6839  0.5178
  752TMC3    O111174   2.989   0.027  17.587  0.5493 -0.3879  0.4539
  752TMC3    O211175   2.691   4.328  17.329 -0.2743 -0.1467 -0.0997
  753TMC3    C111176   4.738   0.522  13.103  0.5627 -0.1770 -0.2867
  753TMC3    C211177   0.061   0.494  13.219  0.6023  0.2739 -0.1298
  753TMC3    C311178   0.086   0.364  13.256  0.5943  0.1572  0.0429
  753TMC3    C411179   4.704   0.423  13.015  0.0879  0.5664 -0.7872
  753TMC3    C511180   4.725   0.290  13.059  0.3317  0.1263 -0.1884
  753TMC3    C611181   0.044   0.257  13.178 -0.3028  0.3234 -0.3359
  753TMC3     C11182   4.736   0.666  13.058  0.1256  0.2580  0.3947
  753TMC3     O11183   0.073   0.737  13.121 -0.0589 -0.0739 -0.2151
  753TMC3     H11184   0.080   0.571  13.293  0.0767 -1.0911  1.4243
  753TMC3    H111185   4.647   0.439  12.924 -0.0264  0.1621 -0.7896
  753TMC3    H211186   0.065   0.155  13.209  1.9363  1.4318  1.8063
  753TMC3    C711187   4.697   0.187  12.963 -0.2224 -0.5149 -0.2738
  753TMC3    C811188   0.152   0.338  13.375  0.0852 -0.3946  0.7603
  753TMC3    O111189   4.684   0.214  12.844  0.0402  0.0072  0.2276
  753TMC3    O211190   0.134   0.229  13.432  0.0932  0.4031 -0.3141
  754MPD2     C11191   4.417   3.555  13.030 -0.8386  0.1795  0.3545
  754MPD2    C111192   4.394   3.429  13.069 -0.2713  0.1602  0.2077
  754MPD2    C211193   4.262   3.384  13.088  0.2184 -0.0010  0.0563
  754MPD2    C311194   4.159   3.480  13.086  0.4213 -0.0818  0.0823
  754MPD2    C411195   4.191   3.612  13.075 -0.4524 -0.0201  0.0950
  754MPD2    C511196   4.318   3.650  13.032 -0.1229  0.3360  0.5864
  754MPD2     H11197   4.232   3.283  13.111 -0.2824  0.1638  0.1282
  754MPD2    H111198   4.115   3.690  13.079 -1.1533 -0.7349  0.6267
  754MPD2    H211199   4.517   3.593  13.011 -0.2973  0.3322  3.5516
  754MPD2    H311200   4.340   3.753  13.008 -0.2837  0.3945  0.6912
  754MPD2     N11201   4.022   3.444  13.117  0.1088  0.1730  0.4496
  754MPD2    H511202   3.952   3.517  13.105 -0.3035 -0.1649  0.8150
  754MPD2    N111203   4.499   3.342  13.078  0.5177  0.5483 -0.7052
  754MPD2    H711204   4.576   3.364  13.015  0.0246  1.1301 -1.0924
  755MPD2     C11205   3.465   4.007  13.260 -0.2207  0.6228 -0.4444
  755MPD2    C111206   3.448   3.927  13.364 -0.2601 -0.3206 -0.9083
  755MPD2    C211207   3.493   3.799  13.351 -0.0109 -0.0645 -0.6642
  755MPD2    C311208   3.555   3.754  13.234  0.4436 -0.3117  0.7890
  755MPD2    C411209   3.577   3.840  13.132  0.0028 -0.4910 -0.2438
  755MPD2    C511210   3.533   3.966  13.143  0.1426 -0.8292  0.2981
  755MPD2     H11211   3.491   3.744  13.444  0.4984  0.6390 -0.2422
  755MPD2    H111212   3.634   3.807  13.046 -0.1227  1.3368 -1.0146
  755MPD2    H211213   3.426   4.108  13.263 -0.2440  0.6445 -1.5347
  755MPD2    H311214   3.548   4.032  13.059 -3.1666 -1.7150 -0.9798
  755MPD2     N11215   3.594   3.626  13.215 -0.5739 -0.6937  0.3702
  755MPD2    H511216   3.658   3.617  13.137  1.0746 -1.0586  1.7505
  755MPD2    N111217   3.392   3.972  13.486  0.0252  0.6830  0.0390
  755MPD2    H711218   3.389   3.901  13.559 -1.3694  1.9824  1.2575
  756MPD2     C11219   4.477   4.722   9.542  0.1023 -0.0365  0.1861
  756MPD2    C111220   4.356   4.652   9.570  0.2408 -0.5630 -0.3576
  756MPD2    C211221   4.271   4.637   9.464  0.2780 -0.2460 -0.1645
  756MPD2    C311222   4.302   4.687   9.338  0.0430 -0.4766 -0.1598
  756MPD2    C411223   4.427   4.736   9.309 -0.4083  0.0722 -0.2880
  756MPD2    C511224   4.516   0.016   9.415  0.3383  0.0397  0.1472
  756MPD2     H11225   4.172   4.597   9.484  0.0168  0.4818 -0.0094
  756MPD2    H111226   4.467   0.026   9.213  0.3852 -1.5518 -0.4675
  756MPD2    H211227   4.550   0.012   9.617 -1.7055  1.4983  1.3260
  756MPD2    H311228   4.614   0.059   9.398 -0.4412  1.8829  0.2984
  756MPD2     N11229   4.198   4.677   9.242 -0.6500  0.3832 -0.3734
  756MPD2    H511230   4.123   4.610   9.252  0.8048 -1.0279  1.0464
  756MPD2    N111231   4.318   4.608   9.703  0.3461 -0.1714 -0.2565
  756MPD2    H711232   4.226   4.564   9.705 -0.1714  0.9449  0.5985
  757MPD2     C11233   3.651   4.022   9.029 -0.7266 -0.0239 -0.6246
  757MPD2    C111234   3.717   4.061   9.137  0.5392  0.7774 -0.0944
  757MPD2    C211235   3.784   4.186   9.133 -0.0856  0.0196 -0.1457
  757MPD2    C311236   3.775   4.275   9.030 -0.3796 -0.3138 -0.8782
  757MPD2    C411237   3.704   4.232   8.917 -0.6573  0.0945  0.0355
  757MPD2    C511238   3.644   4.103   8.915 -0.1783  0.3282 -1.0129
  757MPD2     H11239   3.850   4.207   9.217  2.5388 -0.9179 -1.9735
  757MPD2    H111240   3.706   4.280   8.820  3.8132  2.4552  1.3021
  757MPD2    H211241   3.610   3.922   9.017 -0.5034  0.0781 -2.2789
  757MPD2    H311242   3.594   4.074   8.823  1.0986 -1.5618 -1.1198
  757MPD2     N11243   3.846   4.401   9.026  0.2158  0.5427  0.6469
  757MPD2    H511244   3.914   4.421   9.098  1.0659 -1.0074  0.2917
  757MPD2    N111245   3.733   3.961   9.237  0.0036  0.6490 -0.0462
  757MPD2    H711246   3.693   3.869   9.219 -0.1509  0.3812  1.6759
  758MPD2     C11247   4.062   3.881  15.508  0.0291 -0.3846  0.0992
  758MPD2    C111248   4.045   3.757  15.563  0.0829 -0.2686 -0.2787
  758MPD2    C211249   3.964   3.745  15.678 -0.4095 -0.4862 -0.2233
  758MPD2    C311250   3.904   3.858  15.737  0.2172  0.0594 -0.0944
  758MPD2    C411251   3.916   3.979  15.674 -0.6321  0.0647 -0.1815
  758MPD2    C511252   3.998   3.995  15.564 -0.6358  0.1371  0.4368
  758MPD2     H11253   3.953   3.643  15.715 -1.2027 -0.2593  0.1694
  758MPD2    H111254   3.870   4.066  15.721  1.0684  0.1298  1.3572
  758MPD2    H211255   4.120   3.902  15.420  0.5554 -2.8942 -0.1510
  758MPD2    H311256   4.012   4.096  15.529 -0.0911  0.2955  1.1087
  758MPD2     N11257   3.840   3.849  15.867 -0.4874  0.1200  0.4034
  758MPD2    H511258   3.810   3.938  15.906 -2.7643 -1.1138  1.3933
  758MPD2    N111259   4.091   3.635  15.511  0.2969  0.0962  0.4163
  758MPD2    H711260   4.073   3.553  15.568 -0.5197 -0.6125 -0.8526
  759MPD2     C11261   3.394   2.328  10.286  0.3067  0.0513 -0.4472
  759MPD2    C111262   3.286   2.240  10.268  0.0937  0.7270  0.1401
  759MPD2    C211263   3.175   2.304  10.214  0.7196  0.1559  0.2143
  759MPD2    C311264   3.168   2.438  10.206  0.2244  0.4109  0.6115
  759MPD2    C411265   3.275   2.519  10.238 -1.0261 -0.3117 -0.5125
  759MPD2    C511266   3.392   2.462  10.276  0.1754 -0.6569  0.4144
  759MPD2     H11267   3.084   2.248  10.197 -0.6132  1.6360  2.4781
  759MPD2    H111268   3.266   2.626  10.224 -1.8145 -0.3037  0.0941
  759MPD2    H211269   3.491   2.285  10.310  0.5016  0.0360 -1.2573
  759MPD2    H311270   3.480   2.521  10.296 -0.9676  0.6695  1.5409
  759MPD2     N11271   3.056   2.496  10.142  0.2439 -0.2032  0.0508
  759MPD2    H511272   2.981   2.432  10.116  2.2755 -2.2509 -0.7819
  759MPD2    N111273   3.277   2.099  10.279 -0.2631 -0.0712 -0.0283
  759MPD2    H711274   3.191   2.053  10.252 -0.4691  0.1579  0.2378
  760MPD2     C11275   2.322   3.839  12.016  0.2811 -0.8433 -0.1730
  760MPD2    C111276   2.458   3.794  12.010  1.0392  0.8437 -0.0386
  760MPD2    C211277   2.511   3.705  12.105 -0.1164  0.2079  0.5896
  760MPD2    C311278   2.431   3.652  12.198  0.2019  0.2557  0.5067
  760MPD2    C411279   2.294   3.696  12.208  0.0271 -0.1234  0.1819
  760MPD2    C511280   2.250   3.789  12.121  0.0203 -0.8393 -0.2103
  760MPD2     H11281   2.617   3.680  12.098 -0.7733 -2.2253 -0.4714
  760MPD2    H111282   2.224   3.665  12.284  2.7351 -0.6563  2.4742
  760MPD2    H211283   2.272   3.919  11.961 -0.4213 -0.0877  1.5698
  760MPD2    H311284   2.152   3.828  12.142  0.5174  0.6234 -0.6447
  760MPD2     N11285   2.482   3.572  12.306  0.4073 -0.1883 -0.0110
  760MPD2    H511286   2.418   3.528  12.371  0.4293  0.0689  0.1861
  760MPD2    N111287   2.550   3.854  11.926 -0.3490  0.2458 -0.3002
  760MPD2    H711288   2.641   3.810  11.915  0.1354  1.5912 -1.6478
  761MPD2     C11289   3.740   3.320  11.542 -0.2630 -0.3629  0.0083
  761MPD2    C111290   3.793   3.304  11.413 -0.5293  0.5791 -0.5250
  761MPD2    C211291   3.920   3.362  11.392  0.3248 -0.5288 -0.6923
  761MPD2    C311292   3.982   3.436  11.492 -0.2983 -0.6109 -0.2059
  761MPD2    C411293   3.927   3.455  11.617 -0.4448  0.4788  0.2380
  761MPD2    C511294   3.807   3.393  11.645 -0.0485  0.2547 -0.2432
  761MPD2     H11295   3.966   3.338  11.297  1.7218 -0.8489  0.0724
  761MPD2    H111296   3.975   3.511  11.696  2.6058 -0.1862 -1.1517
  761MPD2    H211297   3.649   3.270  11.572 -1.1909  2.0167  1.2233
  761MPD2    H311298   3.762   3.401  11.743  1.3595  2.2090  0.2450
  761MPD2     N11299   4.115   3.494  11.479  0.3971 -0.4251  0.0990
  761MPD2    H511300   4.140   3.568  11.544  0.9680 -1.9910  1.6466
  761MPD2    N111301   3.721   3.219  11.324  0.1117 -0.2273  0.6284
  761MPD2    H711302   3.632   3.182  11.356  0.3551 -0.4951  0.9852
  762MPD2     C11303   3.790   3.318  10.593  0.4164 -0.8184 -0.8550
  762MPD2    C111304   3.773   3.186  10.624  0.3479  0.4306  0.2350
  762MPD2    C211305   3.850   3.086  10.563  0.4319 -0.3829  0.2369
  762MPD2    C311306   3.940   3.122  10.460  0.0566 -1.2663 -0.8135
  762MPD2    C411307   3.951   3.256  10.432  0.0257 -0.3392 -0.6215
  762MPD2    C511308   3.883   3.353  10.500 -0.5278  0.0447 -0.8975
  762MPD2     H11309   3.845   2.981  10.591  0.4564 -0.4562 -0.0370
  762MPD2    H111310   4.021   3.289  10.356  2.3356 -1.0933  1.1901
  762MPD2    H211311   3.743   3.403  10.641  1.0892 -1.4872  0.9886
  762MPD2    H311312   3.890   3.456  10.468 -1.1279 -0.1977 -1.8082
  762MPD2     N11313   4.021   3.021  10.396  0.3068 -0.4926  0.4358
  762MPD2    H511314   4.033   2.926  10.431  1.5396  0.2389  1.9958
  762MPD2    N111315   3.688   3.164  10.732 -0.1627  0.3712  0.3883
  762MPD2    H711316   3.662   3.244  10.789 -1.4103  1.5856 -1.8542
  763MPD2     C11317   1.230   3.473  16.036  0.2868  0.0995 -0.6015
  763MPD2    C111318   1.111   3.534  16.018  0.1035  0.3616 -0.6755
  763MPD2    C211319   1.089   3.664  16.052  0.2490 -0.1342  0.5424
  763MPD2    C311320   1.200   3.735  16.105 -0.1653 -0.2334 -0.7101
  763MPD2    C411321   1.321   3.681  16.128  0.4871  0.1595 -0.3938
  763MPD2    C511322   1.323   3.549  16.091 -0.1000  0.3849 -0.5802
  763MPD2     H11323   0.993   3.711  16.034  0.1695 -1.4517 -2.4510
  763MPD2    H111324   1.403   3.727  16.181 -0.4281  0.3181  0.8749
  763MPD2    H211325   1.258   3.371  16.014  3.3605  0.6014  1.0003
  763MPD2    H311326   1.413   3.506  16.135 -1.3486  0.1691  1.7446
  763MPD2     N11327   1.194   3.876  16.138 -0.1777 -0.1775  0.2784
  763MPD2    H511328   1.279   3.919  16.174 -0.5849 -0.9542  2.1217
  763MPD2    N111329   1.012   3.471  15.942  0.4874 -0.1973 -0.3961
  763MPD2    H711330   0.945   3.537  15.905 -0.9989 -0.8406  1.1411
  764MPD2     C11331   3.839   0.434  17.385 -0.2040  0.2095 -0.0496
  764MPD2    C111332   3.739   0.367  17.318  0.3122 -0.7275 -1.0191
  764MPD2    C211333   3.690   0.252  17.381  0.6779 -0.3512 -0.3255
  764MPD2    C311334   3.743   0.205  17.499 -0.3437  0.5423 -0.1327
  764MPD2    C411335   3.854   0.266  17.557 -0.0484 -0.6393 -0.3293
  764MPD2    C511336   3.901   0.380  17.496 -0.1660 -0.3240  0.0753
  764MPD2     H11337   3.613   0.197  17.329  0.9364  0.2277 -1.3241
  764MPD2    H111338   3.898   0.229  17.649 -0.8217 -2.7208 -0.7869
  764MPD2    H211339   3.871   0.530  17.346  2.7514 -0.1327  1.5190
  764MPD2    H311340   3.984   0.444  17.526 -1.5658  1.3106  0.4276
  764MPD2     N11341   3.679   0.089  17.553 -0.0628 -0.3305  0.3300
  764MPD2    H511342   3.596   0.051  17.509 -0.6176  1.3062 -0.0582
  764MPD2    N111343   3.687   0.406  17.201 -0.2266  0.4353 -0.0129
  764MPD2    H711344   3.616   0.348  17.158 -1.1966  0.4376  1.5710
  765MPD2     C11345   3.685   2.883  15.451  0.0280 -0.6349  0.1507
  765MPD2    C111346   3.755   2.944  15.549  0.4441  0.5448  0.5615
  765MPD2    C211347   3.889   2.908  15.570  0.2906 -0.2073  0.5067
  765MPD2    C311348   3.935   2.795  15.497 -0.3500 -1.2808  0.3413
  765MPD2    C411349   3.854   2.728  15.410 -0.4545  0.6729 -0.4903
  765MPD2    C511350   3.728   2.780  15.380 -0.3235 -0.6443  0.1684
  765MPD2     H11351   3.948   2.952  15.649 -0.9580  1.0019  0.7733
  765MPD2    H111352   3.887   2.636  15.362  3.6222  0.9419  1.7695
  765MPD2    H211353   3.589   2.928  15.426  1.1845  0.2983 -2.6698
  765MPD2    H311354   3.675   2.730  15.300 -0.9535  1.2309 -0.5686
  765MPD2     N11355   4.068   2.756  15.532 -0.1575  0.0022  0.7607
  765MPD2    H511356   4.117   2.793  15.613 -0.2244  0.8288  0.4245
  765MPD2    N111357   3.696   3.046  15.611 -0.2325 -0.0581 -0.8975
  765MPD2    H711358   3.598   3.063  15.590 -0.0922  0.4216 -1.1508
  766MPD2     C11359   3.146   3.333  15.360 -0.2934 -0.0341  0.0760
  766MPD2    C111360   3.252   3.261  15.405  0.5832  0.9893 -0.0061
  766MPD2    C211361   3.340   3.188  15.323  0.1132 -0.9698  0.0168
  766MPD2    C311362   3.326   3.197  15.183 -0.1050 -0.4131 -0.2116
  766MPD2    C411363   3.217   3.274  15.138  0.4955 -0.2230 -0.5158
  766MPD2    C511364   3.130   3.338  15.219  0.1241 -0.7748  0.5759
  766MPD2     H11365   3.422   3.130  15.363 -0.5110 -1.5080  0.5160
  766MPD2    H111366   3.197   3.276  15.032  0.1219  0.1746 -0.4333
  766MPD2    H211367   3.082   3.384  15.431 -0.8281 -2.4667  1.3316
  766MPD2    H311368   3.054   3.395  15.167  0.3916 -0.9479 -0.0004
  766MPD2     N11369   3.408   3.139  15.090  0.0348  0.3217 -0.1889
  766MPD2    H511370   3.379   3.169  14.997  2.2065 -1.1635 -1.3506
  766MPD2    N111371   3.280   3.275  15.546  0.4188 -0.1025 -0.0196
  766MPD2    H711372   3.228   3.341  15.604  0.0985 -1.7340  1.5561
  767MPD2     C11373   2.924   3.557  15.010  0.4561 -1.0286 -0.9218
  767MPD2    C111374   3.050   3.550  14.951 -0.7038  0.3036  0.4649
  767MPD2    C211375   3.069   3.471  14.844 -0.1095 -0.3534  0.3455
  767MPD2    C311376   2.959   3.409  14.790 -0.3722  0.1988 -0.6102
  767MPD2    C411377   2.828   3.436  14.838 -0.3149 -0.3552 -0.1779
  767MPD2    C511378   2.814   3.512  14.948 -0.1127  0.6065 -0.3753
  767MPD2     H11379   3.169   3.453  14.806 -0.5720 -2.1886  0.0063
  767MPD2    H111380   2.740   3.394  14.793 -0.8958  0.6739 -0.0128
  767MPD2    H211381   2.919   3.607  15.106 -1.0476 -2.2130 -0.3724
  767MPD2    H311382   2.716   3.521  14.994 -0.0098  0.9117 -0.2162
  767MPD2     N11383   2.981   3.322  14.683 -0.4650 -0.0133  0.4531
  767MPD2    H511384   3.080   3.314  14.661 -0.9628 -0.7085 -1.5525
  767MPD2    N111385   3.160   3.612  15.014 -0.0855  0.2481 -0.6921
  767MPD2    H711386   3.249   3.580  14.978  0.6960  0.1600  1.2893
  768MPD2     C11387   3.511   1.789  10.666 -0.5958 -0.0266  0.1088
  768MPD2    C111388   3.503   1.803  10.805  0.3965  0.2547 -0.2842
  768MPD2    C211389   3.615   1.777  10.888 -0.0213 -0.9181 -0.5076
  768MPD2    C311390   3.728   1.716  10.835  0.5914 -0.4817 -0.1555
  768MPD2    C411391   3.738   1.705  10.694  0.3457 -0.4960 -0.0276
  768MPD2    C511392   3.631   1.743  10.617 -0.5769  0.5738  0.1469
  768MPD2     H11393   3.605   1.812  10.990  0.2573  0.0550 -0.8104
  768MPD2    H111394   3.827   1.673  10.642  0.8792  1.2904 -0.2009
  768MPD2    H211395   3.444   1.820  10.587 -0.9740 -0.2656  0.3351
  768MPD2    H311396   3.655   1.753  10.512  0.0446 -0.3156  0.1982
  768MPD2     N11397   3.840   1.677  10.909 -0.1536 -0.0457 -0.1156
  768MPD2    H511398   3.932   1.669  10.866 -0.1472 -0.0221 -0.1066
  768MPD2    N111399   3.395   1.863  10.872 -0.2500 -0.0361 -0.0756
  768MPD2    H711400   3.404   1.891  10.969 -1.1035  2.2814 -0.6623
  769MPD2     C11401   0.686   4.519  14.449  0.4455 -0.2785 -0.4944
  769MPD2    C111402   0.615   4.429  14.521  0.5838  0.4900 -0.9994
  769MPD2    C211403   0.635   4.434  14.661  0.2479 -0.0670  0.4323
  769MPD2    C311404   0.715   4.520  14.726 -0.4042  0.4702 -0.2180
  769MPD2    C411405   0.777   4.615  14.648 -0.3583 -0.2310 -0.3882
  769MPD2    C511406   0.771   4.609  14.509  0.1546 -0.9429  0.4552
  769MPD2     H11407   0.589   4.360  14.726  2.7215 -1.0479  1.0897
  769MPD2    H111408   0.836   4.698  14.686 -2.4078  0.7534  0.6390
  769MPD2    H211409   0.685   4.508  14.341 -1.1667 -1.8588 -0.3262
  769MPD2    H311410   0.833   4.671  14.444  2.1691  0.4104  3.6839
  769MPD2     N11411   0.720   4.513  14.866 -0.4665 -0.0797  0.0573
  769MPD2    H511412   0.665   4.440  14.909 -1.6817  2.3009  2.4992
  769MPD2    N111413   0.526   4.338  14.453  0.6282  0.2141  0.0490
  769MPD2    H711414   0.528   4.340  14.351 -0.3745  1.2499  0.0482
  770MPD2     C11415   0.023   3.366  14.594 -0.7047  0.6568  0.6718
  770MPD2    C111416   4.679   3.436  14.520  0.5539 -0.6374  0.1786
  770MPD2    C211417   4.715   3.565  14.488  0.1574 -0.7110  0.5098
  770MPD2    C311418   0.101   3.613  14.520 -0.0545 -0.1682  0.5149
  770MPD2    C411419   0.189   3.534  14.589 -0.4666 -0.4183 -0.3131
  770MPD2    C511420   0.147   3.411  14.626  0.1734 -0.3576  0.5406
  770MPD2     H11421   4.652   3.631  14.428  1.1633  0.1981  0.4528
  770MPD2    H111422   0.287   3.564  14.623 -0.2868 -0.8522 -0.4496
  770MPD2    H211423   4.729   3.272  14.637  2.3762 -1.3260 -1.2959
  770MPD2    H311424   0.211   3.354  14.692  0.0174 -2.2151 -0.9341
  770MPD2     N11425   0.141   3.743  14.481  0.3356  0.7765 -0.0808
  770MPD2    H511426   0.077   3.802  14.428  0.3164  0.1868 -0.7187
  770MPD2    N111427   4.551   3.382  14.480  0.2268  0.6547 -0.2586
  770MPD2    H711428   4.552   3.281  14.489 -0.8366  0.5847 -0.9728
  771MPD2     C11429   1.360   2.582  13.810 -0.5386 -0.2648  0.1970
  771MPD2    C111430   1.268   2.618  13.710 -0.2404 -0.0436  0.1888
  771MPD2    C211431   1.230   2.521  13.626  0.5517 -0.1175  0.0786
  771MPD2    C311432   1.276   2.394  13.637  1.0872  0.3106  0.4179
  771MPD2    C411433   1.363   2.360  13.738 -0.2591  0.0617 -0.1687
  771MPD2    C511434   1.403   2.454  13.828 -0.2800  0.0212  0.2349
  771MPD2     H11435   1.165   2.539  13.541 -0.2977 -1.7572  0.3738
  771MPD2    H111436   1.390   2.256  13.746  2.2196  0.7145 -0.0234
  771MPD2    H211437   1.397   2.655  13.881 -0.1017  0.0894 -0.3990
  771MPD2    H311438   1.469   2.431  13.911  1.0461  0.5247 -0.6695
  771MPD2     N11439   1.236   2.298  13.535 -0.1981 -0.5849  0.7573
  771MPD2    H511440   1.182   2.333  13.457 -0.2611  0.5754  1.3329
  771MPD2    N111441   1.225   2.752  13.711  0.2995  0.7496 -0.0279
  771MPD2    H711442   1.276   2.821  13.765 -0.7799  1.1755  0.4448
  772MPD2     C11443   0.618   3.073  13.314 -0.2950 -0.2222 -0.3179
  772MPD2    C111444   0.631   3.076  13.454 -0.2768 -0.2586  0.8519
  772MPD2    C211445   0.527   3.032  13.529  0.1628  0.2156 -0.8030
  772MPD2    C311446   0.399   3.016  13.474  0.4551  0.1381 -0.2592
  772MPD2    C411447   0.393   3.002  13.338  0.4815 -0.4814  0.1958
  772MPD2    C511448   0.498   3.039  13.259 -0.2105  0.1452  0.3974
  772MPD2     H11449   0.528   3.043  13.637  1.8372 -0.9636 -0.7045
  772MPD2    H111450   0.306   2.972  13.281  1.4612 -1.1150 -0.9626
  772MPD2    H211451   0.702   3.086  13.247 -0.2571 -1.3691 -0.4857
  772MPD2    H311452   0.479   3.026  13.153 -0.4324  2.0197  0.2140
  772MPD2     N11453   0.277   2.999  13.545 -0.1973  0.2033 -0.1941
  772MPD2    H511454   0.190   3.007  13.492  0.0536  0.9063 -0.4948
  772MPD2    N111455   0.760   3.096  13.510  0.5481  0.1271  0.3441
  772MPD2    H711456   0.759   3.084  13.611  1.6855  2.8215  0.6789
  773MPD2     C11457   4.572   3.855   0.063 -0.2679  0.0215 -0.0825
  773MPD2    C111458   4.525   3.750  17.737 -0.8800 -0.6743  0.3967
  773MPD2    C211459   4.560   3.619   0.022  0.5226 -0.0682  0.0623
  773MPD2    C311460   4.649   3.594   0.121 -0.7017 -0.3952 -0.1014
  773MPD2    C411461   4.685   3.695   0.206  0.2690  0.4247  0.5051
  773MPD2    C511462   4.648   3.825   0.175 -0.2026 -0.4774  0.2270
  773MPD2     H11463   4.524   3.533  17.721 -0.1100 -0.7593  1.5298
  773MPD2    H111464   0.014   3.675   0.288  0.4956 -1.5507 -0.1749
  773MPD2    H211465   4.549   3.959   0.048 -2.3416 -0.7977 -2.5714
  773MPD2    H311466   4.684   3.902   0.242 -0.4632 -0.9037  0.8628
  773MPD2     N11467   4.687   3.460   0.139  0.1390  0.3742 -0.3465
  773MPD2    H511468   4.655   3.403   0.061 -0.1237  0.4068 -0.2618
  773MPD2    N111469   4.421   3.768  17.638  0.8125 -0.4464  0.6038
  773MPD2    H711470   4.384   3.684  17.595  0.3090 -0.8831  1.8783
  774MPD2     C11471   3.781   2.646  13.397  0.8122  0.0443  1.0060
  774MPD2    C111472   3.771   2.771  13.467 -0.3454 -0.2906 -0.0393
  774MPD2    C211473   3.882   2.849  13.453 -0.5899  0.7063  0.0829
  774MPD2    C311474   3.999   2.819  13.380 -0.1538 -0.5548 -0.3864
  774MPD2    C411475   3.996   2.699  13.304  0.5152 -0.3128 -0.1721
  774MPD2    C511476   3.897   2.616  13.322 -0.0381  0.1148  0.2226
  774MPD2     H11477   3.889   2.946  13.499  2.9596 -0.1300  1.3281
  774MPD2    H111478   4.083   2.674  13.244  1.9349  1.5462  1.0809
  774MPD2    H211479   3.696   2.580  13.388 -0.1045  1.3994 -0.3126
  774MPD2    H311480   3.900   2.528  13.260 -2.1107 -0.1955  0.5460
  774MPD2     N11481   4.104   2.914  13.388  0.2919  0.0848 -0.6595
  774MPD2    H511482   4.100   2.989  13.456  1.9260  1.3450 -1.9632
  774MPD2    N111483   3.658   2.813  13.543 -0.1392 -0.3383 -0.0915
  774MPD2    H711484   3.583   2.750  13.569 -2.2734  2.2426 -0.0175
  775MPD2     C11485   0.748   4.298  15.570 -0.4263 -0.1609 -0.2908
  775MPD2    C111486   0.699   4.431  15.567 -0.3258 -0.0605  0.3947
  775MPD2    C211487   0.771   4.526  15.497 -0.5218 -0.7559  0.2612
  775MPD2    C311488   0.890   4.493  15.433  0.1667  0.7968  0.6257
  775MPD2    C411489   0.926   4.360  15.433 -0.6171 -0.0020 -0.3431
  775MPD2    C511490   0.863   4.270  15.509  0.7433  0.4122  0.0678
  775MPD2     H11491   0.723   4.623  15.500  1.9807  0.3816  3.2475
  775MPD2    H111492   1.006   4.325  15.368  1.5004 -0.7209  2.6657
  775MPD2    H211493   0.694   4.223  15.627 -0.5687  1.2326  1.3985
  775MPD2    H311494   0.899   4.168  15.502  1.1695  0.5723 -0.0661
  775MPD2     N11495   0.961   4.593  15.367  0.1118  0.7945  0.0203
  775MPD2    H511496   1.036   4.558  15.308 -1.4532  2.0671 -2.7258
  775MPD2    N111497   0.570   4.450  15.625  0.6106 -0.4236  0.6119
  775MPD2    H711498   0.516   4.367  15.649 -0.2655  0.2352  0.9133
  776MPD2     C11499   3.850   0.286  11.429 -0.8192 -0.0539  0.3674
  776MPD2    C111500   3.950   0.206  11.480  0.8328 -0.8508  0.7629
  776MPD2    C211501   4.063   0.271  11.535  0.2145  0.6522 -0.6513
  776MPD2    C311502   4.088   0.409  11.520  0.4096  0.7308  0.2902
  776MPD2    C411503   3.994   0.484  11.458  0.3861 -0.1608 -1.0324
  776MPD2    C511504   3.875   0.422  11.419  0.0028  0.2901 -0.2058
  776MPD2     H11505   4.139   0.208  11.580 -0.8765 -1.0717 -1.2533
  776MPD2    H111506   3.995   0.593  11.455  1.3060 -0.1606 -0.7016
  776MPD2    H211507   3.759   0.255  11.380  0.5568 -2.2371 -0.8035
  776MPD2    H311508   3.801   0.479  11.364  0.9799  0.7451 -1.0341
  776MPD2     N11509   4.208   0.473  11.564 -0.3443 -0.0936 -0.6203
  776MPD2    H511510   4.232   0.552  11.506  1.4566  0.5084  0.9534
  776MPD2    N111511   3.946   0.064  11.482 -0.0288 -0.1296 -0.6741
  776MPD2    H711512   4.030   0.022  11.521  0.4059  0.2276 -1.2148
  777MPD2     C11513   4.564   2.336   0.558  0.0878  0.4233 -0.8467
  777MPD2    C111514   4.469   2.294   0.644  0.1349 -0.1598 -0.4412
  777MPD2    C211515   4.360   2.226   0.600  0.4094 -0.5249 -0.1993
  777MPD2    C311516   4.353   2.176   0.475  0.3169 -0.7513 -0.4989
  777MPD2    C411517   4.463   2.201   0.394 -0.3504 -0.4123  0.6656
  777MPD2    C511518   4.558   2.295   0.426 -0.5331  0.1019  0.2364
  777MPD2     H11519   4.288   2.189   0.673 -0.0139 -0.8738 -0.7957
  777MPD2    H111520   4.484   2.148   0.301 -0.6550  2.1425 -0.8486
  777MPD2    H211521   4.649   2.396   0.588  0.3760 -0.1557 -0.5020
  777MPD2    H311522   4.626   2.325   0.347 -1.5139  2.7438  0.4006
  777MPD2     N11523   4.240   2.092   0.438  0.8757  0.3115  0.1890
  777MPD2    H511524   4.162   2.093   0.503 -0.1829 -2.5632 -0.9997
  777MPD2    N111525   4.481   2.347   0.776  0.5412  0.1638 -0.2825
  777MPD2    H711526   4.566   2.399   0.794  0.9238  0.0558 -1.7399
  778MPD2     C11527   1.111   2.701  14.628 -0.5341  0.3354  0.2588
  778MPD2    C111528   1.150   2.597  14.541 -0.3237 -0.0684  0.0435
  778MPD2    C211529   1.279   2.606  14.492  0.1587  0.6541  0.1872
  778MPD2    C311530   1.361   2.718  14.513  0.2517  0.3741  0.2080
  778MPD2    C411531   1.310   2.825  14.585 -0.1860  0.0080 -0.1594
  778MPD2    C511532   1.182   2.820  14.631  0.5331 -0.0344 -0.5504
  778MPD2     H11533   1.315   2.525  14.430  1.0040 -0.4514  2.1206
  778MPD2    H111534   1.361   2.919  14.604  0.1659 -0.2684  0.2443
  778MPD2    H211535   1.017   2.695  14.681  0.6054  1.4077  2.3921
  778MPD2    H311536   1.162   2.911  14.686 -3.0378 -0.6036 -0.9158
  778MPD2     N11537   1.507   2.712  14.477  0.1840 -0.4675  0.0331
  778MPD2    H511538   1.546   2.621  14.455  0.9799  0.0710 -0.7782
  778MPD2    N111539   1.062   2.484  14.514 -0.3204 -0.5655  0.4610
  778MPD2    H711540   1.091   2.408  14.453  1.0984 -1.2145  1.9549
  779MPD2     C11541   1.106   1.271  13.564  0.0677 -0.0998  0.3989
  779MPD2    C111542   1.055   1.274  13.693  0.3133  0.1107  0.3187
  779MPD2    C211543   1.055   1.394  13.760 -0.2441  0.7407  0.0770
  779MPD2    C311544   1.100   1.508  13.698  0.1596  0.4469  0.1662
  779MPD2    C411545   1.140   1.503  13.565  0.7349  0.2239 -0.4769
  779MPD2    C511546   1.150   1.383  13.496  0.0971 -0.0467  1.0072
  779MPD2     H11547   1.004   1.403  13.855  0.9582  1.0322  0.6936
  779MPD2    H111548   1.180   1.589  13.512 -1.2807  1.2658 -0.3009
  779MPD2    H211549   1.115   1.175  13.513 -2.5201 -0.2800  0.2826
  779MPD2    H311550   1.183   1.392  13.393 -1.2614 -0.3994  0.5312
  779MPD2     N11551   1.097   1.637  13.766 -0.7759  0.1052 -0.3552
  779MPD2    H511552   1.096   1.630  13.867  1.3063  1.3283 -0.2430
  779MPD2    N111553   0.996   1.163  13.750 -0.3655  0.1326 -0.0665
  779MPD2    H711554   0.952   1.192  13.837 -1.2700  0.2972 -0.5856
  780MPD2     C11555   1.335   0.934   0.647  0.8794  0.4103 -0.5315
  780MPD2    C111556   1.251   0.875   0.555 -0.0189  1.0156 -1.0526
  780MPD2    C211557   1.137   0.951   0.517  0.6217 -0.2559 -0.0007
  780MPD2    C311558   1.125   1.088   0.545 -0.3867 -0.4852  0.1301
  780MPD2    C411559   1.228   1.145   0.618  0.1774  0.2293  0.0788
  780MPD2    C511560   1.321   1.066   0.673  0.1333  0.3134 -0.7395
  780MPD2     H11561   1.054   0.904   0.466  0.7823  0.7541 -1.1933
  780MPD2    H111562   1.241   1.243   0.661 -0.9805  1.0087 -1.3694
  780MPD2    H211563   1.421   0.886   0.691 -1.5113 -1.4183  2.1403
  780MPD2    H311564   1.395   1.121   0.729  0.6457 -0.9000 -0.2309
  780MPD2     N11565   1.013   1.160   0.496 -0.2412 -0.2495  0.2137
  780MPD2    H511566   0.941   1.111   0.443  3.5161 -3.2984 -2.1270
  780MPD2    N111567   1.266   0.738   0.515  0.0073  0.0558  0.5358
  780MPD2    H711568   1.344   0.692   0.561 -0.7432 -2.2835 -0.5570
  781MPD2     C11569   1.764   3.537  12.174  0.1157 -0.1963  0.1205
  781MPD2    C111570   1.854   3.441  12.150 -0.3926  0.5162 -0.5554
  781MPD2    C211571   1.960   3.471  12.070  0.6617  0.6790 -0.2090
  781MPD2    C311572   1.963   3.587  11.991  0.1213  0.2283 -0.0016
  781MPD2    C411573   1.879   3.692  12.024 -0.6559  0.2550  0.1765
  781MPD2    C511574   1.786   3.663  12.118  0.3162 -0.0132 -0.1906
  781MPD2     H11575   2.031   3.389  12.062  0.1283  0.3903 -1.8407
  781MPD2    H111576   1.873   3.791  11.981 -3.9916  0.0512  0.2095
  781MPD2    H211577   1.678   3.529  12.240 -0.0871 -0.9916 -0.2490
  781MPD2    H311578   1.722   3.747  12.145  0.1853  0.2063 -1.1750
  781MPD2     N11579   2.069   3.617  11.895  0.8525  0.9710 -0.0578
  781MPD2    H511580   2.054   3.696  11.833 -3.1978  1.5587  1.6202
  781MPD2    N111581   1.843   3.315  12.220 -0.3321 -0.1860  0.6338
  781MPD2    H711582   1.923   3.255  12.236  1.0419  1.1572 -1.0872
  782MPD2     C11583   4.617   3.455   9.978 -0.4713  0.6127 -0.0010
  782MPD2    C111584   4.595   3.412  10.105  0.0491  0.1763 -0.0141
  782MPD2    C211585   4.575   3.510  10.202 -0.4149  0.5195  0.3400
  782MPD2    C311586   4.602   3.645  10.172 -0.0351 -0.0682 -0.5844
  782MPD2    C411587   4.610   3.686  10.045  0.0134 -0.1036  0.3509
  782MPD2    C511588   4.615   3.593   9.948 -0.6210 -0.3826  0.0491
  782MPD2     H11589   4.572   3.490  10.309  1.4840 -2.8077 -0.2427
  782MPD2    H111590   4.600   3.791  10.020 -0.5150 -0.0461  0.8187
  782MPD2    H211591   4.649   3.391   9.897 -0.1447 -0.1961  0.7685
  782MPD2    H311592   4.635   3.617   9.844  2.3494 -1.8810  0.2850
  782MPD2     N11593   4.616   3.736  10.281 -0.3322  0.6125  0.5422
  782MPD2    H511594   4.592   3.710  10.376 -0.2502  0.7528  0.6018
  782MPD2    N111595   4.630   3.285  10.156  0.0610  0.0373  0.0735
  782MPD2    H711596   4.670   3.221  10.089 -2.7260  2.6749 -4.0659
  783MPD2     C11597   4.674   3.108  11.179  0.1103 -0.2776 -0.0200
  783MPD2    C111598   4.655   3.229  11.112  0.4699  0.2435  0.2090
  783MPD2    C211599   4.667   3.228  10.975 -1.1706  0.2121  0.2789
  783MPD2    C311600   4.687   3.106  10.905 -0.4710  0.6990 -0.6289
  783MPD2    C411601   4.684   2.987  10.970 -0.5953  0.0157  0.5112
  783MPD2    C511602   4.679   2.998  11.110 -0.2810  0.5736 -0.3756
  783MPD2     H11603   4.661   3.323  10.922 -1.1038 -1.1155 -2.1066
  783MPD2    H111604   4.682   2.889  10.924  0.7909 -0.2556  1.0344
  783MPD2    H211605   4.666   3.094  11.286 -0.4925 -3.7764 -0.5239
  783MPD2    H311606   4.689   2.903  11.161 -0.3240 -0.4871 -2.3044
  783MPD2     N11607   4.690   3.109  10.763  0.3854 -0.0091  0.0486
  783MPD2    H511608   4.700   3.197  10.713 -0.4467 -0.7975 -1.4923
  783MPD2    N111609   4.622   3.343  11.194 -0.0855  0.3077  0.4457
  783MPD2    H711610   4.608   3.315  11.290 -0.7042 -0.2915  0.1799
  784MPD2     C11611   3.042   4.595   0.282  0.4526 -0.8766  0.5694
  784MPD2    C111612   2.987   4.527   0.388 -0.0847 -0.0879 -0.1109
  784MPD2    C211613   2.850   4.510   0.389  0.4738  0.3995  0.1408
  784MPD2    C311614   2.768   4.546   0.285 -0.1948 -0.2045 -0.2342
  784MPD2    C411615   2.826   4.618   0.185 -0.2486  0.0871 -0.4303
  784MPD2    C511616   2.961   4.645   0.180  0.7365  0.1247 -0.7202
  784MPD2     H11617   2.812   4.456   0.475 -3.7931  1.7657 -0.9339
  784MPD2    H111618   2.769   4.650   0.099 -3.2675 -0.9048  1.1986
  784MPD2    H211619   3.149   4.597   0.265  0.9072  0.8861  3.6533
  784MPD2    H311620   3.002   4.699   0.096  0.4998 -2.6120 -2.5794
  784MPD2     N11621   2.635   4.505   0.284 -0.3892 -0.7954  0.6019
  784MPD2    H511622   2.603   4.455   0.367  0.0842 -1.2920  0.4897
  784MPD2    N111623   3.064   4.462   0.494 -0.1938 -0.3527 -0.0413
  784MPD2    H711624   3.012   4.402   0.558  0.9735  0.2760  1.4959
  785MPD2     C11625   2.854   2.949  11.227 -0.0450  0.1574 -0.1942
  785MPD2    C111626   2.798   3.060  11.164  0.0050  0.7450  0.0131
  785MPD2    C211627   2.668   3.048  11.109 -0.4853 -0.1596  0.3099
  785MPD2    C311628   2.599   2.931  11.121 -0.7327 -0.4731  0.0290
  785MPD2    C411629   2.646   2.823  11.197 -0.2469 -0.0400  0.7878
  785MPD2    C511630   2.776   2.834  11.238 -0.8588  0.1955 -0.9128
  785MPD2     H11631   2.607   3.122  11.059 -0.8783 -1.3492 -0.9773
  785MPD2    H111632   2.595   2.731  11.224 -1.7976  0.4442 -0.5108
  785MPD2    H211633   2.946   2.951  11.284 -0.4363  0.4463  0.4210
  785MPD2    H311634   2.822   2.755  11.296 -1.2062  1.4105  1.0101
  785MPD2     N11635   2.478   2.933  11.056  0.0142  0.0263 -0.0187
  785MPD2    H511636   2.442   3.023  11.027  1.5670  1.0083  1.0810
  785MPD2    N111637   2.872   3.180  11.144 -0.2770  0.2647  0.4074
  785MPD2    H711638   2.968   3.182  11.177 -0.0818 -1.7213 -0.0079
  786MPD2     C11639   1.431   0.368  14.895 -0.2951  0.0012  0.2808
  786MPD2    C111640   1.550   0.331  14.835 -0.7150  0.7812  0.2513
  786MPD2    C211641   1.665   0.336  14.908 -0.4866  0.0172  0.0005
  786MPD2    C311642   1.670   0.374  15.039  0.2520 -0.2880  0.0605
  786MPD2    C411643   1.552   0.417  15.094 -0.0248 -0.2870 -0.2069
  786MPD2    C511644   1.433   0.414  15.023  0.2886 -0.1765  0.1473
  786MPD2     H11645   1.756   0.289  14.871 -0.8225 -1.2469  0.7805
  786MPD2    H111646   1.562   0.430  15.201  1.0101  2.1260 -0.5917
  786MPD2    H211647   1.339   0.369  14.837  0.3687 -0.4901 -0.7754
  786MPD2    H311648   1.335   0.439  15.063  0.1955 -0.8922  0.3733
  786MPD2     N11649   1.789   0.379  15.117 -0.2618 -0.1796  0.1479
  786MPD2    H511650   1.781   0.410  15.213 -0.6263 -0.6097  0.2550
  786MPD2    N111651   1.576   0.295  14.701 -0.5170  0.6420  0.1383
  786MPD2    H711652   1.669   0.260  14.681 -1.7638 -2.1377 -0.7977
  787MPD2     C11653   2.062   4.719  14.481  0.6737 -0.2892 -0.0091
  787MPD2    C111654   1.957   4.693  14.397  0.5271  0.0831 -0.2179
  787MPD2    C211655   1.971   4.581  14.311  0.5502 -0.1512  0.2740
  787MPD2    C311656   2.079   4.498  14.317  0.2989 -0.5134 -0.2286
  787MPD2    C411657   2.180   4.531  14.405 -0.4829 -0.7286 -0.0313
  787MPD2    C511658   2.172   4.637  14.487 -0.3327 -0.3432 -0.3619
  787MPD2     H11659   1.897   4.570  14.232  0.7021  1.7395 -0.1354
  787MPD2    H111660   2.269   4.470  14.418 -1.9002 -2.5466  1.1004
  787MPD2    H211661   2.055   0.071  14.539 -0.7911 -0.4047  0.0123
  787MPD2    H311662   2.255   4.665  14.550 -0.7047  0.2552 -0.1409
  787MPD2     N11663   2.086   4.388  14.227 -0.1170  0.5869 -0.1719
  787MPD2    H511664   2.008   4.379  14.162 -1.3458 -1.6375  1.6193
  787MPD2    N111665   1.848   0.046  14.388 -0.3462 -0.2648  0.0700
  787MPD2    H711666   1.853   0.125  14.451 -0.4639 -0.2321  0.0368
  788MPD2     C11667   4.029   3.710   0.506  0.3570  0.3946  0.0498
  788MPD2    C111668   3.930   3.643   0.425 -0.1158  0.0988  0.1783
  788MPD2    C211669   3.848   3.711   0.339 -0.7791 -0.6903  1.0963
  788MPD2    C311670   3.872   3.846   0.316 -0.1290  0.1028  0.0010
  788MPD2    C411671   3.984   3.902   0.378  0.0867  0.1365  0.6043
  788MPD2    C511672   4.058   3.841   0.478 -0.0790 -0.1576 -0.0820
  788MPD2     H11673   3.772   3.649   0.292  1.0663 -2.4610  0.4380
  788MPD2    H111674   4.009   4.005   0.355 -2.5772  0.3201 -1.6083
  788MPD2    H211675   4.085   3.654   0.580 -0.1364  1.7687  1.4756
  788MPD2    H311676   4.135   3.890   0.537  0.0791  0.1282 -0.5299
  788MPD2     N11677   3.794   3.923   0.229  0.1832  0.2052 -0.4758
  788MPD2    H511678   3.828   4.015   0.204 -1.3594  1.5410  2.3443
  788MPD2    N111679   3.914   3.502   0.445 -0.4132  0.4594  0.2455
  788MPD2    H711680   3.835   3.459   0.399  0.0355 -0.5700  0.4297
  789MPD2     C11681   3.596   3.456  16.079 -0.0392  0.3753 -0.1637
  789MPD2    C111682   3.624   3.417  16.211 -0.3637  0.6634  0.2779
  789MPD2    C211683   3.550   3.483  16.312 -0.2430 -0.1878 -0.1461
  789MPD2    C311684   3.464   3.587  16.281  0.5801  0.1021 -0.1284
  789MPD2    C411685   3.446   3.627  16.154  0.1685 -0.1294  0.0020
  789MPD2    C511686   3.518   3.568  16.053  0.4287  0.2377  0.4395
  789MPD2     H11687   3.567   3.452  16.415 -1.3629 -2.1004 -0.5123
  789MPD2    H111688   3.383   3.709  16.123  0.0214 -0.2814 -0.0951
  789MPD2    H211689   3.645   3.412  15.993  0.2861 -2.3705  1.4118
  789MPD2    H311690   3.499   3.608  15.955  0.0175 -1.7084 -0.2800
  789MPD2     N11691   3.388   3.658  16.387  0.1962 -0.1004 -0.0959
  789MPD2    H511692   3.312   3.712  16.347 -0.2466 -0.0144  0.8816
  789MPD2    N111693   3.691   3.296  16.246 -0.0898  0.1158 -0.5295
  789MPD2    H711694   3.683   3.264  16.342  0.6307  0.0580 -0.4880
  790MPD2     C11695   4.517   4.722  13.503  0.6251  0.2504 -0.2083
  790MPD2    C111696   4.534   4.610  13.422  0.2902 -0.3891 -0.3199
  790MPD2    C211697   4.454   4.596  13.311 -0.5773 -0.4840  0.3279
  790MPD2    C311698   4.384   4.711  13.267  0.2867  0.2453  0.2069
  790MPD2    C411699   4.369   0.075  13.342  0.4825  0.1752  0.2659
  790MPD2    C511700   4.436   0.083  13.460 -0.0318  0.2475 -0.3802
  790MPD2     H11701   4.454   4.511  13.243 -3.8826 -0.2458  0.0311
  790MPD2    H111702   4.312   0.162  13.313  0.0968 -0.4018 -0.7092
  790MPD2    H211703   4.579   4.739  13.590  1.1812 -2.6782 -0.0462
  790MPD2    H311704   4.410   0.169  13.520 -0.7092 -0.5957  0.5214
  790MPD2     N11705   4.326   4.707  13.143  0.6964  0.0341 -0.8517
  790MPD2    H511706   4.289   4.624  13.099 -0.2976 -0.5567  1.0975
  790MPD2    N111707   4.642   4.526  13.460 -0.5187 -0.0906  0.0227
  790MPD2    H711708   4.698   4.553  13.540 -0.0065  1.9592 -1.0276
  791MPD2     C11709   3.693   4.698  12.541 -0.4158 -0.0828  0.7701
  791MPD2    C111710   3.749   4.660  12.657  0.6780  0.9733  0.2546
  791MPD2    C211711   3.681   4.565  12.739 -0.4676  0.8814  0.1665
  791MPD2    C311712   3.557   4.516  12.701 -0.0409  0.2358 -0.4158
  791MPD2    C411713   3.509   4.556  12.580  0.2919 -0.1966  1.0517
  791MPD2    C511714   3.575   4.645  12.502 -0.2645 -0.3723  0.3890
  791MPD2     H11715   3.726   4.526  12.829  0.7213  0.3841 -0.6281
  791MPD2    H111716   3.414   4.511  12.555  0.7262 -1.0206  0.8750
  791MPD2    H211717   3.732   0.035  12.475 -1.7056 -0.3257 -0.2703
  791MPD2    H311718   3.537   4.681  12.408  1.6848 -2.5859 -1.2426
  791MPD2     N11719   3.476   4.436  12.782 -0.2056 -0.0690 -0.2816
  791MPD2    H511720   3.376   4.429  12.762 -0.1327 -0.7240 -0.4211
  791MPD2    N111721   3.880   4.706  12.695  0.7271 -0.0823 -0.1581
  791MPD2    H711722   3.936   0.012  12.623 -2.2576 -0.9033 -2.9954
  792MPD2     C11723   4.418   0.227  11.270 -0.3122 -0.4474  1.2449
  792MPD2    C111724   4.394   0.251  11.135  0.2016 -0.4282 -0.5277
  792MPD2    C211725   4.272   0.225  11.085  0.1581  0.3853 -0.1060
  792MPD2    C311726   4.183   0.157  11.161  0.2038 -0.7089  1.0485
  792MPD2    C411727   4.217   0.100  11.281 -0.4647 -0.0881 -0.1893
  792MPD2    C511728   4.330   0.144  11.339  0.2815  0.5941 -0.0541
  792MPD2     H11729   4.247   0.262  10.986  1.3498  0.7716 -0.2546
  792MPD2    H111730   4.146   0.039  11.337  0.3176 -1.8195 -1.0653
  792MPD2    H211731   4.517   0.234  11.314 -0.1953 -2.4624  1.3266
  792MPD2    H311732   4.347   0.118  11.443  3.6721 -1.0350 -1.0232
  792MPD2     N11733   4.056   0.120  11.119 -0.5194 -0.3670  0.1579
  792MPD2    H511734   4.007   0.058  11.182  0.0216 -1.2967 -0.3294
  792MPD2    N111735   4.505   0.311  11.065 -0.0991  0.0211 -0.4335
  792MPD2    H711736   4.582   0.357  11.112  0.8601 -3.2867  1.1981
  793MPD2     C11737   3.778   4.427  10.263  0.2772  0.3378  0.3784
  793MPD2    C111738   3.872   4.521  10.283 -0.3685  0.2068 -0.4026
  793MPD2    C211739   3.862   4.595  10.396  0.1007  0.3113  0.4105
  793MPD2    C311740   3.763   4.588  10.488  0.1433  0.4947 -0.0593
  793MPD2    C411741   3.660   4.501  10.457 -0.8967 -0.5865 -0.2752
  793MPD2    C511742   3.674   4.415  10.350 -0.0531  0.5858  0.5281
  793MPD2     H11743   3.942   4.667  10.412  0.2846  0.9078 -3.2399
  793MPD2    H111744   3.577   4.485  10.525 -0.3704 -0.9288  0.2887
  793MPD2    H211745   3.783   4.361  10.178  0.9406  1.3276 -0.3413
  793MPD2    H311746   3.596   4.346  10.321 -1.4700  1.7411  1.6370
  793MPD2     N11747   3.762   4.663  10.611  0.0214 -0.2752  0.9798
  793MPD2    H511748   3.856   4.690  10.639  0.5949 -0.1531 -1.0490
  793MPD2    N111749   3.993   4.524  10.213 -0.3854  0.1153  0.1540
  793MPD2    H711750   4.064   4.580  10.258 -0.1639 -0.8772  1.0441
  794MPD2     C11751   4.009   4.407  17.164  0.2472 -0.5815 -0.6941
  794MPD2    C111752   3.988   4.274  17.124  0.2893 -1.1666 -0.3435
  794MPD2    C211753   3.913   4.263  17.008 -0.0938  0.2154  0.6742
  794MPD2    C311754   3.871   4.360  16.929  0.0510 -0.0968 -0.5468
  794MPD2    C411755   3.899   4.490  16.968  0.1231 -0.9375 -0.1055
  794MPD2    C511756   3.966   4.511  17.087  0.0703  0.3141  0.6172
  794MPD2     H11757   3.894   4.158  16.985 -0.2816  0.2369  0.7305
  794MPD2    H111758   3.873   4.577  16.910 -1.5704 -1.1216  0.3611
  794MPD2    H211759   4.064   4.425  17.256 -0.8687  0.5927 -0.2625
  794MPD2    H311760   3.999   4.608  17.122 -0.7479  0.7818  0.0991
  794MPD2     N11761   3.799   4.337  16.807 -0.1751  0.4237 -0.0018
  794MPD2    H511762   3.768   4.415  16.749 -0.1399  0.8886  0.6139
  794MPD2    N111763   4.035   4.153  17.176  0.5117  0.6343  0.1023
  794MPD2    H711764   4.015   4.073  17.117 -1.7700  1.1949  0.0954
  795MPD2     C11765   2.118   1.402  12.681 -0.0788  0.8723 -0.6118
  795MPD2    C111766   2.056   1.344  12.785  0.6589  0.1118  0.2474
  795MPD2    C211767   2.135   1.261  12.864  0.3646  0.1129 -0.8974
  795MPD2    C311768   2.267   1.247  12.848  0.9254 -0.1004  0.7753
  795MPD2    C411769   2.326   1.320  12.750 -0.1136 -0.3027 -0.3223
  795MPD2    C511770   2.255   1.402  12.666 -0.1371  0.4236 -0.3391
  795MPD2     H11771   2.078   1.187  12.919 -1.8907  0.4164 -2.8325
  795MPD2    H111772   2.435   1.318  12.755 -0.0561 -1.7117 -2.3935
  795MPD2    H211773   2.057   1.474  12.627  0.8897  1.5075 -0.8538
  795MPD2    H311774   2.304   1.457  12.586  0.9932  0.7870  0.6057
  795MPD2     N11775   2.344   1.173  12.945 -0.1553 -0.4692  0.2997
  795MPD2    H511776   2.297   1.134  13.027 -0.1821 -2.7519 -0.8090
  795MPD2    N111777   1.920   1.359  12.817  0.2320 -1.0082  0.2935
  795MPD2    H711778   1.891   1.313  12.903 -1.4671  0.8257  0.6924
  796MPD2     C11779   1.324   3.108  15.560 -0.3445 -0.2061 -0.2011
  796MPD2    C111780   1.383   3.144  15.679  0.0164 -0.1047  0.1436
  796MPD2    C211781   1.367   3.276  15.718  0.3796  0.1967  0.5970
  796MPD2    C311782   1.308   3.370  15.639  0.0752  0.3589 -0.9426
  796MPD2    C411783   1.248   3.330  15.523  0.3588 -0.1916 -0.6425
  796MPD2    C511784   1.253   3.196  15.489  0.1285 -1.0961 -0.1717
  796MPD2     H11785   1.413   3.307  15.811  1.6514 -1.1536  0.4114
  796MPD2    H111786   1.182   3.391  15.463  0.8723 -0.4163 -1.4226
  796MPD2    H211787   1.334   3.007  15.521 -1.5752 -0.1736 -0.6072
  796MPD2    H311788   1.202   3.156  15.402 -0.3954 -0.6593 -0.0721
  796MPD2     N11789   1.315   3.499  15.692 -0.0003  0.4088 -0.2267
  796MPD2    H511790   1.356   3.504  15.785  0.3453  0.3839 -0.3778
  796MPD2    N111791   1.462   3.042  15.741 -0.3635 -0.2481  0.3768
  796MPD2    H711792   1.465   2.949  15.700  0.5352  0.0116 -0.1444
  797MPD2     C11793   2.465   2.513  16.953  0.3794 -0.0788 -0.3000
  797MPD2    C111794   2.542   2.623  16.965  0.1957  0.7290 -0.3745
  797MPD2    C211795   2.527   2.726  16.872  0.0802  0.2282  0.4835
  797MPD2    C311796   2.426   2.726  16.777  0.6977  0.1052 -1.0137
  797MPD2    C411797   2.342   2.616  16.779 -0.0707 -0.3165  0.3011
  797MPD2    C511798   2.365   2.503  16.861 -0.6793  0.7273 -0.4439
  797MPD2     H11799   2.597   2.809  16.873  1.4119 -0.9171  1.5063
  797MPD2    H111800   2.251   2.614  16.720  0.8022 -0.2323 -1.0384
  797MPD2    H211801   2.479   2.432  17.024  0.6248 -0.8329 -1.2106
  797MPD2    H311802   2.302   2.415  16.854  1.5053 -0.7021 -1.9497
  797MPD2     N11803   2.403   2.831  16.686  0.0877 -0.3871 -0.5405
  797MPD2    H511804   2.335   2.822  16.611 -0.5960 -0.0650  0.0500
  797MPD2    N111805   2.640   2.649  17.058 -0.2357  0.1978 -0.1702
  797MPD2    H711806   2.683   2.740  17.046 -1.2698  0.8174  0.7745
  798MPD2     C11807   2.964   3.275  16.736  0.3027  0.0800 -0.0582
  798MPD2    C111808   2.871   3.170  16.726 -0.4623 -0.5055 -0.2068
  798MPD2    C211809   2.882   3.063  16.808  0.1653  0.5004  0.1083
  798MPD2    C311810   2.980   3.049  16.904  0.1223  0.5994  0.5472
  798MPD2    C411811   3.079   3.145  16.914  0.1879  0.3048 -0.3829
  798MPD2    C511812   3.071   3.254  16.828 -0.2130  0.6242 -0.1263
  798MPD2     H11813   2.802   2.991  16.806  1.9643 -1.5359  1.3270
  798MPD2    H111814   3.169   3.139  16.974  0.0451 -0.4763 -0.2378
  798MPD2    H211815   2.961   3.364  16.673  1.6981  0.3289  0.2285
  798MPD2    H311816   3.154   3.324  16.834  0.4188 -0.2799  1.4485
  798MPD2     N11817   2.976   2.930  16.978 -0.1676 -0.1407 -0.2202
  798MPD2    H511818   2.895   2.871  16.965  2.0441 -2.8890 -1.6154
  798MPD2    N111819   2.759   3.171  16.643 -0.0794  0.2121 -0.1431
  798MPD2    H711820   2.703   3.089  16.667 -0.9232  0.2894 -1.8117
  799MPD2     C11821   1.373   4.393  14.316  0.2911  0.0617 -0.0192
  799MPD2    C111822   1.293   4.319  14.227  0.3328  0.3113 -0.0886
  799MPD2    C211823   1.268   4.378  14.107 -0.5888 -0.4565  0.3919
  799MPD2    C311824   1.319   4.507  14.078 -0.3868  0.8236  0.6457
  799MPD2    C411825   1.386   4.584  14.167  0.2779 -0.3601 -0.6767
  799MPD2    C511826   1.417   4.527  14.285 -0.2720  0.0169  0.2636
  799MPD2     H11827   1.212   4.322  14.033 -1.5545 -1.0932  1.6014
  799MPD2    H111828   1.405   4.688  14.142 -0.5110  0.3923  1.8877
  799MPD2    H211829   1.420   4.354  14.406 -0.7470 -1.4211 -0.1192
  799MPD2    H311830   1.471   4.580  14.362  3.2453 -0.4939 -1.8135
  799MPD2     N11831   1.289   4.579  13.961  0.5501  0.1918  0.1978
  799MPD2    H511832   1.307   4.679  13.965  1.1198  0.0866  0.2566
  799MPD2    N111833   1.232   4.192  14.247 -0.0796 -0.0612  0.4311
  799MPD2    H711834   1.182   4.150  14.169 -0.4591  0.0591  0.6047
  800MPD2     C11835   1.856   0.867  14.137 -0.7424 -0.2646 -0.1703
  800MPD2    C111836   1.962   0.786  14.107 -0.6975  0.5680 -0.6167
  800MPD2    C211837   1.949   0.700  14.002 -0.5469 -0.5176  0.8945
  800MPD2    C311838   1.831   0.702  13.926 -0.4416 -0.4482  0.0307
  800MPD2    C411839   1.727   0.785  13.967 -0.0120  0.1640 -0.5397
  800MPD2    C511840   1.739   0.870  14.069 -0.2695  0.1910 -0.0498
  800MPD2     H11841   2.029   0.633  13.972 -0.6024 -0.3946  0.4833
  800MPD2    H111842   1.632   0.794  13.916 -0.0478 -1.1243 -0.6987
  800MPD2    H211843   1.860   0.927  14.227  0.3320 -1.5620  0.6366
  800MPD2    H311844   1.654   0.925  14.107  0.8350  1.5261  0.5055
  800MPD2     N11845   1.824   0.621  13.809  0.6542 -0.6178  0.1883
  800MPD2    H511846   1.911   0.573  13.787  0.1162 -1.2283 -0.5983
  800MPD2    N111847   2.078   0.818  14.180  0.1382 -0.1010  0.5272
  800MPD2    H711848   2.078   0.898  14.243 -0.5218 -0.3960  0.8997
  801MPD2     C11849   2.053   1.393  14.153 -0.0501  0.2642 -0.3706
  801MPD2    C111850   2.043   1.269  14.211 -0.0813  0.0704 -0.3722
  801MPD2    C211851   1.921   1.226  14.248  0.0263  0.1052 -0.2748
  801MPD2    C311852   1.806   1.308  14.249  0.6473  0.2120  0.5372
  801MPD2    C411853   1.816   1.435  14.198 -0.4537 -0.6653 -0.5906
  801MPD2    C511854   1.942   1.478  14.154 -0.2241 -0.1790 -0.2831
  801MPD2     H11855   1.904   1.127  14.289 -1.8984  0.3522 -0.4893
  801MPD2    H111856   1.737   1.509  14.196  0.5130  0.4058  1.0703
  801MPD2    H211857   2.148   1.432  14.119 -0.3764 -1.0725 -2.7833
  801MPD2    H311858   1.951   1.572  14.101 -0.7083  0.9610  1.6882
  801MPD2     N11859   1.688   1.268  14.314 -0.5360 -0.3106 -0.1368
  801MPD2    H511860   1.610   1.328  14.291  0.0227  0.0416 -1.1469
  801MPD2    N111861   2.157   1.184  14.239  0.3597  0.2143  0.0518
  801MPD2    H711862   2.136   1.092  14.277 -0.7423  0.6234  0.4380
  802MPD2     C11863   1.531   2.445   0.117  0.0687  0.1691 -0.3905
  802MPD2    C111864   1.517   2.346   0.213 -0.6859  0.0157  0.0360
  802MPD2    C211865   1.574   2.218   0.196  0.0047  0.4926 -0.0677
  802MPD2    C311866   1.662   2.197   0.083 -0.7082 -0.2562  0.0060
  802MPD2    C411867   1.673   2.300  17.752 -0.1344  0.4551 -0.4716
  802MPD2    C511868   1.598   2.419   0.004 -0.9446  0.6879  0.3232
  802MPD2     H11869   1.567   2.132   0.262  0.4389  1.5301  1.3117
  802MPD2    H111870   1.731   2.293  17.661  1.5157  0.9341  0.5562
  802MPD2    H211871   1.478   2.540   0.111 -1.8873 -0.9034 -0.2514
  802MPD2    H311872   1.608   2.498  17.686 -1.5312  0.9324  0.5064
  802MPD2     N11873   1.744   2.088   0.068  0.2602 -0.0653  0.3734
  802MPD2    H511874   1.797   2.076  17.737 -0.2275 -0.1175  0.0830
  802MPD2    N111875   1.435   2.373   0.323 -0.2757  0.1731 -0.4275
  802MPD2    H711876   1.407   2.287   0.369  0.7446 -0.3332 -0.7479
  803MPD2     C11877   2.556   4.333  11.826  0.7351  0.1829 -0.2427
  803MPD2    C111878   2.638   4.357  11.929 -0.7528 -0.2485 -0.0848
  803MPD2    C211879   2.608   4.305  12.055 -0.9910  0.1311  0.1252
  803MPD2    C311880   2.479   4.268  12.084 -0.6076  0.2744 -0.4966
  803MPD2    C411881   2.389   4.270  11.981  0.1213 -0.1341 -0.4668
  803MPD2    C511882   2.430   4.290  11.855  0.1946 -0.5579 -0.1794
  803MPD2     H11883   2.680   4.321  12.134 -0.4619 -1.6931  0.0027
  803MPD2    H111884   2.286   4.242  12.002 -0.5911  3.0572  0.2899
  803MPD2    H211885   2.571   4.367  11.724  0.9559 -1.6689 -0.8346
  803MPD2    H311886   2.357   4.284  11.775 -1.1065  0.4036  0.9478
  803MPD2     N11887   2.434   4.266  12.214 -0.6560  0.3264 -0.3908
  803MPD2    H511888   2.334   4.248  12.219 -0.7509  1.2158  0.8483
  803MPD2    N111889   2.762   4.427  11.909  0.7025  0.0571  0.2026
  803MPD2    H711890   2.823   4.441  11.988  1.0625 -2.5196  0.3745
  804MPD2     C11891   1.675   1.418  16.738 -0.0842  0.5152  0.6508
  804MPD2    C111892   1.709   1.346  16.853 -1.0367 -0.3928 -0.3797
  804MPD2    C211893   1.816   1.394  16.928  0.8248  0.1967 -0.1313
  804MPD2    C311894   1.888   1.509  16.888  0.0394 -0.3602  0.3383
  804MPD2    C411895   1.858   1.574  16.774  0.3963 -0.3325  0.5250
  804MPD2    C511896   1.751   1.529  16.699 -0.2443  0.8523  0.3267
  804MPD2     H11897   1.841   1.340  17.019  0.3449 -0.7782 -0.5838
  804MPD2    H111898   1.920   1.657  16.742 -2.3142  1.2237 -0.7403
  804MPD2    H211899   1.585   1.391  16.682  2.3271 -0.5640 -2.7043
  804MPD2    H311900   1.716   1.565  16.603 -1.3100 -0.3333  0.2628
  804MPD2     N11901   2.001   1.554  16.966 -0.1378 -0.6827  0.2874
  804MPD2    H511902   2.018   1.496  17.047 -0.6073 -3.2386 -1.4542
  804MPD2    N111903   1.636   1.233  16.902  0.0971  0.5487 -0.3382
  804MPD2    H711904   1.666   1.204  16.994 -1.1611  2.1656  0.5818
  805MPD2     C11905   1.210   4.206  15.270 -0.3816  0.8875 -0.0685
  805MPD2    C111906   1.263   4.331  15.249 -0.3791  0.2438  0.1058
  805MPD2    C211907   1.356   4.380  15.334 -0.0930  0.0515  0.4147
  805MPD2    C311908   1.395   4.317  15.451 -0.3449  0.1305  0.3217
  805MPD2    C411909   1.342   4.187  15.467 -0.5285  0.5118  0.8051
  805MPD2    C511910   1.252   4.136  15.383  1.0734  0.4206 -0.3702
  805MPD2     H11911   1.395   4.481  15.324  2.4089 -0.8142  1.2889
  805MPD2    H111912   1.370   4.122  15.549 -0.7993 -0.6849 -0.0410
  805MPD2    H211913   1.135   4.159  15.206  1.3868  0.2431 -1.6673
  805MPD2    H311914   1.214   4.039  15.412  2.0034  0.1822  0.0143
  805MPD2     N11915   1.478   4.380  15.542  0.7904 -0.2790  0.2351
  805MPD2    H511916   1.533   4.460  15.514 -0.4531  1.7558  3.6276
  805MPD2    N111917   1.231   4.408  15.135 -0.8714  0.3754  0.3651
  805MPD2    H711918   1.300   4.481  15.116  0.8541 -1.6211 -1.0000
  806MPD2     C11919   1.600   3.621   0.413  1.3067  0.2543  0.1608
  806MPD2    C111920   1.734   3.608   0.450 -0.8060 -1.0704 -0.3694
  806MPD2    C211921   1.834   3.632   0.353 -0.4447  0.0151 -0.2499
  806MPD2    C311922   1.795   3.643   0.227 -0.4212 -0.3450  0.0964
  806MPD2    C411923   1.660   3.642   0.192  0.6278 -0.7366 -0.0835
  806MPD2    C511924   1.562   3.636   0.283  0.1705 -0.0843 -0.1880
  806MPD2     H11925   1.941   3.633   0.374 -0.7705  3.7052  1.3769
  806MPD2    H111926   1.625   3.667   0.093  0.7993 -2.8822 -0.6824
  806MPD2    H211927   1.524   3.616   0.490 -0.4052  0.8087 -1.4710
  806MPD2    H311928   1.462   3.652   0.245  0.2859 -0.3133 -0.5835
  806MPD2     N11929   1.899   3.664   0.131 -0.7296 -0.2723  0.1599
  806MPD2    H511930   1.990   3.694   0.164 -0.2683 -1.1422 -0.3113
  806MPD2    N111931   1.764   3.584   0.587  0.4145 -0.0614  0.4498
  806MPD2    H711932   1.688   3.561   0.651 -0.3216 -1.1821 -0.8324
  807MPD2     C11933   1.511   3.225   1.219  0.1717 -0.0683 -0.3442
  807MPD2    C111934   1.642   3.195   1.221  0.1208  0.2516 -0.3981
  807MPD2    C211935   1.683   3.102   1.316  0.0842  0.0836  0.2590
  807MPD2    C311936   1.590   3.016   1.381  1.0575 -0.1074 -0.2767
  807MPD2    C411937   1.455   3.052   1.367 -0.8347 -0.1029  0.8270
  807MPD2    C511938   1.420   3.156   1.293  0.0409  0.2019 -0.0436
  807MPD2     H11939   1.787   3.072   1.321 -0.6548 -2.6607 -0.6327
  807MPD2    H111940   1.374   2.993   1.408 -0.2940 -0.1174  1.8816
  807MPD2    H211941   1.474   3.303   1.153 -0.7415 -0.9406 -0.8718
  807MPD2    H311942   1.316   3.187   1.284  0.4164  1.5041  0.1457
  807MPD2     N11943   1.644   2.907   1.457  0.4395 -0.2818  0.1006
  807MPD2    H511944   1.744   2.913   1.472  0.0077  1.4605  2.3485
  807MPD2    N111945   1.742   3.255   1.134  0.0798  0.0883 -0.4521
  807MPD2    H711946   1.834   3.215   1.147 -1.6120 -3.5238  0.5882
  808MPD2     C11947   1.691   1.186   9.935  1.0303 -0.3353 -0.5267
  808MPD2    C111948   1.799   1.098   9.957  0.0096 -0.9834 -0.2542
  808MPD2    C211949   1.927   1.147   9.975 -0.2893  0.7000 -0.5021
  808MPD2    C311950   1.943   1.286   9.974  0.0478 -0.4004  0.1824
  808MPD2    C411951   1.833   1.370   9.955  0.3836 -0.0587  0.1223
  808MPD2    C511952   1.711   1.318   9.945  0.1887 -0.0866  0.3586
  808MPD2     H11953   2.009   1.079   9.990 -0.8955 -0.0605 -0.6455
  808MPD2    H111954   1.846   1.478   9.958 -2.1270  0.2726 -1.2569
  808MPD2    H211955   1.596   1.149   9.898  0.1260  1.4030  0.0284
  808MPD2    H311956   1.628   1.384   9.921 -1.2357 -1.3039  1.9872
  808MPD2     N11957   2.065   1.352   9.977 -0.2957  0.2359 -0.2491
  808MPD2    H511958   2.060   1.452   9.963 -0.6661  0.5762  2.3919
  808MPD2    N111959   1.787   0.955   9.955 -0.0655  0.1337 -0.0153
  808MPD2    H711960   1.869   0.898   9.975 -0.2740 -0.5558 -1.1167
  809MPD2     C11961   2.202   1.791   9.265 -0.6447  0.2785  0.1857
  809MPD2    C111962   2.199   1.653   9.279  0.2750 -0.1879  0.6395
  809MPD2    C211963   2.214   1.610   9.407  0.2389  0.2532 -0.2024
  809MPD2    C311964   2.255   1.693   9.507 -0.9729 -0.5777  0.1097
  809MPD2    C411965   2.282   1.830   9.482  0.4524  0.0135  0.4484
  809MPD2    C511966   2.254   1.877   9.359  0.2712 -0.1460 -0.8803
  809MPD2     H11967   2.210   1.502   9.421  0.9199 -0.0784 -2.5593
  809MPD2    H111968   2.319   1.890   9.564 -2.4799  0.3890  1.4932
  809MPD2    H211969   2.177   1.837   9.170 -0.3211  2.1627  0.9973
  809MPD2    H311970   2.258   1.984   9.346 -0.2215  0.0941  0.9325
  809MPD2     N11971   2.286   1.629   9.629  0.0111 -0.5514 -0.1841
  809MPD2    H511972   2.276   1.528   9.638 -0.7507 -0.2881  1.9659
  809MPD2    N111973   2.170   1.560   9.181 -0.0864  0.2236  0.1659
  809MPD2    H711974   2.165   1.462   9.208  1.0011  0.0014 -0.4106
  810MPD2     C11975   1.504   4.654  10.807 -0.9216  0.5726 -0.1240
  810MPD2    C111976   1.389   4.723  10.773  0.2317 -0.1047 -0.3098
  810MPD2    C211977   1.386   0.123  10.751 -0.1146  0.1874 -0.6779
  810MPD2    C311978   1.498   0.196  10.785 -1.0340  0.8026 -0.6041
  810MPD2    C411979   1.605   0.133  10.850  0.4988 -1.0792  0.0574
  810MPD2    C511980   1.614   4.734  10.838 -0.4486 -0.2473 -0.0238
  810MPD2     H11981   1.292   0.170  10.727 -0.2463 -1.0405 -2.6163
  810MPD2    H111982   1.684   0.199  10.882 -0.1213 -1.0682  1.5305
  810MPD2    H211983   1.517   4.547  10.804  0.4461  0.7265  0.1824
  810MPD2    H311984   1.699   4.677  10.873 -0.5075 -0.4720 -0.2448
  810MPD2     N11985   1.506   0.340  10.771  0.2618  0.3227  0.4972
  810MPD2    H511986   1.573   0.399  10.820 -2.1691  3.3946  0.0492
  810MPD2    N111987   1.279   4.638  10.741 -0.0231 -0.0986 -0.4905
  810MPD2    H711988   1.311   4.542  10.733  0.3628  0.2953 -3.6635
  811MPD2     C11989   0.687   4.552  10.012 -0.6807  0.2413  0.5179
  811MPD2    C111990   0.794   4.605  10.076  0.0200 -0.7857  0.2123
  811MPD2    C211991   0.847   4.717  10.022 -0.1356 -0.1658 -0.1918
  811MPD2    C311992   0.791   0.050   9.916  0.3036 -0.2945 -0.1655
  811MPD2    C411993   0.684   4.731   9.853 -0.3988 -0.1383  0.0147
  811MPD2    C511994   0.633   4.618   9.908  0.5724 -0.6839 -1.2009
  811MPD2     H11995   0.941   0.019  10.058 -0.9649  1.9502 -0.4485
  811MPD2    H111996   0.635   0.052   9.777  2.2245  1.5033 -0.3750
  811MPD2    H211997   0.633   4.467  10.053 -1.1283  0.7875  1.0672
  811MPD2    H311998   0.538   4.577   9.876  0.3248  0.1981 -1.5807
  811MPD2     N11999   0.854   0.173   9.878 -0.0071  0.3765  0.0083
  811MPD2    H512000   0.932   0.203   9.935 -0.6443 -2.9615  2.6371
  811MPD2    N112001   0.848   4.539  10.198 -0.1892  0.0382  0.1769
  811MPD2    H712002   0.801   4.453  10.222 -0.6070  0.6430  1.5433
  812MPD2     C12003   0.296   4.455  12.081  0.2510 -0.2714 -0.6302
  812MPD2    C112004   0.401   4.510  12.139  0.9962  0.6983  0.0507
  812MPD2    C212005   0.390   4.520  12.275 -0.1629  0.5270 -0.4961
  812MPD2    C312006   0.283   4.480  12.355  0.0152  0.4784 -0.5926
  812MPD2    C412007   0.176   4.431  12.292  0.2747 -0.5234  0.2067
  812MPD2    C512008   0.187   4.423  12.155  0.4425  0.1718 -0.2954
  812MPD2     H12009   0.474   4.549  12.337 -0.0021  0.4605 -0.6828
  812MPD2    H112010   0.090   4.398  12.349 -0.0968 -0.7499 -0.4824
  812MPD2    H212011   0.296   4.445  11.973  0.6911 -2.0201 -0.4665
  812MPD2    H312012   0.113   4.373  12.094 -1.0468 -0.0682  1.6969
  812MPD2     N12013   0.287   4.504  12.494 -0.3396  0.1524  0.0181
  812MPD2    H512014   0.370   4.547  12.535 -1.4044 -1.4142  3.7902
  812MPD2    N112015   0.509   4.549  12.057  0.3867  0.6429  0.1354
  812MPD2    H712016   0.506   4.529  11.957  0.3089 -0.5830  0.3852
  813MPD2     C12017   3.770   1.738  12.863  0.2375 -0.3952  0.9268
  813MPD2    C112018   3.888   1.808  12.876 -0.0158  0.5539  0.1309
  813MPD2    C212019   3.906   1.883  12.992  0.6303 -0.4655 -0.0062
  813MPD2    C312020   3.818   1.875  13.101  0.8479 -0.2369  0.3211
  813MPD2    C412021   3.702   1.809  13.084  0.1351 -0.4685 -0.4475
  813MPD2    C512022   3.683   1.740  12.970  0.1110  0.0964  0.5740
  813MPD2     H12023   3.988   1.954  12.991  0.9772 -0.8392  3.5370
  813MPD2    H112024   3.620   1.801  13.154 -2.3841  0.0715 -3.3496
  813MPD2    H212025   3.734   1.678  12.780 -0.3333  0.4185  0.5885
  813MPD2    H312026   3.587   1.689  12.970 -0.1717  0.6428 -1.2349
  813MPD2     N12027   3.849   1.945  13.216  0.0024  0.0542 -0.7350
  813MPD2    H512028   3.933   2.002  13.220  0.2361 -0.3337 -0.0602
  813MPD2    N112029   3.982   1.792  12.769  0.3067 -0.9290  0.0503
  813MPD2    H712030   3.947   1.742  12.687  4.1590 -1.3923 -1.2958
  814MPD2     C12031   0.162   2.916  12.269  0.2023 -0.3663  0.4196
  814MPD2    C112032   0.145   3.010  12.170  0.6156  0.3700  0.4009
  814MPD2    C212033   0.222   3.124  12.166 -0.6187  0.4852 -0.4698
  814MPD2    C312034   0.326   3.141  12.259 -0.1393 -0.1181  0.8955
  814MPD2    C412035   0.352   3.040  12.348  0.7197 -0.3006  0.3306
  814MPD2    C512036   0.271   2.932  12.346 -0.3361 -0.4740 -0.0431
  814MPD2     H12037   0.210   3.199  12.089 -0.2343  1.6339  0.5817
  814MPD2    H112038   0.429   3.045  12.424  0.4948 -2.2927  0.6680
  814MPD2    H212039   0.098   2.828  12.274 -1.0112  0.4092 -1.3957
  814MPD2    H312040   0.290   2.848  12.412  0.4488  0.1026  0.4689
  814MPD2     N12041   0.411   3.255  12.253  0.2188  0.1698  0.3452
  814MPD2    H512042   0.496   3.259  12.309  1.5237  1.0689 -1.6727
  814MPD2    N112043   0.037   3.009  12.085 -0.3266  0.0410 -0.1320
  814MPD2    H712044   0.032   3.089  12.023  2.3684  0.7834  0.6068
  815MPD2     C12045   0.223   1.893  11.693  0.3163  0.2375  0.8686
  815MPD2    C112046   0.248   1.758  11.697  0.0165 -0.2030  0.3699
  815MPD2    C212047   0.162   1.678  11.777 -0.4192 -0.8144  0.3011
  815MPD2    C312048   0.058   1.739  11.851 -0.1925  1.2259  0.8371
  815MPD2    C412049   0.052   1.881  11.845 -0.4924 -0.0500  0.0541
  815MPD2    C512050   0.129   1.955  11.766 -0.3063 -0.0587  0.6974
  815MPD2     H12051   0.167   1.569  11.772  0.4546 -0.7640  0.1048
  815MPD2    H112052   4.705   1.935  11.881 -1.2504 -0.4934 -1.0962
  815MPD2    H212053   0.283   1.953  11.626  1.1559  0.1832  1.5678
  815MPD2    H312054   0.108   2.057  11.738  0.9173  0.3307  1.1965
  815MPD2     N12055   4.699   1.659  11.915  0.3781 -0.1866  0.3596
  815MPD2    H512056   4.717   1.560  11.907  0.9852 -0.1746  1.6309
  815MPD2    N112057   0.348   1.717  11.605  0.4371  0.5759 -0.5627
  815MPD2    H712058   0.383   1.787  11.541 -2.0644 -0.4003 -2.9710
  816MPD2     C12059   1.093   0.999  17.620 -0.2513  0.2832  0.1798
  816MPD2    C112060   0.999   1.047  17.531  0.5669 -0.0403 -0.0115
  816MPD2    C212061   1.004   0.995  17.402  0.2644 -0.1116  0.0805
  816MPD2    C312062   1.115   0.923  17.362  0.5852 -0.0402  0.3614
  816MPD2    C412063   1.217   0.890  17.442 -0.2400  0.6726 -0.4008
  816MPD2    C512064   1.208   0.939  17.567  1.1722  0.3154  0.4257
  816MPD2     H12065   0.926   1.013  17.329  1.2817  0.1676 -0.9446
  816MPD2    H112066   1.307   0.836  17.415 -0.5984 -1.0255  1.8572
  816MPD2    H212067   1.079   1.022  17.725  2.1975  1.9203  0.1441
  816MPD2    H312068   1.291   0.921  17.634  2.0127 -0.5613 -0.8656
  816MPD2     N12069   1.107   0.868  17.229 -0.0646  0.4863 -0.0905
  816MPD2    H512070   1.034   0.911  17.174 -1.1126 -0.2916  0.6943
  816MPD2    N112071   0.889   1.124  17.580  0.2309  0.0068  0.6409
  816MPD2    H712072   0.897   1.146  17.679 -0.4368  1.2194  0.4208
  817MPD2     C12073   4.111   2.745   9.928  0.0808  0.0066 -0.6075
  817MPD2    C112074   4.163   2.713   9.807  0.6829  0.1957 -0.7442
  817MPD2    C212075   4.133   2.786   9.694  0.4256 -0.1398  1.1489
  817MPD2    C312076   4.050   2.896   9.697 -0.6567  0.1342  0.7724
  817MPD2    C412077   4.000   2.929   9.828 -0.0870  0.0368 -0.2692
  817MPD2    C512078   4.035   2.860   9.937 -0.2645 -0.2667  0.6218
  817MPD2     H12079   4.175   2.767   9.596 -1.8655 -0.3784  0.2127
  817MPD2    H112080   3.932   3.010   9.850  0.2258  0.8305 -2.1963
  817MPD2    H212081   4.126   2.682  10.015 -0.4024  1.4666  0.5400
  817MPD2    H312082   3.997   2.895  10.032 -0.7769  2.4685 -0.6023
  817MPD2     N12083   4.028   2.972   9.585 -0.0272  0.0959 -1.0144
  817MPD2    H512084   4.064   2.944   9.494 -2.2168 -0.6226 -1.6698
  817MPD2    N112085   4.237   2.593   9.786 -0.1603 -0.0841  0.8412
  817MPD2    H712086   4.261   2.565   9.691 -1.6008  1.1021  0.1215
  818MPD2     C12087   3.294   3.047   9.893  0.4679  1.0948 -0.0753
  818MPD2    C112088   3.288   2.945   9.984 -0.9091 -0.2359 -0.0755
  818MPD2    C212089   3.300   2.815   9.938  0.4506 -0.4907 -0.3285
  818MPD2    C312090   3.331   2.787   9.809 -0.7437  0.3434 -0.0207
  818MPD2    C412091   3.326   2.884   9.716  0.1662  0.5666 -0.0502
  818MPD2    C512092   3.296   3.013   9.764 -0.1536  0.0029  0.7021
  818MPD2     H12093   3.294   2.739  10.016 -0.7146  1.0987  1.1224
  818MPD2    H112094   3.344   2.875   9.609 -1.3604  1.7032 -0.4060
  818MPD2    H212095   3.284   3.150   9.923  0.7180  1.0348  0.2193
  818MPD2    H312096   3.301   3.093   9.692  0.7631 -1.9825 -1.4457
  818MPD2     N12097   3.357   2.659   9.761 -0.2511  0.1571  0.0286
  818MPD2    H512098   3.357   2.638   9.662  1.3620 -0.1377  0.0893
  818MPD2    N112099   3.276   2.960  10.125 -0.0319  0.4228  0.1263
  818MPD2    H712100   3.260   2.876  10.180  2.5541 -0.8209 -1.0467
  819MPD2     C12101   2.007   4.464  15.672 -0.5817  0.1060  0.0947
  819MPD2    C112102   1.978   4.330  15.673  0.4727 -1.1748  0.2935
  819MPD2    C212103   2.054   4.243  15.748 -0.1512  0.2648 -0.1673
  819MPD2    C312104   2.130   4.290  15.854  0.8594  0.0920 -0.5992
  819MPD2    C412105   2.152   4.429  15.866  0.1727 -0.7269 -0.2899
  819MPD2    C512106   2.108   4.509  15.761 -0.4610  0.2901 -0.1675
  819MPD2     H12107   2.041   4.136  15.757 -1.3839  0.3472 -0.9786
  819MPD2    H112108   2.211   4.476  15.944  0.2182 -0.4431 -0.4985
  819MPD2    H212109   1.955   4.545  15.622 -2.5643 -0.5498  1.0716
  819MPD2    H312110   2.130   4.615  15.768  1.7079 -0.1794  0.0860
  819MPD2     N12111   2.185   4.195  15.943  0.9081 -0.3297  0.2840
  819MPD2    H512112   2.170   4.097  15.922  0.5513 -0.0528 -0.7618
  819MPD2    N112113   1.873   4.280  15.587 -0.4355 -0.5223 -0.4166
  819MPD2    H712114   1.840   4.339  15.512 -1.9093 -1.0356 -0.1820
  820MPD2     C12115   1.580   4.100  14.637 -0.8871 -0.3208  0.1491
  820MPD2    C112116   1.568   4.202  14.722  0.0498 -0.4913 -0.0013
  820MPD2    C212117   1.597   4.191  14.856  0.1810 -1.1360 -0.1930
  820MPD2    C312118   1.648   4.071  14.901 -0.0894  0.1992  0.4576
  820MPD2    C412119   1.671   3.971  14.811  0.1337 -0.7713  0.0786
  820MPD2    C512120   1.635   3.982  14.678  0.9506 -0.3725  0.0510
  820MPD2     H12121   1.575   4.268  14.930  0.4612 -0.5067 -0.7631
  820MPD2    H112122   1.732   3.884  14.832  2.8305  1.0554 -0.1375
  820MPD2    H212123   1.560   4.106  14.531  2.3828  1.6473 -0.3258
  820MPD2    H312124   1.673   3.906  14.611  0.0552 -0.7377 -0.0378
  820MPD2     N12125   1.668   4.042  15.038  0.6270  0.1399  0.2443
  820MPD2    H512126   1.674   3.945  15.067  0.4169  0.4308  1.2449
  820MPD2    N112127   1.470   4.299  14.681 -0.4645 -0.5881  0.2487
  820MPD2    H712128   1.407   4.272  14.607 -0.4596  0.3015 -0.0771
  821MPD2     C12129   1.595   0.649  13.050 -0.0201  0.0106  0.4219
  821MPD2    C112130   1.688   0.551  13.069 -0.5798  0.0206  0.0120
  821MPD2    C212131   1.787   0.531  12.982  0.2620 -0.0073  0.6357
  821MPD2    C312132   1.807   0.608  12.873  0.2714  0.5439 -0.7771
  821MPD2    C412133   1.708   0.706  12.848  0.8760 -0.1019  0.3658
  821MPD2    C512134   1.608   0.728  12.936  0.5246  0.9041  0.3292
  821MPD2     H12135   1.867   0.465  13.012  1.0839  0.3942 -0.6287
  821MPD2    H112136   1.721   0.776  12.766  0.3244 -1.9275 -1.2652
  821MPD2    H212137   1.514   0.663  13.120  1.6692  0.2274  2.3475
  821MPD2    H312138   1.539   0.812  12.933  0.0680  0.5352  0.5570
  821MPD2     N12139   1.923   0.582  12.795 -0.0827  0.0058  0.1847
  821MPD2    H512140   1.942   0.657  12.730  1.2216 -1.2356 -0.8702
  821MPD2    N112141   1.697   0.467  13.184 -0.5779  0.4954 -0.3550
  821MPD2    H712142   1.774   0.401  13.193  0.0932  1.6984  2.8127
  822MPD2     C12143   2.805   0.902  15.599 -0.3356  0.2037 -0.2394
  822MPD2    C112144   2.774   0.872  15.733 -0.0490  0.1088 -0.0951
  822MPD2    C212145   2.689   0.959  15.800 -0.4113  0.3393  0.0965
  822MPD2    C312146   2.642   1.078  15.745  0.1831  0.4229  0.6904
  822MPD2    C412147   2.675   1.107  15.613 -0.1451  0.8223  0.3855
  822MPD2    C512148   2.759   1.020  15.544  0.8076  0.1136 -0.3564
  822MPD2     H12149   2.668   0.959  15.907  1.2055  0.2344  0.4206
  822MPD2    H112150   2.653   1.201  15.563 -0.1146  0.7056  0.1539
  822MPD2    H212151   2.871   0.848  15.532 -0.5672 -0.1239 -0.2033
  822MPD2    H312152   2.793   1.032  15.442  1.6797 -1.4005 -0.2356
  822MPD2     N12153   2.575   1.172  15.821  0.2502 -0.9347  0.4073
  822MPD2    H512154   2.568   1.154  15.921 -0.6462  0.5745  0.6207
  822MPD2    N112155   2.824   0.763  15.801 -0.2962  0.3822  0.2840
  822MPD2    H712156   2.789   0.740  15.893  0.9231 -1.5515  0.2666
  823MPD2     C12157   2.186   1.351  16.516  0.5419  0.1964 -0.1561
  823MPD2    C112158   2.209   1.268  16.411  0.0676  0.3553  0.2784
  823MPD2    C212159   2.162   1.136  16.412  0.6944  0.5785  1.3060
  823MPD2    C312160   2.120   1.084  16.532  0.1275 -0.6339  0.4647
  823MPD2    C412161   2.099   1.168  16.633 -0.2506  0.0859 -0.2811
  823MPD2    C512162   2.120   1.304  16.625 -0.7842 -0.4090 -0.0367
  823MPD2     H12163   2.184   1.074  16.326 -0.6886  0.9429  0.6859
  823MPD2    H112164   2.061   1.127  16.726  0.4018 -1.6255 -0.7580
  823MPD2    H212165   2.209   1.456  16.502  0.6998  0.3287  1.0888
  823MPD2    H312166   2.102   1.369  16.711  0.6297  1.2376 -0.9920
  823MPD2     N12167   2.097   0.944  16.558  0.0682 -0.0171 -0.0789
  823MPD2    H512168   2.080   0.916  16.655  1.3297 -0.7499 -0.0711
  823MPD2    N112169   2.279   1.322  16.302  0.6606 -0.0363  0.4146
  823MPD2    H712170   2.319   1.415  16.312 -1.0885  0.8473 -0.9166
  824MPD2     C12171   2.980   4.599  15.898 -0.3827 -0.0892  0.3437
  824MPD2    C112172   3.039   4.698  15.817  0.6052  0.6778 -0.1216
  824MPD2    C212173   3.141   4.662  15.725  0.5950  0.0648  0.4562
  824MPD2    C312174   3.180   4.530  15.720 -0.7126  0.0512 -0.3087
  824MPD2    C412175   3.112   4.432  15.787  0.5333  0.4390  0.2046
  824MPD2    C512176   3.014   4.468  15.876 -0.0025 -0.2567  0.7504
  824MPD2     H12177   3.190   0.004  15.674  0.0453  0.1430  0.0546
  824MPD2    H112178   3.143   4.328  15.777  0.6242  0.7107 -2.3809
  824MPD2    H212179   2.908   4.627  15.974 -1.2273 -1.6856  0.1502
  824MPD2    H312180   2.964   4.389  15.931  0.0980  0.5656  2.0466
  824MPD2     N12181   3.305   4.506  15.656 -0.3628  0.5392 -0.3633
  824MPD2    H512182   3.360   4.588  15.633  1.3651 -0.5924 -0.2551
  824MPD2    N112183   3.002   0.096  15.835 -0.6173 -0.3292 -0.0512
  824MPD2    H712184   2.948   0.110  15.920 -1.8450 -0.7359 -0.7518
  825MPD2     C12185   4.089   4.715  15.425  0.0218  0.4789  0.1349
  825MPD2    C112186   3.970   0.000  15.496 -0.2824 -0.2689 -0.2199
  825MPD2    C212187   3.940   0.126  15.552  0.7568  0.0035  0.1128
  825MPD2    C312188   4.034   0.228  15.543 -0.5850 -0.4576 -0.2106
  825MPD2    C412189   4.155   0.198  15.493 -0.4352 -0.2084  0.2539
  825MPD2    C512190   4.187   0.073  15.445 -0.7351  0.2758 -0.2825
  825MPD2     H12191   3.849   0.139  15.609  1.5538 -1.0215  1.6179
  825MPD2    H112192   4.238   0.268  15.501 -2.2244  2.1975 -2.2742
  825MPD2    H212193   4.123   4.613  15.408  1.1310  0.6093  1.5728
  825MPD2    H312194   4.292   0.061  15.422 -0.8197 -1.3529  0.1681
  825MPD2     N12195   4.005   0.362  15.576  0.0620 -1.0725  0.1097
  825MPD2    H512196   4.068   0.433  15.539 -0.7571 -1.2934 -1.7365
  825MPD2    N112197   3.882   4.630  15.491  0.3008 -0.1889 -0.1866
  825MPD2    H712198   3.918   4.552  15.437 -0.3837 -0.6824  0.0610
  826MPD2     C12199   3.715   4.255  13.781  0.4449 -0.2490  0.3026
  826MPD2    C112200   3.648   4.287  13.666  0.0682 -0.0825 -0.3509
  826MPD2    C212201   3.540   4.375  13.664 -0.6085  0.0250  0.3743
  826MPD2    C312202   3.507   4.436  13.782  0.2104 -0.3021  0.4769
  826MPD2    C412203   3.569   4.404  13.904  0.3784 -0.6229 -0.0441
  826MPD2    C512204   3.676   4.313  13.895 -0.3673  0.1014  0.6263
  826MPD2     H12205   3.485   4.391  13.572 -1.2052 -0.7991  0.5899
  826MPD2    H112206   3.539   4.451  13.997  0.6071 -0.6832  0.0591
  826MPD2    H212207   3.794   4.181  13.777 -2.2201 -3.0902 -0.5600
  826MPD2    H312208   3.733   4.281  13.982 -0.0790  1.2924  0.8768
  826MPD2     N12209   3.403   4.533  13.796  0.1545  0.6737  0.3707
  826MPD2    H512210   3.369   4.560  13.888 -2.0422 -1.6543  0.2343
  826MPD2    N112211   3.688   4.213  13.551 -0.0478  0.0696 -0.1404
  826MPD2    H712212   3.759   4.141  13.565 -0.8082 -0.3162  1.7191
  827MPD2     C12213   4.014   1.345  10.132  0.2268  0.6594  0.2020
  827MPD2    C112214   4.053   1.215  10.113 -0.0542  0.3576 -0.6160
  827MPD2    C212215   3.975   1.135  10.029  0.4850  0.2288 -0.1589
  827MPD2    C312216   3.882   1.190   9.940  0.1188 -0.3986 -0.4187
  827MPD2    C412217   3.848   1.328   9.963  0.1443 -0.0274  0.5182
  827MPD2    C512218   3.918   1.402  10.056 -0.2158  0.5332  0.1254
  827MPD2     H12219   3.993   1.028  10.026 -0.7642  0.0518 -1.5705
  827MPD2    H112220   3.787   1.389   9.897 -0.0429 -1.8893 -1.0399
  827MPD2    H212221   4.074   1.415  10.189 -1.4307 -0.3692  3.1662
  827MPD2    H312222   3.892   1.507  10.058 -0.4046  0.4955 -0.2672
  827MPD2     N12223   3.817   1.109   9.851  0.0707  0.2684  0.0473
  827MPD2    H512224   3.836   1.010   9.854  1.7506  0.6009  0.6685
  827MPD2    N112225   4.172   1.167  10.180  0.4290 -0.2498 -0.4583
  827MPD2    H712226   4.225   1.239  10.228 -1.7853 -0.3368  2.1161
  828MPD2     C12227   2.767   0.727  12.498 -0.0095 -0.6642  0.1575
  828MPD2    C112228   2.748   0.843  12.425 -0.8999  0.0421  0.0272
  828MPD2    C212229   2.851   0.920  12.390 -0.4539 -1.2028  0.9211
  828MPD2    C312230   2.981   0.881  12.407  0.8590 -0.3899 -0.0104
  828MPD2    C412231   3.003   0.769  12.477  0.3061  0.6717  0.2473
  828MPD2    C512232   2.898   0.702  12.532 -0.5903 -0.2853 -0.4016
  828MPD2     H12233   2.825   1.003  12.326  2.2764 -0.9667  0.0967
  828MPD2    H112234   3.106   0.763  12.510 -0.3093 -1.1639  1.7840
  828MPD2    H212235   2.685   0.662  12.526 -0.2278  0.8633  3.0339
  828MPD2    H312236   2.929   0.619  12.595 -0.6067  0.4215  0.5496
  828MPD2     N12237   3.089   0.962  12.365  0.0587  0.0783 -0.0659
  828MPD2    H512238   3.182   0.924  12.383  0.4688  0.6741 -0.9037
  828MPD2    N112239   2.625   0.873  12.364 -0.2520  0.0506  0.1104
  828MPD2    H712240   2.621   0.957  12.307 -0.7741  0.8905  1.3878
  829MPD2     C12241   2.615   1.507  11.825  0.2950 -0.5737 -0.2756
  829MPD2    C112242   2.483   1.494  11.846  0.3674 -0.2722  0.4684
  829MPD2    C212243   2.434   1.379  11.908 -0.6011 -0.1200  0.2268
  829MPD2    C312244   2.518   1.276  11.946 -0.2232  1.0820 -0.0340
  829MPD2    C412245   2.654   1.295  11.927  0.0838  0.8613  0.2396
  829MPD2    C512246   2.701   1.408  11.862 -0.8845 -0.0188  0.3065
  829MPD2     H12247   2.328   1.372  11.932 -0.5372  1.7530  1.0974
  829MPD2    H112248   2.734   1.227  11.954 -2.3001 -2.1694 -0.2953
  829MPD2    H212249   2.652   1.596  11.776  0.5290 -0.8074 -0.5186
  829MPD2    H312250   2.809   1.410  11.875 -0.4726 -0.1606 -3.1216
  829MPD2     N12251   2.474   1.157  12.000 -0.2052  0.3442  0.0206
  829MPD2    H512252   2.544   1.085  12.016  2.1619  2.7315  0.2529
  829MPD2    N112253   2.395   1.594  11.794 -0.4373 -0.1164 -0.6888
  829MPD2    H712254   2.433   1.674  11.742  1.4120  0.1380  1.0487
  830MPD2     C12255   2.426   3.409  16.102 -0.3894  0.0665 -0.0964
  830MPD2    C112256   2.411   3.511  16.017 -0.0500 -0.4146 -0.5316
  830MPD2    C212257   2.441   3.503  15.889 -0.1293  0.0141 -0.7890
  830MPD2    C312258   2.475   3.378  15.833  0.5655  0.6912  0.3590
  830MPD2    C412259   2.495   3.276  15.924  0.5337  0.1084  0.1310
  830MPD2    C512260   2.471   3.291  16.054  0.4401  0.1663  0.1075
  830MPD2     H12261   2.436   3.591  15.826  0.9180  0.7365  0.1574
  830MPD2    H112262   2.537   3.181  15.892 -1.2502 -0.7637  0.3578
  830MPD2    H212263   2.412   3.425  16.209 -1.9616 -0.1530 -0.2730
  830MPD2    H312264   2.476   3.211  16.127  1.2344  0.2168  0.1065
  830MPD2     N12265   2.510   3.366  15.697  0.3016 -0.3621 -0.1719
  830MPD2    H512266   2.550   3.279  15.664 -0.7362 -0.8811 -0.0712
  830MPD2    N112267   2.376   3.633  16.080 -0.2171 -0.4348  0.4703
  830MPD2    H712268   2.368   3.633  16.181  0.9042  3.3458  0.5755
  831MPD2     C12269   2.673   0.939  16.412  0.2631  0.2291 -0.3812
  831MPD2    C112270   2.674   0.973  16.274 -0.6034  0.0035 -0.0436
  831MPD2    C212271   2.562   0.954  16.193  0.1586 -0.1577 -0.6905
  831MPD2    C312272   2.450   0.900  16.248  0.1369 -0.1264 -0.0448
  831MPD2    C412273   2.453   0.865  16.382 -0.0954 -0.7517  0.2612
  831MPD2    C512274   2.560   0.881  16.458 -0.6140  0.6690 -0.1175
  831MPD2     H12275   2.569   0.989  16.090  3.7473 -0.6024 -0.6074
  831MPD2    H112276   2.366   0.816  16.423 -0.8423  1.9330  1.8844
  831MPD2    H212277   2.755   0.958  16.480  0.4706  1.5000 -0.9799
  831MPD2    H312278   2.557   0.854  16.562  3.6205  1.7967  0.3111
  831MPD2     N12279   2.332   0.876  16.172 -0.3971  0.1589  0.4661
  831MPD2    H512280   2.251   0.861  16.231 -0.3078 -1.4444  0.1672
  831MPD2    N112281   2.799   1.008  16.211  1.1653  0.6440 -0.0775
  831MPD2    H712282   2.880   0.965  16.253 -0.1535  0.2261  1.9974
  832MPD2     C12283   1.398   1.880  17.369  0.6349  0.4296  0.1085
  832MPD2    C112284   1.415   1.971  17.264 -0.3730 -0.0521  0.1091
  832MPD2    C212285   1.317   1.991  17.167  0.0390 -0.0306 -0.3563
  832MPD2    C312286   1.202   1.918  17.179 -0.1028 -0.1932 -0.2330
  832MPD2    C412287   1.190   1.820  17.273  0.5250 -0.0657 -0.2673
  832MPD2    C512288   1.288   1.798  17.360 -0.4849  0.1704 -0.3672
  832MPD2     H12289   1.325   2.078  17.103 -2.5613  0.4287 -0.0294
  832MPD2    H112290   1.108   1.750  17.277  1.3129 -1.1390 -2.6770
  832MPD2    H212291   1.476   1.861  17.441 -1.4781  1.0946  2.5775
  832MPD2    H312292   1.279   1.732  17.446 -1.8768 -0.8503 -1.3047
  832MPD2     N12293   1.085   1.945  17.102 -0.7322  0.3995  0.0268
  832MPD2    H512294   1.004   1.887  17.122 -1.5231  1.2672 -0.6497
  832MPD2    N112295   1.532   2.049  17.270  0.7456  0.3224  0.2634
  832MPD2    H712296   1.598   2.036  17.347 -1.2247 -2.2656  1.5313
  833MPD2     C12297   3.423   3.301  12.974 -0.2512  0.1756 -0.2111
  833MPD2    C112298   3.436   3.432  12.922  0.6943 -0.4993 -0.8972
  833MPD2    C212299   3.550   3.463  12.847  0.6125 -0.5548 -0.8245
  833MPD2    C312300   3.647   3.374  12.808 -0.2313 -1.0008 -0.6756
  833MPD2    C412301   3.628   3.243  12.860 -0.2867 -0.3376 -0.6762
  833MPD2    C512302   3.523   3.210  12.944 -0.0843 -0.0352 -1.0259
  833MPD2     H12303   3.563   3.569  12.826  0.6020 -0.6115 -1.1156
  833MPD2    H112304   3.702   3.166  12.840  0.8419  0.6513 -0.3311
  833MPD2    H212305   3.334   3.269  13.027 -0.4060 -2.1049 -1.8459
  833MPD2    H312306   3.517   3.106  12.973  2.1198  0.0696 -0.2055
  833MPD2     N12307   3.767   3.399  12.739  0.2036 -0.3206  0.8697
  833MPD2    H512308   3.820   3.314  12.722  1.1477  0.2956  0.7581
  833MPD2    N112309   3.352   3.537  12.959 -0.1029 -0.1986 -0.0183
  833MPD2    H712310   3.379   3.629  12.925  0.9039 -0.3636  0.3350
  834MPD2     C12311   3.526   3.070  11.883  0.1732 -0.1625  0.6987
  834MPD2    C112312   3.496   3.204  11.881 -0.3011 -0.0566 -0.3462
  834MPD2    C212313   3.551   3.294  11.977  0.0132  0.2386 -0.6068
  834MPD2    C312314   3.634   3.251  12.075 -0.8778  0.0247 -0.4655
  834MPD2    C412315   3.684   3.123  12.058 -0.1155  0.0193 -1.0482
  834MPD2    C512316   3.624   3.036  11.964  0.5949  0.2689 -0.1447
  834MPD2     H12317   3.535   3.398  11.953 -1.5312  0.3269  0.8000
  834MPD2    H112318   3.763   3.078  12.117 -0.4333 -0.0785 -0.6907
  834MPD2    H212319   3.486   2.989  11.822  2.4415 -0.0705 -0.9351
  834MPD2    H312320   3.652   2.931  11.959  1.4085  0.4914 -0.2295
  834MPD2     N12321   3.702   3.342  12.169  0.7746  0.0450 -0.0097
  834MPD2    H512322   3.689   3.442  12.164  1.5228  0.2091  1.3971
  834MPD2    N112323   3.412   3.248  11.771 -0.1878 -0.6124  0.6341
  834MPD2    H712324   3.374   3.180  11.706  1.2765 -0.1386 -0.7257
  835MPD2     C12325   3.794   1.168  11.220 -0.6893  0.2053  0.4120
  835MPD2    C112326   3.705   1.270  11.254 -0.0154  0.3153  0.6532
  835MPD2    C212327   3.680   1.307  11.385  0.9977  0.0289 -0.4414
  835MPD2    C312328   3.764   1.247  11.480  0.5255 -0.4369  0.7422
  835MPD2    C412329   3.860   1.155  11.440  0.1154  0.3751  0.1399
  835MPD2    C512330   3.872   1.108  11.315  0.5130 -0.0422  0.4039
  835MPD2     H12331   3.604   1.382  11.404 -0.8522 -1.3595 -2.3586
  835MPD2    H112332   3.938   1.121  11.507 -0.3517  0.4149  0.7101
  835MPD2    H212333   3.806   1.142  11.115  0.9762  3.3969 -0.1812
  835MPD2    H312334   3.944   1.029  11.293 -0.5051 -0.2127 -2.3532
  835MPD2     N12335   3.785   1.293  11.614 -0.4944  0.1151 -0.0137
  835MPD2    H512336   3.858   1.246  11.665  0.1998  1.0583 -0.1496
  835MPD2    N112337   3.628   1.323  11.152 -0.5803  0.2055  1.0315
  835MPD2    H712338   3.550   1.379  11.183 -0.0017  2.3819 -1.4479
  836MPD2     C12339   3.244   1.543  12.019  0.0643  0.2826  0.1479
  836MPD2    C112340   3.333   1.502  12.113 -0.8654  0.4032 -0.3339
  836MPD2    C212341   3.296   1.460  12.238 -0.0255 -0.3155 -0.7544
  836MPD2    C312342   3.162   1.474  12.277  0.0995 -0.9573 -0.5684
  836MPD2    C412343   3.073   1.522  12.181 -0.4398 -0.7922 -0.2066
  836MPD2    C512344   3.116   1.554  12.053  0.0720  0.7582 -0.1521
  836MPD2     H12345   3.363   1.411  12.308  1.2097 -0.0474 -1.7790
  836MPD2    H112346   2.968   1.527  12.210 -0.3821  0.7565 -0.2169
  836MPD2    H212347   3.272   1.568  11.917  0.4315 -1.3539 -0.1481
  836MPD2    H312348   3.042   1.580  11.978  1.0255  2.7803 -0.4064
  836MPD2     N12349   3.113   1.453  12.406 -0.3174  0.3944 -0.3868
  836MPD2    H512350   3.024   1.499  12.422  0.4034  1.5590  0.2517
  836MPD2    N112351   3.467   1.495  12.065 -0.2340  0.2309 -1.1913
  836MPD2    H712352   3.495   1.541  11.979  1.9536  0.4926 -0.3246
  837MPD2     C12353   1.370   0.667  10.134  0.9300 -0.0634 -0.2591
  837MPD2    C112354   1.307   0.728  10.036  0.3072 -0.1740 -0.1004
  837MPD2    C212355   1.315   0.866  10.026 -0.7666 -0.3626  0.6633
  837MPD2    C312356   1.391   0.941  10.111 -0.5291 -0.5131 -0.5442
  837MPD2    C412357   1.465   0.880  10.212  0.0555 -0.0316  0.4282
  837MPD2    C512358   1.452   0.742  10.217  0.0335  0.3878  0.0131
  837MPD2     H12359   1.255   0.917   9.952 -0.2798 -1.1396 -0.2573
  837MPD2    H112360   1.516   0.932  10.292 -0.2524  0.1027  0.5362
  837MPD2    H212361   1.371   0.559  10.140 -0.4672 -0.1221 -1.0156
  837MPD2    H312362   1.506   0.693  10.297 -0.3382 -0.0359  0.0069
  837MPD2     N12363   1.377   1.075  10.102 -0.2951 -0.5364  0.0676
  837MPD2    H512364   1.318   1.109  10.027 -2.3258  0.4175  2.0883
  837MPD2    N112365   1.205   0.670   9.963  0.3719 -0.0627 -0.1599
  837MPD2    H712366   1.140   0.736   9.921 -1.0417 -1.6380 -0.4522
  838MPD2     C12367   0.261   3.994  11.889  0.7699  0.5209 -0.5613
  838MPD2    C112368   0.166   3.902  11.880  0.3501 -0.1928  0.0773
  838MPD2    C212369   0.065   3.895  11.976  0.3406 -0.0132 -0.2498
  838MPD2    C312370   0.061   3.981  12.079 -0.8762  0.1862 -0.3045
  838MPD2    C412371   0.159   4.078  12.092 -0.3696 -0.3365  0.0499
  838MPD2    C512372   0.260   4.079  11.999 -0.1977  0.0622 -0.4396
  838MPD2     H12373   4.720   3.827  11.969  1.4157 -1.5197  1.4762
  838MPD2    H112374   0.155   4.147  12.176  0.2010 -0.8741  0.5137
  838MPD2    H212375   0.346   3.998  11.822  0.1310 -1.2710 -1.4878
  838MPD2    H312376   0.346   4.139  12.025 -0.5610  0.7381 -0.7790
  838MPD2     N12377   4.676   3.983  12.155  0.0238 -0.0703 -0.3074
  838MPD2    H512378   4.610   3.906  12.148  0.0594 -0.1323  0.0516
  838MPD2    N112379   0.154   3.808  11.776  0.1387  0.3774 -0.1588
  838MPD2    H712380   0.088   3.732  11.790  1.6070 -1.2490 -2.0440
  839MPD2     C12381   4.391   3.252  11.896 -0.1271 -0.4501 -0.1040
  839MPD2    C112382   4.382   3.269  11.763 -0.2019  0.4029  0.0055
  839MPD2    C212383   4.497   3.296  11.695 -0.3096 -0.1306 -0.4260
  839MPD2    C312384   4.613   3.326  11.758  0.0862  0.2026 -0.3841
  839MPD2    C412385   4.617   3.328  11.896  0.2781  0.4437 -0.0554
  839MPD2    C512386   4.508   3.282  11.963 -0.0364  1.2790 -1.3769
  839MPD2     H12387   4.475   3.300  11.589 -1.6052 -1.0820 -0.1955
  839MPD2    H112388   4.716   3.349  11.936  0.4610 -0.2958 -0.1228
  839MPD2    H212389   4.307   3.220  11.956 -0.2150  1.1473  0.6135
  839MPD2    H312390   4.504   3.282  12.072  0.9082  2.8993 -1.3534
  839MPD2     N12391   4.730   3.371  11.694  0.3273 -0.3092  0.3013
  839MPD2    H512392   0.064   3.412  11.751  1.7868 -4.4052  1.3799
  839MPD2    N112393   4.276   3.218  11.679 -0.5176  0.6467  0.1643
  839MPD2    H712394   4.303   3.192  11.585 -0.4088 -1.6545  0.8414
  840MPD2     C12395   4.663   1.529  10.226 -0.2275 -0.4416  0.3668
  840MPD2    C112396   4.656   1.445  10.334 -0.2520  0.0072 -1.1388
  840MPD2    C212397   4.708   1.486  10.458  1.1016  0.4766 -0.1171
  840MPD2    C312398   0.023   1.617  10.469  0.1474  0.3223  0.5112
  840MPD2    C412399   0.004   1.706  10.360 -0.3060 -0.0377 -0.4062
  840MPD2    C512400   4.713   1.656  10.239  0.3783 -0.0168 -0.7809
  840MPD2     H12401   4.715   1.418  10.542 -2.9121  1.4590  1.0138
  840MPD2    H112402   0.028   1.812  10.362  2.5637 -0.6194 -3.1255
  840MPD2    H212403   4.634   1.494  10.128 -0.7234 -0.4606  0.5223
  840MPD2    H312404   4.729   1.716  10.151  0.9241  2.4263  0.9979
  840MPD2     N12405   0.077   1.674  10.591  0.5539 -0.6392  0.1338
  840MPD2    H512406   0.117   1.766  10.577  0.2473 -0.4434  0.5189
  840MPD2    N112407   4.594   1.318  10.316 -0.4328 -0.7411 -1.1793
  840MPD2    H712408   4.553   1.309  10.224  0.1269 -1.5583 -1.3440
  841MPD2     C12409   4.716   1.102  13.858  0.4845  0.0882 -0.6356
  841MPD2    C112410   4.715   1.005  13.951  0.2053  0.3986  0.4470
  841MPD2    C212411   0.078   1.004  14.045  0.0522 -0.1180 -0.0411
  841MPD2    C312412   0.175   1.110  14.043  0.6844  0.8053 -1.0657
  841MPD2    C412413   0.167   1.202  13.947  0.5821  0.6825  1.1901
  841MPD2    C512414   0.070   1.204  13.854  0.4877 -0.2529 -0.2221
  841MPD2     H12415   0.081   0.926  14.119  1.8098 -0.2204 -0.2112
  841MPD2    H112416   0.240   1.282  13.939  1.6488 -0.6433 -2.5158
  841MPD2    H212417   4.633   1.112  13.789  0.0940  0.9029 -0.0357
  841MPD2    H312418   0.063   1.280  13.776  1.3901 -0.9844 -1.0219
  841MPD2     N12419   0.280   1.109  14.137  0.1543  0.3742 -0.8703
  841MPD2    H512420   0.276   1.034  14.205  2.5501 -0.4265 -1.5899
  841MPD2    N112421   4.610   0.904  13.947  0.1782 -0.4854  0.1349
  841MPD2    H712422   4.615   0.830  14.017  1.2718  1.0656  1.6718
  842MPD2     C12423   0.122   1.874  16.899  0.2700  0.2932  0.4495
  842MPD2    C112424   0.152   2.010  16.880  0.5388 -0.4104 -0.1072
  842MPD2    C212425   0.084   2.104  16.957  0.3240 -0.4138  0.4999
  842MPD2    C312426   4.723   2.062  17.043 -0.5792 -0.4342 -0.0797
  842MPD2    C412427   4.694   1.930  17.053  0.0994  0.1989 -0.4128
  842MPD2    C512428   0.023   1.837  16.987  0.1249 -0.2889 -0.6145
  842MPD2     H12429   0.117   2.208  16.950 -2.0822  0.4809  2.4450
  842MPD2    H112430   4.619   1.895  17.122  1.2152  0.0377  0.7228
  842MPD2    H212431   0.187   1.805  16.846 -1.1789 -2.1809  1.9214
  842MPD2    H312432   4.732   1.736  17.009  0.9744 -1.1057 -3.2000
  842MPD2     N12433   4.647   2.145  17.127  0.5637  0.2342  0.1779
  842MPD2    H512434   4.575   2.102  17.184  0.3221  1.9352  1.1395
  842MPD2    N112435   0.239   2.037  16.772  0.3502 -0.0119 -0.2886
  842MPD2    H712436   0.263   1.964  16.706 -1.4408  0.3672 -1.3488
  843MPD2     C12437   2.433   2.772  17.296 -0.9498  0.0573 -0.1110
  843MPD2    C112438   2.522   2.715  17.385  0.5741  0.1848  0.0820
  843MPD2    C212439   2.620   2.799  17.447  0.0381  0.1239  0.3725
  843MPD2    C312440   2.625   2.936  17.408 -0.1438  0.1092 -0.2792
  843MPD2    C412441   2.539   2.987  17.313  0.4391 -0.0981  0.5810
  843MPD2    C512442   2.443   2.908  17.266 -0.1104 -0.1406  0.5855
  843MPD2     H12443   2.677   2.758  17.529 -1.4298  1.7077  2.1869
  843MPD2    H112444   2.520   3.093  17.299  3.1239  0.4961  1.2940
  843MPD2    H212445   2.353   2.713  17.253 -2.5433  1.5732  0.7946
  843MPD2    H312446   2.367   2.951  17.201  0.4191  0.7920  0.5897
  843MPD2     N12447   2.717   3.026  17.468 -0.4549 -0.1310 -0.4130
  843MPD2    H512448   2.717   3.125  17.444  0.5899 -0.3776 -1.4618
  843MPD2    N112449   2.504   2.582  17.419  0.4503  0.5881  0.4282
  843MPD2    H712450   2.426   2.540  17.371  1.2198 -0.5068  0.1413
  844MPD2     C12451   0.720   1.563  16.806 -0.1009  0.1667 -0.3530
  844MPD2    C112452   0.767   1.561  16.671 -0.3386 -0.7211  0.0154
  844MPD2    C212453   0.893   1.613  16.645  0.5312 -0.7112  0.1644
  844MPD2    C312454   0.979   1.652  16.745  0.1253 -0.0944  0.4776
  844MPD2    C412455   0.936   1.649  16.877  0.3349 -0.4399 -0.4152
  844MPD2    C512456   0.805   1.611  16.899 -0.1022 -0.4962  0.0316
  844MPD2     H12457   0.933   1.614  16.544 -2.3765  0.9852 -0.9575
  844MPD2    H112458   0.988   1.684  16.965 -0.9331  1.0759 -0.2588
  844MPD2    H212459   0.624   1.520  16.830  0.7030  0.1385  2.8284
  844MPD2    H312460   0.774   1.592  17.001  1.2047  0.0992  0.5331
  844MPD2     N12461   1.111   1.690  16.726  0.2205 -0.1836 -0.4280
  844MPD2    H512462   1.133   1.720  16.631  0.0410 -2.3712 -1.1786
  844MPD2    N112463   0.685   1.513  16.571 -0.1335 -0.5332 -0.0901
  844MPD2    H712464   0.726   1.518  16.478  0.4366  0.0315  0.1868
  845MPD2     C12465   1.438   2.630  16.760  0.1453 -0.4376 -0.0318
  845MPD2    C112466   1.519   2.576  16.853 -0.0708 -0.5473 -0.4794
  845MPD2    C212467   1.517   2.439  16.875  0.2173 -0.3607  0.1625
  845MPD2    C312468   1.440   2.356  16.790 -0.8155  0.4034 -0.5193
  845MPD2    C412469   1.371   2.413  16.688  0.2458  0.0991 -0.2039
  845MPD2    C512470   1.360   2.548  16.678 -0.2150 -0.3336  0.0305
  845MPD2     H12471   1.572   2.397  16.959 -0.0159 -0.2143  0.3893
  845MPD2    H112472   1.324   2.353  16.611  2.0867 -0.5804 -0.7939
  845MPD2    H212473   1.437   2.738  16.757 -2.0888 -0.4969 -0.7061
  845MPD2    H312474   1.303   2.597  16.600  0.0860 -1.0878 -0.6479
  845MPD2     N12475   1.444   2.213  16.806 -0.4589 -0.3285  0.7307
  845MPD2    H512476   1.479   2.188  16.898  1.3970  1.5469  0.5407
  845MPD2    N112477   1.606   2.667  16.923  0.1621  0.6289 -0.0407
  845MPD2    H712478   1.598   2.766  16.901 -1.4982  0.7619  1.1691
  846MPD2     C12479   2.450   2.872  13.838  0.5813  0.5706  0.2355
  846MPD2    C112480   2.332   2.935  13.866  0.0331 -0.3109 -0.2423
  846MPD2    C212481   2.302   2.982  13.994 -0.2099  0.8054  0.9389
  846MPD2    C312482   2.402   2.987  14.092 -0.0417  0.1042 -0.1985
  846MPD2    C412483   2.517   2.928  14.058  0.2721 -0.8972 -0.0091
  846MPD2    C512484   2.546   2.872  13.939  0.1212 -0.1103  0.3820
  846MPD2     H12485   2.206   3.028  14.015 -0.5132  1.3261 -1.6215
  846MPD2    H112486   2.604   2.923  14.122  0.3197 -0.8585 -0.0710
  846MPD2    H212487   2.483   2.836  13.741  0.3539  1.3145 -0.1220
  846MPD2    H312488   2.643   2.824  13.929  0.9883  2.0717 -1.7994
  846MPD2     N12489   2.380   3.040  14.220 -0.1331 -0.1697  0.0803
  846MPD2    H512490   2.285   3.061  14.250 -0.6199  0.2536 -1.7948
  846MPD2    N112491   2.233   2.964  13.762  0.4959  0.1882  0.8058
  846MPD2    H712492   2.158   3.030  13.781 -0.0104  0.1676 -1.0563
  847MPD2     C12493   2.681   4.038  14.163  0.3051 -0.3308  0.0015
  847MPD2    C112494   2.708   4.137  14.251  0.4867 -0.0332 -0.4305
  847MPD2    C212495   2.750   4.098  14.378 -0.3471 -0.1523  0.2729
  847MPD2    C312496   2.772   3.962  14.411  0.5163  0.2134  0.8703
  847MPD2    C412497   2.756   3.868  14.311  0.0969 -0.0318 -1.0124
  847MPD2    C512498   2.710   3.906  14.187 -0.0145 -0.1362 -0.1910
  847MPD2     H12499   2.769   4.175  14.451 -1.3163 -0.6677  1.0568
  847MPD2    H112500   2.763   3.761  14.324 -1.1947 -0.0993 -0.7955
  847MPD2    H212501   2.635   4.062  14.068  0.6789  2.3294  0.4965
  847MPD2    H312502   2.686   3.835  14.108  0.4962  0.0510 -0.5189
  847MPD2     N12503   2.795   3.915  14.534 -0.4677 -0.3965 -0.5967
  847MPD2    H512504   2.790   3.814  14.538  2.1248 -0.6183 -2.9357
  847MPD2    N112505   2.679   4.269  14.226  0.5591 -0.8117 -0.5104
  847MPD2    H712506   2.715   4.331  14.298  0.0009  0.3655 -1.2369
  848MPD2     C12507   0.768   2.187  16.375  0.0536  0.0150 -0.5180
  848MPD2    C112508   0.845   2.249  16.469 -0.2354  0.5164  0.8925
  848MPD2    C212509   0.914   2.361  16.437  0.4304 -0.9922 -0.0780
  848MPD2    C312510   0.901   2.417  16.313  0.7789 -0.7142 -0.2991
  848MPD2    C412511   0.825   2.353  16.212 -0.3930 -0.2399  0.1685
  848MPD2    C512512   0.764   2.236  16.245 -0.1064 -0.4344 -0.3341
  848MPD2     H12513   0.964   2.408  16.521 -2.0701  0.3392  0.6465
  848MPD2    H112514   0.819   2.397  16.113 -0.1536  2.4480  1.3370
  848MPD2    H212515   0.722   2.091  16.395 -1.4946  0.9325  0.4069
  848MPD2    H312516   0.713   2.186  16.164 -2.6623  1.2927  0.2221
  848MPD2     N12517   0.973   2.528  16.266 -0.2846 -0.4172  0.5409
  848MPD2    H512518   0.972   2.553  16.167 -0.5765  0.4042  0.7458
  848MPD2    N112519   0.836   2.213  16.607 -0.0020  0.4254 -0.2553
  848MPD2    H712520   0.906   2.257  16.667 -0.4124 -0.3564  0.7890
  849MPD2     C12521   4.444   2.057  14.464  0.7182  0.7835 -0.3687
  849MPD2    C112522   4.498   2.041  14.340  0.2237 -0.5454 -0.1950
  849MPD2    C212523   4.615   1.967  14.337 -0.0766  0.1758 -1.1279
  849MPD2    C312524   4.663   1.892  14.440  0.2180 -0.3638  0.1796
  849MPD2    C412525   4.611   1.911  14.560  0.2444  0.2436 -0.0747
  849MPD2    C512526   4.500   1.990  14.572 -0.0878  0.7710 -0.5123
  849MPD2     H12527   4.662   1.973  14.239  1.5236  0.2724 -0.3538
  849MPD2    H112528   4.656   1.843  14.631  1.0193  0.8256 -0.0084
  849MPD2    H212529   4.350   2.110  14.475  0.1165 -0.8358  2.0971
  849MPD2    H312530   4.442   2.001  14.664  0.1409 -0.5645 -0.2124
  849MPD2     N12531   0.031   1.808  14.414 -0.4410 -0.4400 -0.0521
  849MPD2    H512532   0.073   1.760  14.493  2.3479  2.8929  0.4626
  849MPD2    N112533   4.468   2.115  14.224  0.5916  0.3478  0.1839
  849MPD2    H712534   4.533   2.104  14.147 -0.7107 -0.0718 -0.8514
  850MPD2     C12535   3.469   4.425  15.169 -0.0030  0.9818  0.2773
  850MPD2    C112536   3.387   4.524  15.223  0.7536  0.3896  0.5209
  850MPD2    C212537   3.444   4.651  15.233 -0.4402 -0.7398 -0.6561
  850MPD2    C312538   3.568   4.678  15.181 -0.5365  0.2515 -0.4474
  850MPD2    C412539   3.636   4.583  15.108 -0.0929 -0.1270  0.6177
  850MPD2    C512540   3.587   4.455  15.112 -0.6696 -0.5535  0.4487
  850MPD2     H12541   3.390   4.722  15.293 -1.0649 -1.0893 -0.8052
  850MPD2    H112542   3.735   4.598  15.069 -0.5988 -1.6781 -1.2591
  850MPD2    H212543   3.430   4.324  15.161  0.0454  1.0017 -0.1885
  850MPD2    H312544   3.646   4.369  15.082  0.0131  0.3512 -0.8067
  850MPD2     N12545   3.633   0.063  15.199 -0.1865  0.1300 -0.1559
  850MPD2    H512546   3.715   0.087  15.145  0.0589 -2.4055 -0.9145
  850MPD2    N112547   3.262   4.483  15.275  0.4769  0.2374 -0.5788
  850MPD2    H712548   3.235   4.385  15.276 -0.2054  0.4184 -0.8581
  851MPD2     C12549   3.214   3.922  15.527  0.1285  0.3245  0.0153
  851MPD2    C112550   3.090   3.983  15.518 -0.6446 -0.1679  0.0489
  851MPD2    C212551   2.970   3.910  15.483  0.6783  0.2316  0.0858
  851MPD2    C312552   2.979   3.772  15.479 -0.4662  0.2150  0.0249
  851MPD2    C412553   3.098   3.711  15.493 -0.3922  0.2564  0.0875
  851MPD2    C512554   3.213   3.787  15.519  0.1490  0.0566 -0.2918
  851MPD2     H12555   2.872   3.951  15.463  1.5058  1.5433 -1.2141
  851MPD2    H112556   3.112   3.605  15.473 -3.7145  0.1783 -1.8362
  851MPD2    H212557   3.302   3.980  15.553  0.5782 -0.7821  1.0157
  851MPD2    H312558   3.305   3.735  15.544  1.1856  1.2821 -1.5606
  851MPD2     N12559   2.864   3.699  15.448 -0.8365  0.0051 -0.4506
  851MPD2    H512560   2.782   3.748  15.414  0.4336  1.6246 -1.1850
  851MPD2    N112561   3.079   4.127  15.539  0.8420 -0.1886 -0.5778
  851MPD2    H712562   3.165   4.179  15.540  0.8079 -0.1143 -1.1480
  852MPD2     C12563   2.255   2.878  10.343  0.0447  0.8758 -0.3213
  852MPD2    C112564   2.338   2.944  10.431 -0.1381 -0.1152 -0.9325
  852MPD2    C212565   2.462   2.982  10.392  0.4260  0.0590 -0.0597
  852MPD2    C312566   2.512   2.961  10.267 -0.2945 -0.5788 -0.0234
  852MPD2    C412567   2.427   2.891  10.188  0.2157 -0.0172 -0.0341
  852MPD2    C512568   2.304   2.845  10.223  0.2032  0.1100 -0.0597
  852MPD2     H12569   2.515   3.031  10.473 -0.1595 -0.6752  0.7613
  852MPD2    H112570   2.465   2.860  10.091  1.5599  2.9964 -0.4545
  852MPD2    H212571   2.155   2.844  10.368  0.9853  0.4437  2.7843
  852MPD2    H312572   2.240   2.777  10.168 -1.8263  3.1269 -1.4552
  852MPD2     N12573   2.637   3.006  10.229 -0.0525 -0.0268  0.6567
  852MPD2    H512574   2.687   3.063  10.298  0.5301 -3.4894  3.1293
  852MPD2    N112575   2.306   2.955  10.568 -0.2345 -0.7097  0.9272
  852MPD2    H712576   2.386   2.978  10.628 -0.2980  1.1154  0.3075
  853MPD2     C12577   4.325   2.194  12.411  0.4301 -0.3056  0.2773
  853MPD2    C112578   4.240   2.303  12.378  0.3636 -0.0451 -1.0493
  853MPD2    C212579   4.203   2.313  12.246 -0.2063 -0.2312  0.4607
  853MPD2    C312580   4.227   2.212  12.157  0.3434  0.2577 -0.7020
  853MPD2    C412581   4.306   2.103  12.191  0.5053 -0.4510 -0.0319
  853MPD2    C512582   4.355   2.094  12.319  0.0926 -0.1451  0.0898
  853MPD2     H12583   4.153   2.402  12.210  0.1807 -0.0142  0.4675
  853MPD2    H112584   4.327   2.027  12.117 -0.8901 -3.4017  2.5842
  853MPD2    H212585   4.351   2.183  12.516 -1.0145 -0.2818  0.6456
  853MPD2    H312586   4.415   2.011  12.354 -0.4098 -0.1886  0.8484
  853MPD2     N12587   4.192   2.221  12.020  0.0249 -0.3128 -0.1580
  853MPD2    H512588   4.245   2.152  11.968 -1.4463 -1.0343 -0.6681
  853MPD2    N112589   4.203   2.398  12.476 -0.7454 -0.1847  0.2844
  853MPD2    H712590   4.222   2.374  12.572 -0.8462  1.2203  0.6634
  854MPD2     C12591   1.063   2.590  12.387 -0.4303 -0.8405  0.4911
  854MPD2    C112592   1.152   2.657  12.474 -0.5463  0.3175  0.0577
  854MPD2    C212593   1.223   2.581  12.572  0.4388 -0.0954 -0.1449
  854MPD2    C312594   1.211   2.444  12.574 -0.4607 -0.3003 -0.0882
  854MPD2    C412595   1.119   2.387  12.494 -0.5700  0.2925  0.2891
  854MPD2    C512596   1.044   2.455  12.399 -0.1912  0.4612 -0.0551
  854MPD2     H12597   1.301   2.629  12.629  0.1745  1.0956 -0.7886
  854MPD2    H112598   1.102   2.280  12.492  0.8784  0.0786 -0.0442
  854MPD2    H212599   1.017   2.643  12.304 -2.2014  0.8658  2.5468
  854MPD2    H312600   0.981   2.387  12.344  1.1591 -0.2832 -0.6982
  854MPD2     N12601   1.279   2.360  12.664 -0.1946 -0.1467  0.3896
  854MPD2    H512602   1.276   2.262  12.636 -0.4559 -0.0877  0.2102
  854MPD2    N112603   1.161   2.799  12.453  0.2705 -0.5626  0.5927
  854MPD2    H712604   1.122   2.840  12.369  3.3822  0.3236 -0.4293
  855MPD2     C12605   1.677   2.437  13.604  0.3218 -0.2410  0.0473
  855MPD2    C112606   1.679   2.306  13.562  0.0532 -0.0864  0.6064
  855MPD2    C212607   1.660   2.278  13.427  0.5903  0.2322 -0.2188
  855MPD2    C312608   1.612   2.374  13.336  0.0695 -0.0811 -0.2404
  855MPD2    C412609   1.589   2.496  13.386 -0.7210 -0.4447  0.1361
  855MPD2    C512610   1.620   2.527  13.512 -0.2197 -0.4369 -0.1420
  855MPD2     H12611   1.662   2.173  13.399 -0.9940  0.4212 -1.0470
  855MPD2    H112612   1.541   2.568  13.321 -0.7237 -1.8638 -1.4398
  855MPD2    H212613   1.695   2.471  13.706 -0.5030  0.4548 -0.0380
  855MPD2    H312614   1.604   2.628  13.547 -2.2020 -0.2608 -1.5903
  855MPD2     N12615   1.596   2.350  13.196  0.5488  0.2627 -0.0324
  855MPD2    H512616   1.588   2.430  13.135  0.9867  0.9288  0.7935
  855MPD2    N112617   1.698   2.201  13.654 -0.3710 -0.1625 -0.2421
  855MPD2    H712618   1.711   2.111  13.609  0.2519 -0.1723 -0.0444
  856MPD2     C12619   3.611   2.986  14.201  0.0667  0.4196 -0.2516
  856MPD2    C112620   3.645   3.071  14.102 -0.2304 -0.6071 -0.5874
  856MPD2    C212621   3.538   3.120  14.027  0.0216 -0.1759  0.0519
  856MPD2    C312622   3.412   3.071  14.044  0.5468 -0.2569 -0.1894
  856MPD2    C412623   3.386   2.979  14.145  0.3841 -0.0162  0.2324
  856MPD2    C512624   3.488   2.938  14.224 -0.2501 -0.4586 -0.8771
  856MPD2     H12625   3.546   3.198  13.952 -1.9672 -0.0899 -0.0890
  856MPD2    H112626   3.290   2.931  14.159  0.7302 -1.5098 -2.5769
  856MPD2    H212627   3.687   2.935  14.261  0.4199  0.8483 -0.3348
  856MPD2    H312628   3.478   2.867  14.306  1.9142  0.2134 -0.0274
  856MPD2     N12629   3.298   3.113  13.963 -0.2712 -0.5638 -0.0252
  856MPD2    H512630   3.205   3.087  13.995 -0.9235  2.3478  0.4297
  856MPD2    N112631   3.771   3.123  14.076  0.0696 -0.0492 -0.0732
  856MPD2    H712632   3.780   3.195  14.005  0.0521 -2.3644 -2.4567
  857MPD2     C12633   0.258   0.835  12.626  0.4636  0.8075  0.1513
  857MPD2    C112634   0.357   0.763  12.686 -0.3395  0.5750 -0.1164
  857MPD2    C212635   0.403   0.804  12.803  0.1082  0.4913 -0.0084
  857MPD2    C312636   0.375   0.927  12.856 -0.5247 -0.4789  1.0140
  857MPD2    C412637   0.288   1.007  12.796 -1.2389 -0.1378 -0.0751
  857MPD2    C512638   0.218   0.959  12.680 -0.8467 -0.1266  0.8055
  857MPD2     H12639   0.466   0.744  12.867  0.0444 -0.2471 -0.6345
  857MPD2    H112640   0.270   1.112  12.819  1.5953  0.2701  0.2993
  857MPD2    H212641   0.221   0.798  12.531 -1.3609 -0.4704  1.3524
  857MPD2    H312642   0.130   1.013  12.647 -0.1936 -1.9819 -3.8663
  857MPD2     N12643   0.438   0.958  12.978  0.4542 -0.5153 -0.6812
  857MPD2    H512644   0.493   0.879  13.011 -1.3586 -1.1847  0.7282
  857MPD2    N112645   0.396   0.637  12.626 -0.0774 -0.0547 -0.2464
  857MPD2    H712646   0.352   0.608  12.540 -1.0267  2.2311 -0.5402
  858MPD2     C12647   0.652   4.461  16.428  0.2390 -0.9328  0.7458
  858MPD2    C112648   0.777   4.490  16.371  0.3222  0.2240 -0.0172
  858MPD2    C212649   0.845   4.611  16.415  0.0733 -0.2333  0.6077
  858MPD2    C312650   0.791   4.688  16.506  0.3144  0.4679 -0.1315
  858MPD2    C412651   0.659   4.662  16.550  0.3380  0.2777 -0.6177
  858MPD2    C512652   0.597   4.551  16.504  0.9498  0.2585  0.0147
  858MPD2     H12653   0.942   4.634  16.371 -1.5795  0.8478 -2.4666
  858MPD2    H112654   0.606   4.724  16.621 -1.0827  0.6650 -2.0352
  858MPD2    H212655   0.598   4.368  16.417 -1.3478  0.2455 -1.4737
  858MPD2    H312656   0.499   4.521  16.541  0.1862  1.9677 -0.5993
  858MPD2     N12657   0.859   0.057  16.564  0.1277 -0.5908  0.2684
  858MPD2    H512658   0.804   0.106  16.634  0.9575  0.4249  0.2245
  858MPD2    N112659   0.846   4.393  16.292 -0.2642 -0.3005  0.4971
  858MPD2    H712660   0.813   4.298  16.296 -0.5557 -0.2532 -0.9012
  859MPD2     C12661   4.587   1.723  14.952 -0.3491 -0.6523 -0.2311
  859MPD2    C112662   4.659   1.741  15.067 -0.2231 -0.0156 -0.3009
  859MPD2    C212663   4.697   1.630  15.143 -0.0173  0.9130  0.0354
  859MPD2    C312664   4.684   1.505  15.082 -0.9246  0.3092  0.0799
  859MPD2    C412665   4.623   1.496  14.962  0.1135  0.0828 -0.5778
  859MPD2    C512666   4.565   1.601  14.899 -0.8235 -0.1611  0.8752
  859MPD2     H12667   0.006   1.643  15.239  0.1948  0.2979  0.0145
  859MPD2    H112668   4.601   1.399  14.919  0.7704  0.6991 -2.3044
  859MPD2    H212669   4.552   1.815  14.906  0.9678  0.0866  0.2547
  859MPD2    H312670   4.525   1.600  14.799 -0.4341 -1.6837  0.7367
  859MPD2     N12671   4.707   1.389  15.153  0.2540  0.1572 -0.4023
  859MPD2    H512672   4.682   1.302  15.107 -2.0554  0.8987 -0.5813
  859MPD2    N112673   4.678   1.874  15.107 -0.2459  0.5775 -0.1127
  859MPD2    H712674   4.642   1.948  15.048 -1.4346 -0.5765 -0.8378
  860MPD2     C12675   2.274   3.069  11.923  0.2231 -0.0168 -0.7116
  860MPD2    C112676   2.315   2.952  11.987 -1.0337  0.1654  0.6618
  860MPD2    C212677   2.244   2.831  11.964 -0.6187 -0.3992 -0.2603
  860MPD2    C312678   2.164   2.825  11.855 -0.1223  0.3359  0.3408
  860MPD2    C412679   2.126   2.947  11.794 -0.2270  0.3238 -0.3346
  860MPD2    C512680   2.185   3.063  11.827 -0.1601  0.2971 -0.3954
  860MPD2     H12681   2.265   2.744  12.024 -3.2408 -0.8984 -0.0348
  860MPD2    H112682   2.058   2.947  11.709 -0.6459 -2.5636 -0.0039
  860MPD2    H212683   2.303   3.171  11.942  0.9758 -0.7614  2.1976
  860MPD2    H312684   2.171   3.155  11.772  0.2060  0.3304 -0.4387
  860MPD2     N12685   2.102   2.699  11.826  0.3633 -0.0301 -0.0101
  860MPD2    H512686   2.131   2.618  11.879 -0.0954  0.6119  1.2091
  860MPD2    N112687   2.415   2.964  12.088 -0.7092  0.0466  0.0248
  860MPD2    H712688   2.437   2.873  12.126  0.6178 -0.6946 -2.5172
  861MPD2     C12689   1.153   0.437  10.931 -0.7758 -0.1663 -0.6423
  861MPD2    C112690   1.120   0.556  10.979 -0.3958  0.5913  0.4543
  861MPD2    C212691   1.016   0.627  10.916 -0.3545  0.3755  0.5621
  861MPD2    C312692   0.950   0.568  10.806  0.4089  0.1222 -0.4183
  861MPD2    C412693   0.996   0.451  10.743 -0.2788  0.3857  0.0601
  861MPD2    C512694   1.103   0.387  10.814 -0.1138  0.4346 -0.7116
  861MPD2     H12695   0.983   0.724  10.952 -1.1099 -0.1186  1.2161
  861MPD2    H112696   0.940   0.401  10.665 -1.0477  0.6968  0.4204
  861MPD2    H212697   1.220   0.371  10.986 -0.4842  0.8670  0.2440
  861MPD2    H312698   1.136   0.295  10.766  1.3982  1.1464 -1.0162
  861MPD2     N12699   0.832   0.626  10.744 -0.2683 -0.3025 -0.0459
  861MPD2    H512700   0.777   0.561  10.689  0.5739  1.0878 -2.4949
  861MPD2    N112701   1.174   0.614  11.092 -0.2321 -0.1519 -0.9231
  861MPD2    H712702   1.156   0.711  11.112 -1.5939 -0.6724  0.4191
  862MPD2     C12703   0.307   0.486  10.287 -0.2785 -0.8761  0.4080
  862MPD2    C112704   0.376   0.490  10.400  0.1692 -0.4683  0.0329
  862MPD2    C212705   0.363   0.398  10.496 -0.5709  0.3358 -0.2264
  862MPD2    C312706   0.280   0.287  10.483  0.3004  0.0577 -0.3178
  862MPD2    C412707   0.193   0.287  10.373  0.0836  0.8620 -0.4059
  862MPD2    C512708   0.206   0.383  10.275  0.3347  0.0960  0.8177
  862MPD2     H12709   0.422   0.406  10.586 -0.3310 -0.9964 -0.2632
  862MPD2    H112710   0.119   0.209  10.357 -1.7419  2.5607 -0.2686
  862MPD2    H212711   0.318   0.560  10.208  3.3562 -2.1226 -0.2501
  862MPD2    H312712   0.147   0.376  10.185  1.8643  0.3703 -0.2073
  862MPD2     N12713   0.263   0.179  10.576 -0.1947  0.1451  0.5427
  862MPD2    H512714   0.204   0.106  10.539 -0.0099 -0.0319  0.5954
  862MPD2    N112715   0.477   0.587  10.428  0.1044  0.0842 -0.1707
  862MPD2    H712716   0.517   0.585  10.521 -0.7373 -2.2019  0.1235
  863MPD2     C12717   4.083   3.320  16.383 -0.4760 -0.1046  0.4352
  863MPD2    C112718   4.073   3.440  16.443 -0.3150  0.0644  0.1726
  863MPD2    C212719   4.150   3.481  16.549  0.5529  0.7432  0.3206
  863MPD2    C312720   4.249   3.396  16.590  0.1072 -0.2802 -0.7071
  863MPD2    C412721   4.264   3.275  16.529 -0.1018  0.8413  0.3780
  863MPD2    C512722   4.185   3.240  16.420  0.6429  0.3226  0.4575
  863MPD2     H12723   4.136   3.572  16.606  1.3410  1.0139  0.0888
  863MPD2    H112724   4.337   3.197  16.548 -2.1410 -1.5751 -1.6431
  863MPD2    H212725   4.027   3.289  16.296  2.1689 -2.4499 -0.4074
  863MPD2    H312726   4.198   3.141  16.378  2.0108  0.7649 -0.1626
  863MPD2     N12727   4.333   3.424  16.702  0.3349  0.1425 -0.3605
  863MPD2    H512728   4.390   3.349  16.738  0.0309  0.8485  1.6313
  863MPD2    N112729   3.968   3.518  16.384 -0.0998  0.1364  0.6065
  863MPD2    H712730   3.926   3.476  16.302  0.0312 -0.9114  1.0870
  864MPD2     C12731   4.680   0.395  16.854 -0.0868  0.0100 -0.0264
  864MPD2    C112732   4.655   0.329  16.738 -0.0181  0.1601  0.2338
  864MPD2    C212733   4.673   0.391  16.615  0.0058  0.7966 -0.6062
  864MPD2    C312734   4.711   0.524  16.613 -0.4577 -0.2683  0.2814
  864MPD2    C412735   0.010   0.587  16.727  0.6543 -0.8517  0.2444
  864MPD2    C512736   4.735   0.527  16.843  0.4979  0.0163  0.0922
  864MPD2     H12737   4.657   0.335  16.523  0.9595 -0.3492 -0.0790
  864MPD2    H112738   0.050   0.687  16.722  1.6120 -1.1041  2.5987
  864MPD2    H212739   4.679   0.348  16.952 -1.1638 -0.0070 -0.0461
  864MPD2    H312740   0.024   0.587  16.928 -3.0346 -1.7888  2.5525
  864MPD2     N12741   4.737   0.593  16.491 -0.5341  0.8099  0.0255
  864MPD2    H512742   0.065   0.669  16.499  1.3089 -0.8965  0.6511
  864MPD2    N112743   4.601   0.200  16.749 -0.1884 -0.4974 -0.1134
  864MPD2    H712744   4.564   0.171  16.839  0.0384  2.6583  0.9945
  865MPD2     C12745   0.146   0.350  15.451  0.3502 -0.2435 -0.4465
  865MPD2    C112746   0.110   0.279  15.560 -0.3519  0.5953  0.3192
  865MPD2    C212747   0.071   0.356  15.671  0.3084  0.9479  0.3958
  865MPD2    C312748   0.081   0.497  15.670  0.3309 -0.1665 -0.4642
  865MPD2    C412749   0.124   0.561  15.556  0.7028  0.3547  0.3265
  865MPD2    C512750   0.152   0.481  15.447 -0.4147 -0.3854 -0.2267
  865MPD2     H12751   0.036   0.305  15.760  0.5528  0.3434  0.1417
  865MPD2    H112752   0.134   0.668  15.550  1.2485  0.3157  0.6360
  865MPD2    H212753   0.171   0.296  15.360 -0.0926 -1.2090  0.0073
  865MPD2    H312754   0.192   0.536  15.363 -3.7154  0.3042 -1.3754
  865MPD2     N12755   0.056   0.573  15.786 -0.3679  0.3765 -0.1120
  865MPD2    H512756   0.094   0.667  15.783 -0.8866  0.6594  1.8530
  865MPD2    N112757   0.127   0.142  15.558 -0.0733 -0.2750  0.6566
  865MPD2    H712758   0.187   0.096  15.491 -2.2808 -0.5356 -1.1689
  866MPD2     C12759   1.739   1.283  11.146 -0.0499 -0.3969  0.7492
  866MPD2    C112760   1.688   1.159  11.175 -0.1884 -0.0711 -0.5614
  866MPD2    C212761   1.551   1.139  11.169 -0.7071 -0.1838  0.5265
  866MPD2    C312762   1.463   1.239  11.132  0.1402 -0.2331 -0.1695
  866MPD2    C412763   1.516   1.361  11.096 -0.1387 -0.2424 -0.0764
  866MPD2    C512764   1.649   1.385  11.103  0.1147 -0.2317  0.0117
  866MPD2     H12765   1.516   1.036  11.178 -0.7750 -0.0146  2.2320
  866MPD2    H112766   1.447   1.434  11.054 -0.4596 -0.5282 -0.0480
  866MPD2    H212767   1.846   1.300  11.136 -0.1013  0.2229  1.3226
  866MPD2    H312768   1.698   1.481  11.088 -0.1817 -0.2530 -1.1002
  866MPD2     N12769   1.319   1.227  11.127  0.1955 -0.5648  0.0790
  866MPD2    H512770   1.275   1.308  11.084  0.8683 -0.1894  0.1064
  866MPD2    N112771   1.781   1.054  11.206  0.2027  0.7504  0.4304
  866MPD2    H712772   1.879   1.077  11.223  1.2604 -2.7555 -0.9766
  867MPD2     C12773   3.526   0.104  16.282 -0.3525  0.6596 -0.3129
  867MPD2    C112774   3.555   0.047  16.403  0.4991  0.1578 -0.1818
  867MPD2    C212775   3.549   0.130  16.517 -0.1852  0.3657 -0.4280
  867MPD2    C312776   3.510   0.263  16.502  0.0479 -0.1884 -0.5895
  867MPD2    C412777   3.488   0.321  16.376 -0.1418  0.2540  0.1998
  867MPD2    C512778   3.489   0.233  16.268 -0.1526  0.9579  0.0216
  867MPD2     H12779   3.569   0.091  16.616  1.7395  0.6617 -0.6991
  867MPD2    H112780   3.456   0.423  16.361 -1.3612 -0.0038  1.0200
  867MPD2    H212781   3.522   0.045  16.191  0.5235 -0.1602  0.1793
  867MPD2    H312782   3.483   0.272  16.167  1.7826  2.3478  0.4334
  867MPD2     N12783   3.495   0.357  16.613 -0.2680  0.1978  0.0877
  867MPD2    H512784   3.465   0.452  16.591 -0.4500  0.3212  0.8672
  867MPD2    N112785   3.584   4.652  16.405 -0.8781 -0.4926  0.0684
  867MPD2    H712786   3.581   4.605  16.315  1.2896  0.0157 -0.2803
  868MPD2     C12787   0.647   3.972  12.776  0.1568 -0.1672 -0.8102
  868MPD2    C112788   0.708   3.876  12.856 -0.8940 -0.0615  0.0331
  868MPD2    C212789   0.633   3.826  12.955 -0.0078 -0.3883 -0.5101
  868MPD2    C312790   0.502   3.862  12.979  0.7740  0.5699 -0.4024
  868MPD2    C412791   0.441   3.953  12.897 -0.7935  0.1555  0.6456
  868MPD2    C512792   0.517   4.005  12.796  0.4194 -0.0334 -0.0538
  868MPD2     H12793   0.680   3.760  13.028 -2.2465 -1.1095  0.2918
  868MPD2    H112794   0.341   3.988  12.920 -0.6114 -0.5565  2.4709
  868MPD2    H212795   0.685   4.003  12.679  0.5777 -0.7295 -0.8206
  868MPD2    H312796   0.470   4.084  12.739 -0.5359 -1.4184 -1.1831
  868MPD2     N12797   0.426   3.789  13.072  0.0464 -0.4908  0.3416
  868MPD2    H512798   0.482   3.729  13.132  0.1045 -0.2289  0.5530
  868MPD2    N112799   0.836   3.838  12.819 -0.1894  0.0594  0.3962
  868MPD2    H712800   0.891   3.899  12.759  0.3614 -0.5459  0.2803
  869MPD2     C12801   1.599   1.548   0.640  0.3601 -0.0247 -0.0245
  869MPD2    C112802   1.697   1.630   0.591 -0.6536  0.5054  0.4241
  869MPD2    C212803   1.827   1.582   0.564 -0.7706  0.6538 -0.4196
  869MPD2    C312804   1.864   1.457   0.608 -0.0898 -0.2575  0.6197
  869MPD2    C412805   1.761   1.375   0.656  0.5695  0.2878  0.0563
  869MPD2    C512806   1.630   1.420   0.662 -0.0856  0.0114  0.0134
  869MPD2     H12807   1.906   1.649   0.531 -0.6398 -0.4492 -2.3741
  869MPD2    H112808   1.780   1.283   0.710  0.6659  0.2863  0.0193
  869MPD2    H212809   1.498   1.589   0.646 -0.2148 -1.4412 -0.2027
  869MPD2    H312810   1.547   1.353   0.679 -0.7408  0.8247 -0.0181
  869MPD2     N12811   1.988   1.391   0.606  0.2631 -0.0285 -0.0475
  869MPD2    H512812   1.993   1.290   0.603 -2.1755 -0.1680  0.8003
  869MPD2    N112813   1.671   1.771   0.580  0.1289  0.2711  0.1249
  869MPD2    H712814   1.577   1.802   0.601 -0.3388 -1.0531  0.0018
  870MPD2     C12815   1.413   0.726   1.797 -0.3733 -0.7947  0.3165
  870MPD2    C112816   1.500   0.675   1.703  0.0404 -0.4055 -0.1251
  870MPD2    C212817   1.456   0.641   1.578 -0.1340 -0.3980  0.0878
  870MPD2    C312818   1.324   0.664   1.540  0.4777  0.2901  0.4989
  870MPD2    C412819   1.237   0.718   1.639 -0.3936  0.6390  0.0103
  870MPD2    C512820   1.283   0.740   1.765 -0.1583  0.2829  0.2092
  870MPD2     H12821   1.521   0.611   1.497 -0.0728 -0.9129  0.3287
  870MPD2    H112822   1.131   0.737   1.625 -0.3751  0.6051 -0.1689
  870MPD2    H212823   1.442   0.743   1.900 -1.9065  0.1437  0.5842
  870MPD2    H312824   1.216   0.759   1.848 -2.3873 -1.2782 -1.2317
  870MPD2     N12825   1.282   0.631   1.409 -0.5045 -0.3840  0.3899
  870MPD2    H512826   1.353   0.597   1.345  1.0104  1.6222  1.0076
  870MPD2    N112827   1.629   0.637   1.746  0.6228 -0.0480 -0.5429
  870MPD2    H712828   1.634   0.639   1.848 -0.6075 -2.5660 -0.4328
  871MPD2     C12829   2.356   0.413  16.100 -0.2946 -0.3557  0.3128
  871MPD2    C112830   2.343   0.351  16.224 -0.2707 -0.6304 -0.1299
  871MPD2    C212831   2.423   0.248  16.265  0.3743 -0.2871 -0.0707
  871MPD2    C312832   2.524   0.209  16.181  0.3324 -0.1713  0.1042
  871MPD2    C412833   2.544   0.275  16.062  0.5704  0.3645  0.4848
  871MPD2    C512834   2.461   0.371  16.020 -0.5009 -0.3621  0.2287
  871MPD2     H12835   2.417   0.201  16.363 -0.8646 -1.0967 -0.5460
  871MPD2    H112836   2.626   0.244  15.998  0.4506  0.5420  0.2433
  871MPD2    H212837   2.300   0.503  16.075  1.5126 -0.0687 -2.7333
  871MPD2    H312838   2.488   0.430  15.933 -0.7901 -0.6928 -0.0831
  871MPD2     N12839   2.607   0.106  16.228 -0.5059 -0.0025 -0.1445
  871MPD2    H512840   2.598   0.073  16.323 -0.6659 -0.1622 -0.2139
  871MPD2    N112841   2.257   0.416  16.310  0.4941  0.1189  0.2079
  871MPD2    H712842   2.202   0.488  16.263  1.3055  0.2922 -0.4772
  872MPD2     C12843   3.341   2.528  14.137  0.4081  0.0257  0.3955
  872MPD2    C112844   3.304   2.645  14.071 -0.0124  0.8686 -0.2634
  872MPD2    C212845   3.177   2.688  14.089 -0.5767  0.9717  0.2267
  872MPD2    C312846   3.095   2.621  14.180  0.2587 -0.0441  0.5002
  872MPD2    C412847   3.142   2.519  14.259  0.1619 -0.2025 -0.0272
  872MPD2    C512848   3.264   2.464  14.232 -0.4506 -1.0897 -0.4708
  872MPD2     H12849   3.146   2.770  14.025 -0.0330 -0.6025 -2.0445
  872MPD2    H112850   3.081   2.465  14.330 -0.2257  0.2672 -0.0060
  872MPD2    H212851   3.440   2.489  14.116  0.4114  0.2804 -0.0415
  872MPD2    H312852   3.296   2.380  14.292 -0.6874 -0.9183 -0.1080
  872MPD2     N12853   2.968   2.668  14.213  0.4200 -0.1324 -0.2612
  872MPD2    H512854   2.931   2.633  14.300  2.0011  1.1656  0.9463
  872MPD2    N112855   3.388   2.696  13.963 -0.4684  0.4855  0.1515
  872MPD2    H712856   3.349   2.759  13.894 -2.2297 -0.3158  0.4135
  873MPD2     C12857   0.290   2.260   0.720 -0.4081 -0.8608 -0.1201
  873MPD2    C112858   0.215   2.280   0.835 -0.2621  0.2963 -0.1980
  873MPD2    C212859   0.110   2.192   0.866  0.0928  0.5576 -0.5879
  873MPD2    C312860   0.075   2.095   0.767  0.2307  0.3669 -0.3163
  873MPD2    C412861   0.149   2.087   0.644  0.1792  0.1534  0.0176
  873MPD2    C512862   0.254   2.176   0.619  0.1342 -0.4509  0.6292
  873MPD2     H12863   0.061   2.207   0.962  0.4784  2.6943 -0.7269
  873MPD2    H112864   0.112   2.018   0.569  0.2654  1.1901 -0.9677
  873MPD2    H212865   0.376   2.322   0.695 -0.7501 -0.7340 -0.9603
  873MPD2    H312866   0.308   2.183   0.525 -0.9706  0.1434  0.0504
  873MPD2     N12867   4.708   2.004   0.773  1.1434 -0.3162 -0.3408
  873MPD2    H512868   4.689   1.946   0.692  2.0908  0.5115 -1.1653
  873MPD2    N112869   0.243   2.375   0.925 -0.2349  0.2643 -0.8619
  873MPD2    H712870   0.192   2.384   1.012  1.5858  0.1448  0.2372
  874MPD2     C12871   0.383   2.606  16.069 -0.5117 -0.0828  0.1466
  874MPD2    C112872   0.439   2.581  16.189 -0.2086  0.6743  0.6454
  874MPD2    C212873   0.552   2.652  16.223  0.4667 -0.3431 -0.1794
  874MPD2    C312874   0.594   2.760  16.139  0.3566 -0.6114 -1.1113
  874MPD2    C412875   0.533   2.791  16.025  0.2767  0.6882 -0.9268
  874MPD2    C512876   0.430   2.710  15.989 -0.3757 -0.2522  0.2855
  874MPD2     H12877   0.593   2.640  16.323 -0.7824  2.5965  0.6719
  874MPD2    H112878   0.567   2.874  15.964  0.3617  0.1164 -1.6651
  874MPD2    H212879   0.296   2.552  16.035  0.5248 -0.2537 -2.2212
  874MPD2    H312880   0.371   2.744  15.904 -1.6047 -1.3891  0.6780
  874MPD2     N12881   0.722   2.819  16.179 -0.4142 -0.1399 -0.0740
  874MPD2    H512882   0.759   2.784  16.266  0.2372 -1.8833 -1.0366
  874MPD2    N112883   0.405   2.457  16.252  0.4490  0.4224 -0.0605
  874MPD2    H712884   0.334   2.402  16.203  1.9477 -1.8672  0.3135
  875MPD2     C12885   0.680   0.754  14.337  0.3511 -0.0732 -0.2245
  875MPD2    C112886   0.740   0.870  14.299 -0.0164  0.7031  0.4010
  875MPD2    C212887   0.806   0.960  14.385  0.2840  0.1187 -0.3924
  875MPD2    C312888   0.797   0.932  14.523  0.2896  0.1934 -0.3582
  875MPD2    C412889   0.737   0.815  14.559  0.6590 -0.2758 -0.1128
  875MPD2    C512890   0.673   0.731  14.470  0.2360 -0.1038 -0.2799
  875MPD2     H12891   0.842   1.053  14.345  2.1402 -1.4327 -2.3212
  875MPD2    H112892   0.712   0.806  14.664 -0.4533 -0.1970 -0.3675
  875MPD2    H212893   0.626   0.689  14.268 -0.5576 -0.5545  0.9472
  875MPD2    H312894   0.640   0.636  14.512 -1.5895  0.8296  0.3929
  875MPD2     N12895   0.843   1.014  14.628 -0.1858 -0.0255 -0.2006
  875MPD2    H512896   0.822   0.986  14.724 -0.2573  0.1473 -0.1654
  875MPD2    N112897   0.747   0.905  14.161 -0.1940 -0.4364 -0.3892
  875MPD2    H712898   0.792   0.994  14.144 -0.6768 -0.0836  0.2049
  876MPD2     C12899   0.562   2.409  15.820 -0.5687  0.1729 -0.0898
  876MPD2    C112900   0.563   2.334  15.700  0.2546  0.1666  0.7390
  876MPD2    C212901   0.512   2.206  15.706 -0.4606 -0.1590 -0.5595
  876MPD2    C312902   0.496   2.145  15.834  0.2301  0.8175 -0.1178
  876MPD2    C412903   0.514   2.218  15.946  0.2991  1.5848  0.0265
  876MPD2    C512904   0.539   2.347  15.940 -0.7924 -0.0122  0.0896
  876MPD2     H12905   0.515   2.143  15.618 -0.3347  1.2591 -1.5753
  876MPD2    H112906   0.507   2.175  16.046  0.5520 -0.1935 -0.7187
  876MPD2    H212907   0.598   2.511  15.828 -2.4777  0.9053 -0.8687
  876MPD2    H312908   0.559   2.399  16.034 -0.9066  0.4693 -0.1504
  876MPD2     N12909   0.453   2.008  15.841  0.0889 -0.0002  0.1856
  876MPD2    H512910   0.436   1.967  15.750 -1.8401  0.7394  0.2120
  876MPD2    N112911   0.585   2.408  15.588  0.0928 -0.0856  0.2748
  876MPD2    H712912   0.600   2.507  15.605 -0.2660 -0.0964  0.6533
  877MPD2     C12913   0.159   2.703  14.984 -0.2691  0.2460 -0.3758
  877MPD2    C112914   0.290   2.700  14.947  0.6548  0.5201  0.0757
  877MPD2    C212915   0.317   2.722  14.811 -0.1712  0.6903 -0.5012
  877MPD2    C312916   0.219   2.724  14.714  0.5749  0.1565 -0.1920
  877MPD2    C412917   0.092   2.713  14.762 -0.4178  0.0723  0.5275
  877MPD2    C512918   0.059   2.710  14.892  0.2676 -0.3100 -0.4907
  877MPD2     H12919   0.421   2.715  14.781 -0.1373 -0.5644 -0.0772
  877MPD2    H112920   0.012   2.712  14.689 -1.9965 -0.4370  2.2670
  877MPD2    H212921   0.127   2.687  15.086  1.3004  2.9856  0.5500
  877MPD2    H312922   4.696   2.695  14.923  1.4120 -0.6146  3.1673
  877MPD2     N12923   0.239   2.739  14.573  0.1105 -0.5197  0.7141
  877MPD2    H512924   0.156   2.739  14.515  0.4283  1.4924  0.2538
  877MPD2    N112925   0.396   2.681  15.039  0.7637 -0.1747  0.4801
  877MPD2    H712926   0.490   2.671  14.999  1.0518 -2.4407  1.7777
  878MPD2     C12927   4.104   1.702  13.408  0.1722 -0.3804  0.5165
  878MPD2    C112928   4.177   1.814  13.357  0.1443 -0.0629  0.4152
  878MPD2    C212929   4.226   1.910  13.454  1.1255 -0.5360 -0.0634
  878MPD2    C312930   4.205   1.889  13.588 -0.2362 -0.4726 -0.8346
  878MPD2    C412931   4.124   1.784  13.629  0.0197 -0.6567 -0.2790
  878MPD2    C512932   4.091   1.684  13.542 -0.6835  0.0805 -0.3320
  878MPD2     H12933   4.285   1.995  13.423  0.2874  0.3759  0.8489
  878MPD2    H112934   4.111   1.763  13.735 -1.8123  3.5844  0.3468
  878MPD2    H212935   4.072   1.627  13.336 -1.6781  0.8769  0.0259
  878MPD2    H312936   4.039   1.598  13.580  1.8373  0.0501  3.1255
  878MPD2     N12937   4.273   1.979  13.665  0.5246 -0.5632 -0.1857
  878MPD2    H512938   4.332   2.048  13.621  0.5590  1.0133  2.3452
  878MPD2    N112939   4.193   1.828  13.217 -0.3253 -0.3660 -0.7096
  878MPD2    H712940   4.147   1.757  13.161 -1.0716 -1.1339  0.8864
  879MPD2     C12941   0.004   3.868  16.779  0.3344 -0.1368  0.4018
  879MPD2    C112942   0.068   3.759  16.829  0.8066 -0.6811  0.1817
  879MPD2    C212943   0.045   3.633  16.771 -0.0982 -0.2738  0.2438
  879MPD2    C312944   4.707   3.630  16.656  0.0963 -0.3607 -0.1471
  879MPD2    C412945   4.656   3.745  16.599  0.1561  0.2621  0.1793
  879MPD2    C512946   4.673   3.868  16.660 -0.0413 -0.4354  0.4466
  879MPD2     H12947   0.084   3.544  16.820 -0.9453 -0.9547 -0.3107
  879MPD2    H112948   4.610   3.735  16.501  0.2777  1.0999  0.0410
  879MPD2    H212949   0.023   3.967  16.820  0.2664  0.7366 -1.7121
  879MPD2    H312950   4.639   3.959  16.611  1.0231  0.2795  1.0434
  879MPD2     N12951   4.688   3.510  16.582  0.4778  0.3507 -0.3008
  879MPD2    H512952   4.645   3.513  16.490  0.4800  1.7441 -0.2594
  879MPD2    N112953   0.152   3.790  16.939 -0.1523 -0.2104  0.5788
  879MPD2    H712954   0.180   3.886  16.959 -1.2872  0.2878 -0.2061
  880MPD2     C12955   1.799   0.089  17.659 -0.3806 -0.3034  0.0791
  880MPD2    C112956   1.875   0.136   0.015  0.5256  0.1535 -0.2673
  880MPD2    C212957   1.966   0.048   0.072 -0.8679  0.1464  0.2973
  880MPD2    C312958   1.988   4.664   0.014  0.3369  0.0894 -0.3400
  880MPD2    C412959   1.908   4.617  17.666  0.3148 -0.2756  0.3089
  880MPD2    C512960   1.810   4.696  17.619  0.7269 -0.1617 -0.4058
  880MPD2     H12961   2.024   0.084   0.156 -0.8953  2.3117 -0.6202
  880MPD2    H112962   1.915   4.522  17.613 -2.9671  0.0420 -0.7107
  880MPD2    H212963   1.721   0.148  17.613 -0.4702  0.2553  0.9543
  880MPD2    H312964   1.742   4.657  17.544  0.6702 -1.4887  0.3405
  880MPD2     N12965   2.080   4.582   0.080  0.0839 -0.0899  0.1869
  880MPD2    H512966   2.145   4.627   0.144  0.1158 -1.6834  1.2878
  880MPD2    N112967   1.838   0.264   0.061 -0.6055 -0.2248 -0.7611
  880MPD2    H712968   1.766   0.318   0.013 -0.6318 -0.1331 -0.6195
  881MPD2     C12969   1.550   1.129  17.475  0.0043 -0.3142 -0.0443
  881MPD2    C112970   1.613   1.016  17.431 -0.8454 -0.3673 -0.0236
  881MPD2    C212971   1.620   0.922  17.529  0.1987  0.1376  0.1545
  881MPD2    C312972   1.605   0.943  17.667  0.3433  0.6813  0.8104
  881MPD2    C412973   1.560   1.067  17.704  0.3594  0.2862  0.7866
  881MPD2    C512974   1.533   1.161  17.603 -0.1752  0.7718  0.1002
  881MPD2     H12975   1.645   0.820  17.503  0.3723 -0.5378  2.9333
  881MPD2    H112976   1.528   1.092   0.050  1.8375 -0.9392  1.5475
  881MPD2    H212977   1.505   1.198  17.404 -3.6194 -1.5094  1.1162
  881MPD2    H312978   1.475   1.247  17.633 -1.5873  0.4331 -1.6770
  881MPD2     N12979   1.645   0.849   0.010  0.2488  0.0740  1.3064
  881MPD2    H512980   1.633   0.882   0.105  0.8845 -0.2529  1.5016
  881MPD2    N112981   1.601   0.999  17.290 -0.1607  0.3377  0.0010
  881MPD2    H712982   1.588   1.085  17.237 -0.9756  0.9326  1.1768
  882MPD2     C12983   0.065   2.537  13.760 -0.1776  0.0466 -0.7343
  882MPD2    C112984   0.035   2.568  13.894 -0.5049 -0.8241 -0.2309
  882MPD2    C212985   4.646   2.555  13.942  0.5846  0.0518 -0.0095
  882MPD2    C312986   4.544   2.524  13.867  0.6891 -0.6151 -0.5568
  882MPD2    C412987   4.566   2.483  13.735 -0.3044  0.5707 -0.4353
  882MPD2    C512988   4.700   2.479  13.686  0.6972 -0.0306  0.4019
  882MPD2     H12989   4.631   2.589  14.043 -0.3743  0.3851 -0.2614
  882MPD2    H112990   4.486   2.437  13.679 -0.5936 -1.6765  1.8141
  882MPD2    H212991   0.162   2.534  13.711  0.5163  1.7803  0.5279
  882MPD2    H312992   4.725   2.420  13.599  2.2311  1.5883 -0.2405
  882MPD2     N12993   4.403   2.539  13.908  0.3652 -0.1402  0.1853
  882MPD2    H512994   4.334   2.546  13.834 -1.6196 -0.9276  1.9528
  882MPD2    N112995   0.145   2.618  13.969 -0.2647  0.2505  0.5882
  882MPD2    H712996   0.236   2.603  13.928 -1.0454 -2.7044 -0.1095
  883MPD2     C12997   2.052   2.425  15.958  0.0514  0.5016 -0.0842
  883MPD2    C112998   2.158   2.456  15.878  0.0585 -0.5963 -0.0469
  883MPD2    C212999   2.277   2.482  15.948  0.4061 -0.3489  0.3641
  883MPD2    C313000   2.292   2.471  16.082  0.4971  0.3721  0.1267
  883MPD2    C413001   2.182   2.451  16.159 -0.6201 -0.3213  0.2142
  883MPD2    C513002   2.067   2.426  16.097 -0.3545 -0.3970  0.0891
  883MPD2     H13003   2.369   2.497  15.892  1.7900 -0.1718  2.7284
  883MPD2    H113004   2.185   2.457  16.267  4.5737 -0.4147  0.1100
  883MPD2    H213005   1.960   2.391  15.913 -0.8919  2.2371  0.5400
  883MPD2    H313006   1.981   2.421  16.163 -2.0467  1.3418 -1.9917
  883MPD2     N13007   2.421   2.500  16.126  0.1131 -0.5097 -0.1019
  883MPD2    H513008   2.496   2.522  16.061 -0.2139  1.4825  0.2070
  883MPD2    N113009   2.154   2.452  15.734 -0.8047  0.8157  0.7611
  883MPD2    H713010   2.231   2.487  15.677 -0.8611 -1.7186 -0.8764
  884MPD2     C13011   4.035   3.328  14.912 -0.0932  0.3521 -0.2645
  884MPD2    C113012   3.979   3.385  14.799 -0.1317 -0.5331  0.4378
  884MPD2    C213013   3.864   3.469  14.824 -0.4991  0.3286  1.2090
  884MPD2    C313014   3.817   3.487  14.953 -0.3920  0.4146  0.3739
  884MPD2    C413015   3.874   3.423  15.059  0.5265 -0.1918  0.0451
  884MPD2    C513016   3.976   3.336  15.037 -0.0093 -0.1871  0.0200
  884MPD2     H13017   3.825   3.521  14.737  2.6726  0.8845  0.1009
  884MPD2    H113018   3.840   3.434  15.161  1.1488 -1.2666  0.3717
  884MPD2    H213019   4.130   3.278  14.901 -1.2092 -1.4201 -1.9614
  884MPD2    H313020   4.022   3.282  15.119  0.3820 -1.1890 -0.8592
  884MPD2     N13021   3.714   3.574  14.973 -0.4412  0.0231 -0.5028
  884MPD2    H513022   3.694   3.647  14.906 -3.1537 -1.6651 -1.5307
  884MPD2    N113023   4.044   3.378  14.669 -0.0220 -0.4307  0.0054
  884MPD2    H713024   4.017   3.445  14.599  1.0411  1.4071  1.3662
  885MPD2     C13025   2.442   2.921  17.688 -0.6829  0.5660  0.8771
  885MPD2    C113026   2.510   3.035  17.711  0.5075 -0.6471  0.2238
  885MPD2    C213027   2.485   3.149  17.637 -0.8269 -0.5987  0.0859
  885MPD2    C313028   2.386   3.153  17.547 -0.0444  0.6647  0.5563
  885MPD2    C413029   2.299   3.044  17.534 -0.0415  0.4812  0.0890
  885MPD2    C513030   2.323   2.934  17.607  0.2101  0.0166 -0.8540
  885MPD2     H13031   2.547   3.237  17.649 -1.7105  0.2868 -1.7972
  885MPD2    H113032   2.214   3.037  17.467  0.0349 -1.8818  0.2691
  885MPD2    H213033   2.470   2.825  17.731 -1.5228  0.4986  1.2723
  885MPD2    H313034   2.268   2.845  17.577  2.5122 -2.0152  0.9109
  885MPD2     N13035   2.376   3.275  17.466  0.6340  0.0991  0.0989
  885MPD2    H513036   2.450   3.342  17.481  0.5368  0.1458  0.3656
  885MPD2    N113037   2.614   3.030   0.058  0.2130 -0.2192  0.1272
  885MPD2    H713038   2.639   2.941   0.101 -0.3183 -0.2039  0.4759
  886MPD2     C13039   4.163   1.822  14.740  0.2481 -0.4355 -0.2765
  886MPD2    C113040   4.150   1.862  14.871  1.2313 -0.5735 -0.2328
  886MPD2    C213041   4.082   1.977  14.902 -0.0733  0.2408  0.1831
  886MPD2    C313042   4.035   2.054  14.803 -0.0538  0.9445 -0.6972
  886MPD2    C413043   4.065   2.022  14.668  0.3038 -0.3891  1.2359
  886MPD2    C513044   4.131   1.906  14.638 -0.8234  0.0338  0.1808
  886MPD2     H13045   4.061   1.985  15.008  1.1862  1.9726  0.2988
  886MPD2    H113046   4.030   2.087  14.589  0.0202 -1.0009  0.8618
  886MPD2    H213047   4.226   1.740  14.708  0.0413 -0.7206  0.0416
  886MPD2    H313048   4.154   1.877  14.536  1.8862  0.5749  0.6585
  886MPD2     N13049   3.951   2.166  14.824  0.0363 -0.3749  0.0187
  886MPD2    H513050   3.936   2.225  14.743  2.8348  0.6010  0.2274
  886MPD2    N113051   4.190   1.776  14.981 -0.9099  0.0491 -0.0251
  886MPD2    H713052   4.175   1.809  15.076 -1.3412 -1.2418  0.3549
  887MPD2     C13053   4.570   1.854  15.586  0.2004 -0.2630  0.2934
  887MPD2    C113054   4.474   1.896  15.494 -0.4752 -0.4574 -0.5259
  887MPD2    C213055   4.442   2.031  15.485 -0.2705  0.1000  0.6006
  887MPD2    C313056   4.502   2.121  15.562  0.3614  0.6214 -1.1791
  887MPD2    C413057   4.602   2.081  15.655  0.5213 -0.2520  0.4904
  887MPD2    C513058   4.633   1.950  15.660  0.2787 -0.3010 -0.1011
  887MPD2     H13059   4.367   2.061  15.412  2.2677 -1.2090 -2.5448
  887MPD2    H113060   4.637   2.152  15.729  4.5486 -1.3196 -0.4027
  887MPD2    H213061   4.593   1.748  15.597  2.7989  0.2472 -0.0815
  887MPD2    H313062   4.711   1.924  15.731 -0.3895  0.4880  0.9335
  887MPD2     N13063   4.453   2.253  15.564 -0.2036 -0.1820 -0.3526
  887MPD2    H513064   4.383   2.268  15.493 -1.6241 -0.6570  0.9362
  887MPD2    N113065   4.420   1.806  15.399 -0.1128 -0.2186 -0.5545
  887MPD2    H713066   4.360   1.852  15.330 -0.7555 -2.3788 -1.4254
  888MPD2     C13067   1.066   1.987  14.572  0.2153  0.1432 -0.1943
  888MPD2    C113068   1.021   2.005  14.698  0.5336  0.4061 -0.2729
  888MPD2    C213069   1.072   2.106  14.774 -0.0247 -0.3734  0.3645
  888MPD2    C313070   1.166   2.192  14.724  0.2754 -0.5504 -0.7051
  888MPD2    C413071   1.220   2.165  14.597  0.2171 -0.3216  0.0609
  888MPD2    C513072   1.167   2.066  14.526  0.4156  0.1599  0.8706
  888MPD2     H13073   1.037   2.117  14.876 -0.0119  0.8396  0.2276
  888MPD2    H113074   1.300   2.221  14.550  1.3161 -0.0565  2.2800
  888MPD2    H213075   1.049   1.894  14.519 -2.4170  0.7941 -0.5045
  888MPD2    H313076   1.206   2.044  14.427  0.6476  0.0897  0.9778
  888MPD2     N13077   1.209   2.295  14.809  0.2986 -0.3956  0.2682
  888MPD2    H513078   1.151   2.307  14.891 -2.2359  2.1078 -1.9017
  888MPD2    N113079   0.928   1.918  14.753 -0.5837  0.3879  0.2641
  888MPD2    H713080   0.910   1.934  14.852  0.7414 -1.9943  0.8749
  889MPD2     C13081   0.577   1.633  13.487 -0.2917  0.4184 -0.3382
  889MPD2    C113082   0.687   1.575  13.420  0.8735  0.3587  0.1527
  889MPD2    C213083   0.786   1.662  13.369 -0.4099  0.2030  0.2213
  889MPD2    C313084   0.781   1.798  13.383 -0.0320 -0.0563 -0.3820
  889MPD2    C413085   0.672   1.852  13.450  0.4890 -0.5211 -0.4921
  889MPD2    C513086   0.568   1.771  13.496  0.5293 -0.0005  0.0381
  889MPD2     H13087   0.879   1.625  13.328  0.7165  1.5167  1.5786
  889MPD2    H113088   0.665   1.957  13.474  1.1205 -0.6352  0.1885
  889MPD2    H213089   0.486   1.581  13.517  0.7272 -2.3023 -1.9401
  889MPD2    H313090   0.480   1.819  13.537  0.7019  2.0072 -1.9669
  889MPD2     N13091   0.891   1.870  13.331  0.9891  0.4969  0.6905
  889MPD2    H513092   0.976   1.821  13.304 -0.2519 -0.8981 -0.6260
  889MPD2    N113093   0.686   1.435  13.379 -0.3691 -0.1683 -0.5369
  889MPD2    H713094   0.762   1.397  13.323  0.7490  2.1454 -0.5954
  890MPD2     C13095   0.278   3.220  14.401  0.5682 -0.0347 -0.4684
  890MPD2    C113096   0.386   3.297  14.436  0.8014 -0.4332  0.0337
  890MPD2    C213097   0.458   3.263  14.550  0.0225  0.5139  0.7438
  890MPD2    C313098   0.414   3.162  14.640  0.5781 -1.1732  0.4091
  890MPD2    C413099   0.310   3.085  14.598 -0.4679 -0.7095 -0.1578
  890MPD2    C513100   0.242   3.110  14.478 -0.3276 -0.5092 -0.7152
  890MPD2     H13101   0.552   3.316  14.561 -0.9219  2.0642  1.3587
  890MPD2    H113102   0.285   2.997  14.655 -0.0166  0.2620  1.5334
  890MPD2    H213103   0.221   3.244  14.313  1.0350  2.1758 -0.1684
  890MPD2    H313104   0.156   3.050  14.450 -2.1808  0.8012  2.1042
  890MPD2     N13105   0.491   3.135  14.758 -0.0890  0.3208 -0.2203
  890MPD2    H513106   0.581   3.181  14.771 -0.7607  0.7133  3.0103
  890MPD2    N113107   0.421   3.407  14.352  0.0614  0.6287 -0.4098
  890MPD2    H713108   0.368   3.425  14.267 -0.5341 -4.3561 -1.0750
  891MPD2     C13109   3.161   2.170  16.262  0.1411  0.1738  0.4472
  891MPD2    C113110   3.059   2.083  16.287 -0.2531 -0.8489  0.0552
  891MPD2    C213111   3.085   1.976  16.371 -0.0162 -0.5293  0.6266
  891MPD2    C313112   3.214   1.956  16.422 -0.5905 -0.1088  0.0715
  891MPD2    C413113   3.317   2.039  16.388  0.5073 -0.9481  0.3305
  891MPD2    C513114   3.290   2.154  16.309  0.2504  0.0067  0.5261
  891MPD2     H13115   3.001   1.916  16.404 -1.1512 -0.4797 -2.1693
  891MPD2    H113116   3.419   2.021  16.420  0.8466 -0.6694 -0.5764
  891MPD2    H213117   3.135   2.256  16.202  0.6393  0.0888  0.1080
  891MPD2    H313118   3.373   2.218  16.282  0.9994 -0.4800  1.6700
  891MPD2     N13119   3.235   1.831  16.501  0.3132 -0.3730 -0.4199
  891MPD2    H513120   3.154   1.770  16.508  0.8728 -0.9780  0.9362
  891MPD2    N113121   2.929   2.120  16.235 -0.1463 -0.0387  0.2112
  891MPD2    H713122   2.923   2.201  16.173 -0.6652 -1.0776 -1.0886
  892MPD2     C13123   4.201   2.868  14.820 -0.3184 -0.0216  0.0804
  892MPD2    C113124   4.075   2.861  14.755 -0.6408  0.6715 -0.4014
  892MPD2    C213125   4.057   2.799  14.636  0.1464  0.1971 -0.0488
  892MPD2    C313126   4.160   2.743  14.570  0.3318  0.1075 -0.0819
  892MPD2    C413127   4.284   2.748  14.633 -1.2248  0.0317 -0.1133
  892MPD2    C513128   4.301   2.799  14.760  0.1910  0.6346 -0.0673
  892MPD2     H13129   3.959   2.806  14.589  0.3584 -0.0477 -0.5262
  892MPD2    H113130   4.373   2.710  14.583 -0.5189  1.1395  0.3016
  892MPD2    H213131   4.219   2.924  14.911 -1.4003 -1.6059  1.2546
  892MPD2    H313132   4.399   2.800  14.806 -0.0896 -1.7799  0.6040
  892MPD2     N13133   4.154   2.689  14.437 -0.0297  0.7744  0.2941
  892MPD2    H513134   4.237   2.653  14.389 -2.3958 -0.3147 -2.9704
  892MPD2    N113135   3.968   2.941  14.794  0.6495 -0.4630 -0.2053
  892MPD2    H713136   3.881   2.943  14.743  0.0890 -0.7555  0.7300
  893MPD2     C13137   0.171   1.452   0.937 -0.2022  0.1818 -0.3610
  893MPD2    C113138   0.270   1.546   0.957  0.0201  0.8315  0.4182
  893MPD2    C213139   0.241   1.654   1.038 -0.1364  0.0580 -0.7228
  893MPD2    C313140   0.109   1.690   1.070 -0.2787  0.3590 -0.0362
  893MPD2    C413141   0.007   1.600   1.040 -0.2937  0.1340 -0.3785
  893MPD2    C513142   0.041   1.485   0.964 -0.5729 -0.4903  0.4481
  893MPD2     H13143   0.318   1.728   1.055  0.2895 -1.3152  3.1820
  893MPD2    H113144   4.646   1.619   1.073  0.1312  0.1106  0.9090
  893MPD2    H213145   0.186   1.361   0.880 -1.9100 -0.1393 -0.3006
  893MPD2    H313146   4.704   1.421   0.922 -0.6445  0.2652 -0.5626
  893MPD2     N13147   0.072   1.811   1.131  0.6821 -0.1367  0.4178
  893MPD2    H513148   4.714   1.825   1.155  0.3969 -0.6664 -0.4456
  893MPD2    N113149   0.404   1.512   0.925  0.1460  0.4761  0.2045
  893MPD2    H713150   0.419   1.427   0.871 -0.7011  2.2895 -2.9124
  894MPD2     C13151   3.553   3.502   1.372 -0.7338 -0.4884  0.2926
  894MPD2    C113152   3.471   3.582   1.293 -0.0330  0.8141 -0.7207
  894MPD2    C213153   3.533   3.679   1.212 -0.8564 -0.1672 -0.0605
  894MPD2    C313154   3.672   3.688   1.204  0.3832  0.1756  0.0174
  894MPD2    C413155   3.750   3.622   1.291 -0.1061  0.1816  0.4852
  894MPD2    C513156   3.690   3.531   1.378  0.0700  0.3357  0.0048
  894MPD2     H13157   3.476   3.725   1.132 -0.4322  0.9005  0.2517
  894MPD2    H113158   3.856   3.645   1.300 -0.3119  1.0770  0.6394
  894MPD2    H213159   3.519   3.423   1.438 -0.1882 -1.3327 -0.4386
  894MPD2    H313160   3.758   3.478   1.444  0.8844 -1.1538 -2.0114
  894MPD2     N13161   3.728   3.770   1.107 -0.1261  0.1184 -0.5416
  894MPD2    H513162   3.666   3.823   1.046 -1.4555  0.3797  1.0559
  894MPD2    N113163   3.331   3.547   1.270  0.2771  0.2325 -0.3904
  894MPD2    H713164   3.285   3.589   1.190  3.7488  1.8625 -1.5222
  895MPD2     C13165   3.301   1.852  13.909  0.2324  0.3538  0.4685
  895MPD2    C113166   3.204   1.844  13.809  0.0058 -0.2867 -0.1803
  895MPD2    C213167   3.232   1.782  13.690  0.6749  0.4217 -1.0503
  895MPD2    C313168   3.363   1.752  13.659  0.2887  0.1767 -0.0972
  895MPD2    C413169   3.460   1.778  13.748  0.2832  0.7111 -0.1231
  895MPD2    C513170   3.432   1.829  13.867 -0.2885  0.2117  0.0725
  895MPD2     H13171   3.163   1.801  13.608  0.9054 -0.8497 -1.5519
  895MPD2    H113172   3.563   1.750  13.731  0.1332  0.2125 -0.2335
  895MPD2    H213173   3.292   1.894  14.008 -0.9363  1.7073 -0.2171
  895MPD2    H313174   3.513   1.857  13.933 -1.1457  1.6540  0.5141
  895MPD2     N13175   3.410   1.711  13.533 -0.3825 -0.4103  0.6333
  895MPD2    H513176   3.510   1.695  13.525 -0.4161 -1.0055  1.4071
  895MPD2    N113177   3.071   1.897  13.835 -0.0590  0.9154 -0.5098
  895MPD2    H713178   2.993   1.889  13.770  0.6303 -1.3056 -1.0873
  896MPD2     C13179   0.980   4.734   1.665  0.6051  0.4315  0.2771
  896MPD2    C113180   0.982   4.665   1.542  0.3329  0.2711 -0.3613
  896MPD2    C213181   0.869   4.601   1.503  0.0214  0.0744 -0.4716
  896MPD2    C313182   0.758   4.605   1.581 -1.1448  0.3833 -0.9003
  896MPD2    C413183   0.756   4.665   1.708 -0.2099  0.3398 -0.8835
  896MPD2    C513184   0.870   4.734   1.742  0.1315  0.4365  0.5069
  896MPD2     H13185   0.863   4.551   1.406 -3.7307 -0.0389 -0.1836
  896MPD2    H113186   0.675   4.666   1.779  2.1281 -1.6345  1.8006
  896MPD2    H213187   1.067   0.042   1.708  1.1666 -0.5204  0.1756
  896MPD2    H313188   0.877   0.035   1.842 -0.0660 -1.7623  1.4065
  896MPD2     N13189   0.641   4.540   1.538  0.0448  0.4633  0.0241
  896MPD2    H513190   0.646   4.488   1.450  1.5072  0.3978  0.1441
  896MPD2    N113191   1.100   4.665   1.470  0.0698 -0.2240 -0.3861
  896MPD2    H713192   1.178   4.711   1.516  2.1331 -2.8628 -1.2743
  897MPD2     C13193   1.441   1.500  10.612 -0.4305 -0.1981 -0.3541
  897MPD2    C113194   1.476   1.624  10.650  0.5389 -0.0341  0.3761
  897MPD2    C213195   1.415   1.676  10.758  0.3960  0.3555 -0.1003
  897MPD2    C313196   1.323   1.613  10.830  0.5054  0.5518 -0.1600
  897MPD2    C413197   1.289   1.483  10.797 -0.5854  0.6757  0.2148
  897MPD2    C513198   1.347   1.434  10.685 -0.5893  0.4017  0.8469
  897MPD2     H13199   1.448   1.772  10.795  0.5015 -0.8715  2.9765
  897MPD2    H113200   1.221   1.415  10.846 -0.9196  1.5830  1.0247
  897MPD2    H213201   1.484   1.443  10.530  1.1868  1.8480 -0.9279
  897MPD2    H313202   1.322   1.332  10.660  1.2215 -0.1275  1.1913
  897MPD2     N13203   1.260   1.680  10.939 -0.4989 -0.4532 -0.2420
  897MPD2    H513204   1.255   1.781  10.931 -0.1545 -0.4373 -0.2683
  897MPD2    N113205   1.565   1.693  10.565 -0.2247  0.2092 -0.0915
  897MPD2    H713206   1.601   1.641  10.485  1.3572  3.4149 -1.4443
  898MPD2     C13207   3.525   2.310  17.139 -0.2051 -0.8716  0.6925
  898MPD2    C113208   3.615   2.410  17.165  0.6335 -0.5683  0.1364
  898MPD2    C213209   3.612   2.519  17.074  1.0632  0.5525  0.6611
  898MPD2    C313210   3.532   2.530  16.970 -0.2925 -0.2865  0.4784
  898MPD2    C413211   3.436   2.434  16.947  0.1684  0.5785  0.1919
  898MPD2    C513212   3.441   2.325  17.030 -0.1974 -0.2144  0.0835
  898MPD2     H13213   3.687   2.596  17.089  0.8860  0.8235  0.1536
  898MPD2    H113214   3.371   2.442  16.860 -0.5468  0.5419  0.7275
  898MPD2    H213215   3.511   2.228  17.209 -2.6493 -0.5755  0.5305
  898MPD2    H313216   3.373   2.244  17.004 -2.2559  2.0056 -1.4657
  898MPD2     N13217   3.542   2.655  16.899  0.3285  0.2959  0.0904
  898MPD2    H513218   3.606   2.727  16.933 -1.1320  0.9602  1.4323
  898MPD2    N113219   3.701   2.415  17.272  0.0390  0.0784  0.5534
  898MPD2    H713220   3.753   2.501  17.281 -0.4789  0.3849  0.5631
  899MPD2     C13221   0.030   3.030  16.867  0.2260 -0.2951  0.2476
  899MPD2    C113222   4.725   3.100  16.977 -0.6767  0.1586  0.0869
  899MPD2    C213223   4.710   3.033  17.101  0.0899 -0.1135 -1.0391
  899MPD2    C313224   0.013   2.905  17.125  0.6625 -0.0279 -0.0732
  899MPD2    C413225   0.062   2.839  17.013  0.5766 -0.9874  1.0072
  899MPD2    C513226   0.061   2.894  16.887  0.1528  0.5135  0.0579
  899MPD2     H13227   4.671   3.088  17.186  2.2868  0.3834 -0.3417
  899MPD2    H113228   0.101   2.738  17.018  1.0134 -0.8476  0.3673
  899MPD2    H213229   0.029   3.067  16.765  2.5632  2.2157  1.1228
  899MPD2    H313230   0.081   2.842  16.794 -2.1726  3.0542 -1.8470
  899MPD2     N13231   4.739   2.835  17.245  0.2404  0.2086  0.1014
  899MPD2    H513232   0.015   2.735  17.249 -1.3174 -0.0423 -0.1877
  899MPD2    N113233   4.687   3.237  16.961 -0.1858  0.0398  0.2385
  899MPD2    H713234   4.686   3.263  16.862 -0.3208 -0.9175 -0.0150
  900MPD2     C13235   4.359   4.408  12.414 -0.1721 -0.3097  0.7287
  900MPD2    C113236   4.265   4.331  12.479  0.2179  0.9227 -0.7883
  900MPD2    C213237   4.131   4.357  12.462 -0.4850 -0.2797 -0.7994
  900MPD2    C313238   4.094   4.443  12.363  0.5758  0.0648 -0.2291
  900MPD2    C413239   4.192   4.493  12.280 -0.0504  0.2054 -0.0791
  900MPD2    C513240   4.329   4.485  12.311  0.8811 -0.1569  0.3018
  900MPD2     H13241   4.053   4.305  12.516  1.8350 -1.7855  1.1153
  900MPD2    H113242   4.175   4.547  12.188  0.6315  0.1346 -0.2463
  900MPD2    H213243   4.462   4.373  12.417 -0.0992 -0.1998 -0.7392
  900MPD2    H313244   4.412   4.529  12.257  1.1565 -1.1384 -0.0705
  900MPD2     N13245   3.955   4.470  12.340 -0.1407 -0.6324  0.4628
  900MPD2    H513246   3.884   4.420  12.391  0.0091 -0.9034  0.4019
  900MPD2    N113247   4.308   4.242  12.573 -0.1154 -0.0165 -0.2264
  900MPD2    H713248   4.407   4.245  12.593 -0.1933  0.4784  0.0990
  901MPD2     C13249   4.309   3.200  12.772  0.0833  0.5254 -0.0669
  901MPD2    C113250   4.430   3.231  12.719 -0.1615  0.1864  0.4256
  901MPD2    C213251   4.452   3.364  12.672 -0.5092 -0.2216  0.4605
  901MPD2    C313252   4.355   3.468  12.697  0.0106  0.4646  0.4802
  901MPD2    C413253   4.231   3.427  12.744  0.0098 -0.5405  0.3838
  901MPD2    C513254   4.213   3.294  12.771 -0.2918 -0.1011  0.7138
  901MPD2     H13255   4.551   3.393  12.640  0.2399 -1.9837  1.1523
  901MPD2    H113256   4.144   3.490  12.758  0.2798  0.1694 -1.1160
  901MPD2    H213257   4.286   3.104  12.816 -2.9100  1.0368 -0.5363
  901MPD2    H313258   4.118   3.267  12.815 -0.6428 -0.5538 -0.3188
  901MPD2     N13259   4.397   3.605  12.697  0.1464  0.1245 -0.1183
  901MPD2    H513260   4.494   3.624  12.675  0.2164  0.2706  0.3136
  901MPD2    N113261   4.528   3.128  12.710  0.8639  0.3795 -0.0389
  901MPD2    H713262   4.496   3.037  12.743 -1.3187  0.5263 -1.7640
  902MPD2     C13263   3.057   2.101  12.711  0.0298 -0.2984 -0.1432
  902MPD2    C113264   3.116   2.206  12.767 -0.3735 -0.0963  0.0925
  902MPD2    C213265   3.223   2.262  12.698 -0.1078  0.2170  0.3412
  902MPD2    C313266   3.258   2.213  12.573 -0.5085 -0.3730 -0.4131
  902MPD2    C413267   3.190   2.108  12.513  0.1405 -1.2015 -0.1694
  902MPD2    C513268   3.097   2.056  12.584 -0.8354  0.2991  0.0274
  902MPD2     H13269   3.276   2.341  12.750 -0.6845  0.7427  0.1400
  902MPD2    H113270   3.211   2.066  12.415 -2.8082 -1.1944 -0.7833
  902MPD2    H213271   2.992   2.038  12.771 -0.2912 -1.4764 -1.7308
  902MPD2    H313272   3.033   1.975  12.549 -1.4168  0.8172 -0.1156
  902MPD2     N13273   3.368   2.273  12.499  0.3038  0.1955  0.2727
  902MPD2    H513274   3.375   2.261  12.398 -1.2717  1.6538 -0.0037
  902MPD2    N113275   3.077   2.238  12.903 -0.6939  0.1005  0.2674
  902MPD2    H713276   3.001   2.183  12.940  1.0148 -0.3841  3.0666
  903MPD2     C13277   3.405   3.083  12.279 -0.6718 -0.3667 -0.3571
  903MPD2    C113278   3.360   2.960  12.316 -0.9388  0.1035  0.4337
  903MPD2    C213279   3.226   2.951  12.354  0.0118  0.7273  0.2146
  903MPD2    C313280   3.138   3.055  12.341 -0.4715  0.5520 -0.1617
  903MPD2    C413281   3.191   3.172  12.295  0.0885  0.2139  0.4169
  903MPD2    C513282   3.321   3.188  12.256  0.4896  0.1110  0.0792
  903MPD2     H13283   3.188   2.861  12.402 -1.1725  1.3771  0.4884
  903MPD2    H113284   3.128   3.259  12.277  1.9582  1.9447  2.2570
  903MPD2    H213285   3.511   3.100  12.259 -0.6338 -0.2046 -0.0172
  903MPD2    H313286   3.365   3.279  12.218 -2.2508  1.1825 -0.5103
  903MPD2     N13287   3.000   3.035  12.375 -0.0278 -0.1330 -0.1559
  903MPD2    H513288   2.972   2.941  12.403 -0.4557  0.0775  0.1298
  903MPD2    N113289   3.461   2.866  12.348 -0.1342 -0.2372  0.4072
  903MPD2    H713290   3.553   2.906  12.329 -0.3596 -1.4728 -3.3573
  904MPD2     C13291   3.322   1.283  13.726 -0.0632 -0.6169  0.5825
  904MPD2    C113292   3.254   1.251  13.847 -0.7128 -0.2418 -0.3597
  904MPD2    C213293   3.320   1.263  13.969 -0.3581  0.1840 -0.1929
  904MPD2    C313294   3.442   1.334  13.974 -0.6630  0.3505 -0.0467
  904MPD2    C413295   3.503   1.374  13.856  0.1277 -0.2005  0.4977
  904MPD2    C513296   3.446   1.343  13.742  0.5329  0.2241  0.3025
  904MPD2     H13297   3.269   1.234  14.061  0.7348 -0.2482  0.2694
  904MPD2    H113298   3.601   1.420  13.847 -0.1974  0.3133 -0.3675
  904MPD2    H213299   3.288   1.276  13.623  0.1568  2.7592  0.2808
  904MPD2    H313300   3.494   1.376  13.651  3.3005  1.3418  2.1615
  904MPD2     N13301   3.517   1.354  14.094 -0.7572  0.0576  0.2231
  904MPD2    H513302   3.604   1.405  14.083 -2.4436  2.7437 -0.7497
  904MPD2    N113303   3.117   1.206  13.834  0.4144  0.4690  0.6123
  904MPD2    H713304   3.083   1.198  13.739  3.0169  0.6090 -0.3533
  905MPD2     C13305   2.714   1.374  13.260  0.3998  0.4664  0.7601
  905MPD2    C113306   2.803   1.373  13.361  0.0896 -0.9654  0.8072
  905MPD2    C213307   2.933   1.405  13.336 -0.3490  0.4253  0.3666
  905MPD2    C313308   2.975   1.451  13.211 -0.0723  0.4275 -0.0800
  905MPD2    C413309   2.881   1.456  13.107 -0.0755  0.8817  0.5849
  905MPD2    C513310   2.751   1.409  13.135  0.3852  0.1906  0.3630
  905MPD2     H13311   3.006   1.416  13.415 -0.6928  0.3505  0.6894
  905MPD2    H113312   2.904   1.499  13.011  0.9954 -2.9054 -0.8728
  905MPD2    H213313   2.615   1.332  13.277  0.4446  0.2008  0.3617
  905MPD2    H313314   2.680   1.409  13.053  0.5458 -0.6623  0.2277
  905MPD2     N13315   3.111   1.492  13.205 -0.4067 -0.7141  0.1297
  905MPD2    H513316   3.161   1.526  13.287 -0.6925  2.4318 -0.9842
  905MPD2    N113317   2.764   1.309  13.485 -0.1536  0.2420  0.1854
  905MPD2    H713318   2.666   1.290  13.504 -0.6097  4.2111  1.6471
  906MPD2     C13319   0.115   1.499  11.412 -0.6951 -0.4545 -0.1630
  906MPD2    C113320   0.156   1.458  11.283 -0.2778  0.4415  0.1918
  906MPD2    C213321   0.210   1.330  11.264  0.5129  0.0245  0.1825
  906MPD2    C313322   0.228   1.246  11.376 -0.6234  0.3289  0.1177
  906MPD2    C413323   0.177   1.288  11.500 -0.0649 -0.4835  0.4298
  906MPD2    C513324   0.127   1.415  11.518  0.0065  0.2076 -0.0543
  906MPD2     H13325   0.249   1.308  11.165  1.8210 -2.3438  1.2324
  906MPD2    H113326   0.176   1.223  11.587 -0.0579 -0.9889  0.0524
  906MPD2    H213327   0.066   1.595  11.424 -0.4809  0.1269 -3.9586
  906MPD2    H313328   0.098   1.441  11.619  1.8092 -0.2959  0.5965
  906MPD2     N13329   0.304   1.130  11.369 -0.8217  0.3213 -0.4311
  906MPD2    H513330   0.293   1.077  11.455 -1.0007  1.1518  0.0555
  906MPD2    N113331   0.142   1.537  11.170 -0.7764 -0.3847  0.6695
  906MPD2    H713332   0.172   1.498  11.081  0.8084  0.3517  0.8796
  907MPD2     C13333   3.890   0.893  16.180  0.4467 -0.5647 -0.2969
  907MPD2    C113334   3.974   0.794  16.141  0.5480  0.4045  1.1904
  907MPD2    C213335   4.050   0.726  16.226  0.6052 -0.1046  0.0748
  907MPD2    C313336   4.050   0.757  16.358 -0.4950 -0.0700  0.8414
  907MPD2    C413337   3.974   0.864  16.401 -0.4014  0.2295 -0.0606
  907MPD2    C513338   3.886   0.926  16.315  0.3578 -0.4343  0.3438
  907MPD2     H13339   4.114   0.646  16.191 -0.6570 -0.1263 -2.1470
  907MPD2    H113340   3.966   0.900  16.503 -1.5964  1.0015 -0.4229
  907MPD2    H213341   3.817   0.937  16.113 -0.9536 -0.1770  1.4552
  907MPD2    H313342   3.813   0.994  16.356  1.2834 -0.4151  1.9510
  907MPD2     N13343   4.125   0.678  16.442 -0.2874 -0.0951 -0.6143
  907MPD2    H513344   4.152   0.582  16.419 -2.6196 -0.5761 -1.4154
  907MPD2    N113345   3.974   0.753  16.003 -0.7851 -0.3425  0.5947
  907MPD2    H713346   4.027   0.671  15.977  0.5535  1.1895 -1.4968
  908MPD2     C13347   1.492   1.707   9.720 -0.3853  0.4567  0.0227
  908MPD2    C113348   1.403   1.706   9.830 -0.2263 -0.2150  0.4178
  908MPD2    C213349   1.459   1.720   9.956  0.7137 -0.0696 -0.4115
  908MPD2    C313350   1.596   1.752   9.972 -0.1140 -0.5940 -1.0542
  908MPD2    C413351   1.671   1.774   9.857  0.0382  0.1729  0.3297
  908MPD2    C513352   1.621   1.742   9.742  0.4428  0.2180  0.5287
  908MPD2     H13353   1.403   1.714  10.049  0.5216 -0.8379 -0.5776
  908MPD2    H113354   1.775   1.806   9.857  0.5861 -1.6266 -0.4701
  908MPD2    H213355   1.466   1.697   9.615  0.6514 -0.1553 -0.1757
  908MPD2    H313356   1.683   1.759   9.655  0.5810 -0.8153  0.4195
  908MPD2     N13357   1.652   1.770  10.104 -0.1428 -0.8478  0.7966
  908MPD2    H513358   1.586   1.786  10.179 -2.3450 -0.3191 -1.2821
  908MPD2    N113359   1.262   1.681   9.819  0.1517  0.5646  0.0595
  908MPD2    H713360   1.223   1.652   9.729  0.3403 -1.6062  0.6815
  909MPD2     C13361   2.097   4.268  11.437  0.4198  0.4161 -0.1196
  909MPD2    C113362   2.081   4.405  11.419 -0.2005  0.0038 -0.0660
  909MPD2    C213363   2.019   4.479  11.512 -0.2381  0.3569 -1.1495
  909MPD2    C313364   1.991   4.430  11.638  0.2100  0.2860  0.1858
  909MPD2    C413365   2.008   4.300  11.661  0.5300  0.1472 -0.0066
  909MPD2    C513366   2.071   4.224  11.567 -0.1578  0.2239 -0.7346
  909MPD2     H13367   1.996   4.583  11.490 -0.5934  0.5243  0.0282
  909MPD2    H113368   1.973   4.243  11.746 -1.9176 -1.0194 -1.7741
  909MPD2    H213369   2.124   4.203  11.355 -1.3511 -1.0179  0.4297
  909MPD2    H313370   2.073   4.117  11.584 -0.9012  0.3572  0.1846
  909MPD2     N13371   1.928   4.517  11.732  0.5354 -0.9851 -0.0413
  909MPD2    H513372   1.937   4.614  11.701 -1.1229 -0.1282  2.1505
  909MPD2    N113373   2.125   4.474  11.302  0.9485 -0.3427  0.7613
  909MPD2    H713374   2.113   4.574  11.296 -0.5012 -0.5518  0.3102
  910MPD2     C13375   3.494   1.685  16.193  0.4126 -0.5007  0.5306
  910MPD2    C113376   3.470   1.577  16.108 -0.2539 -0.4056 -0.3584
  910MPD2    C213377   3.419   1.590  15.984  0.1828  0.4383 -0.0835
  910MPD2    C313378   3.381   1.716  15.946 -0.0480 -1.4389  0.4601
  910MPD2    C413379   3.397   1.824  16.027 -0.4819  0.1792  0.1688
  910MPD2    C513380   3.457   1.810  16.154  0.5577  0.0685 -0.1199
  910MPD2     H13381   3.413   1.499  15.927  0.2909 -0.3801  1.2086
  910MPD2    H113382   3.370   1.923  15.993  1.2084  0.8336  0.7109
  910MPD2    H213383   3.551   1.671  16.284  0.4236 -0.4770  0.5274
  910MPD2    H313384   3.485   1.897  16.212  0.8595 -2.1966  3.1830
  910MPD2     N13385   3.319   1.749  15.824  0.0439  0.2083  1.1064
  910MPD2    H513386   3.275   1.840  15.815  2.6160  1.3901  0.3791
  910MPD2    N113387   3.498   1.439  16.148  0.7315  0.0938 -0.0924
  910MPD2    H713388   3.479   1.369  16.077 -0.1157 -0.7218  0.9482
  911MPD2     C13389   1.415   2.331  16.337 -0.2994  0.0277 -0.0157
  911MPD2    C113390   1.408   2.208  16.272 -0.5093  0.7906 -0.2671
  911MPD2    C213391   1.333   2.198  16.155 -0.2390  0.3123  0.7455
  911MPD2    C313392   1.259   2.303  16.106 -0.3200  0.7552  0.0506
  911MPD2    C413393   1.272   2.424  16.170  0.0720 -0.7317  0.4233
  911MPD2    C513394   1.341   2.429  16.288 -0.1838  0.9225 -0.0037
  911MPD2     H13395   1.341   2.112  16.089  2.4057  1.3230 -0.2359
  911MPD2    H113396   1.227   2.515  16.132  0.1677 -1.0997 -0.5495
  911MPD2    H213397   1.474   2.352  16.425 -0.7500  3.3587 -0.5350
  911MPD2    H313398   1.342   2.526  16.338  1.4976 -0.0831  1.9286
  911MPD2     N13399   1.159   2.297  16.003 -0.3099 -0.1475 -0.4857
  911MPD2    H513400   1.099   2.378  15.991 -1.4180 -0.9844 -0.5891
  911MPD2    N113401   1.481   2.099  16.326  0.1479 -0.4714 -0.3695
  911MPD2    H713402   1.552   2.117  16.396 -0.7766 -0.6992  0.6216
  912MPD2     C13403   0.659   1.623  15.699 -0.6278 -0.0027 -0.6976
  912MPD2    C113404   0.699   1.704  15.806  0.1705 -0.0710  0.5221
  912MPD2    C213405   0.686   1.643  15.930  0.6479 -0.0063 -0.1448
  912MPD2    C313406   0.634   1.513  15.946 -0.1950 -0.3778 -0.1143
  912MPD2    C413407   0.616   1.433  15.835 -0.1050  0.5831  0.0053
  912MPD2    C513408   0.624   1.490  15.715  0.3409 -0.7200  0.3920
  912MPD2     H13409   0.718   1.693  16.020 -0.7972 -1.2072  1.0316
  912MPD2    H113410   0.591   1.328  15.834  2.0787  0.0820 -1.5775
  912MPD2    H213411   0.659   1.660  15.597  0.9265 -0.9715 -1.0580
  912MPD2    H313412   0.592   1.437  15.625 -0.0857  1.1121 -0.5316
  912MPD2     N13413   0.611   1.467  16.075  0.0836 -0.3360  0.4570
  912MPD2    H513414   0.631   1.528  16.154 -0.2823 -0.4421  0.6301
  912MPD2    N113415   0.748   1.831  15.771  0.3187  0.3806 -0.4455
  912MPD2    H713416   0.755   1.865  15.676 -1.4256  0.9711 -0.3544
  913MPD2     C13417   1.247   2.888  10.307  0.0160  0.4902  1.3334
  913MPD2    C113418   1.348   2.918  10.391 -0.3454 -0.5335  0.2006
  913MPD2    C213419   1.404   3.050  10.388  0.0938  0.0808 -0.1571
  913MPD2    C313420   1.340   3.151  10.321 -0.5426  0.0320  0.0573
  913MPD2    C413421   1.232   3.119  10.242 -0.4507  0.3109  0.4596
  913MPD2    C513422   1.183   2.990  10.242 -0.2371  0.5816  0.4732
  913MPD2     H13423   1.497   3.072  10.440  1.1741  1.0331 -2.4664
  913MPD2    H113424   1.173   3.199  10.198  0.2502  0.0644 -0.9024
  913MPD2    H213425   1.211   2.786  10.304 -1.6580  1.1213 -0.0969
  913MPD2    H313426   1.094   2.966  10.185  0.4608  2.9556 -1.6243
  913MPD2     N13427   1.377   3.287  10.326 -0.2107 -0.0122 -0.7638
  913MPD2    H513428   1.315   3.356  10.285 -1.8471 -1.5967 -1.0087
  913MPD2    N113429   1.416   2.815  10.458  0.6893 -0.2864  0.1599
  913MPD2    H713430   1.391   2.723  10.425 -2.5527  0.6113  0.0656
  914MPD2     C13431   4.180   3.441  12.171 -0.6591 -0.1090 -0.8079
  914MPD2    C113432   4.295   3.479  12.241  0.0217 -0.1720 -0.4387
  914MPD2    C213433   4.384   3.391  12.293 -0.1692 -0.5391 -0.0959
  914MPD2    C313434   4.350   3.254  12.281  0.0879  0.8401 -0.7328
  914MPD2    C413435   4.231   3.215  12.222 -0.1495 -0.8294  0.6843
  914MPD2    C513436   4.145   3.303  12.163 -0.1382 -0.0186 -0.3688
  914MPD2     H13437   4.471   3.424  12.348 -1.1015 -2.6132  2.6633
  914MPD2    H113438   4.210   3.110  12.204  1.1800 -0.8225 -0.9120
  914MPD2    H213439   4.107   3.511  12.133  0.4456 -0.3976 -3.4092
  914MPD2    H313440   4.048   3.279  12.121 -0.2178  0.6681 -0.5725
  914MPD2     N13441   4.440   3.165  12.347 -0.1800  0.4106  0.1442
  914MPD2    H513442   4.519   3.209  12.392 -0.1345 -0.6572  1.0921
  914MPD2    N113443   4.316   3.618  12.241  0.2213 -0.3930 -0.5985
  914MPD2    H713444   4.251   3.685  12.201 -1.0147 -0.8755  0.5905
  915MPD2     C13445   2.256   3.090  15.493 -0.8936  1.0141 -0.1585
  915MPD2    C113446   2.177   3.200  15.450  0.2521 -0.2017 -0.5651
  915MPD2    C213447   2.138   3.300  15.542  0.2484 -0.0277  0.6348
  915MPD2    C313448   2.165   3.271  15.681  0.4713 -0.5590 -0.3639
  915MPD2    C413449   2.239   3.160  15.720  0.6268  0.1614 -0.2307
  915MPD2    C513450   2.282   3.076  15.626  0.6138  0.3940  0.1604
  915MPD2     H13451   2.084   3.391  15.517 -0.5942 -0.9026 -0.7368
  915MPD2    H113452   2.275   3.133  15.819 -1.6237 -0.0446  0.5263
  915MPD2    H213453   2.296   3.018  15.422  0.0154 -0.3519  1.7365
  915MPD2    H313454   2.342   2.987  15.646  0.6961  0.5360  0.5469
  915MPD2     N13455   2.116   3.358  15.780  0.2464  0.2176 -0.4026
  915MPD2    H513456   2.091   3.452  15.751  1.0407  0.3531 -0.6291
  915MPD2    N113457   2.138   3.204  15.313 -0.0889  0.1164 -0.1474
  915MPD2    H713458   2.149   3.112  15.271 -1.8243  0.0374 -0.4368
  916MPD2     C13459   0.339   1.633  15.336  0.5846  0.1954  0.3474
  916MPD2    C113460   0.364   1.552  15.442 -0.0335  0.2497  0.7699
  916MPD2    C213461   0.404   1.430  15.419 -0.8459  0.7138  0.0184
  916MPD2    C313462   0.398   1.378  15.293  0.5433 -0.0255 -0.0131
  916MPD2    C413463   0.357   1.450  15.186 -0.3447 -0.0659 -0.1334
  916MPD2    C513464   0.333   1.581  15.210 -0.7855  0.1709 -0.5637
  916MPD2     H13465   0.425   1.368  15.506  2.4541  0.5866 -0.8790
  916MPD2    H113466   0.361   1.417  15.083 -0.7283 -0.5870  0.0217
  916MPD2    H213467   0.321   1.737  15.361 -0.8187  0.4198 -1.5467
  916MPD2    H313468   0.294   1.638  15.127  0.5951 -0.9616 -1.9736
  916MPD2     N13469   0.436   1.247  15.289  0.5339  0.1497  0.0637
  916MPD2    H513470   0.454   1.195  15.374  1.1989  0.1515 -0.0779
  916MPD2    N113471   0.341   1.612  15.571 -0.1490 -0.3300 -0.3883
  916MPD2    H713472   0.288   1.699  15.570 -0.7171 -0.6917 -1.6546
  917MPD2     C13473   1.272   3.553  11.516  0.2938 -0.0353 -0.6769
  917MPD2    C113474   1.151   3.609  11.479 -0.0602 -0.0520 -0.5418
  917MPD2    C213475   1.153   3.723  11.388  0.4704 -0.1760  0.2818
  917MPD2    C313476   1.277   3.759  11.331  0.7140  0.1965  0.6136
  917MPD2    C413477   1.397   3.706  11.378  0.3971  0.0866  0.2179
  917MPD2    C513478   1.391   3.600  11.463  0.0461 -0.1980 -0.2595
  917MPD2     H13479   1.064   3.776  11.359 -1.1683 -3.3563 -0.5266
  917MPD2    H113480   1.491   3.734  11.330  0.2182  2.2253  1.1189
  917MPD2    H213481   1.286   3.471  11.585 -0.1224  0.0406 -0.5084
  917MPD2    H313482   1.482   3.550  11.492  0.8243  2.0028  1.0741
  917MPD2     N13483   1.277   3.845  11.215  0.1390 -0.5294  0.0824
  917MPD2    H513484   1.368   3.877  11.183  0.3946 -2.8194 -1.5041
  917MPD2    N113485   1.026   3.563  11.536 -0.5389  0.0667  0.2407
  917MPD2    H713486   1.044   3.495  11.608 -0.0038 -1.1538 -1.0397
  918MPD2     C13487   0.810   4.259  11.963  0.3815 -0.1873  0.4885
  918MPD2    C113488   0.918   4.204  11.891 -0.1279 -0.4931  1.0717
  918MPD2    C213489   0.897   4.086  11.824 -0.3605 -0.2046  0.8356
  918MPD2    C313490   0.770   4.017  11.826 -0.9992 -0.1632 -0.4543
  918MPD2    C413491   0.666   4.083  11.890  0.0299  0.5534 -0.5092
  918MPD2    C513492   0.690   4.198  11.951  0.1141  0.0451  1.1768
  918MPD2     H13493   0.982   4.048  11.770 -0.9486 -1.4521  0.7858
  918MPD2    H113494   0.565   4.044  11.894 -0.5433  1.9401 -1.3877
  918MPD2    H213495   0.806   4.349  12.024  1.3226 -0.3507  0.7888
  918MPD2    H313496   0.611   4.232  12.017 -0.0759  0.1090  0.9134
  918MPD2     N13497   0.758   3.891  11.766 -0.0408  0.4458  0.3654
  918MPD2    H513498   0.833   3.859  11.705 -1.3256  1.8258 -1.9066
  918MPD2    N113499   1.052   4.252  11.890  0.0211  0.5301 -0.5401
  918MPD2    H713500   1.127   4.194  11.853 -1.0424 -1.5949  0.6228
  919MPD2     C13501   1.184   2.792  11.521  0.0413  0.1138  0.8025
  919MPD2    C113502   1.201   2.668  11.453 -0.0075  0.7267  0.2290
  919MPD2    C213503   1.233   2.663  11.318  0.6128 -0.5304 -0.4339
  919MPD2    C313504   1.254   2.779  11.254 -0.2918 -0.8543  0.2328
  919MPD2    C413505   1.257   2.896  11.322  0.3373  0.1840  0.3321
  919MPD2    C513506   1.223   2.902  11.453  0.0961 -0.3442 -0.0363
  919MPD2     H13507   1.252   2.565  11.277  1.0980  0.3454 -2.2898
  919MPD2    H113508   1.274   2.988  11.268  0.2627 -0.4124 -0.7263
  919MPD2    H213509   1.169   2.805  11.628  1.7148  0.4833  0.9995
  919MPD2    H313510   1.224   2.997  11.507 -0.7580 -1.4953  2.0070
  919MPD2     N13511   1.281   2.790  11.113  0.0923  0.1501 -0.3231
  919MPD2    H513512   1.285   2.882  11.070  1.8578  0.0460 -0.3505
  919MPD2    N113513   1.186   2.547  11.530  0.1289 -0.5666 -0.1305
  919MPD2    H713514   1.216   2.467  11.476  0.0604  0.5436 -1.8153
  920MPD2     C13515   0.883   3.344  10.395 -0.9081  0.1615 -0.1447
  920MPD2    C113516   0.827   3.221  10.381  0.1738  0.3076 -0.3305
  920MPD2    C213517   0.875   3.117  10.453 -0.0750 -0.2922 -0.4493
  920MPD2    C313518   0.981   3.135  10.534  0.3319 -0.3783  0.3763
  920MPD2    C413519   1.052   3.256  10.536 -0.3332 -0.1438  0.1011
  920MPD2    C513520   0.996   3.363  10.474 -0.3076 -0.1812  0.1951
  920MPD2     H13521   0.831   3.018  10.454  1.3762 -0.9315  0.9078
  920MPD2    H113522   1.132   3.281  10.605 -0.1318 -3.5313  1.1019
  920MPD2    H213523   0.845   3.429  10.339 -1.2182 -0.4724 -0.8995
  920MPD2    H313524   1.035   3.460  10.502 -1.2796  0.0736  0.6768
  920MPD2     N13525   1.012   3.028  10.622 -0.1593  0.3418  0.0318
  920MPD2    H513526   0.941   2.957  10.640  0.6765 -0.2026  1.1547
  920MPD2    N113527   0.734   3.200  10.279  0.2556  0.3596  0.5344
  920MPD2    H713528   0.683   3.113  10.277 -0.9944  1.1364 -1.8639
  921MPD2     C13529   2.290   2.207  16.629  0.5282  0.2563 -0.2715
  921MPD2    C113530   2.276   2.145  16.507  0.4990 -0.9332  0.3866
  921MPD2    C213531   2.169   2.062  16.488 -0.0333 -0.3865  0.6080
  921MPD2    C313532   2.070   2.041  16.587  0.6827 -0.1647 -0.2981
  921MPD2    C413533   2.086   2.098  16.714  0.1778 -0.5219 -0.2171
  921MPD2    C513534   2.200   2.174  16.733  0.3227  0.1432  0.1644
  921MPD2     H13535   2.159   2.008  16.395 -1.1469  0.0217  0.4938
  921MPD2    H113536   2.019   2.081  16.798 -0.3806  0.6775 -0.4288
  921MPD2    H213537   2.376   2.268  16.656  1.0944 -0.9220  0.5840
  921MPD2    H313538   2.213   2.211  16.834  2.9818  0.4336 -0.3016
  921MPD2     N13539   1.957   1.975  16.538 -0.1050 -0.2491  0.1339
  921MPD2    H513540   1.958   1.942  16.442  0.5056  1.0407 -0.3016
  921MPD2    N113541   2.370   2.169  16.405  0.7751 -0.4434 -0.0606
  921MPD2    H713542   2.460   2.207  16.434 -0.1344  0.6245  1.3814
  922MPD2     C13543   2.670   0.453  17.373  0.0046  0.7574 -0.7759
  922MPD2    C113544   2.648   0.371  17.482 -0.4748  0.3024  0.4809
  922MPD2    C213545   2.634   0.239  17.469  0.5339  0.2085 -0.1294
  922MPD2    C313546   2.643   0.179  17.350  0.8566 -0.5602  0.9077
  922MPD2    C413547   2.642   0.256  17.234  0.3430 -0.3426  0.3712
  922MPD2    C513548   2.659   0.396  17.244 -0.2513 -0.2517 -0.0279
  922MPD2     H13549   2.619   0.178  17.557  0.5160 -3.4057 -2.6130
  922MPD2    H113550   2.644   0.219  17.132 -2.6100  2.4725 -0.7298
  922MPD2    H213551   2.699   0.557  17.386  0.8040  0.4268  0.0247
  922MPD2    H313552   2.670   0.453  17.153 -0.6297 -0.0067  0.0803
  922MPD2     N13553   2.619   0.043  17.346 -0.3621 -0.0705 -0.1448
  922MPD2    H513554   2.600   0.000  17.436  0.1355  0.3687  0.1659
  922MPD2    N113555   2.651   0.425  17.612  0.8334  0.3809  0.1210
  922MPD2    H713556   2.629   0.362  17.689 -1.7232 -0.6299 -1.4686
  923MPD2     C13557   3.661   2.159   8.940 -0.5455  0.2969 -0.7744
  923MPD2    C113558   3.705   2.253   9.031  0.0939 -0.2525 -0.2147
  923MPD2    C213559   3.808   2.220   9.121 -0.6476  0.3646  0.5651
  923MPD2    C313560   3.853   2.089   9.122  0.0588  0.1022 -0.2500
  923MPD2    C413561   3.798   1.988   9.037 -0.1369 -0.2593  0.2379
  923MPD2    C513562   3.714   2.034   8.938  0.2483 -0.4736 -0.8490
  923MPD2     H13563   3.850   2.293   9.189  1.9198 -1.4353  0.9005
  923MPD2    H113564   3.858   1.898   9.028  0.2468  0.1130 -0.8723
  923MPD2    H213565   3.576   2.177   8.876 -2.3956 -0.4762  1.4446
  923MPD2    H313566   3.689   1.962   8.860 -0.4857  1.4641 -2.3987
  923MPD2     N13567   3.941   2.061   9.232 -0.1713 -0.3400  0.0427
  923MPD2    H513568   3.956   2.139   9.294 -0.3671 -1.7737  1.8803
  923MPD2    N113569   3.635   2.379   9.034  0.5403  0.0070 -0.7485
  923MPD2    H713570   3.568   2.397   8.960 -0.1520 -0.6586 -0.2799
  924MPD2     C13571   4.142   4.555  16.736 -0.6956 -0.0947  0.0237
  924MPD2    C113572   4.107   4.637  16.627 -0.2135 -0.0634 -0.3454
  924MPD2    C213573   4.161   0.025  16.630  1.1278  0.5455 -0.1126
  924MPD2    C313574   4.228   0.072  16.740  0.0477 -0.0961 -0.0930
  924MPD2    C413575   4.229   4.737  16.855  0.0960  0.3310  0.0002
  924MPD2    C513576   4.197   4.605  16.850  0.4190 -0.1336 -0.2163
  924MPD2     H13577   4.154   0.088  16.542  3.1623  0.0929 -0.6095
  924MPD2    H113578   4.275   0.025  16.949 -1.3356  0.3397  0.7069
  924MPD2    H213579   4.109   4.453  16.743 -1.4482  0.2157  1.0784
  924MPD2    H313580   4.203   4.554  16.946  1.8676  0.7499  0.1666
  924MPD2     N13581   4.284   0.200  16.744 -0.2256 -0.1493 -0.6570
  924MPD2    H513582   4.296   0.240  16.836 -0.1768  0.4481 -0.9174
  924MPD2    N113583   4.030   4.585  16.528  0.1633  1.0548 -0.4618
  924MPD2    H713584   4.036   4.484  16.512 -1.0151  1.1720 -1.6448
  925MPD2     C13585   2.978   2.554  14.757 -0.6620  0.0912  1.1560
  925MPD2    C113586   2.923   2.673  14.716 -0.1305  0.4990 -1.4254
  925MPD2    C213587   2.935   2.792  14.789 -0.4251 -0.0510  0.2827
  925MPD2    C313588   3.004   2.788  14.908 -0.5954  0.3862 -0.1820
  925MPD2    C413589   3.063   2.674  14.951 -0.6870  0.8346 -0.1964
  925MPD2    C513590   3.056   2.563  14.867 -0.3381  0.2686  0.3745
  925MPD2     H13591   2.895   2.881  14.742 -2.8781 -0.6199  1.2925
  925MPD2    H113592   3.109   2.671  15.049  0.8233 -1.4036 -0.9756
  925MPD2    H213593   2.975   2.460  14.703 -0.2552 -0.5712  2.2855
  925MPD2    H313594   3.098   2.473  14.908  3.1816  2.0453  0.6261
  925MPD2     N13595   3.004   2.897  14.993 -0.0552  0.1122  0.5885
  925MPD2    H513596   3.047   2.868  15.080 -0.4245  0.3955  0.8644
  925MPD2    N113597   2.835   2.683  14.609 -0.5746  0.0081  0.0578
  925MPD2    H713598   2.779   2.767  14.604 -0.9072 -0.1832  0.5772
  926MPD2     C13599   2.002   0.844  13.139  0.5632 -0.0932 -0.0482
  926MPD2    C113600   1.897   0.910  13.087  0.1603 -0.7062 -0.5033
  926MPD2    C213601   1.908   0.955  12.954  0.0044  0.5902 -0.1463
  926MPD2    C313602   2.027   0.932  12.884 -0.3750  0.2231 -0.2711
  926MPD2    C413603   2.131   0.871  12.942  0.2811 -0.4749  0.4738
  926MPD2    C513604   2.117   0.819  13.060 -0.7174  0.2403 -0.5801
  926MPD2     H13605   1.817   0.992  12.907 -0.7432 -1.2314 -0.1236
  926MPD2    H113606   2.219   0.848  12.884 -1.6297 -0.7748 -2.2984
  926MPD2    H213607   2.010   0.813  13.243  0.2899  0.7329  0.2139
  926MPD2    H313608   2.201   0.767  13.105 -1.9441 -2.0235 -0.9146
  926MPD2     N13609   2.048   0.973  12.754 -0.2817  0.2187 -0.3386
  926MPD2    H513610   2.141   0.957  12.716 -0.5331 -1.1850 -0.3645
  926MPD2    N113611   1.774   0.929  13.153 -0.8087 -0.4516  0.5258
  926MPD2    H713612   1.711   0.992  13.105  0.3478 -0.0047 -0.3927
  927MPD2     C13613   1.801   2.789  17.591  0.0619  0.7347 -0.1744
  927MPD2    C113614   1.789   2.926  17.592  0.3140 -0.8260  0.3349
  927MPD2    C213615   1.849   2.995  17.500 -0.0403  0.6422 -0.3701
  927MPD2    C313616   1.916   2.944  17.394  0.8403 -0.2126 -0.3600
  927MPD2    C413617   1.923   2.806  17.386 -0.2342 -0.2485  0.1763
  927MPD2    C513618   1.874   2.727  17.490  0.4113 -0.1924  0.5943
  927MPD2     H13619   1.840   3.103  17.502 -1.0419  0.5632 -0.6119
  927MPD2    H113620   1.975   2.757  17.304 -4.5675 -1.5612 -1.7606
  927MPD2    H213621   1.748   2.727  17.663 -0.6824  1.3518 -0.1870
  927MPD2    H313622   1.894   2.621  17.497 -0.1760 -0.2714  1.0996
  927MPD2     N13623   1.970   3.031  17.295  0.0879  0.3317  0.3442
  927MPD2    H513624   1.964   3.130  17.317 -2.4393 -0.1776  1.9126
  927MPD2    N113625   1.717   2.987  17.698 -0.2089 -0.4767 -0.0070
  927MPD2    H713626   1.676   2.926   0.012  2.2056 -2.8435 -0.6437
  928MPD2     C13627   3.610   1.680   0.898 -0.7471 -0.4190  1.1199
  928MPD2    C113628   3.557   1.731   0.774 -0.0686  1.2239 -0.7963
  928MPD2    C213629   3.638   1.741   0.662 -0.0411 -0.5195 -0.2708
  928MPD2    C313630   3.773   1.712   0.674  0.4644 -0.4646 -0.1558
  928MPD2    C413631   3.821   1.651   0.789  0.3838  1.4479 -0.3674
  928MPD2    C513632   3.739   1.640   0.898  0.3834  0.2611 -0.9469
  928MPD2     H13633   3.601   1.784   0.569  0.4124  0.8299  0.1816
  928MPD2    H113634   3.924   1.624   0.806 -0.9688 -1.9030  2.3411
  928MPD2    H213635   3.548   1.665   0.985 -4.1686 -0.9550 -1.4183
  928MPD2    H313636   3.779   1.609   0.993 -3.8858  0.6335  0.9581
  928MPD2     N13637   3.865   1.741   0.571 -0.0364  0.0595  0.5335
  928MPD2    H513638   3.962   1.765   0.592 -0.1461  0.6651  0.3624
  928MPD2    N113639   3.420   1.774   0.777 -0.2871  0.7040 -0.1393
  928MPD2    H713640   3.373   1.779   0.867 -1.1617  0.8893 -0.6100
  929MPD2     C13641   3.882   2.146  10.380  0.1549  0.1184  0.1075
  929MPD2    C113642   3.843   2.044  10.298 -0.0931 -0.9588  1.1000
  929MPD2    C213643   3.757   2.065  10.192  0.8560  0.0140 -0.5883
  929MPD2    C313644   3.731   2.201  10.158  0.4939 -0.3510  0.3966
  929MPD2    C413645   3.767   2.299  10.246 -0.7496 -0.6352 -0.1861
  929MPD2    C513646   3.845   2.277  10.352 -0.6576 -0.4894  0.2805
  929MPD2     H13647   3.732   1.982  10.127  2.2435  0.2375 -1.3991
  929MPD2    H113648   3.721   2.396  10.238 -2.1860 -1.3887 -1.1008
  929MPD2    H213649   3.933   2.128  10.473  2.1750 -0.1444 -1.0587
  929MPD2    H313650   3.884   2.355  10.416 -0.3567  0.4169 -1.0051
  929MPD2     N13651   3.640   2.237  10.061  0.5264 -0.5807  0.0952
  929MPD2    H513652   3.624   2.338  10.057 -1.9776 -0.9861 -0.5257
  929MPD2    N113653   3.886   1.918  10.341  0.2466 -0.2567  0.0564
  929MPD2    H713654   3.947   1.919  10.422  0.7297  2.3062 -0.3667
  930MPD2     C13655   1.236   3.617  13.705 -0.3656  0.1666 -0.2902
  930MPD2    C113656   1.292   3.744  13.695  0.1843 -0.4924  0.0532
  930MPD2    C213657   1.334   3.782  13.570 -0.4364 -0.5365 -0.2866
  930MPD2    C313658   1.304   3.710  13.461 -0.2307  0.7057 -0.1832
  930MPD2    C413659   1.252   3.584  13.478 -0.4669 -0.4360  0.3564
  930MPD2    C513660   1.207   3.541  13.598  0.1279  0.4604  0.9338
  930MPD2     H13661   1.397   3.871  13.567  2.2607 -2.4639 -0.7408
  930MPD2    H113662   1.241   3.525  13.387 -0.5321 -0.7221  0.5505
  930MPD2    H213663   1.192   3.585  13.798 -0.1930 -0.6445 -0.4905
  930MPD2    H313664   1.164   3.442  13.607  0.2199  0.5477  2.2376
  930MPD2     N13665   1.349   3.742  13.328 -0.7177 -0.5211 -0.4539
  930MPD2    H513666   1.304   3.691  13.253 -2.0610 -0.8416  0.5703
  930MPD2    N113667   1.308   3.834  13.804  0.4072 -0.2174  0.1437
  930MPD2    H713668   1.336   3.928  13.780 -2.3468  1.1231  2.2271
  931MPD2     C13669   1.911   2.824   0.502  0.2562 -0.2807 -0.1890
  931MPD2    C113670   1.776   2.849   0.500 -0.5932  1.1581 -0.2817
  931MPD2    C213671   1.696   2.782   0.593 -0.3886 -0.4696 -0.7821
  931MPD2    C313672   1.761   2.704   0.691 -0.1707  1.0958 -0.3580
  931MPD2    C413673   1.892   2.688   0.695  0.1958 -0.0521 -0.1210
  931MPD2    C513674   1.972   2.743   0.598 -0.1870 -0.9689 -0.1915
  931MPD2     H13675   1.589   2.776   0.577 -0.4759 -2.7714  0.6662
  931MPD2    H113676   1.948   2.631   0.768 -0.4285  0.4414  0.7472
  931MPD2    H213677   1.976   2.883   0.438 -1.8164 -0.8238 -2.7720
  931MPD2    H313678   2.080   2.734   0.601 -0.1747 -0.4376  0.9813
  931MPD2     N13679   1.698   2.614   0.778 -0.1428  0.1203 -0.6133
  931MPD2    H513680   1.753   2.548   0.832  1.0577  0.9422 -0.8436
  931MPD2    N113681   1.718   2.927   0.397 -0.3066 -0.1701  0.4100
  931MPD2    H713682   1.782   2.953   0.322  0.6580 -1.5967  0.7430
  932MPD2     C13683   2.692   3.097  11.709 -0.5614  0.3146 -0.3220
  932MPD2    C113684   2.804   3.050  11.638 -0.3412 -0.3896  0.5298
  932MPD2    C213685   2.813   2.912  11.621 -0.5173 -0.2932  0.5050
  932MPD2    C313686   2.725   2.819  11.674  0.7124  0.2154  0.3453
  932MPD2    C413687   2.616   2.869  11.752  0.0479  0.0860 -0.0988
  932MPD2    C513688   2.602   3.008  11.767  0.5399  0.0811 -0.2609
  932MPD2     H13689   2.901   2.870  11.574 -1.2398 -0.2354 -0.9055
  932MPD2    H113690   2.540   2.797  11.780 -0.1712  0.9791  1.5947
  932MPD2    H213691   2.684   3.204  11.722 -0.7389  0.1789  0.6818
  932MPD2    H313692   2.516   3.052  11.816  0.4427  0.4123 -0.7261
  932MPD2     N13693   2.758   2.682  11.661 -0.2317 -0.1571  0.4460
  932MPD2    H513694   2.849   2.670  11.617 -1.2075  0.5018 -1.7466
  932MPD2    N113695   2.908   3.133  11.596 -0.0122 -0.3045 -0.0894
  932MPD2    H713696   2.979   3.090  11.537 -0.8719  0.5057 -1.7413
  933MPD2     C13697   2.855   1.817   0.214  0.3651 -0.0428 -0.6744
  933MPD2    C113698   2.933   1.915   0.273 -0.1511  0.1151 -0.3119
  933MPD2    C213699   2.986   2.006   0.189 -0.0318  0.0298  0.1814
  933MPD2    C313700   2.977   2.002   0.053 -0.4207 -0.3159  0.3782
  933MPD2    C413701   2.896   1.908   0.000  0.2711 -0.7752 -0.2015
  933MPD2    C513702   2.835   1.818   0.078 -0.3375  0.0460  0.3495
  933MPD2     H13703   3.055   2.079   0.230 -0.2735 -0.0697  0.7593
  933MPD2    H113704   2.889   1.897  17.648  0.2590 -1.3499 -0.1418
  933MPD2    H213705   2.812   1.740   0.276 -1.1346  1.4162  0.0856
  933MPD2    H313706   2.773   1.742   0.033  0.5383  0.0290 -0.8377
  933MPD2     N13707   3.052   2.094  17.727 -0.0507 -0.0151 -0.5442
  933MPD2    H513708   3.132   2.141   0.014  1.2845 -1.0591 -1.8918
  933MPD2    N113709   2.967   1.919   0.411  0.5463 -0.4421 -0.4490
  933MPD2    H713710   2.947   1.835   0.465  0.3309 -0.6393 -0.8395
  934MPD2     C13711   0.258   4.176   1.797  0.6979 -0.9343 -0.0333
  934MPD2    C113712   0.366   4.096   1.759  0.0927 -0.3808 -0.2798
  934MPD2    C213713   0.350   4.013   1.653  0.3276  0.3819 -0.0346
  934MPD2    C313714   0.234   4.002   1.581 -0.1124 -0.3256 -0.2966
  934MPD2    C413715   0.126   4.078   1.615  0.1201 -0.0915 -0.4980
  934MPD2    C513716   0.143   4.162   1.723 -0.0666  0.3097  0.4356
  934MPD2     H13717   0.434   3.953   1.619  2.3629  2.6746  0.8545
  934MPD2    H113718   0.027   4.075   1.569 -0.3742 -0.2744  0.5811
  934MPD2    H213719   0.263   4.259   1.866  0.7435 -0.4881 -0.5816
  934MPD2    H313720   0.064   4.228   1.759 -0.0065 -1.3214  3.5851
  934MPD2     N13721   0.221   3.923   1.466  0.1953  0.3698  0.5364
  934MPD2    H513722   0.136   3.927   1.410  0.0081 -1.4769  0.7023
  934MPD2    N113723   0.498   4.127   1.813  0.1436  0.3862  0.2526
  934MPD2    H713724   0.570   4.085   1.755 -1.6639 -1.5162 -0.5857
  935MPD2     C13725   0.550   3.009   1.081  0.1765 -0.3521 -0.5329
  935MPD2    C113726   0.466   3.053   0.981 -0.7800  0.1203  0.2862
  935MPD2    C213727   0.398   3.174   1.009 -0.0771  0.5550 -0.4297
  935MPD2    C313728   0.420   3.238   1.132  0.5304  0.6328  0.0978
  935MPD2    C413729   0.501   3.182   1.231  0.3364  0.1553  0.5177
  935MPD2    C513730   0.568   3.069   1.204  0.0035 -0.2690  0.4807
  935MPD2     H13731   0.338   3.213   0.928 -0.1289 -1.4054 -1.3272
  935MPD2    H113732   0.513   3.232   1.326 -0.8153 -0.5036  1.0009
  935MPD2    H213733   0.610   2.918   1.080 -0.1166 -0.5956  2.3372
  935MPD2    H313734   0.634   3.030   1.281 -0.6280 -3.3174 -0.5280
  935MPD2     N13735   0.355   3.357   1.173  0.0910  0.1304 -0.4236
  935MPD2    H513736   0.358   3.377   1.272  0.1076  1.3125 -0.6668
  935MPD2    N113737   0.462   2.975   0.859 -1.1202  0.4554  0.0688
  935MPD2    H713738   0.399   3.001   0.784 -0.9486 -0.6128 -0.4396
  936MPD2     C13739   3.423   0.233  12.292  0.4160 -0.0664 -0.1934
  936MPD2    C113740   3.439   0.267  12.427  0.3726 -1.2523 -0.2413
  936MPD2    C213741   3.500   0.383  12.460 -0.1406 -0.6442 -0.4570
  936MPD2    C313742   3.552   0.468  12.364  0.2128  0.0264 -0.0514
  936MPD2    C413743   3.541   0.440  12.235 -0.2000 -0.2869  0.0514
  936MPD2    C513744   3.475   0.326  12.199  0.0337  0.0669 -0.0921
  936MPD2     H13745   3.509   0.415  12.563 -1.8392 -1.5708 -0.0294
  936MPD2    H113746   3.580   0.505  12.157  0.2784 -0.4741  0.1386
  936MPD2    H213747   3.370   0.150  12.246  1.8748 -1.1477  0.0684
  936MPD2    H313748   3.478   0.299  12.094  0.6266 -0.8880  0.1679
  936MPD2     N13749   3.613   0.586  12.413 -0.2208  0.1572  0.2530
  936MPD2    H513750   3.594   0.597  12.512 -1.6525 -1.2855  0.1298
  936MPD2    N113751   3.393   0.194  12.537 -0.1583 -0.1129  0.7269
  936MPD2    H713752   3.403   0.247  12.623  0.2691  1.1798 -0.1224
  937MPD2     C13753   1.683   2.090  11.710 -0.1194 -0.4919  0.0231
  937MPD2    C113754   1.604   2.148  11.609 -0.1060  0.4369  0.3523
  937MPD2    C213755   1.672   2.220  11.512 -0.6468 -0.3884  0.1612
  937MPD2    C313756   1.814   2.240  11.506 -0.4266 -0.4722 -0.7892
  937MPD2    C413757   1.888   2.182  11.610 -0.1510  0.4075 -0.3174
  937MPD2    C513758   1.819   2.103  11.706  0.2363 -0.5476  0.0067
  937MPD2     H13759   1.615   2.272  11.436 -0.1300 -1.3361 -0.8648
  937MPD2    H113760   1.996   2.185  11.612 -0.0597 -2.0172 -2.2546
  937MPD2    H213761   1.635   2.031  11.788 -0.9513  0.8503  0.5348
  937MPD2    H313762   1.875   2.044  11.778 -0.6435  1.0999  2.0058
  937MPD2     N13763   1.869   2.330  11.413  0.3373  0.1442 -0.1732
  937MPD2    H513764   1.798   2.368  11.351  0.8631  0.7338 -0.4076
  937MPD2    N113765   1.466   2.166  11.615 -1.0681  0.2599 -0.4191
  937MPD2    H713766   1.421   2.195  11.529 -0.0667  2.1902 -0.2872
  938MPD2     C13767   4.551   3.255   0.768  0.3301  0.6782 -0.3484
  938MPD2    C113768   4.484   3.379   0.768 -0.0710  0.0717  1.2444
  938MPD2    C213769   4.349   3.385   0.796  0.0900  0.1343  0.2456
  938MPD2    C313770   4.285   3.275   0.837 -0.2019  0.7441 -0.1675
  938MPD2    C413771   4.349   3.158   0.841  0.3546  0.0292 -0.1219
  938MPD2    C513772   4.483   3.146   0.809 -0.2444 -0.2605  0.1288
  938MPD2     H13773   4.297   3.480   0.788 -0.1839 -0.1973 -2.0982
  938MPD2    H113774   4.301   3.066   0.873  0.2820 -0.2577 -1.0484
  938MPD2    H213775   4.656   3.252   0.742  0.8668  0.7920  1.7965
  938MPD2    H313776   4.534   3.050   0.802  3.1669  1.6007 -0.8262
  938MPD2     N13777   4.153   3.278   0.905 -0.1979  0.2111 -0.4903
  938MPD2    H513778   4.115   3.188   0.934  2.0910 -0.7697 -0.5848
  938MPD2    N113779   4.553   3.500   0.735  0.1259 -0.7552  0.2218
  938MPD2    H713780   4.507   3.588   0.715 -2.6729 -1.8858  1.6816
  939MPD2     C13781   0.806   3.993   0.677 -0.3309  0.2412 -0.1256
  939MPD2    C113782   0.851   4.115   0.639 -0.5146  0.4013 -0.2447
  939MPD2    C213783   0.887   4.137   0.505  0.3048 -0.0318 -0.1290
  939MPD2    C313784   0.884   4.036   0.410 -0.1453  0.3769  0.1644
  939MPD2    C413785   0.846   3.914   0.451 -0.0541  0.0982 -0.6693
  939MPD2    C513786   0.823   3.888   0.581 -0.4520 -0.4404  0.4939
  939MPD2     H13787   0.919   4.236   0.474  2.4091 -0.9863 -0.9626
  939MPD2    H113788   0.839   3.832   0.380  2.0899 -3.1009  2.7941
  939MPD2    H213789   0.790   3.969   0.781  2.6346 -1.5452 -0.0601
  939MPD2    H313790   0.804   3.787   0.615 -1.4520  0.3346  2.2183
  939MPD2     N13791   0.913   4.051   0.272 -0.0875  0.0156 -0.2996
  939MPD2    H513792   0.905   3.970   0.211  2.0685  0.7694 -1.5821
  939MPD2    N113793   0.838   4.217   0.734  0.3517 -0.0361  0.2870
  939MPD2    H713794   0.798   4.188   0.823  0.3931 -0.2506  0.2346
  940MPD2     C13795   4.530   0.582  12.619  0.3179  0.1751  0.2549
  940MPD2    C113796   4.444   0.488  12.557 -0.5239 -0.6135  0.3323
  940MPD2    C213797   4.489   0.428  12.437  0.6658  0.0687  0.7510
  940MPD2    C313798   4.612   0.458  12.384  0.6726  0.1919 -0.4764
  940MPD2    C413799   4.697   0.553  12.447  0.4083  0.5221  0.9800
  940MPD2    C513800   4.645   0.617  12.561 -0.3451  0.2742  0.2109
  940MPD2     H13801   4.426   0.359  12.382  1.2510 -0.2996  0.5390
  940MPD2    H113802   0.061   0.563  12.417  0.3926  1.0883  1.1130
  940MPD2    H213803   4.513   0.623  12.718  0.4401  1.8049 -0.3941
  940MPD2    H313804   4.706   0.685  12.619  0.2675 -0.3300  0.2786
  940MPD2     N13805   4.645   0.386  12.262  0.5103 -0.1239 -0.6064
  940MPD2    H513806   4.583   0.316  12.222  1.4135  0.7533 -3.5256
  940MPD2    N113807   4.312   0.455  12.613  0.1512 -0.2075 -0.7211
  940MPD2    H713808   4.236   0.420  12.555 -1.1296  1.4914 -0.0933
  941MPD2     C13809   3.275   4.703   9.482 -0.5269  0.0311 -0.8112
  941MPD2    C113810   3.344   4.677   9.596 -0.6744 -0.2614 -0.0898
  941MPD2    C213811   3.293   4.580   9.679 -0.1811 -0.0547  0.4450
  941MPD2    C313812   3.175   4.509   9.656  0.1718 -0.0174  0.5536
  941MPD2    C413813   3.108   4.533   9.539 -0.4175  0.3310  0.1260
  941MPD2    C513814   3.155   4.635   9.455  0.2712  0.4516 -0.1486
  941MPD2     H13815   3.346   4.557   9.771 -0.1253 -1.1178  0.1491
  941MPD2    H113816   3.016   4.479   9.517  0.7215 -1.8430  0.6911
  941MPD2    H213817   3.306   0.035   9.407 -2.1767  1.5401 -0.0865
  941MPD2    H313818   3.101   4.651   9.363  0.3084  1.8054  0.0675
  941MPD2     N13819   3.131   4.413   9.744 -0.1440 -0.1617 -0.0597
  941MPD2    H513820   3.038   4.377   9.724 -0.2059  0.1031 -0.2551
  941MPD2    N113821   3.465   4.736   9.630 -0.0152  0.2166  0.0774
  941MPD2    H713822   3.512   4.706   9.715 -1.6755 -2.3272  0.1201
  942MPD2     C13823   2.977   2.639   9.146  0.3181  0.3059  0.6299
  942MPD2    C113824   3.054   2.601   9.038 -0.0665 -0.0073  0.9608
  942MPD2    C213825   3.147   2.506   9.058 -0.3775  0.1591  0.5068
  942MPD2    C313826   3.169   2.440   9.175 -0.3968  0.2582 -0.8631
  942MPD2    C413827   3.103   2.489   9.287 -0.3362  0.0994 -0.1436
  942MPD2    C513828   3.013   2.587   9.268  0.1322  0.5320  0.6078
  942MPD2     H13829   3.204   2.496   8.967  0.8414  0.5854  1.2238
  942MPD2    H113830   3.123   2.444   9.384  0.6186 -0.3903 -0.5697
  942MPD2    H213831   2.886   2.699   9.140  0.0750 -0.2152 -0.7636
  942MPD2    H313832   2.960   2.608   9.361 -0.8795 -0.8766  0.3398
  942MPD2     N13833   3.261   2.329   9.190 -0.5641  0.4075  0.1956
  942MPD2    H513834   3.272   2.289   9.282 -1.7702 -1.6637 -0.5581
  942MPD2    N113835   3.044   2.664   8.906  0.6157  0.3100 -0.2109
  942MPD2    H713836   3.093   2.634   8.822 -0.3845 -0.9143 -0.3486
  943MPD2     C13837   2.262   0.085  10.295 -0.0889  0.3288 -0.2188
  943MPD2    C113838   2.213   4.736  10.386  0.0370  0.1197 -0.1974
  943MPD2    C213839   2.093   0.026  10.447  0.0217  0.0082  0.2918
  943MPD2    C313840   2.019   0.138  10.418 -0.4653  0.4545  0.5190
  943MPD2    C413841   2.070   0.230  10.333 -0.5637  0.5866  0.2158
  943MPD2    C513842   2.192   0.200  10.269  0.0409  0.3960  0.4061
  943MPD2     H13843   2.045   4.685  10.502 -3.0840  2.3124  1.0035
  943MPD2    H113844   2.018   0.322  10.309  0.9606  1.7010  1.2271
  943MPD2    H213845   2.346   0.056  10.232 -0.4812 -0.3778 -0.4147
  943MPD2    H313846   2.231   0.267  10.194  2.3057 -0.0462  1.1942
  943MPD2     N13847   1.886   0.161  10.461 -0.1691 -0.0083  1.1010
  943MPD2    H513848   1.847   0.248  10.427 -2.2113 -1.8998 -1.4374
  943MPD2    N113849   2.280   4.614  10.402 -0.0802  0.8651 -0.0573
  943MPD2    H713850   2.378   4.606  10.377  0.7377  2.2487  2.7404
  944MPD2     C13851   1.571   3.338  10.713 -0.0270 -0.2465  0.7400
  944MPD2    C113852   1.706   3.355  10.715  0.1526  0.0679  0.0300
  944MPD2    C213853   1.757   3.470  10.782 -0.6177  0.8597  0.1290
  944MPD2    C313854   1.677   3.557  10.858  0.1142  0.0907 -0.3875
  944MPD2    C413855   1.542   3.518  10.874 -0.0319  0.3410 -0.5870
  944MPD2    C513856   1.491   3.417  10.797  0.3204 -0.1544  0.3507
  944MPD2     H13857   1.862   3.494  10.771 -1.4903  2.7338 -4.1313
  944MPD2    H113858   1.470   3.573  10.933  1.1350  1.9010 -0.6135
  944MPD2    H213859   1.520   3.265  10.651  2.0579 -0.0822 -1.1725
  944MPD2    H313860   1.385   3.401  10.803  0.5968 -1.7237  0.9164
  944MPD2     N13861   1.727   3.670  10.926 -1.2413 -0.6289 -0.1217
  944MPD2    H513862   1.827   3.682  10.915 -1.2652  0.7301  1.2012
  944MPD2    N113863   1.779   3.274  10.633  0.1400  0.3938  0.1884
  944MPD2    H713864   1.722   3.231  10.561  0.3092 -1.2437  1.0350
    1TMC1    C113865   0.416   4.334  13.946 -0.5141 -0.5373 -0.2070
    1TMC1    C213866   0.517   4.243  13.929  1.3736  0.6847 -0.2079
    1TMC1    C313867   0.492   4.130  13.857  0.3250 -1.0034 -0.5590
    1TMC1    C413868   0.289   4.312  13.889 -0.5812  0.2928  0.3060
    1TMC1    C513869   0.269   4.201  13.813 -0.3033  0.1580  0.2517
    1TMC1    C613870   0.369   4.103  13.797  0.2856 -0.6394 -0.3800
    1TMC1     C13871   0.434   4.431  14.052  0.2825  0.0955 -0.2575
    1TMC1     O13872   0.502   4.407  14.151  0.4797 -0.1733 -0.3512
    1TMC1     H13873   0.608   4.249  13.987  0.9640 -1.0695  0.6183
    1TMC1    H113874   0.200   4.368  13.917 -1.4353  0.4515 -2.7355
    1TMC1    H213875   0.338   4.010  13.753 -1.9288 -0.7608  1.4288
    1TMC1    C713876   0.131   4.164  13.807  0.2149  0.2776  0.3587
    1TMC1    C813877   0.578   4.012  13.881  0.2452  0.6683  0.2244
    1TMC1    O113878   0.051   4.252  13.771 -0.0374 -0.1655 -0.2899
    1TMC1    O213879   0.620   3.983  13.993  0.4241 -0.0099  0.3709
    1TMC1    O313880   0.112   4.092  13.925  0.9004  0.0343 -0.1420
    1TMC1    H313881   0.196   4.046  13.948  1.4399  1.5925  0.9589
    1TMC1    O513882   0.541   3.932  13.783  0.7115 -0.5332 -0.2092
    1TMC1    H513883   0.523   3.983  13.701 -2.7991 -1.9021 -0.2681
    2MPD2     C13884   0.337   0.163  14.232 -0.5323 -0.5340  0.6377
    2MPD2    C113885   0.284   0.156  14.108 -0.8708  0.4307 -1.4004
    2MPD2    C213886   0.290   0.033  14.040  0.0525 -0.7166 -0.1740
    2MPD2    C313887   0.352   4.663  14.099 -0.5595  0.6442 -0.0653
    2MPD2    C413888   0.410   4.678  14.226  0.0897 -0.3541  0.1342
    2MPD2    C513889   0.398   0.053  14.292  0.1594  0.1720  0.4882
    2MPD2     H13890   0.271   0.032  13.933  0.1162  1.5358 -0.2046
    2MPD2    H113891   0.469   4.600  14.273  1.3188  0.8992  0.6827
    2MPD2    H213892   0.339   0.262  14.277 -0.2528 -1.2668  2.2389
    2MPD2    H313893   0.433   0.072  14.393 -0.1530  0.9564  0.4464
    2MPD2     N13894   0.360   4.544  14.020 -0.0640  0.0527 -0.4546
    2MPD2    H513895   0.332   4.544  13.922 -0.6751 -0.6566 -0.2720
    2MPD2    N113896   0.229   0.265  14.042  1.0432  0.4029  0.0006
    2MPD2    H713897   0.233   0.355  14.089 -0.7368  0.6535 -0.3169
    3TMC2    C113898   0.132   0.390  13.859 -0.5926 -0.8348  0.7324
    3TMC2    C213899   0.203   0.502  13.895 -0.2301 -0.0203 -0.1014
    3TMC2    C313900   0.159   0.621  13.838  0.3316 -0.5605 -0.0362
    3TMC2    C413901   0.032   0.387  13.769 -0.4942 -0.2960  0.2315
    3TMC2    C513902   0.007   0.506  13.705  0.6420  0.0718 -0.4218
    3TMC2    C613903   0.068   0.627  13.737  0.1549  0.4725  0.1533
    3TMC2     C13904   0.167   0.265  13.917  0.5202  0.4568 -0.0121
    3TMC2     O13905   0.118   0.168  13.855  1.0847 -0.3345 -0.0906
    3TMC2     H13906   0.279   0.495  13.972 -1.0389 -1.3288  0.5843
    3TMC2    H113907   4.725   0.297  13.731 -0.3903  0.1779 -1.0149
    3TMC2    H213908   0.028   0.718  13.694  0.5323 -0.1694 -1.5621
    3TMC2    C713909   4.634   0.498  13.611  0.4502  0.4547  0.7698
    3TMC2    C813910   0.237   0.737  13.885  0.5251 -0.1136  0.8117
    3TMC2    O113911   4.566   0.395  13.609 -0.1541  0.0714 -0.6019
    3TMC2    O213912   0.303   0.752  13.992  0.4446  0.0113  0.8706
    3TMC2    O513913   0.229   0.826  13.788  0.2016 -0.6558 -0.3405
    3TMC2    H513914   0.185   0.807  13.703 -0.7902  1.2198 -0.2365
    4TMC2    C113915   4.206   1.191  12.997 -0.0156 -0.5802 -0.5911
    4TMC2    C213916   4.241   1.319  13.021 -0.3878  0.1869 -0.7656
    4TMC2    C313917   4.320   1.340  13.129 -0.7509  0.4356 -0.6666
    4TMC2    C413918   4.255   1.090  13.079 -0.2939 -1.1840  0.2777
    4TMC2    C513919   4.345   1.119  13.178 -0.0984 -0.7120 -0.2587
    4TMC2    C613920   4.388   1.245  13.204  0.6940  0.5680  0.1192
    4TMC2     C13921   4.100   1.159  12.905  0.5357 -0.4631 -0.3380
    4TMC2     O13922   4.055   1.046  12.917 -0.8674 -0.6172 -0.2163
    4TMC2     H13923   4.190   1.403  12.975  0.2718  0.2291 -1.4146
    4TMC2    H113924   4.211   0.991  13.072  0.9780 -1.7347  0.0195
    4TMC2    H213925   4.448   1.274  13.289 -2.5753  0.2149  2.5813
    4TMC2    C713926   4.417   1.015  13.259 -0.4470 -0.0226  0.4484
    4TMC2    C813927   4.372   1.478  13.134  0.0712 -0.1099  0.1991
    4TMC2    O113928   4.482   1.052  13.356 -0.0492  0.0192 -0.1958
    4TMC2    O213929   4.439   1.530  13.048 -0.4345 -0.4998 -0.7220
    4TMC2    O513930   4.385   1.499  13.268 -0.1483  0.3728  0.2037
    4TMC2    H513931   4.316   1.454  13.320  1.1685 -2.1788 -0.2801
    5MPD2     C13932   3.735   1.259  12.557  0.4801  0.1247 -0.0974
    5MPD2    C113933   3.821   1.365  12.570  0.8612  0.0818  0.3585
    5MPD2    C213934   3.931   1.369  12.654  0.3176 -0.0761 -0.6216
    5MPD2    C313935   3.961   1.259  12.723 -0.0229  0.1536  0.6131
    5MPD2    C413936   3.888   1.143  12.700  0.0549 -0.2950 -0.5253
    5MPD2    C513937   3.774   1.142  12.619 -0.0145 -0.0924  0.1282
    5MPD2     H13938   3.986   1.460  12.673  2.7858 -2.0098  1.5008
    5MPD2    H113939   3.917   1.047  12.741 -1.2597 -0.0649  0.9327
    5MPD2    H213940   3.643   1.267  12.500 -0.8905 -0.1559  2.0816
    5MPD2    H313941   3.715   1.052  12.603 -1.0010  0.8376 -1.4605
    5MPD2     N13942   4.069   1.263  12.821  0.0428  0.3542 -0.3043
    5MPD2    H513943   4.114   1.354  12.827 -2.0042  1.4355 -1.3080
    5MPD2    N113944   3.780   1.473  12.500  0.0191 -0.1241  0.3315
    5MPD2    H713945   3.698   1.461  12.442  0.0814 -0.8024  0.3754
    6MPD1     C13946   3.093   2.646  13.777  0.3902 -0.7554 -0.8834
    6MPD1    C113947   3.187   2.695  13.691 -0.5249 -0.0949  0.6082
    6MPD1    C213948   3.270   2.611  13.626  0.7139 -0.1141  0.0662
    6MPD1    C313949   3.250   2.470  13.633  0.3959 -0.3046  0.4604
    6MPD1    C413950   3.158   2.426  13.721  0.0047  0.3260  0.3424
    6MPD1    C513951   3.080   2.510  13.794 -0.8505 -0.1784  0.1087
    6MPD1     H13952   3.338   2.656  13.555  0.6053  0.7505  0.4990
    6MPD1    H113953   3.129   2.322  13.716 -0.0822  0.3365  0.6175
    6MPD1    H213954   3.029   2.718  13.827  1.7429  0.1362 -0.4289
    6MPD1    H313955   3.007   2.471  13.864 -0.5037  2.1998  1.7849
    6MPD1     N13956   3.313   2.370  13.550 -0.3543  0.0411 -0.4747
    6MPD1    H513957   3.290   2.273  13.567  0.4488 -0.3557 -1.6608
    6MPD1    N113958   3.209   2.834  13.707 -0.0182 -0.0830  0.2530
    6MPD1    H613959   3.250   2.879  13.625  0.3806 -0.1502  0.4171
    6MPD1    H713960   3.116   2.873  13.721  0.4212  1.3736 -0.8961
    7MPD2     C13961   3.153   1.869  12.992  0.0323  0.0346 -0.4402
    7MPD2    C113962   3.271   1.942  12.970  0.5243  0.2948 -0.0234
    7MPD2    C213963   3.334   1.940  12.847  0.0404 -0.5366  0.2696
    7MPD2    C313964   3.305   1.836  12.761  0.3250  0.5855 -0.8037
    7MPD2    C413965   3.198   1.751  12.787  0.4707 -0.8054 -0.2479
    7MPD2    C513966   3.125   1.769  12.900 -0.4955 -0.5563 -0.0849
    7MPD2     H13967   3.412   2.012  12.826  1.1694 -1.7422  0.2956
    7MPD2    H113968   3.172   1.666  12.724 -0.5409  0.9197 -2.1740
    7MPD2    H213969   3.097   1.875  13.085 -0.5594  2.0172 -0.9194
    7MPD2    H313970   3.051   1.695  12.925 -0.5787 -1.1381 -2.0742
    7MPD2     N13971   3.380   1.826  12.644  0.2641 -0.0557 -0.0497
    7MPD2    H513972   3.441   1.906  12.630 -1.5413  1.2816 -0.3784
    7MPD2    N113973   3.329   2.033  13.059  0.1857 -0.1112 -0.0780
    7MPD2    H713974   3.402   2.094  13.026  0.2648 -1.2407 -1.9991
    8TMC3    C113975   3.502   1.745  12.466 -0.2569 -0.5764  0.4009
    8TMC3    C213976   3.596   1.648  12.474  0.3090 -0.4258  0.1665
    8TMC3    C313977   3.722   1.683  12.457 -0.0455 -0.0640 -0.0603
    8TMC3    C413978   3.536   1.875  12.458  0.2408 -0.2879  0.2092
    8TMC3    C513979   3.670   1.911  12.463  0.0638 -0.1708 -0.0580
    8TMC3    C613980   3.765   1.814  12.463 -0.3428 -0.4070 -0.0728
    8TMC3     C13981   3.397   1.720  12.560  0.9970  0.3637 -0.0721
    8TMC3     O13982   3.350   1.605  12.569  0.2840 -0.1447  0.1217
    8TMC3     H13983   3.560   1.549  12.498  0.2038 -0.5686 -0.5904
    8TMC3    H113984   3.460   1.951  12.451  0.2215 -0.3727 -0.4882
    8TMC3    H213985   3.872   1.830  12.451 -0.4834  1.5430  1.2134
    8TMC3    C713986   3.674   2.017  12.559 -0.6028  0.5367  0.6117
    8TMC3    C813987   3.827   1.598  12.505  0.4919 -0.2596 -0.0201
    8TMC3    O113988   3.569   2.025  12.623  0.0658  0.1786  0.2042
    8TMC3    O213989   3.925   1.649  12.559 -0.2055  0.1561 -0.1498
    9TMC3    C113990   3.476   2.285  13.399 -0.6128 -0.0624  0.3328
    9TMC3    C213991   3.595   2.307  13.331  0.2668  0.0385  0.0737
    9TMC3    C313992   3.622   2.225  13.224  0.4831  0.6517  0.2411
    9TMC3    C413993   3.388   2.182  13.365 -0.4008  0.4359  0.0226
    9TMC3    C513994   3.415   2.111  13.258  0.2519 -0.1898  0.0369
    9TMC3    C613995   3.531   2.128  13.187 -0.5004 -0.1623  0.7313
    9TMC3     C13996   3.428   2.395  13.477 -0.1209  0.3981 -0.1028
    9TMC3     O13997   3.501   2.495  13.476 -0.0205  0.0266 -0.9483
    9TMC3     H13998   3.672   2.376  13.362  0.0974  0.9184 -1.5099
    9TMC3    H113999   3.287   2.173  13.405 -0.1521  4.7212  1.5730
    9TMC3    H214000   3.558   2.053  13.113  4.7512  0.6307  1.8530
    9TMC3    C714001   3.309   2.039  13.195  0.2700  0.6034 -0.1403
    9TMC3    C814002   3.749   2.240  13.156 -0.8267 -0.2757 -0.3501
    9TMC3    O114003   3.232   1.975  13.263  0.4096  0.4045 -0.2328
    9TMC3    O214004   3.847   2.280  13.216  0.4705  0.1649 -0.0169
   10MPD2     C14005   3.977   2.181  12.692  0.2455  0.3994 -0.4080
   10MPD2    C114006   3.850   2.134  12.690 -1.3993  0.5772  0.1370
   10MPD2    C214007   3.767   2.152  12.799  0.1321  0.2242 -0.6411
   10MPD2    C314008   3.817   2.209  12.913  0.0522  0.1730  0.0301
   10MPD2    C414009   3.950   2.246  12.925 -0.4928 -0.2623  0.4882
   10MPD2    C514010   4.028   2.229  12.812 -0.7638  0.1242  0.8943
   10MPD2     H14011   3.664   2.119  12.810  0.3320 -0.7606 -1.7926
   10MPD2    H114012   4.004   2.285  13.011  0.3357  0.0104 -0.1616
   10MPD2    H214013   4.043   2.170  12.606  1.8429  1.7109  0.6469
   10MPD2    H314014   4.133   2.256  12.810 -1.3691  2.3411 -1.1881
   10MPD2     N14015   3.726   2.219  13.018 -0.0258 -0.1603  0.7557
   10MPD2    H514016   3.633   2.189  12.992 -0.3862  0.1882  1.6572
   10MPD2    N114017   3.801   2.072  12.568  0.0476 -0.0581  0.0576
   10MPD2    H714018   3.870   2.057  12.496 -0.6901  1.8873 -1.0421
   11MPD2     C14019   4.463   0.510  13.366  0.1848  0.2834  0.1097
   11MPD2    C114020   4.540   0.610  13.416 -0.3477  0.2859 -0.2740
   11MPD2    C214021   4.521   0.739  13.360  0.0282 -0.1131  0.4780
   11MPD2    C314022   4.435   0.760  13.256 -0.3634  0.0647 -0.0797
   11MPD2    C414023   4.379   0.650  13.195  0.0264  0.2733  0.2357
   11MPD2    C514024   4.388   0.534  13.258  0.5322  0.6628 -0.5774
   11MPD2     H14025   4.563   0.814  13.425  3.3974 -0.9569 -0.7260
   11MPD2    H114026   4.329   0.654  13.099 -0.1679 -2.2411  0.2281
   11MPD2    H214027   4.456   0.406  13.397 -0.7056 -0.4446 -2.5109
   11MPD2    H314028   4.327   0.460  13.208 -0.1640  1.4530 -0.9008
   11MPD2     N14029   4.400   0.891  13.204 -0.4928 -0.6642  0.2330
   11MPD2    H514030   4.344   0.882  13.121  0.3140 -1.8117 -0.1894
   11MPD2    N114031   4.626   0.603  13.519  0.4232 -0.2635 -0.7058
   11MPD2    H714032   4.688   0.682  13.534 -3.7159  2.8082 -0.0350
    1MPD1     C14033   4.016   1.494   0.037 -0.1714 -0.3137 -1.2620
    1MPD1    C114034   4.121   1.479  17.706 -0.1007  0.2659 -0.2170
    1MPD1    C214035   4.109   1.515  17.576 -0.6584  0.3920  0.4935
    1MPD1    C314036   3.993   1.568  17.523 -0.0027  0.1826 -0.2246
    1MPD1    C414037   3.883   1.587  17.607 -0.6615 -0.3056 -0.5692
    1MPD1    C514038   3.894   1.542  17.740 -0.2155  0.2145  0.6200
    1MPD1     H14039   4.196   1.493  17.515 -1.9774  0.7443 -1.4881
    1MPD1    H114040   3.792   1.633  17.571 -1.6074 -0.8925  1.0511
    1MPD1    H214041   4.026   1.478   0.144 -1.0307 -1.6346 -1.3747
    1MPD1    H314042   3.809   1.565   0.048 -0.8740  1.9430 -0.8954
    1MPD1     N14043   3.984   1.588  17.380  0.0194  0.0513  0.3148
    1MPD1    H514044   3.890   1.613  17.350  0.0455 -1.7804 -1.3520
    1MPD1    N114045   4.236   1.417   0.006  0.2672  0.1615 -0.5864
    1MPD1    H614046   4.246   1.440   0.105  1.9289 -4.2072  0.2424
    1MPD1    H714047   4.324   1.433  17.714 -0.4361  1.2528 -1.5133
    2MPD1     C14048   4.289   1.526  16.331 -0.3423 -0.4222  0.4442
    2MPD1    C114049   4.159   1.566  16.331 -0.2593 -0.6230 -0.1520
    2MPD1    C214050   4.106   1.589  16.458  0.2586 -0.0839 -0.8361
    2MPD1    C314051   4.174   1.558  16.570 -0.3338  0.5435  0.2034
    2MPD1    C414052   4.300   1.495  16.565 -0.2778  0.5807  0.8207
    2MPD1    C514053   4.357   1.484  16.440  0.2989 -0.6684 -0.0345
    2MPD1     H14054   4.008   1.635  16.463  1.1350  1.3867  2.4954
    2MPD1    H114055   4.360   1.468  16.651  0.0979 -0.6840  0.1622
    2MPD1    H214056   4.337   1.507  16.235 -0.3822 -1.6311  0.6633
    2MPD1    H314057   4.461   1.454  16.433  0.4226 -1.0342  3.1717
    2MPD1     N14058   4.099   1.572  16.692  0.5599 -0.4739 -0.1545
    2MPD1    H514059   4.005   1.603  16.672 -0.0968 -2.5699 -0.3149
    2MPD1    N114060   4.094   1.604  16.212 -0.4007  0.2154  0.0880
    2MPD1    H614061   4.126   1.551  16.131  1.1653  0.2708  0.6607
    2MPD1    H714062   3.994   1.590  16.222 -0.2602 -0.3618  0.6881
    3TMC3    C114063   4.050   1.567  16.917  0.2366 -0.5395  0.3919
    3TMC3    C214064   3.928   1.611  16.890  0.7018 -0.0369 -0.0265
    3TMC3    C314065   3.849   1.654  16.993 -0.1270 -0.0648  0.5191
    3TMC3    C414066   4.100   1.553  17.043 -0.2568  0.0359  0.5375
    3TMC3    C514067   4.028   1.610  17.146  0.0616 -0.5132  0.1980
    3TMC3    C614068   3.901   1.662  17.120  0.6066 -0.6558 -0.1225
    3TMC3     C14069   4.143   1.534  16.813 -0.3607  0.4199  0.7709
    3TMC3     O14070   4.261   1.511  16.843  0.2711  0.3150  0.5768
    3TMC3     H14071   3.882   1.598  16.793 -0.3006 -2.7885  0.8048
    3TMC3    H114072   4.198   1.511  17.063  0.8216  2.4986  0.4506
    3TMC3    H214073   3.866   1.737  17.190  2.5158 -0.2597  0.3974
    3TMC3    C714074   4.081   1.584  17.280  0.6236 -0.0533  0.6303
    3TMC3    C814075   3.728   1.729  16.954 -0.6168  0.3476  0.4894
    3TMC3    O114076   4.200   1.559  17.295  0.7038 -0.0815  0.0084
    3TMC3    O214077   3.711   1.754  16.836  0.4418 -0.1239 -0.7682
    4MPD1     C14078   3.334   2.017  17.082  0.1285  0.1833  0.1531
    4MPD1    C114079   3.353   1.933  17.188 -0.2702 -0.6266 -0.5567
    4MPD1    C214080   3.464   1.851  17.189  0.1080 -0.6567 -1.5995
    4MPD1    C314081   3.531   1.826  17.065 -0.3228 -0.0720  0.1956
    4MPD1    C414082   3.488   1.894  16.959 -0.4539 -0.8060  0.0282
    4MPD1    C514083   3.396   1.990  16.965  0.1792 -0.2168 -0.5513
    4MPD1     H14084   3.496   1.803  17.281 -0.7082  3.9989  1.1738
    4MPD1    H114085   3.523   1.867  16.860  0.3750 -0.0081  0.1011
    4MPD1    H214086   3.256   2.091  17.087  1.9780  2.1293 -0.0378
    4MPD1    H314087   3.373   2.038  16.870 -0.3923 -2.6351 -1.6295
    4MPD1     N14088   3.647   1.747  17.064 -0.5169 -0.2925  0.1258
    4MPD1    H514089   3.670   1.703  17.153 -0.7657 -1.9491 -0.6193
    4MPD1    N114090   3.283   1.965  17.310 -0.3471 -0.4182  0.2337
    4MPD1    H614091   3.190   2.000  17.288 -0.0427  1.0751  1.3503
    4MPD1    H714092   3.282   1.895  17.384  0.4992  0.1208  0.7501
    1TCq1    O114093   3.238   2.949  11.087  1.0653 -0.2124  0.4800
    1TCq1    C114094   3.167   2.972  10.978  0.8443  0.5466  0.0128
    1TCq1    O214095   3.170   3.070  10.911  0.1624  0.3916  1.1400
    1TCq1    C214096   3.079   2.854  10.947 -0.3657  0.6442 -0.5593
    1TCq1    C314097   3.082   2.747  11.027  0.6142 -0.0818  0.2645
    1TCq1    C414098   2.986   2.647  11.014 -0.2222  0.3034  0.0847
    1TCq1    C514099   2.875   2.655  10.943  0.0364  0.2739  0.7260
    1TCq1    C614100   2.865   2.776  10.876 -0.1800  0.5468  0.0808
    1TCq1    C714101   2.963   2.875  10.874  0.2665 -0.2363 -0.6002
    1TCq1    C814102   2.753   2.789  10.784  0.3008 -0.1228  0.6927
    1TCq1    O414103   2.761   2.882  10.705  0.2453  0.2357  0.0332
    1TCq1    C914104   2.973   2.554  11.129  0.3702 -0.5385  0.0600
    1TCq1    O514105   2.864   2.491  11.132 -0.3610 -0.3099 -0.1427
    1TCq1    O614106   3.042   2.585  11.229 -0.0849 -0.2180  0.2697
    1TCq1    H114107   3.204   2.863  11.121  0.4359 -0.6500 -1.2504
    1TCq1    H214108   3.168   2.726  11.090  1.1250  0.5176 -0.2423
    1TCq1    H314109   2.810   2.571  10.919  2.1264 -0.8518 -0.9333
    1TCq1    H414110   2.953   2.968  10.819 -0.9630  0.2717  0.4702
    2MPD1     C14111   2.365   2.585  10.550 -0.2193  0.1111  0.2558
    2MPD1    C114112   2.367   2.542  10.684  0.6709  0.3328  0.1145
    2MPD1    C214113   2.463   2.582  10.764 -0.1086 -0.3525  0.2459
    2MPD1    C314114   2.564   2.659  10.714 -0.2254 -0.7559 -0.4249
    2MPD1    C414115   2.565   2.699  10.581  0.6243  0.0818  0.3535
    2MPD1    C514116   2.464   2.663  10.502  0.0153  0.3941 -0.0458
    2MPD1     H14117   2.465   2.546  10.867 -1.8541  2.2755  1.1809
    2MPD1    H114118   2.646   2.751  10.530 -0.5136 -0.0019 -1.5546
    2MPD1    H214119   2.293   2.548  10.478 -0.8681  3.3271 -0.7398
    2MPD1    H314120   2.464   2.688  10.397  0.0434  0.8978  0.0720
    2MPD1     N14121   2.660   2.687  10.805  0.0854 -0.6004  0.5190
    2MPD1    H514122   2.651   2.641  10.895  2.6895 -0.3694  0.9001
    2MPD1    N114123   2.266   2.458  10.733 -0.9728  0.4359  0.1369
    2MPD1    H614124   2.179   2.473  10.682 -0.8752  1.5968  0.3107
    2MPD1    H714125   2.243   2.484  10.829 -0.4663 -1.3450  0.7510
    1TMC1    C114126   1.290   4.070   1.542  0.1783  0.1398 -0.2438
    1TMC1    C214127   1.338   4.196   1.496  0.7869  0.1910 -0.2179
    1TMC1    C314128   1.391   4.202   1.366  0.0553 -0.0281  0.2179
    1TMC1    C414129   1.307   3.957   1.465  0.5804  0.1413 -0.5023
    1TMC1    C514130   1.367   3.972   1.341 -0.6847 -0.3675 -0.3627
    1TMC1    C614131   1.417   4.088   1.293  0.2225 -0.1413  0.2229
    1TMC1     C14132   1.225   4.074   1.674  0.0059  0.8718 -0.2148
    1TMC1     O14133   1.262   4.172   1.740 -0.1513 -0.7565  0.0516
    1TMC1     H14134   1.319   4.287   1.551 -0.3540 -0.8415  1.0793
    1TMC1    H114135   1.274   3.860   1.501  0.5993  0.6835  0.9570
    1TMC1    H214136   1.462   4.078   1.194  0.2311 -1.2196  0.3361
    1TMC1    C714137   1.363   3.860   1.254 -0.8846 -0.5504 -0.3627
    1TMC1    C814138   1.487   4.306   1.337 -0.2520 -0.3282  0.8339
    1TMC1    O114139   1.322   3.878   1.139 -0.4857 -0.2525  0.4941
    1TMC1    O214140   1.542   4.366   1.424 -0.0007 -0.3910 -0.0692
    1TMC1    O314141   1.359   3.747   1.331  0.4028  0.3491 -0.3422
    1TMC1    H314142   1.424   3.755   1.404 -2.0247 -0.7435  1.8997
    1TMC1    O514143   1.483   4.338   1.206 -0.2852 -0.8756  0.1617
    1TMC1    H514144   1.427   4.270   1.162  0.5947 -1.1615 -0.4969
    2MPD1     C14145   0.868   3.978   2.015 -0.2524 -0.5944  0.4513
    2MPD1    C114146   0.821   3.922   1.902 -0.3497 -0.0400  0.9976
    2MPD1    C214147   0.909   3.917   1.794  0.3746 -0.4185  0.1737
    2MPD1    C314148   1.032   3.984   1.795  0.3205  0.0123 -0.7069
    2MPD1    C414149   1.065   4.041   1.916 -0.1655  0.3724 -0.5744
    2MPD1    C514150   0.989   4.047   2.027  0.6636  0.1682  0.5546
    2MPD1     H14151   0.875   3.873   1.701 -1.8821 -0.3174  0.9423
    2MPD1    H114152   1.155   4.099   1.934  1.4086 -1.7811 -1.5200
    2MPD1    H214153   0.808   3.963   2.104 -0.3140  0.5107  0.5888
    2MPD1    H314154   1.024   4.098   2.116  1.7444  2.3503 -1.1113
    2MPD1     N14155   1.119   3.987   1.678 -0.0223  0.4257 -0.0064
    2MPD1    H514156   1.098   3.920   1.605 -1.1872  0.1602  0.5674
    2MPD1    N114157   0.708   3.839   1.903 -0.0145  0.4909 -0.0791
    2MPD1    H614158   0.670   3.830   1.809 -1.0866 -0.0685  0.4055
    2MPD1    H714159   0.638   3.881   1.964  0.9319 -1.9204  2.6502
    1MPD1     C14160   0.382   1.430  12.142  1.0720 -0.0115  0.2558
    1MPD1    C114161   0.282   1.516  12.168 -0.1635 -0.0482 -0.3745
    1MPD1    C214162   0.297   1.644  12.117 -0.0559 -0.4870  0.4490
    1MPD1    C314163   0.408   1.685  12.047 -0.3406 -0.2564 -0.0470
    1MPD1    C414164   0.498   1.590  12.002  0.1456 -0.0194 -0.0453
    1MPD1    C514165   0.489   1.467  12.063  0.5038 -0.6267  0.0836
    1MPD1     H14166   0.234   1.730  12.136  2.3852  1.1995  0.9283
    1MPD1    H114167   0.593   1.612  11.956  0.0206  0.3688 -0.1203
    1MPD1    H214168   0.372   1.329  12.181  0.3359  0.7302  1.9511
    1MPD1    H314169   0.573   1.398  12.058  2.3362  1.4947  1.6207
    1MPD1     N14170   0.421   1.820  12.015 -0.0983 -0.2876 -0.1716
    1MPD1    H514171   0.365   1.890  12.062  1.6465  1.5756 -0.8884
    1MPD1    N114172   0.161   1.478  12.234 -0.1161  0.2454 -0.4051
    1MPD1    H614173   0.175   1.401  12.300 -0.0305  0.2769 -0.3863
    1MPD1    H714174   0.135   1.561  12.287 -1.2339  0.1104 -0.7563
    2MPD1     C14175   4.507   2.384  11.929 -0.0889 -0.3288 -0.5333
    2MPD1    C114176   4.601   2.303  11.873  1.1655 -0.3083 -0.5895
    2MPD1    C214177   4.625   2.323  11.742  1.1417  0.2968 -0.1017
    2MPD1    C314178   4.556   2.420  11.668 -0.4733  0.0156 -0.2341
    2MPD1    C414179   4.465   2.495  11.730  0.9755  0.2851  0.3231
    2MPD1    C514180   4.444   2.483  11.861  0.5105  0.2713 -0.1613
    2MPD1     H14181   4.699   2.256  11.699  1.8091  0.2800  1.0570
    2MPD1    H114182   4.403   2.574  11.690  4.2633  2.7762  0.1217
    2MPD1    H214183   4.481   2.383  12.034 -0.1321  1.4438 -0.5131
    2MPD1    H314184   4.376   2.550  11.912 -0.1788 -0.2132 -0.4458
    2MPD1     N14185   4.563   2.430  11.524  0.2414  0.8402 -0.2190
    2MPD1    H514186   4.506   2.502  11.480 -1.7252 -0.2262  0.5749
    2MPD1    N114187   4.651   2.198  11.950 -0.5229  0.9558  0.1214
    2MPD1    H614188   0.008   2.169  11.935 -1.3859 -0.7884 -2.0065
    2MPD1    H714189   4.655   2.224  12.049  0.0810  1.8118 -0.1258
    3MPD1     C14190   4.507   1.756  10.738 -0.0446  0.2062  0.5730
    3MPD1    C114191   4.481   1.744  10.875  0.5559  0.3005  0.2133
    3MPD1    C214192   4.511   1.845  10.960 -0.0732  0.5389 -0.2682
    3MPD1    C314193   4.566   1.965  10.915 -0.3595  0.2380 -0.0396
    3MPD1    C414194   4.588   1.975  10.778  0.1135 -0.0052 -0.7996
    3MPD1    C514195   4.563   1.875  10.689 -0.3490 -0.1651 -0.3258
    3MPD1     H14196   4.496   1.837  11.067  0.3462 -1.6128 -0.3576
    3MPD1    H114197   4.647   2.060  10.746  0.5405 -0.8933 -2.3464
    3MPD1    H214198   4.485   1.675  10.670  0.8768 -0.7303  1.3931
    3MPD1    H314199   4.580   1.887  10.583  0.6477  1.3496 -0.0002
    3MPD1     N14200   4.596   2.065  11.008  0.3591  0.3430 -0.0134
    3MPD1    H514201   4.579   2.047  11.107 -1.4862 -0.2987 -0.4566
    3MPD1    N114202   4.405   1.632  10.915  0.3705  0.3404  0.6683
    3MPD1    H614203   4.407   1.552  10.852  0.2843  0.4923  0.4728
    3MPD1    H714204   4.420   1.593  11.008 -2.6741 -2.3908  0.0258
    4MPD2     C14205   0.221   2.516  11.705  0.3144 -0.0181  1.0540
    4MPD2    C114206   0.344   2.514  11.760  0.3319 -0.0855 -0.0800
    4MPD2    C214207   0.437   2.607  11.718  0.1297  0.5935  0.5978
    4MPD2    C314208   0.403   2.707  11.624 -1.2177 -0.9793  0.0991
    4MPD2    C414209   0.270   2.723  11.578  0.1112  0.2748  0.2405
    4MPD2    C514210   0.190   2.612  11.611  1.0348  0.3735 -0.4766
    4MPD2     H14211   0.540   2.605  11.751 -0.0728  0.1841  1.1999
    4MPD2    H114212   0.236   2.790  11.500 -1.0116 -1.4332 -0.7347
    4MPD2    H214213   0.148   2.444  11.741 -0.0451  0.4084  1.1660
    4MPD2    H314214   0.091   2.624  11.569  0.4119 -3.7634 -0.2133
    4MPD2     N14215   0.498   2.803  11.571  0.0728 -0.1570  0.1592
    4MPD2    H514216   0.464   2.866  11.499  3.3788  0.1712 -1.1414
    4MPD2    N114217   0.395   2.411  11.843  0.1390 -0.3359  0.1231
    4MPD2    H714218   0.490   2.432  11.872  0.4213 -0.4474 -0.7389
    5TMC3    C114219   0.444   2.222  11.978 -0.2413  0.0263 -0.4948
    5TMC3    C214220   0.414   2.085  11.964  0.3716 -0.1664  0.2933
    5TMC3    C314221   0.513   2.006  11.910 -0.3953  0.0611  0.0552
    5TMC3    C414222   0.562   2.274  11.963  0.5798 -0.1504  0.0798
    5TMC3    C514223   0.654   2.198  11.895  0.4529 -1.1360 -0.5391
    5TMC3    C614224   0.626   2.065  11.864 -0.0306  0.2065  0.0858
    5TMC3     C14225   0.339   2.297  11.905  0.5692  0.0689 -1.0917
    5TMC3     O14226   0.226   2.251  11.888 -0.3961 -0.3113  0.0113
    5TMC3     H14227   0.314   2.042  11.970  0.4838 -0.2761  1.2777
    5TMC3    H114228   0.580   2.378  11.987 -1.5147  0.3282 -0.3762
    5TMC3    H214229   0.698   2.002  11.812 -0.9060  1.4233 -2.5949
    5TMC3    C714230   0.720   2.279  11.795 -0.1929 -0.3834 -0.1633
    5TMC3    C814231   0.507   1.863  11.921 -0.3985 -0.7825  0.4185
    5TMC3    O114232   0.703   2.398  11.812 -0.1229 -0.0020  0.2748
    5TMC3    O214233   0.585   1.804  11.846 -0.6459  0.6091  0.7767
    6TMC3    C114234   4.600   2.366  11.314 -0.1469  0.1286  0.5806
    6TMC3    C214235   4.588   2.270  11.218  0.2344  0.3270 -0.2789
    6TMC3    C314236   4.644   2.294  11.093 -0.0795 -0.1742 -0.5345
    6TMC3    C414237   4.663   2.489  11.283 -0.1592  0.0466  1.1599
    6TMC3    C514238   4.726   2.506  11.165 -0.1736  0.2312  0.0647
    6TMC3    C614239   4.718   2.411  11.070 -0.2265  0.1677 -0.1781
    6TMC3     C14240   4.613   2.326  11.448 -0.0454  0.3830 -0.1798
    6TMC3     O14241   4.653   2.215  11.481  0.4734  0.3157  0.1118
    6TMC3     H14242   4.524   2.185  11.238  2.7592 -1.6780 -0.8353
    6TMC3    H114243   4.676   2.562  11.362  4.7042  0.7260 -0.3309
    6TMC3    H214244   0.044   2.412  10.984 -1.3994 -0.4463 -1.0868
    6TMC3    C714245   0.086   2.606  11.150 -0.2820  0.2108  0.1981
    6TMC3    C814246   4.633   2.198  10.977  0.7202  0.5806 -0.2426
    6TMC3    O114247   0.139   2.654  11.245 -0.4919 -0.3145 -0.1425
    6TMC3    O214248   4.675   2.244  10.875 -0.4258  0.5903 -0.1793
    7MPD2     C14249   0.918   2.368  11.326  0.2822 -0.1711 -0.0693
    7MPD2    C114250   0.889   2.460  11.429 -0.5488 -0.0843 -0.3581
    7MPD2    C214251   0.844   2.407  11.553 -0.4511 -0.3549 -0.1639
    7MPD2    C314252   0.842   2.274  11.587 -0.3881 -0.6486 -0.3129
    7MPD2    C414253   0.883   2.186  11.480 -0.5040 -0.3052  0.2464
    7MPD2    C514254   0.928   2.237  11.363  0.0443 -0.6684 -0.4256
    7MPD2     H14255   0.809   2.483  11.622  1.0923  1.0333 -0.8991
    7MPD2    H114256   0.856   2.081  11.480  1.3779 -0.7919 -0.9362
    7MPD2    H214257   0.944   2.404  11.227  0.1189  0.7773  0.2344
    7MPD2    H314258   0.961   2.167  11.288 -0.7153 -1.1523 -0.3082
    7MPD2     N14259   0.777   2.210  11.695 -0.1659 -0.5005  0.5270
    7MPD2    H514260   0.763   2.110  11.687  2.3054 -0.9460  1.7173
    7MPD2    N114261   0.875   2.600  11.418 -0.3540 -0.1103  0.5420
    7MPD2    H714262   0.850   2.660  11.496  0.2713 -0.3461  0.9288
    8TMC3    C114263   0.848   2.808  11.324 -0.4625 -0.4949 -0.4788
    8TMC3    C214264   0.762   2.848  11.224  0.0631 -0.5308 -0.3196
    8TMC3    C314265   0.648   2.919  11.260 -1.2167  0.1392  0.0266
    8TMC3    C414266   0.822   2.835  11.451 -1.0415 -0.7657 -0.1001
    8TMC3    C514267   0.700   2.888  11.490 -0.0469  0.4334  0.5582
    8TMC3    C614268   0.619   2.942  11.392 -0.2387 -0.1179  0.6682
    8TMC3     C14269   0.890   2.664  11.302 -0.2733  0.7912  0.5739
    8TMC3     O14270   0.932   2.633  11.192  0.7484 -0.2494 -0.4904
    8TMC3     H14271   0.782   2.822  11.120 -1.5884 -2.0448 -0.2641
    8TMC3    H114272   0.892   2.806  11.528 -2.5995  2.1840  2.4392
    8TMC3    H214273   0.538   3.008  11.422  0.3476  1.0587 -0.3353
    8TMC3    C714274   0.632   2.805  11.592 -0.8465 -0.4415 -0.7174
    8TMC3    C814275   0.533   2.855  11.205  0.3884 -0.0517 -0.8877
    8TMC3    O114276   0.704   2.725  11.653  0.2086  0.0277  0.4580
    8TMC3    O214277   0.455   2.808  11.284  0.3521 -0.4275 -0.1093
    9MPD2     C14278   0.414   2.876  10.864 -0.2554 -0.0817  0.5791
    9MPD2    C114279   0.406   2.851  10.998  0.5458  0.0817  0.3676
    9MPD2    C214280   0.304   2.764  11.045  0.3799  0.0371  0.0090
    9MPD2    C314281   0.195   2.727  10.967 -0.1211 -0.0125 -0.1836
    9MPD2    C414282   0.197   2.769  10.834 -0.2053 -0.3415 -0.1421
    9MPD2    C514283   0.303   2.844  10.784 -0.4088  0.0477  0.2648
    9MPD2     H14284   0.302   2.741  11.151 -1.4246  0.7539  0.1373
    9MPD2    H114285   0.137   2.717  10.761 -0.9437 -0.5635  0.6287
    9MPD2    H214286   0.506   2.914  10.823 -0.2366  1.8126  2.3788
    9MPD2    H314287   0.321   2.852  10.678 -1.7727 -1.1490 -0.0550
    9MPD2     N14288   0.096   2.646  11.018  0.4304 -0.7901  0.2533
    9MPD2    H514289   0.022   2.614  10.957 -0.8105 -0.3048  1.4984
    9MPD2    N114290   0.521   2.886  11.071 -0.0424  0.3362 -0.3431
    9MPD2    H714291   0.599   2.925  11.019  0.0542  0.1140 -0.3651
    1MPD1     C14292   0.906   0.943  16.060 -0.5211  0.4473 -0.3991
    1MPD1    C114293   0.800   1.000  16.123 -0.0849  0.3721 -0.0393
    1MPD1    C214294   0.819   1.043  16.252  0.5143  0.0370  0.1329
    1MPD1    C314295   0.947   1.050  16.314  0.8464  0.4857 -0.2091
    1MPD1    C414296   1.055   1.013  16.240 -0.2470 -0.3000 -0.3432
    1MPD1    C514297   1.032   0.955  16.116  0.0062  0.3860 -0.3814
    1MPD1     H14298   0.730   1.078  16.303  1.3097  1.9042  0.2300
    1MPD1    H114299   1.160   1.030  16.264 -0.4015  0.4418 -0.2259
    1MPD1    H214300   0.904   0.899  15.961  1.4749 -2.2091  0.7581
    1MPD1    H314301   1.121   0.924  16.061  1.3317 -0.4691  2.2289
    1MPD1     N14302   0.966   1.089  16.443  0.0123  0.0189  0.2182
    1MPD1    H514303   1.065   1.091  16.462 -0.0283  0.0356  0.4341
    1MPD1    N114304   0.667   0.994  16.066 -1.0331  0.5531 -0.2504
    1MPD1    H614305   0.617   1.083  16.063 -1.0038  0.5204 -1.7202
    1MPD1    H714306   0.680   0.965  15.970  0.1175 -3.2156  1.0614
    2TMC2    C114307   0.837   1.199  16.866 -0.3327  0.2293 -0.4850
    2TMC2    C214308   0.962   1.182  16.922  0.1160  0.2807 -0.1345
    2TMC2    C314309   1.060   1.144  16.831 -0.2694 -0.3328  0.2852
    2TMC2    C414310   0.810   1.203  16.736  0.1180  0.1146  0.3236
    2TMC2    C514311   0.913   1.169  16.651 -0.0209  0.4756  0.4780
    2TMC2    C614312   1.040   1.131  16.692 -0.6782  0.1014  0.1789
    2TMC2     C14313   0.716   1.199  16.946  0.4526 -0.3732  0.1341
    2TMC2     O14314   0.727   1.271  17.044 -1.5406 -0.2952 -0.1473
    2TMC2     H14315   0.963   1.175  17.030 -1.7982 -0.8714 -0.1877
    2TMC2    H114316   0.709   1.220  16.702  0.4467 -1.1923 -1.3334
    2TMC2    H214317   1.125   1.119  16.627 -0.2307  0.4929  0.6894
    2TMC2    C714318   0.869   1.138  16.522 -0.0521 -0.1655  0.5529
    2TMC2    C814319   1.172   1.074  16.890  0.0882  0.2086 -0.1059
    2TMC2    O114320   0.748   1.154  16.499 -0.1650 -0.1669  0.2906
    2TMC2    O214321   1.193   1.082  17.010 -0.0282 -0.3468  0.1033
    2TMC2    O514322   1.216   0.983  16.803  0.0611  0.2011 -0.5695
    2TMC2    H514323   1.168   0.991  16.718  1.0845 -0.1281 -1.1692
    3MPD1     C14324   0.258   1.016  17.069  0.8131 -0.3228 -0.0280
    3MPD1    C114325   0.321   0.929  16.980 -0.7695 -0.3537 -0.5334
    3MPD1    C214326   0.443   0.965  16.921  0.0978  0.4177  0.6316
    3MPD1    C314327   0.505   1.075  16.974  0.1474 -0.0549 -0.2417
    3MPD1    C414328   0.453   1.147  17.076  0.2904 -0.2570 -0.1133
    3MPD1    C514329   0.333   1.111  17.131  0.7534  0.2441 -0.5029
    3MPD1     H14330   0.496   0.917  16.839 -1.0132  0.7813 -0.2874
    3MPD1    H114331   0.483   1.244  17.111 -0.7203  0.1096 -0.2574
    3MPD1    H214332   0.154   1.006  17.096  1.3197 -0.6306  1.8300
    3MPD1    H314333   0.286   1.185  17.196 -1.8432 -0.8276 -1.1729
    3MPD1     N14334   0.629   1.102  16.910  0.2968 -0.2302  0.6920
    3MPD1    H514335   0.660   1.029  16.847  0.3576  0.2985  0.1064
    3MPD1    N114336   0.238   0.826  16.930 -0.0441 -0.8830 -0.0938
    3MPD1    H614337   0.171   0.800  17.003 -2.0774  1.4161 -1.1309
    3MPD1    H714338   0.286   0.739  16.906 -1.0026 -1.5981  0.5557
    1TMC1    C114339   3.616   0.384  14.158 -0.1840  1.1114  0.5053
    1TMC1    C214340   3.648   0.277  14.228 -0.4848 -1.0251  0.2498
    1TMC1    C314341   3.616   0.155  14.175 -0.5067  0.5943 -0.2535
    1TMC1    C414342   3.558   0.384  14.031 -0.3839  0.3963 -0.2472
    1TMC1    C514343   3.539   0.261  13.975  0.3190 -0.6994 -0.0859
    1TMC1    C614344   3.563   0.150  14.048 -0.0977 -0.5778  0.3203
    1TMC1     C14345   3.694   0.501  14.197 -0.9983  0.1418  0.4995
    1TMC1     O14346   3.723   0.515  14.312  0.4941 -0.2338 -0.7010
    1TMC1     H14347   3.680   0.287  14.331 -0.1217  1.7073 -0.1210
    1TMC1    H114348   3.537   0.465  13.962 -3.8791  0.5819  1.0235
    1TMC1    H214349   3.524   0.055  14.013  0.8189 -0.5180 -0.8645
    1TMC1    C714350   3.497   0.264  13.840 -0.1761  0.4781  0.4670
    1TMC1    C814351   3.578   0.060  14.277 -0.1123  0.0336 -0.3571
    1TMC1    O114352   3.425   0.353  13.799 -0.3461  0.0379 -0.3722
    1TMC1    O214353   3.507   4.702  14.253  0.8306  0.0865  0.1808
    1TMC1    O314354   3.522   0.144  13.786 -0.2459  0.8254 -0.3888
    1TMC1    H314355   3.604   0.108  13.828 -0.7371  0.5201  0.3119
    1TMC1    O514356   3.689   0.051  14.361  0.3374 -0.2725 -0.9988
    1TMC1    H514357   3.753   0.126  14.355 -0.7075  0.7299  0.4216
    2MPD2     C14358   3.907   0.717  14.209 -0.8012  0.6453 -0.1669
    2MPD2    C114359   3.862   0.653  14.093 -0.9713  0.9142  0.3659
    2MPD2    C214360   3.930   0.694  13.977 -0.8643 -0.4539  0.0326
    2MPD2    C314361   4.020   0.801  13.982 -0.0444  0.4254 -0.2284
    2MPD2    C414362   4.064   0.855  14.098  0.2704 -0.2974 -0.1375
    2MPD2    C514363   4.003   0.816  14.212  0.1835  0.4916 -0.1027
    2MPD2     H14364   3.912   0.646  13.881  1.3653  3.5420 -2.4006
    2MPD2    H114365   4.144   0.927  14.110 -1.2085  1.5506 -1.2457
    2MPD2    H214366   3.854   0.697  14.302 -0.4860 -0.8940 -0.3281
    2MPD2    H314367   4.039   0.865  14.302 -1.2863  1.0828  0.1614
    2MPD2     N14368   4.066   0.851  13.854 -0.0291 -0.5086 -0.5776
    2MPD2    H514369   4.043   0.799  13.769 -2.1612 -3.0500  1.5525
    2MPD2    N114370   3.765   0.547  14.089  0.0282  0.7453  0.3168
    2MPD2    H714371   3.749   0.489  14.007 -1.7772  2.4200 -0.5240
    3TCq1    O114372   4.077   0.775  13.367 -0.4226  0.0422 -0.5126
    3TCq1    C114373   4.055   0.910  13.358  0.4176  0.2299  0.5091
    3TCq1    O214374   4.017   0.967  13.261  0.5295  0.0336  0.2482
    3TCq1    C214375   4.109   0.983  13.469 -0.6273  0.1844 -0.0967
    3TCq1    C314376   4.139   1.115  13.444 -0.9811 -0.0216 -0.3147
    3TCq1    C414377   4.179   1.190  13.549  0.0082  0.6700 -0.6238
    3TCq1    C514378   4.186   1.132  13.670  0.1887 -0.2191 -0.5580
    3TCq1    C614379   4.162   1.001  13.692  0.2704 -0.5124  0.3552
    3TCq1    C714380   4.118   0.923  13.592  0.0703  0.1137 -0.3773
    3TCq1    C814381   4.124   0.970  13.830  0.0694 -0.2229  0.8887
    3TCq1    O414382   4.121   1.064  13.911 -0.2640 -0.8895  0.0314
    3TCq1    C914383   4.225   1.326  13.526  0.7222  0.5393 -0.3612
    3TCq1    O514384   4.245   1.399  13.628 -0.3979 -0.1922  0.0454
    3TCq1    O614385   4.208   1.374  13.410 -0.4052 -0.2990 -0.4872
    3TCq1    H114386   4.145   0.740  13.428 -2.3002  0.6419  1.9329
    3TCq1    H214387   4.130   1.160  13.346 -1.6240 -1.1541 -0.7670
    3TCq1    H314388   4.204   1.202  13.750 -0.3424  1.1145 -1.6135
    3TCq1    H414389   4.090   0.820  13.605  1.1105 -0.1275 -0.0579
    1MPD2     C14390   2.844   1.032  15.102  0.0877 -0.7005 -0.5001
    1MPD2    C114391   2.740   0.949  15.136  0.0232 -0.3226 -1.0151
    1MPD2    C214392   2.781   0.835  15.205  0.1939  0.4349  0.1498
    1MPD2    C314393   2.912   0.818  15.245 -0.1154  0.4259 -0.2848
    1MPD2    C414394   3.008   0.913  15.227  0.0379 -0.4566  0.0263
    1MPD2    C514395   2.970   1.018  15.150 -0.0241  0.2362  0.1835
    1MPD2     H14396   2.713   0.754  15.228 -1.7508  1.4645 -1.9040
    1MPD2    H114397   3.115   0.909  15.240  0.0841 -1.6562 -0.7559
    1MPD2    H214398   2.816   1.117  15.041  2.8446 -0.5505 -1.5909
    1MPD2    H314399   3.039   1.098  15.124  0.9203  0.2082  2.6920
    1MPD2     N14400   2.948   0.698  15.311  0.5129 -0.1204  1.1031
    1MPD2    H514401   2.869   0.635  15.320 -1.1827  1.9631  0.8543
    1MPD2    N114402   2.610   0.977  15.087  0.4298 -0.2978 -0.5857
    1MPD2    H714403   2.599   1.062  15.032 -0.6542 -0.5465 -0.7517
    2TMC3    C114404   2.369   0.961  15.079  0.0578  0.2212 -0.3689
    2TMC3    C214405   2.290   0.846  15.088  0.1260  0.0957  0.4135
    2TMC3    C314406   2.224   0.803  14.975  0.6627 -1.0144  0.1102
    2TMC3    C414407   2.379   1.030  14.960 -0.0498 -0.1656 -0.1372
    2TMC3    C514408   2.311   0.976  14.854  0.2340  0.3945 -0.9820
    2TMC3    C614409   2.238   0.866  14.859  0.4825 -0.0223 -0.1818
    2TMC3     C14410   2.496   0.921  15.132 -0.5353 -0.5702 -0.0416
    2TMC3     O14411   2.482   0.833  15.217 -0.2250  0.2778 -0.0694
    2TMC3     H14412   2.257   0.803  15.182  0.8317 -1.9619 -0.2942
    2TMC3    H114413   2.432   1.124  14.950 -0.7362  0.2901  0.4553
    2TMC3    H214414   2.194   0.832  14.766  0.9459  2.1417 -1.1840
    2TMC3    C714415   2.270   1.069  14.750  0.4236  0.3727  0.0300
    2TMC3    C814416   2.223   0.661  14.966 -0.9372  0.4454  0.6876
    2TMC3    O114417   2.169   1.061  14.683  0.3876  0.2192  0.0205
    2TMC3    O214418   2.159   0.605  14.877 -0.4150  0.1217  0.3728
    3TCq1    O114419   2.671   2.174  14.623  0.5600 -0.5886 -0.0758
    3TCq1    C114420   2.767   2.109  14.690  0.3147 -0.3493 -0.7636
    3TCq1    O214421   2.858   2.155  14.759  0.1168  0.1335  0.2790
    3TCq1    C214422   2.775   1.979  14.636  0.2472 -0.1008  0.0715
    3TCq1    C314423   2.887   1.912  14.676 -0.0100  0.2462 -0.0244
    3TCq1    C414424   2.893   1.776  14.661 -0.1189  0.5697 -0.5659
    3TCq1    C514425   2.790   1.705  14.603  0.0974 -0.3067  0.5948
    3TCq1    C614426   2.671   1.772  14.585  0.0244 -0.1126 -0.3752
    3TCq1    C714427   2.668   1.910  14.592 -0.2959 -0.2194  0.4112
    3TCq1    C814428   2.545   1.701  14.553 -0.4749 -0.0706 -0.2205
    3TCq1    O414429   2.450   1.777  14.551  0.0073 -0.6101 -0.3775
    3TCq1    C914430   3.011   1.704  14.695 -0.7175  0.2864 -0.1168
    3TCq1    O514431   3.097   1.770  14.761 -0.5352  0.0039  0.4095
    3TCq1    O614432   3.032   1.594  14.635 -0.1772 -0.0997 -0.4737
    3TCq1    H114433   2.618   2.136  14.550  1.9260 -0.0177 -1.3788
    3TCq1    H214434   2.971   1.973  14.707 -1.2050  0.7759  2.2194
    3TCq1    H314435   2.790   1.597  14.604  1.1578 -0.3004  0.9084
    3TCq1    H414436   2.572   1.962  14.594 -0.7492 -1.0245 -0.5587
    4MPD2     C14437   2.321   1.520  14.492  0.4778 -0.2199  0.4516
    4MPD2    C114438   2.436   1.491  14.554  1.1733 -0.8073 -0.8921
    4MPD2    C214439   2.452   1.366  14.624  0.3083  0.3837  0.1669
    4MPD2    C314440   2.346   1.282  14.644  1.1713 -0.5780  0.6630
    4MPD2    C414441   2.227   1.317  14.577 -0.7737  0.0850  0.0861
    4MPD2    C514442   2.221   1.426  14.497 -0.8476  0.0807 -0.0438
    4MPD2     H14443   2.546   1.342  14.672  0.1474  0.4298  0.5053
    4MPD2    H114444   2.138   1.257  14.589  0.0467 -0.6989  2.4642
    4MPD2    H214445   2.308   1.616  14.442  1.9381 -1.1670 -1.7435
    4MPD2    H314446   2.123   1.449  14.455 -2.4555 -0.4725  3.4385
    4MPD2     N14447   2.365   1.166  14.725  0.0471  0.8686 -0.4976
    4MPD2    H514448   2.457   1.160  14.767  0.0423  0.0979 -0.5917
    4MPD2    N114449   2.553   1.569  14.567  0.0442  0.4545 -0.2069
    4MPD2    H714450   2.633   1.514  14.597 -0.6115  1.7651  3.8350
    5TMC2    C114451   2.877   0.354  15.316 -0.5049 -0.2091  0.6605
    5TMC2    C214452   2.958   0.277  15.235  0.7249 -0.4687 -0.0496
    5TMC2    C314453   3.088   0.320  15.216  0.1871  1.3033  0.1291
    5TMC2    C414454   2.932   0.462  15.378  0.5194  0.9032  0.4505
    5TMC2    C514455   3.057   0.503  15.358 -0.0194  0.0740  0.1480
    5TMC2    C614456   3.134   0.438  15.265  0.8937 -0.4423  0.3412
    5TMC2     C14457   2.747   0.400  15.264 -0.2221 -0.6462  0.1931
    5TMC2     O14458   2.723   0.518  15.280  0.2417 -0.4594 -0.0049
    5TMC2     H14459   2.929   0.194  15.172 -0.1562 -1.5786  1.8164
    5TMC2    H114460   2.865   0.512  15.447 -0.7115  0.0785 -0.1543
    5TMC2    H214461   3.232   0.473  15.234  1.3380 -1.9103  0.0889
    5TMC2    C714462   3.074   0.642  15.336 -0.0553 -0.5958 -0.3899
    5TMC2    C814463   3.171   0.247  15.128  0.2691  1.2086 -0.1691
    5TMC2    O114464   3.186   0.685  15.314  0.2871 -0.4908 -0.3585
    5TMC2    O214465   3.142   0.239  15.011  0.5313 -0.8173  0.0586
    5TMC2    O514466   3.294   0.226  15.184  0.1886 -0.0675  0.0316
    5TMC2    H514467   3.295   0.224  15.282  0.2087  1.0715  0.0522
    6MPD2     C14468   2.324   0.376  14.971  0.2108 -0.0409 -0.0278
    6MPD2    C114469   2.380   0.477  15.049 -0.2558  0.6090 -0.1759
    6MPD2    C214470   2.493   0.463  15.116 -1.0488 -0.4065  0.1425
    6MPD2    C314471   2.560   0.341  15.115  0.1431 -1.5059  0.0239
    6MPD2    C414472   2.504   0.233  15.043  0.3052  0.8014  0.0720
    6MPD2    C514473   2.386   0.254  14.973 -0.9571 -0.3268 -0.0536
    6MPD2     H14474   2.537   0.543  15.174  1.8163 -0.3108 -2.2000
    6MPD2    H114475   2.552   0.136  15.048 -1.4618 -0.0120  1.4032
    6MPD2    H214476   2.237   0.391  14.907  1.6443 -0.3487 -2.0772
    6MPD2    H314477   2.356   0.168  14.913  0.8664 -0.2460 -1.0716
    6MPD2     N14478   2.683   0.312  15.183 -0.2313 -0.3201  0.5190
    6MPD2    H514479   2.731   0.223  15.173  0.7192  0.1543  0.8397
    6MPD2    N114480   2.324   0.607  15.045  0.0392 -0.1444  0.2727
    6MPD2    H714481   2.369   0.670  15.111 -1.6505  0.7382  0.5923
  945NH3     N114482   4.351   3.205   8.496 -0.3964 -0.2568 -0.1454
  945NH3     H214483   4.330   3.265   8.416 -0.6835 -0.0505  0.0832
  945NH3     H314484   4.377   3.278   8.561  1.4450 -2.5786  1.6963
  945NH3     H414485   4.261   3.187   8.538 -0.6245  1.0173 -0.0647
  946SOD     NA14486   0.937   0.149   9.168  0.1893 -0.2255 -0.1361
  947SOD     NA14487   0.309   4.324  11.331 -0.3814  0.0726 -0.6194
  948SOD     NA14488   1.428   4.636   5.710 -0.2803 -0.2954 -0.3685
  949SOD     NA14489   2.128   2.237  10.186  0.1677  0.1536 -0.3772
  950SOD     NA14490   3.014   1.474  14.445  0.1069  0.2777 -0.0370
  951SOD     NA14491   0.304   4.125   4.683  0.3782  0.2240 -0.1083
  952SOD     NA14492   4.276   1.653  14.211  0.5113  0.2260  0.1300
  953SOD     NA14493   3.332   0.835  15.409 -0.2010 -0.2000 -0.0612
  954SOL     OW14494   3.118   3.455   5.740  0.1052  0.5183 -0.1034
  954SOL    HW114495   3.116   3.510   5.662 -0.6696  1.4754  0.6008
  954SOL    HW214496   3.201   3.482   5.781  0.0198  1.8142 -0.7975
  955SOL     OW14497   4.288   3.216   6.271  0.3858 -0.3956 -0.2058
  955SOL    HW114498   4.306   3.158   6.345  0.5889 -0.4131 -0.2676
  955SOL    HW214499   4.209   3.173   6.239  0.1472 -2.0402  2.4965
  956SOL     OW14500   2.321   0.953   4.981 -0.5176 -0.6506 -0.0111
  956SOL    HW114501   2.407   0.918   4.956 -0.0185 -0.7904  1.9346
  956SOL    HW214502   2.279   0.871   5.007 -1.2535  0.8059  3.2757
  957SOL     OW14503   3.238   1.993   6.547  0.3360 -0.3423  0.0675
  957SOL    HW114504   3.165   2.011   6.607 -1.1114  0.3557 -1.9236
  957SOL    HW214505   3.200   1.948   6.472  2.6014 -1.8690 -0.1662
  958SOL     OW14506   1.596   4.346   9.955  0.0210  0.2082 -0.4608
  958SOL    HW114507   1.689   4.321   9.949  0.3957  0.6155  3.4027
  958SOL    HW214508   1.580   4.370  10.046  0.3679  0.6578 -0.5161
  959SOL     OW14509   4.599   1.652   3.087  0.2628 -0.4409  0.3919
  959SOL    HW114510   4.672   1.698   3.128  0.6240 -0.6595 -0.0035
  959SOL    HW214511   4.625   1.629   2.998 -1.0677  2.2492 -0.6805
  960SOL     OW14512   1.735   1.798   4.701 -0.0673 -0.1667  0.0014
  960SOL    HW114513   1.725   1.890   4.675  0.1889  0.3300  1.6862
  960SOL    HW214514   1.644   1.766   4.704 -0.1650 -0.0682 -1.6544
  961SOL     OW14515   3.793   4.017   4.970 -0.7682  0.1092 -0.7368
  961SOL    HW114516   3.724   3.979   4.916 -0.3694 -0.5851 -0.7520
  961SOL    HW214517   3.816   3.947   5.031 -2.3277 -0.4532 -0.7935
  962SOL     OW14518   3.265   0.659  16.409 -0.0382  0.3398 -0.4714
  962SOL    HW114519   3.279   0.627  16.320 -2.2075  0.0275 -0.7134
  962SOL    HW214520   3.246   0.584  16.465 -0.1613  1.6311  1.2186
  963SOL     OW14521   4.674   0.261   0.291  0.4312 -0.1932 -0.3159
  963SOL    HW114522   4.640   0.221   0.371  0.4159  1.3069  0.4254
  963SOL    HW214523   4.609   0.220   0.234  0.4023  0.3116 -0.6394
  964SOL     OW14524   4.033   0.579   0.900 -0.3777 -0.2865 -0.2924
  964SOL    HW114525   4.091   0.633   0.847  0.4841 -0.1516  0.7932
  964SOL    HW214526   3.950   0.582   0.852  0.4705  0.0290 -1.7228
  965SOL     OW14527   4.212   4.231   5.473  0.2732 -0.7419 -0.2531
  965SOL    HW114528   4.165   4.151   5.494 -3.0175  1.2877  0.0995
  965SOL    HW214529   4.303   4.207   5.487 -0.2420 -2.6509 -0.2654
  966SOL     OW14530   4.296   3.285  17.631  0.0952  0.0607 -0.1745
  966SOL    HW114531   4.388   3.279  17.659 -0.5747 -1.8694  1.6127
  966SOL    HW214532   4.248   3.248  17.705 -0.8381  2.5262  0.4314
  967SOL     OW14533   3.301   0.971   3.043 -0.3019  0.3162 -0.0632
  967SOL    HW114534   3.210   0.942   3.043  0.1599 -1.1420 -0.2068
  967SOL    HW214535   3.307   1.036   2.973  0.7457  0.1157 -0.1599
  968SOL     OW14536   1.443   2.843   5.863  0.1354 -0.1269  0.3302
  968SOL    HW114537   1.481   2.895   5.934 -0.6889 -0.4657  1.0237
  968SOL    HW214538   1.371   2.801   5.911 -0.7415 -1.1498 -1.8856
  969SOL     OW14539   3.413   0.755  11.908  0.2713  0.5063 -0.1270
  969SOL    HW114540   3.388   0.677  11.956  1.9724 -0.5111 -0.8968
  969SOL    HW214541   3.498   0.769  11.950  0.9260 -2.9444 -0.3581
  970SOL     OW14542   1.455   2.904  16.196 -0.7518  0.2275 -0.5258
  970SOL    HW114543   1.378   2.935  16.148  0.2231  2.3393 -0.7311
  970SOL    HW214544   1.494   2.991  16.202 -0.8020  0.2948 -1.1834
  971SOL     OW14545   2.952   0.914   5.938 -0.2319 -0.5648 -0.3427
  971SOL    HW114546   2.862   0.942   5.926  0.1342  0.3103 -1.0872
  971SOL    HW214547   2.991   0.943   5.855 -0.2538 -0.4100 -0.2990
  972SOL     OW14548   4.408   1.607   2.395  0.1367 -0.3846 -0.2051
  972SOL    HW114549   4.330   1.567   2.434 -0.3788 -1.1840 -2.0409
  972SOL    HW214550   4.440   1.652   2.473 -0.1126 -1.2513  0.3977
  973SOL     OW14551   2.059   4.642  16.824 -0.5556  0.0891  0.1887
  973SOL    HW114552   1.972   4.614  16.796  0.0818 -0.2516 -1.4338
  973SOL    HW214553   2.046   4.702  16.898  0.2431  2.5676 -1.6807
  974SOL     OW14554   3.288   3.068   9.146  0.9235 -0.3449  0.0410
  974SOL    HW114555   3.361   3.080   9.207  0.2468  0.1098  0.7476
  974SOL    HW214556   3.281   3.155   9.106 -2.5634 -0.5676  0.2132
  975SOL     OW14557   1.257   3.978   7.776 -0.5236  0.3658  0.7820
  975SOL    HW114558   1.350   3.964   7.760 -0.2376  0.5481  2.3407
  975SOL    HW214559   1.219   3.890   7.779 -1.7367  0.8334 -0.5647
  976SOL     OW14560   2.319   0.805  10.543 -0.0877  0.5536 -0.1646
  976SOL    HW114561   2.326   0.895  10.576  0.8541  0.5194 -0.2648
  976SOL    HW214562   2.335   0.825  10.451 -1.4915 -0.1289 -0.5588
  977SOL     OW14563   0.960   1.585   2.200  0.1539  0.1281 -1.4546
  977SOL    HW114564   0.962   1.518   2.268  1.5222  0.5896 -1.0517
  977SOL    HW214565   0.899   1.650   2.237  1.9412  0.6055  0.6599
  978SOL     OW14566   2.358   1.172  10.869  0.2669 -0.2309  0.1759
  978SOL    HW114567   2.451   1.196  10.861 -0.4503  1.9152 -1.7521
  978SOL    HW214568   2.361   1.140  10.960  0.5901 -1.2133 -0.1850
  979SOL     OW14569   0.724   1.393  10.423 -0.2647 -0.1297 -0.6189
  979SOL    HW114570   0.772   1.405  10.341  1.0347  2.5245  0.5368
  979SOL    HW214571   0.659   1.324  10.407  1.5528 -2.0480  0.2952
  980SOL     OW14572   4.405   1.658   2.760 -0.2797 -0.1856  0.1437
  980SOL    HW114573   4.342   1.631   2.827 -1.6702  1.1496 -0.6422
  980SOL    HW214574   4.386   1.751   2.752  0.4665 -0.1853 -1.6183
  981SOL     OW14575   3.351   3.619   4.221  0.1974 -0.1372 -1.2341
  981SOL    HW114576   3.435   3.574   4.222 -0.1485 -0.7441  1.8368
  981SOL    HW214577   3.330   3.626   4.315  0.2527 -0.6597 -1.1779
  982SOL     OW14578   2.390   4.589  12.160 -0.7139 -0.0053  0.0298
  982SOL    HW114579   2.446   4.513  12.170  1.2252  1.3092 -0.8596
  982SOL    HW214580   2.431   4.631  12.235 -0.2877 -0.0257 -0.1914
  983SOL     OW14581   3.977   2.997  12.993 -0.5500  0.6236 -0.3484
  983SOL    HW114582   4.066   2.973  12.965 -0.8970 -1.1190  0.0370
  983SOL    HW214583   3.995   3.044  13.074  0.3869  1.2359 -0.8967
  984SOL     OW14584   3.690   4.425   5.438 -0.3825  0.0202 -0.0552
  984SOL    HW114585   3.758   4.459   5.380 -1.4975  0.3134 -1.1933
  984SOL    HW214586   3.733   4.347   5.472 -0.9802  0.2082  1.1327
  985SOL     OW14587   4.283   3.973   8.525 -0.6281 -0.0300  0.0680
  985SOL    HW114588   4.210   4.033   8.509 -0.0896  0.6323  0.1321
  985SOL    HW214589   4.284   3.945   8.434 -0.5304 -3.2364  1.0517
  986SOL     OW14590   3.614   2.527   3.410  0.9841  0.1773  0.2479
  986SOL    HW114591   3.553   2.463   3.373  0.3014  0.8267  0.2592
  986SOL    HW214592   3.697   2.479   3.412  0.9677  0.0583 -1.2767
  987SOL     OW14593   0.085   0.972   6.134 -0.3424  0.1291  0.0884
  987SOL    HW114594   0.050   1.009   6.053  0.3289  0.0602 -0.2334
  987SOL    HW214595   0.077   1.044   6.196 -0.3104  0.5833 -0.4275
  988SOL     OW14596   3.451   0.293   6.043 -0.1964 -0.4152  0.1771
  988SOL    HW114597   3.485   0.375   6.078 -0.7766 -0.9901  2.0707
  988SOL    HW214598   3.525   0.254   5.995 -0.2569  0.7431 -0.8465
  989SOL     OW14599   1.837   4.437  14.595 -0.1746  0.2166  0.1049
  989SOL    HW114600   1.916   4.488  14.578  0.9282 -0.3395  3.5959
  989SOL    HW214601   1.880   4.352  14.586 -0.1098  0.1574  0.9895
  990SOL     OW14602   2.785   2.211  13.582  0.9472  0.7723  0.2553
  990SOL    HW114603   2.823   2.293  13.613 -1.0076  0.6751  3.0134
  990SOL    HW214604   2.706   2.235  13.534  0.0577  2.2208  2.4385
  991SOL     OW14605   0.309   3.277   3.963 -0.4638 -0.4743  0.2187
  991SOL    HW114606   0.281   3.274   4.055  0.6699  1.2972  0.6275
  991SOL    HW214607   0.315   3.371   3.951 -0.0705 -0.4247  0.8131
  992SOL     OW14608   0.808   0.461   8.735 -0.2450 -0.2598  0.0801
  992SOL    HW114609   0.724   0.482   8.694 -0.2477 -1.7276 -0.6642
  992SOL    HW214610   0.860   0.517   8.677  0.4656 -0.9212  0.0783
  993SOL     OW14611   1.523   3.820   6.597 -0.2576  0.3496  0.1934
  993SOL    HW114612   1.438   3.821   6.553 -1.7639 -2.6311  2.9960
  993SOL    HW214613   1.514   3.900   6.649 -1.6779 -0.4720  1.2009
  994SOL     OW14614   3.826   0.565   6.664 -0.3781 -0.4265 -0.0724
  994SOL    HW114615   3.914   0.602   6.667 -1.2578  1.5139  1.9357
  994SOL    HW214616   3.782   0.639   6.622 -0.6559  0.1734  1.2782
  995SOL     OW14617   1.833   3.364  13.831 -0.0294  0.5213 -0.2150
  995SOL    HW114618   1.801   3.421  13.900 -0.8385  1.4847 -1.3968
  995SOL    HW214619   1.759   3.357  13.769 -0.5897 -1.6201  0.6718
  996SOL     OW14620   3.735   1.229   8.184  0.4773 -0.1385  0.1199
  996SOL    HW114621   3.753   1.255   8.093  0.1993  3.0597  0.9744
  996SOL    HW214622   3.641   1.221   8.166 -0.0491  1.3263  2.2254
  997SOL     OW14623   2.685   0.498   4.911 -0.2779 -0.2761  0.0368
  997SOL    HW114624   2.679   0.592   4.928 -0.7875  0.4396 -4.0295
  997SOL    HW214625   2.598   0.469   4.938 -0.1201 -1.9592 -1.2064
  998SOL     OW14626   1.047   0.526  13.292 -0.6628  0.0230  0.3647
  998SOL    HW114627   1.006   0.603  13.331  0.3782  0.1542  1.1977
  998SOL    HW214628   1.110   0.508  13.361  1.0899  2.4302 -0.6114
  999SOL     OW14629   1.563   0.714  10.976 -0.8733  0.2688 -0.1871
  999SOL    HW114630   1.612   0.632  10.982  1.0935  1.3126 -1.8615
  999SOL    HW214631   1.566   0.746  11.066 -0.4878 -1.4752  0.4206
 1000SOL     OW14632   0.067   1.850   3.166 -0.0227 -0.0352  0.3697
 1000SOL    HW114633   0.096   1.895   3.245  0.0655 -1.7485  1.3209
 1000SOL    HW214634   0.135   1.783   3.155 -0.1788 -0.1951  0.3747
 1001SOL     OW14635   1.401   3.915   4.525 -0.0754 -0.2170 -0.0272
 1001SOL    HW114636   1.450   3.997   4.522 -0.9607  0.4221  2.8246
 1001SOL    HW214637   1.371   3.928   4.615  2.7416 -0.1544  0.9081
 1002SOL     OW14638   2.632   2.686   9.119 -0.0496 -0.0137  0.3274
 1002SOL    HW114639   2.608   2.675   9.211  2.1424 -1.0168  0.7655
 1002SOL    HW214640   2.626   2.782   9.112  0.4254 -0.1012 -1.2356
 1003SOL     OW14641   0.534   4.261   5.930 -0.0560 -0.2863  0.1405
 1003SOL    HW114642   0.567   4.345   5.897 -0.0171 -0.5250 -0.4268
 1003SOL    HW214643   0.542   4.273   6.024  0.7990  0.8117 -0.0676
 1004SOL     OW14644   2.055   0.425   1.378  0.4766  0.3785  0.0918
 1004SOL    HW114645   2.106   0.409   1.299  0.0025 -0.5438 -0.0274
 1004SOL    HW214646   2.016   0.512   1.375  0.3523  0.4197  2.5679
 1005SOL     OW14647   0.405   2.485  17.219 -0.1548  0.1343 -0.0850
 1005SOL    HW114648   0.386   2.422  17.149 -0.2191  0.9803 -0.8265
 1005SOL    HW214649   0.449   2.434  17.288  1.9426  0.7777 -0.9513
 1006SOL     OW14650   0.363   1.000  11.636  0.5063  0.0142  0.3963
 1006SOL    HW114651   0.316   0.969  11.714 -1.1514  1.6996  0.0590
 1006SOL    HW214652   0.411   1.067  11.684 -1.8783  0.9867  1.4173
 1007SOL     OW14653   0.047   1.063   9.198  0.1856 -0.0222  0.3533
 1007SOL    HW114654   0.052   1.143   9.250 -1.4442  1.3394 -1.5319
 1007SOL    HW214655   4.699   1.063   9.158  0.2435  2.3922  0.1926
 1008SOL     OW14656   4.405   1.895  17.236  0.1802 -0.5507  0.2972
 1008SOL    HW114657   4.417   1.800  17.235  2.9283 -0.1806 -1.6865
 1008SOL    HW214658   4.347   1.910  17.162  0.3831 -0.1143  0.2256
 1009SOL     OW14659   0.847   3.793   7.665  0.9005  0.1380 -0.2264
 1009SOL    HW114660   0.785   3.722   7.683  1.4085 -0.5422 -1.1052
 1009SOL    HW214661   0.805   3.868   7.706 -0.8927 -0.9707 -0.0142
 1010SOL     OW14662   4.733   2.859   4.001 -0.1105  0.3844 -0.7046
 1010SOL    HW114663   4.679   2.786   3.971 -0.7186  0.9068 -0.8750
 1010SOL    HW214664   0.077   2.823   3.971 -0.5565 -1.8260  0.6343
 1011SOL     OW14665   1.548   4.493   2.957 -0.3758  0.0336 -0.8752
 1011SOL    HW114666   1.573   4.550   3.030 -0.8187  0.4699 -1.0635
 1011SOL    HW214667   1.609   4.420   2.965 -1.2111 -0.5231  0.2806
 1012SOL     OW14668   1.006   4.617   0.499  0.5161 -0.2197 -0.0916
 1012SOL    HW114669   0.973   4.532   0.531  2.0791 -1.6085 -2.1591
 1012SOL    HW214670   1.090   4.586   0.466  0.2690 -2.6304  1.4705
 1013SOL     OW14671   1.406   2.647   8.314 -0.1086  0.1538 -0.3831
 1013SOL    HW114672   1.500   2.644   8.331  0.1059 -0.3385 -1.5982
 1013SOL    HW214673   1.403   2.717   8.249 -0.7296 -0.3276 -0.8712
 1014SOL     OW14674   0.171   1.580  17.630  1.2530  0.3320  0.0131
 1014SOL    HW114675   0.078   1.600  17.643  1.0634  0.5871 -1.6488
 1014SOL    HW214676   0.166   1.495  17.586 -3.4370 -0.0909  1.3660
 1015SOL     OW14677   3.556   2.458   5.805  0.4794 -0.2472 -0.5039
 1015SOL    HW114678   3.636   2.422   5.767 -0.5734 -2.7219 -0.3812
 1015SOL    HW214679   3.595   2.523   5.863 -1.6250 -0.9852  1.7468
 1016SOL     OW14680   0.518   1.149   5.956 -0.3210  0.5014  0.4715
 1016SOL    HW114681   0.534   1.173   5.864  2.3855  1.1890  1.1168
 1016SOL    HW214682   0.454   1.218   5.975  1.0735  1.7398  0.6549
 1017SOL     OW14683   1.097   2.843  17.458  0.4064 -0.3768 -0.7089
 1017SOL    HW114684   1.014   2.873  17.494 -0.5438 -1.9562 -1.5856
 1017SOL    HW214685   1.136   2.815  17.540  0.4509 -0.2301 -0.6800
 1018SOL     OW14686   3.408   4.267  16.101 -0.1628 -0.1654  0.0435
 1018SOL    HW114687   3.385   4.261  16.008  2.5398 -1.8171 -0.5275
 1018SOL    HW214688   3.458   4.185  16.102 -0.3754 -0.2800  2.2517
 1019SOL     OW14689   4.557   0.422   2.871 -0.1368 -0.5950 -0.3072
 1019SOL    HW114690   4.531   0.503   2.914 -2.3176 -1.4670  0.0161
 1019SOL    HW214691   4.527   0.443   2.783 -4.2739  0.8837  1.4634
 1020SOL     OW14692   0.642   1.933   2.429  0.0448 -0.5693  0.1908
 1020SOL    HW114693   0.696   1.994   2.479  0.2228 -0.4249 -0.1805
 1020SOL    HW214694   0.609   1.873   2.496 -0.4889 -1.5669 -0.9719
 1021SOL     OW14695   4.693   3.727   5.149  0.7939  0.5069  0.1211
 1021SOL    HW114696   4.635   3.676   5.205 -2.3493  0.9419 -2.7292
 1021SOL    HW214697   4.716   3.655   5.091  3.3464  1.6504 -0.2936
 1022SOL     OW14698   1.006   3.018   7.453  0.0984  0.2380  0.1324
 1022SOL    HW114699   0.992   3.113   7.449  1.3203  0.3929 -0.6417
 1022SOL    HW214700   1.096   3.000   7.481 -0.1134  0.4612  0.9412
 1023SOL     OW14701   0.800   0.361   3.229  0.1971 -0.3766 -0.4222
 1023SOL    HW114702   0.765   0.331   3.145 -1.4476  0.5915 -0.0793
 1023SOL    HW214703   0.799   0.283   3.285  0.7501  0.6196  0.9564
 1024SOL     OW14704   0.937   0.864   7.601  0.7270 -0.0153 -0.1836
 1024SOL    HW114705   0.913   0.856   7.693  1.8029 -0.6022  0.0452
 1024SOL    HW214706   1.022   0.822   7.593  1.6936  2.2005 -1.4854
 1025SOL     OW14707   4.526   4.149   6.031 -0.2095 -0.0313  0.1112
 1025SOL    HW114708   4.519   4.244   6.025 -0.8425 -0.0141  1.1260
 1025SOL    HW214709   4.587   4.152   6.104  0.5041  1.5424 -0.5675
 1026SOL     OW14710   2.043   0.708   1.360  0.0118 -0.0338 -0.1829
 1026SOL    HW114711   2.128   0.749   1.347  0.3147 -0.1807  1.3093
 1026SOL    HW214712   1.992   0.749   1.290 -1.8814 -1.1483  0.5657
 1027SOL     OW14713   2.083   3.894   5.995 -0.1723 -0.3395 -0.0474
 1027SOL    HW114714   2.115   3.942   6.072 -0.3365  0.4642 -0.4813
 1027SOL    HW214715   2.072   3.804   6.025  3.5364 -1.3153 -1.6772
 1028SOL     OW14716   0.707   2.229  17.705  0.2419  0.6850 -0.2740
 1028SOL    HW114717   0.725   2.272   0.034 -0.4619 -1.9098  1.2061
 1028SOL    HW214718   0.619   2.200  17.727 -0.0817  2.8480  1.3235
 1029SOL     OW14719   2.873   2.713  13.485  0.2545 -0.3522 -0.3716
 1029SOL    HW114720   2.904   2.804  13.486  0.8605 -0.5822  1.6362
 1029SOL    HW214721   2.780   2.733  13.475 -0.0217 -0.4995  1.7727
 1030SOL     OW14722   3.581   0.524   3.680  0.0674 -0.2895 -0.2073
 1030SOL    HW114723   3.667   0.562   3.666  1.2876 -2.0772  2.3607
 1030SOL    HW214724   3.553   0.517   3.589  1.4563  0.3853 -0.6858
 1031SOL     OW14725   1.466   2.665   4.669 -0.1143  0.0422 -0.4284
 1031SOL    HW114726   1.537   2.613   4.707 -0.3008 -0.3681 -0.6385
 1031SOL    HW214727   1.475   2.754   4.703 -0.4888 -1.3248  3.3119
 1032SOL     OW14728   0.645   3.252   6.984 -0.1972  0.3103 -0.5552
 1032SOL    HW114729   0.740   3.236   6.980  0.1971  2.5711 -0.1180
 1032SOL    HW214730   0.636   3.347   6.978 -2.6397  0.1346  0.4070
 1033SOL     OW14731   0.191   1.315   3.078 -0.0887 -0.4154 -0.4905
 1033SOL    HW114732   0.113   1.329   3.132  0.0945 -0.1466 -0.2898
 1033SOL    HW214733   0.193   1.388   3.016 -0.2589  0.4047  0.4457
 1034SOL     OW14734   4.108   1.059   5.433 -0.1591 -0.3810 -0.1277
 1034SOL    HW114735   4.172   0.991   5.410  0.5007 -0.0457  0.6904
 1034SOL    HW214736   4.150   1.083   5.516 -0.7328 -0.0139  0.0556
 1035SOL     OW14737   2.532   4.071   3.693 -0.2373 -0.0816 -0.2349
 1035SOL    HW114738   2.532   4.094   3.600 -0.5924  0.5995 -0.0626
 1035SOL    HW214739   2.476   3.993   3.687  0.7251 -0.6345 -1.9876
 1036SOL     OW14740   1.199   4.526   5.075  0.0983 -0.3666  0.3075
 1036SOL    HW114741   1.190   4.612   5.117 -3.6889 -0.0488 -1.1552
 1036SOL    HW214742   1.280   4.543   5.026  0.4549 -0.6051  0.8223
 1037SOL     OW14743   3.341   2.798   3.466  0.1651  0.0327 -1.0042
 1037SOL    HW114744   3.339   2.831   3.376  0.9064  1.2290 -0.5673
 1037SOL    HW214745   3.367   2.706   3.455  1.8501  0.3315  0.6658
 1038SOL     OW14746   0.215   4.496   7.560  0.2840 -0.5170  0.0303
 1038SOL    HW114747   0.268   4.462   7.632  0.0915  0.8158  0.8198
 1038SOL    HW214748   0.216   4.592   7.569 -0.3855 -0.4698 -0.3870
 1039SOL     OW14749   2.884   2.239   3.731 -0.2617 -0.1044 -0.3255
 1039SOL    HW114750   2.815   2.230   3.665 -0.3558  1.7739 -0.5039
 1039SOL    HW214751   2.964   2.231   3.679 -1.9577  0.4982 -3.0405
 1040SOL     OW14752   0.186   1.474   2.216 -0.2310  0.0575  0.4780
 1040SOL    HW114753   0.194   1.394   2.268  1.7729  0.3500  0.6125
 1040SOL    HW214754   0.113   1.441   2.163  0.7952 -0.7943 -0.4017
 1041SOL     OW14755   4.621   4.079   7.828  0.4544  0.6380 -0.0103
 1041SOL    HW114756   4.697   4.046   7.876  0.1676 -1.2789 -0.8846
 1041SOL    HW214757   4.540   4.039   7.859  0.8008  1.0211  1.3948
 1042SOL     OW14758   4.357   2.611   7.550 -0.3890  0.5744  0.0951
 1042SOL    HW114759   4.320   2.679   7.493 -0.7907  1.3848  1.3077
 1042SOL    HW214760   4.294   2.541   7.535  0.2008 -0.0226  0.3829
 1043SOL     OW14761   3.552   4.580   1.133 -0.0761  0.2521 -0.1665
 1043SOL    HW114762   3.580   4.636   1.060 -2.3203  1.5200 -0.0566
 1043SOL    HW214763   3.605   4.502   1.121 -1.1944 -0.5066 -0.1904
 1044SOL     OW14764   0.352   1.058   8.192 -0.0808  0.2122  0.3273
 1044SOL    HW114765   0.268   1.023   8.223  0.3560 -1.2556 -0.1580
 1044SOL    HW214766   0.319   1.137   8.149  0.1220  0.6505  0.9666
 1045SOL     OW14767   0.682   3.111   5.133  0.4644  0.3851 -0.4375
 1045SOL    HW114768   0.607   3.084   5.081  0.4688 -4.0016  1.8709
 1045SOL    HW214769   0.654   3.196   5.167 -0.2209 -0.4086  0.9713
 1046SOL     OW14770   4.432   1.171  17.681 -0.1909  0.0530  0.3716
 1046SOL    HW114771   4.482   1.093  17.655 -1.6116 -1.1923  1.3736
 1046SOL    HW214772   4.371   1.184  17.609 -0.2723  0.4613  0.5158
 1047SOL     OW14773   1.711   3.757  15.082 -0.0660 -0.3712  0.2196
 1047SOL    HW114774   1.634   3.700  15.082  0.6970 -1.3605  2.7069
 1047SOL    HW214775   1.774   3.712  15.138 -0.3015  0.0135  0.7915
 1048SOL     OW14776   0.401   4.202  16.700 -0.2285  0.1118  0.3726
 1048SOL    HW114777   0.441   4.177  16.617 -0.5259  1.1362 -0.0790
 1048SOL    HW214778   0.376   4.115  16.733 -1.0751  0.5178  0.7956
 1049SOL     OW14779   3.668   0.900   3.312 -0.0449 -0.5712  0.1475
 1049SOL    HW114780   3.609   0.876   3.384 -0.4408  0.2290  0.0986
 1049SOL    HW214781   3.655   0.992   3.288  0.6989 -0.6125 -0.3983
 1050SOL     OW14782   4.109   2.874   6.896  0.3892  0.5245 -0.1442
 1050SOL    HW114783   4.059   2.898   6.819  1.2830  0.0519 -0.8731
 1050SOL    HW214784   4.180   2.823   6.857  1.1041  1.3089  0.1203
 1051SOL     OW14785   4.280   0.476  10.595 -0.8889  0.2783  0.4981
 1051SOL    HW114786   4.210   0.478  10.661 -1.4073  1.4899 -0.0944
 1051SOL    HW214787   4.292   0.570  10.585 -0.8422  0.1432 -0.6286
 1052SOL     OW14788   3.077   3.232  12.909  0.4678  0.0170 -0.0798
 1052SOL    HW114789   3.047   3.306  12.856 -2.2212  0.2229  1.7097
 1052SOL    HW214790   3.122   3.284  12.975  0.2200  0.8712 -0.5839
 1053SOL     OW14791   2.657   3.011   5.674  0.6205 -0.1101 -0.9035
 1053SOL    HW114792   2.689   2.922   5.659 -2.8142 -1.9429  2.4069
 1053SOL    HW214793   2.613   3.034   5.593 -1.8217  0.5930  0.6130
 1054SOL     OW14794   3.346   1.008   6.094 -0.1244  0.4459  0.6420
 1054SOL    HW114795   3.364   1.014   6.000  3.1722  1.4489  1.3329
 1054SOL    HW214796   3.272   0.948   6.090  0.2056  0.0805  0.0622
 1055SOL     OW14797   4.236   3.932   3.780  0.3535  0.4350  0.1326
 1055SOL    HW114798   4.197   3.969   3.701 -2.7731  0.8530  1.8767
 1055SOL    HW214799   4.321   3.974   3.789 -0.6765  2.6387 -0.3231
 1056SOL     OW14800   0.915   1.765   4.548  0.0699 -0.2103 -0.2839
 1056SOL    HW114801   0.966   1.824   4.604 -0.2758  0.6743 -0.8994
 1056SOL    HW214802   0.884   1.828   4.483  1.9034  1.3014  0.3009
 1057SOL     OW14803   1.130   2.426   7.463 -0.4587  0.2876  0.6240
 1057SOL    HW114804   1.073   2.497   7.433  0.8607  0.3236 -1.7273
 1057SOL    HW214805   1.053   2.369   7.467 -0.9930  0.9734  0.1739
 1058SOL     OW14806   4.524   0.367  14.507 -0.4551 -0.0376 -0.0824
 1058SOL    HW114807   4.546   0.338  14.596 -1.6562  0.0019  0.2305
 1058SOL    HW214808   4.434   0.337  14.495 -0.3426  0.2652 -1.6901
 1059SOL     OW14809   4.476   0.292   2.478 -0.4548 -0.1537  0.0875
 1059SOL    HW114810   4.523   0.208   2.472  1.3715  0.8426  0.3531
 1059SOL    HW214811   4.457   0.310   2.386 -0.7889  1.2248  0.4318
 1060SOL     OW14812   3.103   0.879  11.263 -0.2718 -0.4707 -0.1167
 1060SOL    HW114813   3.143   0.905  11.180  1.1674 -0.0853  0.6791
 1060SOL    HW214814   3.176   0.888  11.324 -0.6304  0.2770  0.2038
 1061SOL     OW14815   3.855   2.383  15.464 -0.0682  0.0513 -0.5632
 1061SOL    HW114816   3.933   2.438  15.454  1.6816 -2.0636  1.2863
 1061SOL    HW214817   3.815   2.425  15.540  0.6592  1.2178 -0.8247
 1062SOL     OW14818   0.217   0.816   8.858 -0.1997  0.0885  0.5363
 1062SOL    HW114819   0.220   0.888   8.921  1.5567  0.6359 -0.1403
 1062SOL    HW214820   0.211   0.870   8.779 -2.1555 -0.1128  0.5566
 1063SOL     OW14821   4.141   1.395  13.884  0.1971  0.3344 -0.3769
 1063SOL    HW114822   4.192   1.407  13.804 -1.0575  1.0302 -1.0775
 1063SOL    HW214823   4.155   1.475  13.934 -0.5721  0.5467 -0.4958
 1064SOL     OW14824   2.116   0.006   3.361  0.3969 -0.3945 -0.0256
 1064SOL    HW114825   2.184   0.060   3.401 -0.2500 -0.3059  0.9806
 1064SOL    HW214826   2.089   0.066   3.292 -3.6022 -1.0417  0.9903
 1065SOL     OW14827   1.386   0.510   4.392 -0.1719  0.2100 -0.2250
 1065SOL    HW114828   1.450   0.483   4.458  0.9261  2.5766 -0.3391
 1065SOL    HW214829   1.439   0.478   4.319  0.6005  2.3070 -0.5748
 1066SOL     OW14830   4.134   4.353   9.578  0.2354 -0.4758 -0.3399
 1066SOL    HW114831   4.047   4.317   9.597  0.8393 -2.0829 -0.5910
 1066SOL    HW214832   4.183   4.287   9.627 -0.5164  1.1431  2.5900
 1067SOL     OW14833   2.305   2.176   7.323  0.2823 -0.6014 -0.4368
 1067SOL    HW114834   2.254   2.125   7.260  0.6803 -1.7249  0.1509
 1067SOL    HW214835   2.339   2.105   7.378 -1.0480 -2.6503 -2.2999
 1068SOL     OW14836   1.356   3.184   5.196 -0.5595  0.3948 -0.0511
 1068SOL    HW114837   1.288   3.160   5.133 -1.1404 -2.9566  1.8620
 1068SOL    HW214838   1.368   3.105   5.249 -3.6285  1.1228  1.7397
 1069SOL     OW14839   1.798   1.495  13.858 -0.2815 -0.4630 -0.0436
 1069SOL    HW114840   1.891   1.473  13.868 -0.3881 -0.1588  1.6857
 1069SOL    HW214841   1.780   1.465  13.770  0.9286 -0.8988 -0.1502
 1070SOL     OW14842   0.411   4.719  13.463 -0.2282 -0.5240  0.8432
 1070SOL    HW114843   0.391   4.689  13.551 -0.8456 -0.2111  0.8113
 1070SOL    HW214844   0.475   0.048  13.485  0.3706 -1.2846  1.4269
 1071SOL     OW14845   1.243   1.504   5.118  0.1100 -0.2403  0.1046
 1071SOL    HW114846   1.254   1.448   5.041  0.6071  0.0865 -0.0549
 1071SOL    HW214847   1.163   1.466   5.155  0.3381 -1.2317 -0.4187
 1072SOL     OW14848   4.672   2.268   4.908 -0.6673  0.0893  0.1268
 1072SOL    HW114849   4.624   2.341   4.946  0.8997  0.0384  2.2409
 1072SOL    HW214850   4.642   2.197   4.965  0.2949 -0.7252 -0.3714
 1073SOL     OW14851   3.085   3.455   6.988 -0.0880  0.3499 -0.1717
 1073SOL    HW114852   3.087   3.362   7.012 -1.0541  0.3644 -0.0063
 1073SOL    HW214853   3.164   3.460   6.935 -0.5300 -1.0212 -0.9836
 1074SOL     OW14854   2.593   2.870   1.188  0.1815  0.6147  0.6749
 1074SOL    HW114855   2.639   2.885   1.105 -0.8886  0.3431  0.0242
 1074SOL    HW214856   2.580   2.961   1.215 -1.9920 -0.2398  2.4847
 1075SOL     OW14857   0.109   0.760   7.685  0.7424 -0.1538 -0.3081
 1075SOL    HW114858   0.154   0.771   7.601  2.3309  1.3798  0.7487
 1075SOL    HW214859   0.040   0.701   7.654 -0.0597  0.0738  1.0186
 1076SOL     OW14860   3.203   1.036  17.433 -0.0726  0.0733  0.5817
 1076SOL    HW114861   3.137   1.105  17.422  0.5164  0.0452 -3.1213
 1076SOL    HW214862   3.278   1.089  17.459  0.4998 -0.5223  0.1543
 1077SOL     OW14863   3.448   0.121  11.406  0.2420  0.0091 -0.0052
 1077SOL    HW114864   3.391   0.078  11.470  0.2232  0.9933  0.6530
 1077SOL    HW214865   3.509   0.051  11.384  1.1038  0.8768 -0.3399
 1078SOL     OW14866   1.785   1.957  13.502 -0.8060 -0.6956  0.0746
 1078SOL    HW114867   1.794   1.928  13.411  0.0649 -1.1639  0.3107
 1078SOL    HW214868   1.804   1.878  13.553  1.2621  0.4893  1.1519
 1079SOL     OW14869   3.536   0.552  14.518  0.0937 -0.0088 -0.2723
 1079SOL    HW114870   3.614   0.524  14.470  0.1592  1.3719 -0.9685
 1079SOL    HW214871   3.528   0.473  14.572  3.6926 -0.2640 -0.1570
 1080SOL     OW14872   4.212   2.943   1.771  0.0531  0.1581  0.5043
 1080SOL    HW114873   4.175   2.924   1.857 -0.3829  0.8224  0.4609
 1080SOL    HW214874   4.246   3.032   1.773  0.0098  0.1732  0.5689
 1081SOL     OW14875   4.612   4.607   5.064 -0.0690 -0.8478 -1.1373
 1081SOL    HW114876   4.569   4.671   5.008 -0.7505 -0.7215 -0.4630
 1081SOL    HW214877   4.552   4.605   5.139  0.2827  2.2696 -0.7701
 1082SOL     OW14878   1.453   0.320   5.626  0.0410 -0.1578 -0.6070
 1082SOL    HW114879   1.508   0.395   5.651  2.0614 -2.5198  1.9929
 1082SOL    HW214880   1.416   0.368   5.552  1.1611  2.0694  0.2555
 1083SOL     OW14881   3.450   4.141   3.528  0.6871 -0.3877  0.3468
 1083SOL    HW114882   3.409   4.056   3.513  0.4284 -0.1952 -0.0260
 1083SOL    HW214883   3.529   4.137   3.474 -0.8020  1.3181 -1.9625
 1084SOL     OW14884   0.656   3.507   1.338 -0.0346  0.4332 -0.5537
 1084SOL    HW114885   0.636   3.443   1.406 -0.0353  0.0002 -0.9593
 1084SOL    HW214886   0.717   3.454   1.286  0.5589  1.0388 -0.4794
 1085SOL     OW14887   0.284   1.904  13.196 -0.0948 -0.4516  0.1932
 1085SOL    HW114888   0.277   1.825  13.249 -2.9586  0.3227  0.9437
 1085SOL    HW214889   0.231   1.964  13.248 -2.7216 -2.6906  0.0723
 1086SOL     OW14890   1.022   0.027   4.975  0.5013  0.2001  0.3374
 1086SOL    HW114891   1.103   0.033   5.026 -1.2191 -0.5693  3.1023
 1086SOL    HW214892   1.026   0.090   4.902  0.3844 -1.1375 -0.8340
 1087SOL     OW14893   3.786   4.383   1.260  0.1049 -0.0520 -0.4318
 1087SOL    HW114894   3.834   4.415   1.336 -0.0351 -0.3447 -0.2195
 1087SOL    HW214895   3.859   4.371   1.199  0.4256 -1.4994  0.2213
 1088SOL     OW14896   2.233   1.722   3.539 -0.1119  0.2356  0.2089
 1088SOL    HW114897   2.146   1.756   3.520 -0.4978 -0.3523  0.9450
 1088SOL    HW214898   2.209   1.630   3.537 -0.2294  0.2252  2.2269
 1089SOL     OW14899   1.237   0.043  11.497 -0.1640 -0.6960  0.3145
 1089SOL    HW114900   1.187   0.010  11.422 -3.4213  0.8319  1.7795
 1089SOL    HW214901   1.299   0.105  11.459 -2.8442  1.0635 -1.2229
 1090SOL     OW14902   4.336   3.414   3.290  0.3952 -0.1754 -0.2981
 1090SOL    HW114903   4.272   3.486   3.286 -0.8060 -1.3403 -1.9229
 1090SOL    HW214904   4.412   3.471   3.276  0.2126 -0.0835 -0.9493
 1091SOL     OW14905   1.026   2.916   5.329  0.0217 -0.2447  0.3571
 1091SOL    HW114906   0.986   2.926   5.243  1.3371  2.1982  0.0217
 1091SOL    HW214907   1.046   3.007   5.351 -1.7911  0.9894 -2.9860
 1092SOL     OW14908   4.296   4.523  10.706  0.3385  0.7319  0.1270
 1092SOL    HW114909   4.288   4.604  10.655 -0.8458 -0.3754 -1.4402
 1092SOL    HW214910   4.373   4.479  10.670 -1.2760 -2.2958  0.3448
 1093SOL     OW14911   3.985   0.783  15.139  0.2645  0.0257 -0.0087
 1093SOL    HW114912   3.998   0.877  15.139 -0.6505  0.1507  1.1632
 1093SOL    HW214913   3.927   0.763  15.212  0.7504 -1.0045  0.1000
 1094SOL     OW14914   1.947   4.656  13.560 -0.4208 -0.0254 -0.3681
 1094SOL    HW114915   1.914   4.567  13.571  0.6597 -0.1567  1.7777
 1094SOL    HW214916   2.038   4.637  13.537 -0.4835  0.3576 -0.9279
 1095SOL     OW14917   3.385   0.271  17.422  0.1593  0.2954  0.8230
 1095SOL    HW114918   3.296   0.304  17.436  0.0540  0.2239  0.2984
 1095SOL    HW214919   3.419   0.352  17.385 -1.3134  0.7672  0.4897
 1096SOL     OW14920   4.333   2.401   8.886 -0.1211 -0.1078  0.5738
 1096SOL    HW114921   4.266   2.397   8.954 -1.6394 -3.4078 -1.0800
 1096SOL    HW214922   4.281   2.402   8.805  0.6345 -0.9778  0.0703
 1097SOL     OW14923   1.210   0.849   5.960  0.5770 -0.1322  0.7250
 1097SOL    HW114924   1.272   0.876   6.028  0.0554 -0.9533  1.5261
 1097SOL    HW214925   1.196   0.756   5.974 -0.0990  0.0554  1.2850
 1098SOL     OW14926   2.342   1.042   5.339 -0.2980  0.1157  0.4371
 1098SOL    HW114927   2.346   0.955   5.299 -1.2041  1.4915 -2.7287
 1098SOL    HW214928   2.356   1.023   5.431 -0.2384  0.6301  0.5298
 1099SOL     OW14929   2.968   4.050   0.454 -0.4214 -0.6507  0.2597
 1099SOL    HW114930   2.894   4.108   0.439  0.6459  0.8945  0.9857
 1099SOL    HW214931   2.933   3.962   0.471 -2.5592  0.2535  0.4997
 1100SOL     OW14932   1.010   2.594  12.831 -0.4925  0.6431  0.0900
 1100SOL    HW114933   1.098   2.592  12.870 -0.0390 -0.6751 -1.0102
 1100SOL    HW214934   1.019   2.547  12.748  2.7902  0.5059  0.5073
 1101SOL     OW14935   1.587   1.072   3.593 -0.2464 -0.3385 -0.5502
 1101SOL    HW114936   1.498   1.038   3.595  0.2795 -1.7171 -1.2479
 1101SOL    HW214937   1.608   1.075   3.499 -0.3027  0.5716 -0.5350
 1102SOL     OW14938   3.311   3.228  14.818  0.1908  0.2493  0.2219
 1102SOL    HW114939   3.346   3.313  14.790  1.8959 -0.6890 -0.5262
 1102SOL    HW214940   3.330   3.179  14.738  0.5452  0.8883 -0.0900
 1103SOL     OW14941   3.813   1.616   4.637 -0.1198 -0.2284  0.3998
 1103SOL    HW114942   3.745   1.682   4.625  0.7187  0.1049 -2.7093
 1103SOL    HW214943   3.777   1.555   4.701  0.6936 -0.9646  0.1562
 1104SOL     OW14944   1.417   3.734  14.969 -0.2750 -0.0324  0.0542
 1104SOL    HW114945   1.382   3.804  15.025 -0.4765 -1.0051  1.1397
 1104SOL    HW214946   1.359   3.752  14.895  0.5171 -1.8821 -0.9959
 1105SOL     OW14947   4.498   3.640   3.241 -0.1410 -0.3476 -0.1212
 1105SOL    HW114948   4.570   3.669   3.297 -0.8189 -0.1388  0.6387
 1105SOL    HW214949   4.510   3.690   3.161 -0.3762 -1.3110 -0.7539
 1106SOL     OW14950   4.587   1.039  14.669 -0.2411 -0.1121 -0.2332
 1106SOL    HW114951   4.582   0.992  14.752  0.3974  0.6850  0.2592
 1106SOL    HW214952   4.500   1.022  14.632  0.4122 -1.1156 -1.3239
 1107SOL     OW14953   1.494   0.504   3.172  0.3798  0.1287  0.2403
 1107SOL    HW114954   1.502   0.436   3.239  0.7826 -0.0602 -0.0014
 1107SOL    HW214955   1.412   0.543   3.203  0.2891 -0.1219  0.3140
 1108SOL     OW14956   1.587   2.797   5.596  0.0756 -0.2658  0.4056
 1108SOL    HW114957   1.538   2.843   5.664 -0.3934 -1.2568  0.7442
 1108SOL    HW214958   1.650   2.753   5.653 -0.0207 -1.1807 -0.1852
 1109SOL     OW14959   3.864   0.456  14.773 -0.0671  0.1788 -0.2862
 1109SOL    HW114960   3.914   0.533  14.800  1.3955 -0.8575 -0.0394
 1109SOL    HW214961   3.786   0.460  14.829  0.9442  2.8082  0.9173
 1110SOL     OW14962   3.537   4.536   5.998  0.0776 -0.1618 -0.1633
 1110SOL    HW114963   3.610   4.548   5.937  0.5393  0.4270  0.5161
 1110SOL    HW214964   3.583   4.512   6.078 -1.1618 -1.6176  0.1054
 1111SOL     OW14965   3.156   1.103   1.750 -0.2916 -0.5360  0.5260
 1111SOL    HW114966   3.193   1.079   1.835  2.0582 -0.2602 -0.4235
 1111SOL    HW214967   3.204   1.049   1.687  0.5093  1.2780 -0.4279
 1112SOL     OW14968   4.151   2.821   9.345 -0.2110  0.8993  0.1615
 1112SOL    HW114969   4.242   2.832   9.316  1.0591 -1.6689  3.2507
 1112SOL    HW214970   4.101   2.856   9.271 -0.8915 -1.0395 -0.2863
 1113SOL     OW14971   2.623   0.241   9.701 -0.0366 -0.0412  0.4780
 1113SOL    HW114972   2.664   0.162   9.665  1.6419  0.6818  0.8220
 1113SOL    HW214973   2.569   0.200   9.768  0.2016  0.9425  1.2732
 1114SOL     OW14974   1.035   2.341   9.487  0.0865  0.2802 -0.1044
 1114SOL    HW114975   1.041   2.346   9.582  1.1754  1.3372 -0.2412
 1114SOL    HW214976   1.113   2.289   9.466 -0.7103  0.0918 -2.6143
 1115SOL     OW14977   0.560   2.831   9.573 -0.2396  0.1200 -0.3659
 1115SOL    HW114978   0.473   2.791   9.571 -0.9057  1.6279 -1.5631
 1115SOL    HW214979   0.532   2.903   9.630 -0.4957 -0.9463  0.8541
 1116SOL     OW14980   2.030   1.385   2.668 -0.5184 -0.2784 -0.3455
 1116SOL    HW114981   1.962   1.451   2.651  0.2322  0.3678 -0.7950
 1116SOL    HW214982   2.108   1.433   2.694 -0.0788 -1.1547 -0.0735
 1117SOL     OW14983   2.929   1.896   7.741 -0.8928 -0.5365  0.2429
 1117SOL    HW114984   2.970   1.928   7.660 -0.5806 -0.4350  0.4430
 1117SOL    HW214985   2.853   1.953   7.750  1.0453  2.1048  0.1614
 1118SOL     OW14986   0.148   1.730   3.554  0.0896 -0.2908  0.3767
 1118SOL    HW114987   0.183   1.785   3.484  0.5423 -0.5052  0.4349
 1118SOL    HW214988   0.226   1.678   3.572  1.1632  1.6222  1.3118
 1119SOL     OW14989   0.030   3.429  15.321  0.4108  0.2713  0.0890
 1119SOL    HW114990   0.118   3.442  15.357  1.1818 -0.5889 -1.4497
 1119SOL    HW214991   0.043   3.456  15.230  3.8574 -0.9501  0.2194
 1120SOL     OW14992   2.896   0.616   8.843 -0.2547 -0.0840 -0.3913
 1120SOL    HW114993   2.872   0.702   8.875 -0.0902  0.0012 -0.4988
 1120SOL    HW214994   2.978   0.597   8.887 -1.2229  0.2714  1.5445
 1121SOL     OW14995   2.952   1.981   9.661  0.3558  0.0791 -0.1923
 1121SOL    HW114996   2.906   2.050   9.613 -1.1388  0.9740  2.5538
 1121SOL    HW214997   3.035   2.023   9.684  0.9479 -0.8846 -0.6018
 1122SOL     OW14998   3.223   0.136  16.123  0.0797 -0.0027  0.6932
 1122SOL    HW114999   3.275   0.108  16.198 -1.2868  0.5870  1.8706
 1122SOL    HW215000   3.246   0.069  16.059  0.2495 -1.1715  1.9617
 1123SOL     OW15001   3.668   1.410   9.476  0.1384  0.0183  0.0637
 1123SOL    HW115002   3.707   1.369   9.399  1.8245 -0.4094  1.1381
 1123SOL    HW215003   3.681   1.341   9.542  0.6059 -0.3046 -0.3706
 1124SOL     OW15004   2.918   1.835   4.940 -0.4305  0.2389 -0.3050
 1124SOL    HW115005   2.955   1.885   5.012 -1.4101 -2.5470  2.1197
 1124SOL    HW215006   2.997   1.800   4.900  1.2134  2.7431  0.7995
 1125SOL     OW15007   1.012   3.055   9.624 -0.3616  0.3722 -0.6734
 1125SOL    HW115008   1.047   3.141   9.602  2.0528 -0.6706 -0.8263
 1125SOL    HW215009   1.003   3.073   9.718  2.7134 -0.9166 -0.1444
 1126SOL     OW15010   0.255   4.529   8.317  0.1718  0.0305 -0.8354
 1126SOL    HW115011   0.195   4.593   8.356  1.8537  1.4102 -0.5029
 1126SOL    HW215012   0.201   4.452   8.336  0.1152  0.7563  1.9559
 1127SOL     OW15013   3.641   1.430   2.894 -0.2219  0.5122 -0.4926
 1127SOL    HW115014   3.712   1.429   2.958 -0.1860 -3.9388 -0.5673
 1127SOL    HW215015   3.622   1.336   2.895  1.8161  0.1007  0.5771
 1128SOL     OW15016   4.330   3.208   6.702  0.2004  0.2556 -0.1796
 1128SOL    HW115017   4.405   3.216   6.761  0.1195  0.9223 -0.1658
 1128SOL    HW215018   4.363   3.254   6.624  0.2721  1.4592  0.5590
 1129SOL     OW15019   3.308   0.148   3.124 -0.4470 -0.6281 -0.4655
 1129SOL    HW115020   3.375   0.206   3.088 -0.4870 -1.1388 -1.3410
 1129SOL    HW215021   3.365   0.095   3.180 -1.9269 -1.6548  0.0756
 1130SOL     OW15022   0.292   1.457   9.727  0.3923  0.2678  0.2644
 1130SOL    HW115023   0.272   1.497   9.642  1.0798 -2.7289 -1.3111
 1130SOL    HW215024   0.210   1.485   9.768 -0.6074 -2.0137 -0.2012
 1131SOL     OW15025   1.543   3.012   0.785  0.3552  0.7799  0.3092
 1131SOL    HW115026   1.521   2.922   0.808  0.4147  0.5428 -0.5780
 1131SOL    HW215027   1.539   3.013   0.689  0.4552  2.7413  0.3175
 1132SOL     OW15028   2.607   1.942   2.066  0.0911  0.2849 -0.4478
 1132SOL    HW115029   2.540   1.932   2.133 -0.5668  1.3806 -0.9303
 1132SOL    HW215030   2.555   1.942   1.985  0.7735 -1.4089 -0.8832
 1133SOL     OW15031   0.085   1.817   1.718 -0.1581  0.4063  0.4790
 1133SOL    HW115032   0.049   1.734   1.751  1.1405 -1.3733 -2.5776
 1133SOL    HW215033   0.175   1.812   1.752  0.0387  0.0327 -0.1004
 1134SOL     OW15034   1.127   3.327   4.188  0.3054 -0.1427 -0.5346
 1134SOL    HW115035   1.133   3.423   4.194  1.5637 -0.1419 -1.7227
 1134SOL    HW215036   1.033   3.313   4.190  0.3310 -0.2445 -0.0873
 1135SOL     OW15037   0.236   2.742   8.986 -0.3758 -0.2053 -0.0512
 1135SOL    HW115038   0.149   2.741   9.027 -0.0062 -2.4503  0.6745
 1135SOL    HW215039   0.285   2.772   9.063 -0.2336 -1.7553  0.4553
 1136SOL     OW15040   2.985   4.402   4.868 -0.1204 -0.4158 -0.0119
 1136SOL    HW115041   2.890   4.396   4.877 -0.2089 -1.5419 -1.6003
 1136SOL    HW215042   2.986   4.329   4.806 -2.8313  2.2040 -3.0957
 1137SOL     OW15043   3.658   3.055   5.394 -0.2885 -0.7671  0.4267
 1137SOL    HW115044   3.649   2.996   5.470 -3.0437  1.3180  1.7255
 1137SOL    HW215045   3.593   3.123   5.415  2.5105  1.7051  0.9759
 1138SOL     OW15046   0.253   1.406   1.789 -0.0081 -0.2083 -0.5047
 1138SOL    HW115047   0.162   1.437   1.785 -0.0673  0.0643  2.3676
 1138SOL    HW215048   0.245   1.312   1.808 -0.3167  0.1225  1.0527
 1139SOL     OW15049   4.445   1.864   6.451  0.4946 -0.1034  0.0086
 1139SOL    HW115050   4.488   1.943   6.485 -1.1059  1.1442 -0.8395
 1139SOL    HW215051   4.502   1.792   6.476 -0.2028 -1.4346 -2.3065
 1140SOL     OW15052   1.638   2.488   2.188 -0.7268 -0.4455  0.0314
 1140SOL    HW115053   1.671   2.405   2.223 -2.7809 -0.9694  0.7207
 1140SOL    HW215054   1.599   2.463   2.104  1.1823  1.3966 -1.3934
 1141SOL     OW15055   2.819   4.709   3.569  0.4173 -0.0954  0.1439
 1141SOL    HW115056   2.840   0.042   3.628 -1.7356  1.7573 -1.3246
 1141SOL    HW215057   2.762   4.654   3.622  0.2778  0.6701  0.7927
 1142SOL     OW15058   1.799   3.115   5.989  0.2421 -0.2908 -0.0997
 1142SOL    HW115059   1.806   3.049   5.919 -0.8155 -1.9010  1.3224
 1142SOL    HW215060   1.843   3.068   6.060 -0.9224 -0.4378  0.5232
 1143SOL     OW15061   3.477   2.421   4.793  0.0850  0.0439  0.2811
 1143SOL    HW115062   3.462   2.412   4.699  0.9842  1.4844  0.0011
 1143SOL    HW215063   3.519   2.335   4.800 -1.2360 -0.4723  1.8135
 1144SOL     OW15064   4.586   3.339   8.586 -0.3041 -0.5553  0.3046
 1144SOL    HW115065   4.603   3.295   8.669  0.7058  1.2681  1.0399
 1144SOL    HW215066   4.606   3.272   8.520 -1.7664  0.9117 -1.6195
 1145SOL     OW15067   2.051   0.666   7.058  0.1792  0.5721  0.1901
 1145SOL    HW115068   2.086   0.742   7.011  0.6221  0.5542  0.4902
 1145SOL    HW215069   2.029   0.698   7.145 -2.1128  1.1897 -0.6243
 1146SOL     OW15070   4.391   1.377  17.339 -0.5905  0.2597  0.0606
 1146SOL    HW115071   4.322   1.316  17.366  0.1287  0.2575  1.8496
 1146SOL    HW215072   4.336   1.454  17.326 -0.7692 -0.3654 -2.8188
 1147SOL     OW15073   2.865   1.946   3.412 -0.0948  0.3554  0.4558
 1147SOL    HW115074   2.848   1.969   3.321  0.1620  1.1153  0.6018
 1147SOL    HW215075   2.799   1.994   3.462 -1.2825 -3.6171  2.6973
 1148SOL     OW15076   4.138   0.890   4.987  0.4063 -0.2586  0.0904
 1148SOL    HW115077   4.075   0.822   5.011  0.2664 -0.3809 -0.6228
 1148SOL    HW215078   4.210   0.837   4.952  1.7619  2.6050 -1.4789
 1149SOL     OW15079   3.392   3.959   1.486  0.1360  0.0480 -0.0531
 1149SOL    HW115080   3.372   3.878   1.534  2.2632  1.2670  2.9213
 1149SOL    HW215081   3.348   4.022   1.542 -0.0084 -1.8368  1.9691
 1150SOL     OW15082   4.504   4.501   5.888  0.3182  0.3619  0.2970
 1150SOL    HW115083   4.589   4.460   5.873 -0.0529  0.3698 -1.8206
 1150SOL    HW215084   4.532   4.588   5.860  0.9305  0.2658  0.6059
 1151SOL     OW15085   1.332   2.748  15.611 -0.7590 -0.3022 -0.5280
 1151SOL    HW115086   1.334   2.746  15.515 -1.6575 -0.9010 -0.5307
 1151SOL    HW215087   1.333   2.655  15.634  0.8877 -0.1685 -0.0589
 1152SOL     OW15088   1.696   4.427  10.228 -0.2155 -0.1475 -0.0752
 1152SOL    HW115089   1.772   4.368  10.225 -1.3132 -1.6569  1.7511
 1152SOL    HW215090   1.662   4.394  10.311  1.3805  1.3161  1.1733
 1153SOL     OW15091   4.479   0.426   1.763  0.2750  1.0221  0.0697
 1153SOL    HW115092   4.451   0.370   1.835  2.6275 -0.0472  0.1743
 1153SOL    HW215093   4.425   0.401   1.687 -1.0887 -0.3965  1.5069
 1154SOL     OW15094   4.398   4.431   0.487 -0.2141  0.6274 -0.3317
 1154SOL    HW115095   4.422   4.365   0.421  0.4773 -0.7585  1.3024
 1154SOL    HW215096   4.480   4.480   0.484  0.6502 -0.8875 -1.5010
 1155SOL     OW15097   4.578   3.309   3.020  0.0233 -0.2605  0.3553
 1155SOL    HW115098   4.539   3.238   2.970 -1.7803  0.6418  0.4554
 1155SOL    HW215099   4.626   3.274   3.095  2.5157  2.1256 -0.1194
 1156SOL     OW15100   1.512   2.784   4.194  0.4384  0.2085 -0.1195
 1156SOL    HW115101   1.487   2.817   4.280 -1.0659  0.8208 -0.7984
 1156SOL    HW215102   1.450   2.711   4.194 -0.8206  1.2830 -0.0861
 1157SOL     OW15103   3.306   0.333   8.931  0.2179  0.0927 -0.0429
 1157SOL    HW115104   3.389   0.303   8.894 -0.7309 -2.3911 -0.1233
 1157SOL    HW215105   3.251   0.357   8.856  0.7517 -0.0342 -0.4755
 1158SOL     OW15106   4.078   4.426   5.109 -0.3295  0.1798  0.2895
 1158SOL    HW115107   4.083   4.364   5.036  0.3863  0.7771 -0.1755
 1158SOL    HW215108   4.038   4.373   5.178 -0.5966 -0.0174 -0.0152
 1159SOL     OW15109   1.170   1.828   2.827  0.4236 -0.6592  0.0081
 1159SOL    HW115110   1.254   1.863   2.857 -0.2904  2.2004 -1.3631
 1159SOL    HW215111   1.188   1.779   2.747 -0.2192  0.5913 -0.8893
 1160SOL     OW15112   0.070   3.663   4.084  0.5228 -0.0873 -0.2291
 1160SOL    HW115113   0.015   3.599   4.129  2.4693 -2.5899 -1.4015
 1160SOL    HW215114   0.020   3.742   4.101  0.3921 -0.4420  1.0496
 1161SOL     OW15115   1.140   1.221   5.860 -0.3052 -0.6888 -0.2955
 1161SOL    HW115116   1.078   1.156   5.827 -1.4112  0.5830 -0.6715
 1161SOL    HW215117   1.095   1.253   5.938  1.0682  0.1928  0.1426
 1162SOL     OW15118   0.191   3.112   8.799  0.1435  0.1855  0.1935
 1162SOL    HW115119   0.272   3.063   8.812 -0.6612 -1.4571 -1.0148
 1162SOL    HW215120   0.159   3.076   8.716 -1.2028  1.8562 -0.0329
 1163SOL     OW15121   0.168   2.274   3.534  0.7354 -0.2171 -0.0322
 1163SOL    HW115122   0.106   2.340   3.563  1.2258 -0.1560  0.8680
 1163SOL    HW215123   0.183   2.228   3.616 -0.0873  1.1118  0.8474
 1164SOL     OW15124   0.804   3.536   1.679 -0.7897 -0.2238  0.1201
 1164SOL    HW115125   0.883   3.546   1.733 -0.9134  2.1402 -0.1622
 1164SOL    HW215126   0.845   3.511   1.596 -1.4694 -0.3255 -0.1906
 1165SOL     OW15127   0.144   3.178   5.716  0.0555 -0.6761  0.4328
 1165SOL    HW115128   0.065   3.215   5.756 -0.8304 -0.2557 -1.6545
 1165SOL    HW215129   0.109   3.117   5.651 -2.1878  2.1046 -1.0141
 1166SOL     OW15130   1.608   3.663   6.866 -0.0784 -0.1605  0.2250
 1166SOL    HW115131   1.566   3.707   6.792  2.7059  1.0856 -0.6280
 1166SOL    HW215132   1.683   3.720   6.881  0.6403 -1.3353  1.0475
 1167SOL     OW15133   3.615   3.703   2.733  0.1658  0.2116 -0.2263
 1167SOL    HW115134   3.524   3.701   2.700  0.6862  0.9493 -1.7002
 1167SOL    HW215135   3.600   3.710   2.827 -1.3212 -2.4103 -0.2577
 1168SOL     OW15136   1.505   1.148   2.064  0.1631 -0.0116  0.4037
 1168SOL    HW115137   1.482   1.136   2.157 -2.7572 -0.6545 -0.3985
 1168SOL    HW215138   1.586   1.098   2.064 -0.5764 -1.2628  2.8062
 1169SOL     OW15139   2.765   3.506  11.478 -0.6236 -0.3161  0.0778
 1169SOL    HW115140   2.733   3.477  11.564  2.8830 -1.4544  1.0128
 1169SOL    HW215141   2.689   3.480  11.425  0.9708  0.3523 -2.5075
 1170SOL     OW15142   3.678   3.288   9.221 -0.2896  0.1586  0.6028
 1170SOL    HW115143   3.610   3.232   9.259 -2.5440  1.9706 -0.7704
 1170SOL    HW215144   3.657   3.375   9.255 -3.1656  0.9831 -3.3659
 1171SOL     OW15145   1.856   3.001   5.733 -0.4866 -0.0098  0.4448
 1171SOL    HW115146   1.926   2.936   5.739 -0.1275  0.2417 -1.1102
 1171SOL    HW215147   1.845   3.009   5.639  1.5315 -0.5247  0.1587
 1172SOL     OW15148   0.845   0.215  14.876  0.9973 -0.1122 -0.4113
 1172SOL    HW115149   0.753   0.221  14.851  0.1476 -0.7239  2.6062
 1172SOL    HW215150   0.843   0.121  14.890  1.1554 -0.1128 -0.3922
 1173SOL     OW15151   0.182   4.047   4.464  0.0223 -0.4011  0.2878
 1173SOL    HW115152   0.183   4.135   4.426 -2.7663 -0.8017 -0.7433
 1173SOL    HW215153   0.087   4.052   4.477  0.0732  2.0016 -0.2108
 1174SOL     OW15154   3.752   1.547  15.402 -0.6658  0.5461  0.2278
 1174SOL    HW115155   3.839   1.508  15.394 -1.3216 -0.3909 -2.1504
 1174SOL    HW215156   3.767   1.638  15.374  2.2735  0.0907  0.3029
 1175SOL     OW15157   0.887   1.770   2.672  0.4919 -0.2275  0.1293
 1175SOL    HW115158   0.872   1.817   2.754 -2.7684 -1.2636  0.1233
 1175SOL    HW215159   0.843   1.686   2.684  1.4563 -0.7425  0.0390
 1176SOL     OW15160   4.169   2.865   7.523  0.3799 -0.4846 -0.8012
 1176SOL    HW115161   4.148   2.955   7.497 -0.4176 -0.5095 -0.2447
 1176SOL    HW215162   4.101   2.815   7.479 -0.3111  1.4539 -1.9480
 1177SOL     OW15163   4.709   0.613   6.418 -0.1649  0.0558 -0.3190
 1177SOL    HW115164   4.687   0.704   6.396 -2.0907 -0.1718  0.7262
 1177SOL    HW215165   4.737   0.587   6.330  1.2324  2.5556 -0.6178
 1178SOL     OW15166   1.946   1.883  13.209  0.1673 -0.4311  0.0915
 1178SOL    HW115167   2.007   1.875  13.283 -0.5726  0.2438  0.7868
 1178SOL    HW215168   2.001   1.925  13.143 -0.7357  0.2343 -0.2356
 1179SOL     OW15169   2.171   1.085   9.537  0.0157 -0.1976  0.0157
 1179SOL    HW115170   2.252   1.073   9.487  0.3657 -0.1598  0.5787
 1179SOL    HW215171   2.103   1.084   9.469  0.6472  3.9015 -0.6775
 1180SOL     OW15172   2.043   2.094  13.566  0.6574  0.1439 -0.3584
 1180SOL    HW115173   1.953   2.062  13.560  0.3689  0.5158  1.9374
 1180SOL    HW215174   2.047   2.182  13.603  0.6351  0.1390 -0.3449
 1181SOL     OW15175   0.046   0.239   2.577 -0.1528  0.3578  0.2161
 1181SOL    HW115176   0.120   0.284   2.619 -0.7185  1.1015  0.4125
 1181SOL    HW215177   0.061   0.253   2.484 -2.7484  0.0820 -0.2319
 1182SOL     OW15178   0.740   0.597   3.762 -0.3127  0.0589  0.1419
 1182SOL    HW115179   0.724   0.504   3.747 -2.8083  0.1791  1.9411
 1182SOL    HW215180   0.805   0.613   3.694  0.0095 -0.1343  0.4052
 1183SOL     OW15181   4.630   1.799   4.998 -0.2931 -1.0044  0.3061
 1183SOL    HW115182   4.603   1.711   4.975  0.9342 -0.8969 -1.4845
 1183SOL    HW215183   4.588   1.837   4.921  3.1419 -1.4085 -1.7510
 1184SOL     OW15184   0.908   4.244  13.342  0.6211  0.6352 -0.3198
 1184SOL    HW115185   0.989   4.201  13.372  0.3821 -1.0396 -2.1025
 1184SOL    HW215186   0.943   4.332  13.331  0.4773  0.6149 -0.9531
 1185SOL     OW15187   1.152   1.973   6.016  0.5987  0.2546 -0.3440
 1185SOL    HW115188   1.099   1.954   5.938 -1.1785  1.6284  0.5496
 1185SOL    HW215189   1.187   1.884   6.028 -0.8511 -0.3824 -0.8573
 1186SOL     OW15190   4.266   3.582   7.448  0.5416  0.0596  0.3074
 1186SOL    HW115191   4.277   3.492   7.477 -0.6005 -0.4935 -0.9812
 1186SOL    HW215192   4.305   3.577   7.361 -0.0981 -0.0483  0.0316
 1187SOL     OW15193   1.253   1.076   6.351  0.3911 -0.4885 -0.0403
 1187SOL    HW115194   1.227   1.157   6.396  1.5498  1.6872 -3.2667
 1187SOL    HW215195   1.172   1.026   6.352  0.2166 -0.2188 -1.0845
 1188SOL     OW15196   0.751   2.789  16.874 -0.9378 -0.0294 -0.2923
 1188SOL    HW115197   0.799   2.740  16.807 -0.9325 -0.6012  0.1213
 1188SOL    HW215198   0.825   2.840  16.907 -0.6638 -0.2597 -0.5438
 1189SOL     OW15199   1.736   2.094   5.843  0.1332  0.3916  0.4096
 1189SOL    HW115200   1.688   2.024   5.890  1.1745  0.9692  2.3346
 1189SOL    HW215201   1.817   2.048   5.820 -0.6602  0.2350 -1.9988
 1190SOL     OW15202   4.702   1.318   4.821 -0.0217 -0.2475  0.1038
 1190SOL    HW115203   4.638   1.297   4.753  0.4566 -0.4177 -0.2887
 1190SOL    HW215204   4.707   1.232   4.863  1.3644 -0.2472 -0.0679
 1191SOL     OW15205   1.079   4.417   5.929 -0.0937  0.2959  0.2986
 1191SOL    HW115206   0.995   4.382   5.901  0.6569 -1.8483  0.6878
 1191SOL    HW215207   1.055   4.479   5.998 -1.8195 -1.8388  1.6115
 1192SOL     OW15208   3.017   3.346   2.081  0.0984  0.5979  0.4781
 1192SOL    HW115209   3.038   3.430   2.040  0.4727 -0.7019 -1.9564
 1192SOL    HW215210   3.069   3.354   2.161 -0.5435 -1.1227  1.0747
 1193SOL     OW15211   3.441   1.367   6.863 -0.5356  0.3345  0.3222
 1193SOL    HW115212   3.407   1.306   6.929 -1.2391  0.1567 -0.1940
 1193SOL    HW215213   3.362   1.417   6.842  0.0632  0.4850 -1.6116
 1194SOL     OW15214   1.851   4.187   4.154 -0.1654  0.6719 -0.2193
 1194SOL    HW115215   1.832   4.257   4.090 -1.5441  0.7119  0.2277
 1194SOL    HW215216   1.834   4.110   4.100 -1.8679  0.9496 -0.0941
 1195SOL     OW15217   2.104   3.321   0.274 -0.5323  0.1195  0.0961
 1195SOL    HW115218   2.030   3.322   0.214  0.5414  0.4545 -1.2334
 1195SOL    HW215219   2.175   3.323   0.209 -0.8097  0.4229 -0.2005
 1196SOL     OW15220   3.586   3.018   4.035  0.7241 -0.2680 -0.2360
 1196SOL    HW115221   3.595   2.924   4.023  0.7972  0.0241 -2.4812
 1196SOL    HW215222   3.677   3.046   4.048  0.9060 -1.0428  0.1242
 1197SOL     OW15223   1.824   3.304   6.222 -0.0241  0.7000  0.1883
 1197SOL    HW115224   1.789   3.264   6.302 -0.5610 -0.4056 -0.6075
 1197SOL    HW215225   1.797   3.239   6.157  1.9229  1.2666 -1.1715
 1198SOL     OW15226   2.609   1.297   4.038 -0.2671 -0.4609  0.2729
 1198SOL    HW115227   2.585   1.318   3.948 -1.8317  1.3570  1.0982
 1198SOL    HW215228   2.578   1.376   4.084 -0.4936  0.0122 -0.6977
 1199SOL     OW15229   3.158   1.060   4.150 -0.7460 -0.2915  0.1777
 1199SOL    HW115230   3.210   1.138   4.170 -2.0167 -0.0026  2.3365
 1199SOL    HW215231   3.217   0.987   4.130  2.0812  2.3592 -1.1912
 1200SOL     OW15232   3.766   2.888   1.675  0.1287  0.5836 -0.0402
 1200SOL    HW115233   3.854   2.890   1.637  1.0404 -2.4031  1.8687
 1200SOL    HW215234   3.785   2.932   1.758  2.2205  0.3140 -0.3730
 1201SOL     OW15235   2.841   2.773   5.548  0.6952  0.7319  0.4044
 1201SOL    HW115236   2.808   2.688   5.579 -0.7786  1.3709  0.5848
 1201SOL    HW215237   2.929   2.771   5.587  0.8124 -1.2862  0.0383
 1202SOL     OW15238   1.568   4.054   2.962 -0.5903  0.8088 -0.1577
 1202SOL    HW115239   1.564   3.967   3.002 -2.1980  2.2073  2.7374
 1202SOL    HW215240   1.639   4.047   2.898  0.5495  0.5487  1.1431
 1203SOL     OW15241   0.614   0.110  17.427 -0.3370  0.1611  0.4229
 1203SOL    HW115242   0.569   0.183  17.385  0.6782 -0.4445 -1.6831
 1203SOL    HW215243   0.701   0.119  17.388 -0.9849  0.5541 -0.9151
 1204SOL     OW15244   2.095   1.091   7.947  0.2031 -0.1285 -0.6211
 1204SOL    HW115245   2.121   1.114   7.857  0.6681 -0.2555 -0.5220
 1204SOL    HW215246   2.090   0.996   7.944 -1.3657 -0.0712  0.3787
 1205SOL     OW15247   0.605   2.835   4.979 -0.1688 -0.1676  0.2659
 1205SOL    HW115248   0.639   2.745   4.980  1.0741  0.2715 -1.0974
 1205SOL    HW215249   0.523   2.829   5.027  0.0317 -1.5403  0.4484
 1206SOL     OW15250   0.629   0.421  10.680 -0.5810  0.3163  0.0556
 1206SOL    HW115251   0.572   0.344  10.676  1.5308 -1.2680  0.5546
 1206SOL    HW215252   0.680   0.391  10.756 -1.4313 -0.4332  0.3328
 1207SOL     OW15253   3.343   1.164   7.000 -0.1042  0.1202  0.5138
 1207SOL    HW115254   3.260   1.118   6.996  1.8503 -3.2988 -0.7437
 1207SOL    HW215255   3.364   1.130   7.086  0.0235  0.9618  0.8218
 1208SOL     OW15256   2.036   1.329  17.203 -0.3135 -0.0137 -0.0986
 1208SOL    HW115257   2.130   1.314  17.211  0.1509  2.8679 -0.0964
 1208SOL    HW215258   2.001   1.263  17.262 -0.9536 -1.5726 -2.1998
 1209SOL     OW15259   1.542   0.878   4.659 -0.1357  0.3632 -0.2684
 1209SOL    HW115260   1.543   0.969   4.690 -2.4724  0.2802  0.0892
 1209SOL    HW215261   1.510   0.881   4.568 -0.3431  1.1894 -0.1679
 1210SOL     OW15262   4.409   3.382   1.494 -1.0846 -0.2081 -0.4291
 1210SOL    HW115263   4.411   3.287   1.494  0.4343 -0.1857 -0.4577
 1210SOL    HW215264   4.370   3.395   1.407  0.9440  0.1749 -1.2926
 1211SOL     OW15265   0.862   1.815   6.189  0.3514  0.5732  0.1458
 1211SOL    HW115266   0.941   1.865   6.211 -0.2433  1.6732 -0.2279
 1211SOL    HW215267   0.856   1.747   6.256  3.3141 -0.6855 -0.8804
 1212SOL     OW15268   2.819   2.512   7.964 -0.4468 -0.1094  0.3993
 1212SOL    HW115269   2.759   2.570   8.012 -0.1091 -0.3864  1.1634
 1212SOL    HW215270   2.880   2.490   8.035  0.3999 -1.2667 -0.7166
 1213SOL     OW15271   0.213   2.536   5.912  0.1234  0.3050 -0.9120
 1213SOL    HW115272   0.292   2.563   5.959  0.3049 -0.7966 -0.5865
 1213SOL    HW215273   0.242   2.551   5.821 -0.7318 -1.5023 -1.4784
 1214SOL     OW15274   1.273   4.049   2.297  0.3463  0.3497 -0.0629
 1214SOL    HW115275   1.228   4.133   2.292  3.2052  1.9926  1.8383
 1214SOL    HW215276   1.215   3.991   2.249 -0.3978  2.5669 -1.8318
 1215SOL     OW15277   2.765   3.807  15.744  0.6035 -0.5771  0.0495
 1215SOL    HW115278   2.729   3.757  15.817  1.4600 -0.6539  0.4229
 1215SOL    HW215279   2.698   3.792  15.678  0.0968  2.2309 -0.0737
 1216SOL     OW15280   3.187   2.060   2.645 -0.8366  0.6152 -0.0672
 1216SOL    HW115281   3.115   2.115   2.616  1.6326  4.0705  0.4062
 1216SOL    HW215282   3.225   2.121   2.708 -0.9386 -0.0503  0.6515
 1217SOL     OW15283   1.762   1.241  10.490  0.2929  0.7617 -0.6974
 1217SOL    HW115284   1.725   1.198  10.413  3.5169 -1.4268 -1.0376
 1217SOL    HW215285   1.697   1.212  10.555  0.1187  1.9002 -0.3605
 1218SOL     OW15286   2.685   3.635   8.129  0.2311  0.0598  0.0713
 1218SOL    HW115287   2.731   3.684   8.197  0.4471  0.4517 -0.3501
 1218SOL    HW215288   2.712   3.550   8.163  2.1970  0.1272 -1.2720
 1219SOL     OW15289   3.730   2.709  10.744  0.0699  0.3229 -0.0911
 1219SOL    HW115290   3.653   2.653  10.737 -0.4037  0.7908  1.3433
 1219SOL    HW215291   3.690   2.796  10.736  1.6455  1.2589  2.0679
 1220SOL     OW15292   4.738   0.932   2.164 -0.3842  0.4315  0.1669
 1220SOL    HW115293   4.655   0.895   2.133 -0.6994  1.8507 -0.7114
 1220SOL    HW215294   0.017   0.989   2.089  0.9671  0.8222  0.7927
 1221SOL     OW15295   4.183   0.184   6.349 -0.3534 -0.2141  1.1341
 1221SOL    HW115296   4.134   0.233   6.416  0.7162  0.4811  1.4091
 1221SOL    HW215297   4.215   0.111   6.403 -1.6192 -1.9599 -0.4869
 1222SOL     OW15298   1.588   0.882   8.964 -0.0733  0.2481  0.1786
 1222SOL    HW115299   1.668   0.867   9.014  0.5440 -0.1427 -0.9275
 1222SOL    HW215300   1.525   0.826   9.011  1.3622 -1.6156 -0.1449
 1223SOL     OW15301   2.635   3.087   4.959 -0.1772  0.2044  0.3554
 1223SOL    HW115302   2.620   3.152   5.027  1.7260  0.8761  0.1411
 1223SOL    HW215303   2.558   3.092   4.902 -0.3214 -1.0984  0.4286
 1224SOL     OW15304   3.719   4.529   7.556  0.3444 -0.0964  0.5089
 1224SOL    HW115305   3.780   4.488   7.617 -1.4521 -1.6116  1.2552
 1224SOL    HW215306   3.646   4.554   7.613  0.6517  0.7846  0.5160
 1225SOL     OW15307   3.642   2.619   4.838 -0.7637  0.0621  0.3060
 1225SOL    HW115308   3.682   2.543   4.880 -0.1983  1.2859  1.9827
 1225SOL    HW215309   3.574   2.575   4.788 -0.8702 -0.3321  0.8061
 1226SOL     OW15310   3.678   1.632  17.329  0.1056  0.2769 -0.4964
 1226SOL    HW115311   3.636   1.564  17.277 -0.7079  0.8432 -0.5894
 1226SOL    HW215312   3.666   1.600  17.419 -1.4279  2.2162 -0.0128
 1227SOL     OW15313   0.672   0.441   4.490  0.1130  0.3721  0.5341
 1227SOL    HW115314   0.752   0.391   4.473  0.6389  1.0114  1.1334
 1227SOL    HW215315   0.694   0.526   4.451 -0.1649  0.1492 -0.1143
 1228SOL     OW15316   2.709   4.404   4.920 -0.1325  0.5595 -0.0403
 1228SOL    HW115317   2.651   4.355   4.862  0.5242  1.1470 -1.2009
 1228SOL    HW215318   2.671   4.490   4.903 -1.1911  0.1630  0.3186
 1229SOL     OW15319   3.853   1.190  17.553 -0.0176  1.0386  0.2301
 1229SOL    HW115320   3.936   1.216  17.593 -0.1730 -0.1093  1.2885
 1229SOL    HW215321   3.836   1.112  17.604 -0.3906  1.6292  1.0111
 1230SOL     OW15322   2.437   4.631  12.740 -0.1912  0.0389 -0.2642
 1230SOL    HW115323   2.481   4.703  12.785 -0.4954  0.5804 -0.8283
 1230SOL    HW215324   2.391   4.583  12.809  3.8820 -1.1195  1.6582
 1231SOL     OW15325   3.518   2.633   7.711 -0.2267  0.0230  0.7135
 1231SOL    HW115326   3.601   2.676   7.730  0.0742 -0.6430  0.9111
 1231SOL    HW215327   3.464   2.709   7.690 -1.7558 -1.6457 -1.3725
 1232SOL     OW15328   2.509   0.768   4.469  0.0965  0.3668  0.2685
 1232SOL    HW115329   2.500   0.805   4.381  0.2516  0.9705  0.5079
 1232SOL    HW215330   2.484   0.846   4.519  0.0063  0.1386  0.5759
 1233SOL     OW15331   3.467   4.410   8.539 -0.4103 -0.4614 -0.3979
 1233SOL    HW115332   3.474   4.354   8.462 -0.5447  0.4390 -1.0670
 1233SOL    HW215333   3.372   4.425   8.543 -0.1218  1.6980 -1.5100
 1234SOL     OW15334   4.599   3.954  14.781 -0.0616 -0.1972 -0.1839
 1234SOL    HW115335   4.643   3.891  14.838 -1.7342 -2.5979 -1.5351
 1234SOL    HW215336   4.514   3.961  14.825 -0.0086  1.2754 -0.3018
 1235SOL     OW15337   1.256   1.192   7.062  0.6027 -0.4339  0.2391
 1235SOL    HW115338   1.186   1.132   7.036 -1.2750  1.2117  1.4746
 1235SOL    HW215339   1.217   1.280   7.059 -0.9335 -1.1917 -1.4680
 1236SOL     OW15340   4.514   1.492  17.024 -0.2288 -0.2938  0.3235
 1236SOL    HW115341   4.512   1.554  16.952 -3.2147  1.4561  1.9221
 1236SOL    HW215342   4.504   1.405  16.984  0.9583 -0.4719  0.4164
 1237SOL     OW15343   0.885   0.738   0.310 -0.7540  0.2118  0.6037
 1237SOL    HW115344   0.843   0.665   0.357  0.9487 -1.1600  0.0421
 1237SOL    HW215345   0.980   0.724   0.308 -0.7930 -0.4079  2.3615
 1238SOL     OW15346   0.291   1.746   0.523  0.2439 -0.6398 -0.3813
 1238SOL    HW115347   0.298   1.827   0.472 -1.1404 -0.7176 -0.7161
 1238SOL    HW215348   0.384   1.724   0.529  0.1258 -2.0387 -3.5715
 1239SOL     OW15349   1.232   3.652   5.596 -0.0799 -0.4530  0.2450
 1239SOL    HW115350   1.167   3.681   5.660 -0.7876  0.1075 -0.7189
 1239SOL    HW215351   1.204   3.562   5.576  0.2840 -0.9030  1.7833
 1240SOL     OW15352   0.190   1.882   4.014  0.5006  0.1755 -0.0147
 1240SOL    HW115353   0.135   1.894   3.937 -0.1583  1.7818  0.6973
 1240SOL    HW215354   0.225   1.971   4.022 -1.9159  1.0163  1.2108
 1241SOL     OW15355   4.473   0.458   7.472  0.2186 -0.3096  0.0991
 1241SOL    HW115356   4.385   0.425   7.453 -0.4452  0.9731  0.9756
 1241SOL    HW215357   4.519   0.449   7.388  1.3997  2.5503  0.4371
 1242SOL     OW15358   2.166   3.494   6.383  0.0797  0.2623  0.5550
 1242SOL    HW115359   2.082   3.539   6.393 -0.3118 -0.3576  0.0650
 1242SOL    HW215360   2.140   3.412   6.341 -0.6308  0.7321  0.0720
 1243SOL     OW15361   1.203   1.492   2.978 -0.7022 -0.2957 -0.0806
 1243SOL    HW115362   1.205   1.471   2.885  0.0475 -0.2417 -0.0775
 1243SOL    HW215363   1.124   1.546   2.976 -0.2692  0.3507  0.2786
 1244SOL     OW15364   0.951   1.655   7.113 -0.1131 -0.6695 -0.6041
 1244SOL    HW115365   0.949   1.712   7.190  0.3275 -0.6222 -0.6322
 1244SOL    HW215366   0.888   1.587   7.137 -0.0813  0.2680  2.1293
 1245SOL     OW15367   1.531   1.465   8.405 -0.1480 -0.2873 -0.6090
 1245SOL    HW115368   1.471   1.526   8.447  1.7744  1.2925 -0.1414
 1245SOL    HW215369   1.600   1.522   8.372  0.9227 -0.8809  0.5616
 1246SOL     OW15370   0.921   2.223   7.426  0.4983 -0.0316 -0.1091
 1246SOL    HW115371   0.916   2.249   7.334 -1.5946  0.3388  0.1200
 1246SOL    HW215372   0.831   2.211   7.455 -0.2838  1.1621 -1.9778
 1247SOL     OW15373   1.346   3.963   4.049 -0.2591 -0.0835 -0.2138
 1247SOL    HW115374   1.381   3.962   4.138  1.6600  0.7921 -0.9772
 1247SOL    HW215375   1.428   3.958   4.001  0.3192  1.8753  0.5904
 1248SOL     OW15376   1.960   1.161   4.643  0.1461  0.1523  0.0950
 1248SOL    HW115377   1.937   1.147   4.551  2.1971 -0.5829 -0.2982
 1248SOL    HW215378   1.950   1.073   4.680 -1.5743  0.7238  1.0273
 1249SOL     OW15379   1.457   4.544   4.985 -0.1325  0.3406 -0.7715
 1249SOL    HW115380   1.516   4.542   5.061  0.7811 -0.8242 -1.5141
 1249SOL    HW215381   1.484   4.631   4.953 -2.4116  0.6846 -1.7670
 1250SOL     OW15382   1.413   0.892   6.817  0.0602  0.5790  0.1939
 1250SOL    HW115383   1.411   0.903   6.912  1.0856 -0.9682  0.3781
 1250SOL    HW215384   1.370   0.809   6.798 -1.5534  2.1555 -3.0684
 1251SOL     OW15385   0.572   3.150  15.911  0.2290  0.4631  0.1034
 1251SOL    HW115386   0.642   3.094  15.943 -0.3418 -0.3071  0.0088
 1251SOL    HW215387   0.496   3.127  15.965 -0.4109  2.6241  0.1457
 1252SOL     OW15388   0.202   1.845  17.258 -0.1061 -0.5284  0.0841
 1252SOL    HW115389   0.135   1.785  17.292  0.0720 -0.6282  0.2609
 1252SOL    HW215390   0.192   1.822  17.166  0.3170 -4.1923  0.9548
 1253SOL     OW15391   3.831   4.330  14.903 -0.7935  0.2997  0.2052
 1253SOL    HW115392   3.846   4.375  14.820  0.2838  0.4601  0.4797
 1253SOL    HW215393   3.742   4.297  14.896 -0.8420 -0.0414  2.2412
 1254SOL     OW15394   2.566   3.383   1.379 -0.2793 -0.1945  0.0186
 1254SOL    HW115395   2.517   3.463   1.397  2.1521  1.0807  0.9170
 1254SOL    HW215396   2.652   3.413   1.410 -0.8516  0.5936  0.8293
 1255SOL     OW15397   3.606   3.373   8.668  0.2543 -0.1091  0.1691
 1255SOL    HW115398   3.570   3.297   8.714 -0.8486 -0.8458 -1.8972
 1255SOL    HW215399   3.628   3.427   8.744  0.2560 -0.0426  0.1212
 1256SOL     OW15400   0.024   3.968   2.730 -0.5489  0.0877 -0.2572
 1256SOL    HW115401   0.001   3.903   2.797  0.7446  1.5279  1.5825
 1256SOL    HW215402   0.022   3.918   2.649  3.8711 -0.5460 -0.0290
 1257SOL     OW15403   2.815   2.321   9.185  0.6572 -0.1798 -0.0709
 1257SOL    HW115404   2.805   2.232   9.218  2.0357 -0.1786  0.3578
 1257SOL    HW215405   2.854   2.370   9.257  1.2579  0.1338 -0.6176
 1258SOL     OW15406   2.638   0.362   8.694  0.0549  0.2591 -0.8430
 1258SOL    HW115407   2.651   0.277   8.651 -0.1920  0.6811 -1.7456
 1258SOL    HW215408   2.562   0.346   8.751 -0.3537 -0.0465 -1.4758
 1259SOL     OW15409   1.615   0.654   8.639  0.4652 -0.5737 -0.1520
 1259SOL    HW115410   1.555   0.703   8.582  1.7018 -0.0661 -0.9987
 1259SOL    HW215411   1.689   0.712   8.652 -1.5936  2.5102 -2.1609
 1260SOL     OW15412   4.364   0.461   3.499  0.2423 -0.3649  0.3712
 1260SOL    HW115413   4.393   0.386   3.551  3.1021  1.1357  0.9458
 1260SOL    HW215414   4.449   0.503   3.483 -0.9000  1.4387 -0.8664
 1261SOL     OW15415   4.729   2.721  14.418 -0.2366  0.0637  0.1532
 1261SOL    HW115416   0.000   2.705  14.324 -0.4085 -3.5880  0.7641
 1261SOL    HW215417   4.656   2.782  14.412  0.1086  0.6951  2.3332
 1262SOL     OW15418   3.153   0.596   7.155 -0.4555 -0.0820  0.2732
 1262SOL    HW115419   3.075   0.632   7.112  0.0918  0.3538 -0.3563
 1262SOL    HW215420   3.204   0.573   7.077  0.4658  0.8269  0.6040
 1263SOL     OW15421   0.715   3.044   4.770  0.3914  0.1087 -1.1214
 1263SOL    HW115422   0.695   3.128   4.811  0.1959 -0.8889  0.8201
 1263SOL    HW215423   0.705   2.985   4.844 -0.4916  1.0995 -0.4623
 1264SOL     OW15424   3.244   1.356   0.484  0.5131 -0.0189  0.4585
 1264SOL    HW115425   3.238   1.282   0.424  0.1934  0.9226 -0.6758
 1264SOL    HW215426   3.319   1.409   0.457  0.3219 -0.4183 -0.8387
 1265SOL     OW15427   1.456   0.206  11.459 -0.1731  0.4823 -0.6299
 1265SOL    HW115428   1.502   0.212  11.375  1.7310 -0.5400  0.3208
 1265SOL    HW215429   1.493   0.273  11.516 -0.2999  0.4676 -0.5302
 1266SOL     OW15430   0.710   4.034   2.746  0.3706  0.4268  0.3379
 1266SOL    HW115431   0.651   4.066   2.678  0.1744 -1.5437 -0.4294
 1266SOL    HW215432   0.749   4.119   2.768 -0.5374  0.3878  2.1290
 1267SOL     OW15433   0.704   0.613   3.300  0.4132  0.0153  0.5310
 1267SOL    HW115434   0.763   0.632   3.227 -1.8261  0.0240 -1.2835
 1267SOL    HW215435   0.718   0.519   3.289 -0.0168  0.1496 -1.2312
 1268SOL     OW15436   4.004   4.668   0.578  0.2155 -0.0847 -1.1571
 1268SOL    HW115437   3.929   4.629   0.534  0.8837 -2.1003 -0.5004
 1268SOL    HW215438   4.069   4.598   0.577 -0.9448 -1.1692  1.2091
 1269SOL     OW15439   0.342   2.982   2.544  0.1767  0.2753  0.6466
 1269SOL    HW115440   0.344   3.017   2.455  0.4912  0.4485  0.7221
 1269SOL    HW215441   0.274   3.037   2.584 -1.9838 -0.8969 -1.3975
 1270SOL     OW15442   4.334   3.328   8.941 -0.1550 -0.1250  0.3098
 1270SOL    HW115443   4.411   3.341   8.996  1.0488  0.6765 -1.5478
 1270SOL    HW215444   4.344   3.236   8.919  3.7702  0.1517  0.9545
 1271SOL     OW15445   1.015   4.328   4.462 -0.2317 -0.0882  0.4797
 1271SOL    HW115446   1.091   4.351   4.409 -0.3361 -1.8400 -0.4384
 1271SOL    HW215447   1.044   4.244   4.498 -0.8796 -0.7441 -0.5437
 1272SOL     OW15448   3.630   2.625   8.567 -0.3021  0.3150 -0.2249
 1272SOL    HW115449   3.717   2.619   8.607 -0.1847 -0.5057 -0.5953
 1272SOL    HW215450   3.572   2.634   8.642  0.6430  0.3808  0.5034
 1273SOL     OW15451   3.375   3.666   6.627 -0.4231 -0.3117  0.2108
 1273SOL    HW115452   3.452   3.632   6.673 -0.0793  0.3977  0.1581
 1273SOL    HW215453   3.356   3.738   6.686 -0.3834 -1.6209  1.8079
 1274SOL     OW15454   4.340   4.654   5.645  0.1046 -0.6801 -0.0391
 1274SOL    HW115455   4.414   4.698   5.687 -0.7111 -0.4300  1.1237
 1274SOL    HW215456   4.384   4.611   5.571  0.0780 -1.7451  0.5682
 1275SOL     OW15457   0.850   1.583   8.774  0.6168  0.1337 -0.0763
 1275SOL    HW115458   0.816   1.604   8.687  1.4406  1.6744 -0.0171
 1275SOL    HW215459   0.773   1.604   8.828  0.3016  2.4898 -1.4299
 1276SOL     OW15460   1.952   3.920   0.391 -0.4516  0.2365 -0.0232
 1276SOL    HW115461   1.972   3.929   0.484 -0.6566 -2.1193  0.2580
 1276SOL    HW215462   1.890   3.986   0.362  0.5737  0.6156 -1.3270
 1277SOL     OW15463   3.339   0.005   8.764 -0.6566 -0.2507  0.6504
 1277SOL    HW115464   3.376   4.661   8.794  2.5668 -1.0803 -5.6646
 1277SOL    HW215465   3.400   0.072   8.796 -0.3824 -0.9710  1.6557
 1278SOL     OW15466   2.846   4.479   1.193 -0.3375  0.0269 -0.4943
 1278SOL    HW115467   2.763   4.480   1.240 -0.5399  2.2918 -0.8802
 1278SOL    HW215468   2.813   4.474   1.103  1.3188  0.7674 -1.1496
 1279SOL     OW15469   1.369   0.722   4.798  0.5289  0.2297  0.0542
 1279SOL    HW115470   1.392   0.727   4.891 -1.1786  1.0040  0.4323
 1279SOL    HW215471   1.443   0.772   4.764  1.6366 -0.3557  1.6138
 1280SOL     OW15472   4.648   0.235   3.917  0.5772 -0.0076  0.3112
 1280SOL    HW115473   4.715   0.166   3.921  2.6074  1.9950  0.8728
 1280SOL    HW215474   4.695   0.297   3.861  0.3965 -2.4676 -2.5703
 1281SOL     OW15475   1.436   3.942   2.013 -0.1443 -0.1766 -0.3945
 1281SOL    HW115476   1.431   3.959   2.107  5.0079  2.1916 -0.4897
 1281SOL    HW215477   1.443   4.027   1.968 -2.7425 -1.0550 -2.4292
 1282SOL     OW15478   3.588   2.716   1.655 -0.3425  0.2503 -0.6155
 1282SOL    HW115479   3.656   2.782   1.664  0.7776 -1.2558  2.1500
 1282SOL    HW215480   3.551   2.732   1.569 -0.6380  1.5150 -0.2546
 1283SOL     OW15481   2.128   1.454   3.947  0.1020  0.4014  0.3584
 1283SOL    HW115482   2.036   1.430   3.941  0.0001  0.4309  1.8653
 1283SOL    HW215483   2.110   1.547   3.962  1.1211  0.4658  1.1570
 1284SOL     OW15484   2.150   4.282   5.159  0.1464 -0.5001  0.1920
 1284SOL    HW115485   2.080   4.289   5.095  2.1320  1.0133 -1.8136
 1284SOL    HW215486   2.111   4.226   5.227  0.7241 -0.3958  0.6119
 1285SOL     OW15487   3.674   4.563   8.620  0.2029 -0.0202  0.4241
 1285SOL    HW115488   3.590   4.524   8.597  0.3644 -0.4884  0.6228
 1285SOL    HW215489   3.663   4.555   8.715  0.9402  0.3090  0.5338
 1286SOL     OW15490   3.749   0.789   2.818 -0.4002  0.0500 -0.3192
 1286SOL    HW115491   3.671   0.841   2.839  0.1619 -0.4521  3.0426
 1286SOL    HW215492   3.702   0.709   2.797  1.8807 -1.8174  1.7396
 1287SOL     OW15493   1.192   4.453   2.123 -0.4835  0.0530  0.8179
 1287SOL    HW115494   1.263   4.389   2.114 -0.0894  0.5788  0.1537
 1287SOL    HW215495   1.199   4.476   2.216 -1.1007 -0.8295  1.0848
 1288SOL     OW15496   4.240   0.415   6.218 -0.5540  0.2144 -0.6470
 1288SOL    HW115497   4.188   0.456   6.287 -1.5726 -3.0857  0.5493
 1288SOL    HW215498   4.250   0.329   6.258  0.2260  1.1473  1.1488
 1289SOL     OW15499   3.148   1.851   5.282 -0.4775 -0.2329 -0.8967
 1289SOL    HW115500   3.116   1.773   5.236 -2.0478 -0.1831  0.1123
 1289SOL    HW215501   3.077   1.909   5.256  0.3479  0.8467 -0.7405
 1290SOL     OW15502   4.675   4.607   0.639 -0.1790 -0.2481 -0.0209
 1290SOL    HW115503   4.607   4.665   0.672 -0.6552 -1.4347  1.0839
 1290SOL    HW215504   4.668   4.613   0.544 -2.3018 -0.6253  0.1094
 1291SOL     OW15505   4.638   0.068   1.803  0.1158  0.0308  0.2192
 1291SOL    HW115506   4.602   4.730   1.847  0.2599 -1.0024 -1.5157
 1291SOL    HW215507   4.576   0.128   1.845 -0.0311 -0.2263  0.3760
 1292SOL     OW15508   3.923   0.121   7.431 -0.2081  0.3602  0.2659
 1292SOL    HW115509   3.894   0.112   7.340  1.5171 -2.3891 -0.0147
 1292SOL    HW215510   3.835   0.145   7.461 -0.0246  0.5304  0.6663
 1293SOL     OW15511   4.268   3.985  14.640 -0.0261  0.7971  0.3973
 1293SOL    HW115512   4.319   3.912  14.605 -0.1800  1.3654 -0.9910
 1293SOL    HW215513   4.310   3.978  14.726 -0.2721 -0.3263  0.4289
 1294SOL     OW15514   2.650   1.257   6.328 -0.0564 -0.6923  0.0123
 1294SOL    HW115515   2.559   1.278   6.308 -0.5845 -1.1481  1.8939
 1294SOL    HW215516   2.652   1.162   6.342 -0.1628 -0.5135  1.2165
 1295SOL     OW15517   0.085   1.055   8.239 -0.6303 -0.0985  0.2312
 1295SOL    HW115518   0.031   1.118   8.287 -1.7665 -1.2043  0.3974
 1295SOL    HW215519   0.053   1.071   8.150 -1.0539 -0.4965  0.3123
 1296SOL     OW15520   3.330   4.258   1.202 -0.4358 -0.6366  0.4997
 1296SOL    HW115521   3.254   4.309   1.229 -0.2816  0.4393 -1.1200
 1296SOL    HW215522   3.279   4.194   1.152 -1.8891  0.1931  0.9238
 1297SOL     OW15523   4.275   3.530   6.324  0.0322  0.1083 -0.2311
 1297SOL    HW115524   4.210   3.473   6.364 -1.3104  1.1643 -0.8899
 1297SOL    HW215525   4.233   3.616   6.315 -1.1780 -0.3735  0.8098
 1298SOL     OW15526   1.997   0.746   8.412  0.4370  0.2167  0.2815
 1298SOL    HW115527   1.927   0.778   8.355 -0.3192 -0.0672  1.0504
 1298SOL    HW215528   2.017   0.666   8.362  1.1150  0.2526  0.5064
 1299SOL     OW15529   1.343   1.422   6.826 -0.3401  0.1271 -0.2767
 1299SOL    HW115530   1.366   1.449   6.915 -0.2203 -0.5925 -0.0869
 1299SOL    HW215531   1.290   1.346   6.851 -0.9356  0.5030 -0.3863
 1300SOL     OW15532   1.736   3.707   2.506  0.2475  0.3108  0.5951
 1300SOL    HW115533   1.722   3.617   2.535  0.0764 -0.0013 -0.4323
 1300SOL    HW215534   1.783   3.686   2.425 -0.3623  2.7899 -0.4173
 1301SOL     OW15535   4.459   3.700   7.921 -0.0418  0.4328  0.1086
 1301SOL    HW115536   4.414   3.699   8.005  0.7213  3.8176  0.5439
 1301SOL    HW215537   4.425   3.778   7.879  1.7034  0.2630 -1.6501
 1302SOL     OW15538   1.486   0.438   2.102 -0.5275  0.4003 -0.1606
 1302SOL    HW115539   1.495   0.356   2.052 -0.0710 -1.2086  2.5696
 1302SOL    HW215540   1.393   0.459   2.093 -0.4716  0.4369 -0.6984
 1303SOL     OW15541   2.137   4.596   4.009  0.6138  0.6713 -0.2554
 1303SOL    HW115542   2.059   4.652   4.002 -0.7921 -1.0559  1.4178
 1303SOL    HW215543   2.163   4.590   4.101  2.5486  1.0969 -0.7893
 1304SOL     OW15544   0.095   4.208   3.605 -0.1115  0.2707 -0.3243
 1304SOL    HW115545   0.045   4.269   3.659  0.1103 -0.6685  0.9560
 1304SOL    HW215546   0.178   4.211   3.652 -0.7803  0.6792  0.8355
 1305SOL     OW15547   3.082   4.191  16.889 -0.2612 -0.5384  0.4797
 1305SOL    HW115548   3.008   4.131  16.896 -1.7994  1.3977  1.0485
 1305SOL    HW215549   3.030   4.272  16.891  1.1580  0.3931  0.1189
 1306SOL     OW15550   4.517   1.416   8.007 -0.2006  0.5622  0.0257
 1306SOL    HW115551   4.493   1.421   8.099  1.3417  1.5075  0.3733
 1306SOL    HW215552   4.587   1.481   8.014  0.4413 -0.3447  1.9874
 1307SOL     OW15553   4.046   2.409   6.344  0.5136  0.4564 -0.3969
 1307SOL    HW115554   3.952   2.394   6.358  0.6042 -0.3485 -0.6270
 1307SOL    HW215555   4.041   2.433   6.251 -0.5545 -0.0779 -0.4850
 1308SOL     OW15556   4.265   0.500   5.489 -0.3812 -0.2783  0.0767
 1308SOL    HW115557   4.296   0.506   5.580  0.6423  0.1623 -0.3010
 1308SOL    HW215558   4.172   0.517   5.508 -0.3658 -1.3850  1.1459
 1309SOL     OW15559   4.727   1.408   7.688 -0.0681 -0.9957 -0.3585
 1309SOL    HW115560   4.686   1.326   7.665 -3.8608  0.3058  1.7889
 1309SOL    HW215561   0.082   1.399   7.671  0.2723  1.8327 -0.0415
 1310SOL     OW15562   4.390   4.289   3.941  0.1805  0.4679  0.2537
 1310SOL    HW115563   4.346   4.318   3.861 -3.3539 -0.5348  1.8487
 1310SOL    HW215564   4.464   4.347   3.927  0.4629 -0.2250 -1.1108
 1311SOL     OW15565   2.260   3.819   4.204  0.1692 -0.2600  0.5423
 1311SOL    HW115566   2.353   3.834   4.188 -0.1123  0.5381 -0.3343
 1311SOL    HW215567   2.251   3.747   4.142  1.0041 -0.7711  1.0175
 1312SOL     OW15568   3.322   1.423   2.045 -0.5146 -0.2028  0.1025
 1312SOL    HW115569   3.295   1.455   1.959  3.0494  3.0531  0.1980
 1312SOL    HW215570   3.252   1.468   2.094  0.6567  1.0970  0.5971
 1313SOL     OW15571   2.599   2.166   8.549  0.4390 -0.0716 -0.2388
 1313SOL    HW115572   2.576   2.078   8.518  0.7980 -0.0875 -0.4554
 1313SOL    HW215573   2.570   2.155   8.640 -0.1821  1.1459 -0.2843
 1314SOL     OW15574   0.584   0.716   0.298 -0.4850 -0.3110 -0.2608
 1314SOL    HW115575   0.517   0.777   0.327  0.9091  1.1622 -0.1536
 1314SOL    HW215576   0.568   0.707   0.204  2.1996  0.1240 -0.7507
 1315SOL     OW15577   1.401   4.068   6.984 -0.2444  0.4485 -0.4417
 1315SOL    HW115578   1.372   4.026   7.065  1.9756  0.0265  0.1428
 1315SOL    HW215579   1.491   4.036   6.981 -0.5892 -0.5166 -0.6409
 1316SOL     OW15580   2.351   3.914   9.055 -0.0061 -0.3324  0.1165
 1316SOL    HW115581   2.277   3.870   9.013  0.4889  0.6100 -1.7715
 1316SOL    HW215582   2.341   3.883   9.145 -0.4834 -0.1839  0.1132
 1317SOL     OW15583   3.488   0.936  15.598 -0.0351 -0.1034 -0.1413
 1317SOL    HW115584   3.538   0.977  15.669 -1.0385  0.9180 -0.0232
 1317SOL    HW215585   3.452   1.018  15.561 -0.2863  0.3886  1.1862
 1318SOL     OW15586   4.134   4.273   0.252  0.3832 -0.1109  0.2657
 1318SOL    HW115587   4.196   4.243   0.319  0.2844  0.8713  0.7986
 1318SOL    HW215588   4.177   4.246   0.171  0.9383 -1.4606  1.0043
 1319SOL     OW15589   2.835   4.034   8.646  0.3376  0.1143 -0.2115
 1319SOL    HW115590   2.816   4.039   8.552  0.8529  0.8660 -0.2686
 1319SOL    HW215591   2.930   4.039   8.647  0.4508 -1.7382 -0.8127
 1320SOL     OW15592   2.700   3.228  10.791  0.1076 -0.2083 -0.4382
 1320SOL    HW115593   2.786   3.212  10.752  0.2971  0.1734 -0.1735
 1320SOL    HW215594   2.720   3.268  10.876 -0.2816 -0.9049 -0.0122
 1321SOL     OW15595   3.417   3.512   3.811 -0.2701 -0.1402  0.4021
 1321SOL    HW115596   3.480   3.440   3.807  1.0308  0.8664  2.8924
 1321SOL    HW215597   3.418   3.548   3.900  1.9201  1.3353 -0.2275
 1322SOL     OW15598   1.792   1.571   7.473 -0.1465  0.2924 -0.7811
 1322SOL    HW115599   1.737   1.617   7.536 -0.6504  0.9937 -1.7552
 1322SOL    HW215600   1.851   1.518   7.528 -0.2309  0.7778 -0.2296
 1323SOL     OW15601   1.528   0.704   2.310  0.1948  0.4410 -0.1747
 1323SOL    HW115602   1.445   0.692   2.265  0.3264  0.2110 -0.3557
 1323SOL    HW215603   1.539   0.612   2.336 -0.5308  0.2695 -0.4946
 1324SOL     OW15604   1.468   3.210  11.036  0.4941 -0.1430  0.1800
 1324SOL    HW115605   1.546   3.182  11.084  1.2891 -2.0568 -2.2269
 1324SOL    HW215606   1.484   3.168  10.952  0.1209  1.4926 -0.6990
 1325SOL     OW15607   0.074   4.708  16.075  0.0117 -0.3379  0.0519
 1325SOL    HW115608   0.118   0.035  16.127 -0.3125 -0.5473  0.5985
 1325SOL    HW215609   4.738   0.019  16.043  0.0947  0.1329  0.6079
 1326SOL     OW15610   2.018   2.068   5.244  0.0075  0.0491 -0.3810
 1326SOL    HW115611   2.084   2.035   5.304 -0.4297 -0.1563 -0.0145
 1326SOL    HW215612   1.941   2.055   5.300  1.0813  1.3184  1.3854
 1327SOL     OW15613   4.491   0.281  10.524  0.4284 -0.5613  0.0463
 1327SOL    HW115614   4.419   0.341  10.543  0.6939 -0.1927 -0.1164
 1327SOL    HW215615   4.470   0.234  10.444 -1.7897 -0.3215  0.4998
 1328SOL     OW15616   1.829   4.051   7.762  0.3349  0.2243  0.1242
 1328SOL    HW115617   1.824   4.143   7.786 -0.0062  0.1718  0.2549
 1328SOL    HW215618   1.902   4.047   7.699 -1.2874 -2.2040 -1.5889
 1329SOL     OW15619   1.564   1.698  12.207 -0.1712 -1.0048  0.2243
 1329SOL    HW115620   1.634   1.763  12.197  0.6133 -1.8001  0.6000
 1329SOL    HW215621   1.604   1.628  12.258 -0.9553 -1.0592  0.7600
 1330SOL     OW15622   3.455   3.923   4.356 -0.5307 -0.2842 -0.2954
 1330SOL    HW115623   3.451   3.926   4.260  1.9341 -0.0993 -0.3977
 1330SOL    HW215624   3.370   3.881   4.364 -1.8815  2.3348 -0.9443
 1331SOL     OW15625   4.606   3.979   3.108 -0.2383 -0.0151  0.1546
 1331SOL    HW115626   4.669   3.995   3.178 -1.1300  0.2861  0.9024
 1331SOL    HW215627   4.660   3.933   3.044  0.7543 -1.3960  1.9852
 1332SOL     OW15628   4.722   4.102  10.979 -0.6882  0.5511 -0.0034
 1332SOL    HW115629   0.077   4.114  10.968 -0.3542  0.6366  2.8693
 1332SOL    HW215630   4.711   4.015  10.939  1.3193 -0.2057  1.0748
 1333SOL     OW15631   2.548   1.773  10.542  0.2077 -0.4224  0.3086
 1333SOL    HW115632   2.609   1.776  10.469 -1.5473 -0.9579 -1.1924
 1333SOL    HW215633   2.522   1.681  10.547  1.8407 -0.8400  0.9576
 1334SOL     OW15634   3.562   3.561   8.911  0.2943 -0.1643 -0.6512
 1334SOL    HW115635   3.499   3.543   8.980  1.1630  0.2764  0.2508
 1334SOL    HW215636   3.509   3.617   8.854  0.1764 -0.1477 -0.5260
 1335SOL     OW15637   0.934   1.298   8.807  0.4040  0.0823 -0.6297
 1335SOL    HW115638   0.853   1.247   8.810 -1.2872  2.8873  1.1037
 1335SOL    HW215639   0.892   1.384   8.802  0.6215  0.1951 -0.5460
 1336SOL     OW15640   2.288   4.501   7.023 -0.5283 -0.0527  0.4331
 1336SOL    HW115641   2.307   4.562   6.952 -1.0035 -0.4692 -0.0532
 1336SOL    HW215642   2.368   4.449   7.016  0.2785  0.8478  3.0108
 1337SOL     OW15643   0.244   2.830   3.844 -0.9606 -0.2153  0.3937
 1337SOL    HW115644   0.257   2.925   3.836  1.8355 -0.7002 -0.5616
 1337SOL    HW215645   0.313   2.795   3.788 -1.6314  0.7078 -1.0329
 1338SOL     OW15646   2.830   2.251   6.812  0.1049 -0.3034  0.3658
 1338SOL    HW115647   2.862   2.337   6.785 -0.3383  0.0422  0.9452
 1338SOL    HW215648   2.832   2.208   6.726  0.2404  0.3088  0.0644
 1339SOL     OW15649   3.493   0.522  17.565  0.4038 -0.2295  0.5996
 1339SOL    HW115650   3.477   0.467  17.489  0.1454  1.8922 -0.8604
 1339SOL    HW215651   3.437   0.489  17.635 -3.9465  3.1095 -1.3228
 1340SOL     OW15652   0.563   4.254  13.328  0.3553  0.3269  0.7743
 1340SOL    HW115653   0.499   4.187  13.303  1.4549 -0.8822  1.2030
 1340SOL    HW215654   0.562   4.298  13.243  2.0773 -0.4515  0.3629
 1341SOL     OW15655   0.844   3.248   4.155  0.3840 -0.3113  0.1692
 1341SOL    HW115656   0.776   3.315   4.160  0.6625 -0.0388  0.3169
 1341SOL    HW215657   0.818   3.195   4.080  0.7773 -1.0394  0.5452
 1342SOL     OW15658   3.364   1.207   3.805 -0.3142  0.1748 -0.4575
 1342SOL    HW115659   3.382   1.292   3.766  0.8358  0.2773  0.2868
 1342SOL    HW215660   3.288   1.169   3.762 -1.9932  1.3923  1.4774
 1343SOL     OW15661   2.919   0.193   8.840 -0.0007 -0.2723 -0.4553
 1343SOL    HW115662   2.856   0.145   8.786 -1.8812  0.1740  1.3367
 1343SOL    HW215663   2.996   0.186   8.784 -0.0760  2.1870 -0.8639
 1344SOL     OW15664   4.505   0.421   2.235 -0.1391 -0.3112 -0.4977
 1344SOL    HW115665   4.559   0.455   2.306 -1.7989  1.7589 -0.1868
 1344SOL    HW215666   4.567   0.367   2.187 -0.2837  0.7107 -1.8496
 1345SOL     OW15667   2.876   3.011  11.991  0.4747  0.3111 -0.2935
 1345SOL    HW115668   2.850   3.056  11.911  0.8859  2.2380  0.6531
 1345SOL    HW215669   2.971   3.012  11.980  0.3320  1.6150 -1.3916
 1346SOL     OW15670   1.087   0.436   8.967  0.1620 -0.6058  0.3516
 1346SOL    HW115671   1.163   0.401   8.922  1.0775  1.2114  0.4771
 1346SOL    HW215672   1.035   0.469   8.894  1.3521 -0.6115 -0.4923
 1347SOL     OW15673   3.878   1.856   1.340  0.4443  0.1986 -0.0264
 1347SOL    HW115674   3.783   1.851   1.351  0.3258  1.3325 -0.5586
 1347SOL    HW215675   3.884   1.946   1.372 -2.0194  0.3719 -0.0244
 1348SOL     OW15676   0.144   1.123  15.944  0.3448 -0.3698  0.1217
 1348SOL    HW115677   0.107   1.156  16.026 -0.9682 -1.0511 -0.2046
 1348SOL    HW215678   0.215   1.061  15.964  1.9039  0.6868 -2.1812
 1349SOL     OW15679   0.527   0.036   5.325 -0.6809  0.0625  0.6469
 1349SOL    HW115680   0.475   4.739   5.397 -0.7361 -1.6583 -0.2573
 1349SOL    HW215681   0.570   0.118   5.347 -2.4001  0.9519  0.7114
 1350SOL     OW15682   0.230   3.445   9.914 -0.4060  0.1887 -0.0208
 1350SOL    HW115683   0.209   3.363   9.870 -0.0218  0.1651 -0.1567
 1350SOL    HW215684   0.276   3.494   9.846  0.7558 -2.3175 -1.0519
 1351SOL     OW15685   2.077   1.380   5.100 -0.3940 -0.5370 -0.3726
 1351SOL    HW115686   2.110   1.290   5.096  1.6529  0.1738  0.5688
 1351SOL    HW215687   2.088   1.400   5.007 -0.7052  0.5728 -0.1701
 1352SOL     OW15688   0.872   0.266  15.692 -0.5028 -0.0816 -0.9059
 1352SOL    HW115689   0.894   0.174  15.674  0.3016  0.4373 -2.5508
 1352SOL    HW215690   0.826   0.250  15.774  0.9251  2.7201  0.4330
 1353SOL     OW15691   1.524   1.234   4.196  0.5137 -0.7258 -0.0534
 1353SOL    HW115692   1.502   1.300   4.130  0.0507 -0.3667  0.4673
 1353SOL    HW215693   1.611   1.262   4.226 -0.1895  2.9945 -1.4548
 1354SOL     OW15694   3.011   0.277   9.116 -0.3093  0.0103  0.3723
 1354SOL    HW115695   2.958   0.272   9.036  0.1847  1.8430 -0.0821
 1354SOL    HW215696   2.962   0.328   9.180 -1.0224  2.0549 -1.7757
 1355SOL     OW15697   1.259   1.605  15.479  0.4065 -0.1347  0.1426
 1355SOL    HW115698   1.171   1.577  15.500  0.6691 -1.3274 -0.3696
 1355SOL    HW215699   1.241   1.608  15.385 -0.1983 -0.6421  0.2529
 1356SOL     OW15700   1.449   4.511   6.689  0.0964  0.3731 -0.7608
 1356SOL    HW115701   1.536   4.518   6.729  0.4203  1.6154 -1.6618
 1356SOL    HW215702   1.402   4.523   6.771  0.9848  2.5561 -0.5448
 1357SOL     OW15703   1.427   0.146   9.264  0.4497  0.5629  0.3007
 1357SOL    HW115704   1.388   0.059   9.253  1.9961 -0.3133  1.7470
 1357SOL    HW215705   1.402   0.176   9.177  2.3083 -1.1782 -0.8280
 1358SOL     OW15706   2.641   3.895   2.414  0.0903  0.4242 -0.4650
 1358SOL    HW115707   2.581   3.900   2.489 -0.0018 -0.2838 -0.4928
 1358SOL    HW215708   2.687   3.978   2.428  0.4176  0.6656 -3.0223
 1359SOL     OW15709   3.296   2.034   7.620 -0.0657 -0.3318  0.3934
 1359SOL    HW115710   3.366   2.099   7.616 -0.1844 -0.1289  1.7172
 1359SOL    HW215711   3.329   1.963   7.675  1.1853 -1.3575 -1.6451
 1360SOL     OW15712   4.691   3.003   3.773  0.3741  0.0222 -0.7551
 1360SOL    HW115713   4.699   2.948   3.850 -0.6182 -0.9797 -1.3672
 1360SOL    HW215714   0.033   3.053   3.774 -1.1868  2.5729 -1.1551
 1361SOL     OW15715   0.204   3.285  12.489  0.8423 -0.0803  0.2738
 1361SOL    HW115716   0.128   3.280  12.547  0.4017 -0.0899 -0.2977
 1361SOL    HW215717   0.238   3.195  12.483 -0.3257 -0.4483 -0.9753
 1362SOL     OW15718   0.095   4.503  15.379  0.8819  0.4192 -0.1073
 1362SOL    HW115719   0.180   4.481  15.341  1.2161 -1.2538  1.6232
 1362SOL    HW215720   0.068   4.416  15.407  3.4459 -0.6090 -0.8757
 1363SOL     OW15721   1.108   2.975  12.844 -0.4445  0.2170 -0.4223
 1363SOL    HW115722   1.105   2.885  12.809  1.8054  0.9746 -2.5167
 1363SOL    HW215723   1.203   2.979  12.837 -0.3801  0.5595  0.6763
 1364SOL     OW15724   4.293   4.193   1.415  0.1152 -0.1598 -0.3824
 1364SOL    HW115725   4.361   4.161   1.475 -2.1595  0.1000  2.3293
 1364SOL    HW215726   4.269   4.275   1.456 -0.0532 -0.0558 -0.6859
 1365SOL     OW15727   4.382   4.484   5.425 -0.3504  0.0164 -0.1168
 1365SOL    HW115728   4.355   4.470   5.334 -0.1217 -2.8207  0.2630
 1365SOL    HW215729   4.392   4.392   5.448  0.2888  0.3790  1.0552
 1366SOL     OW15730   2.131   0.755  10.018  0.6289  0.2534  0.2837
 1366SOL    HW115731   2.185   0.679  10.037 -0.4188 -0.4603  0.3790
 1366SOL    HW215732   2.097   0.779  10.104  0.5601  0.6749  0.1416
 1367SOL     OW15733   2.377   2.505  11.913  0.2188  0.3865  0.1431
 1367SOL    HW115734   2.460   2.527  11.871 -0.9540  2.4656 -1.1115
 1367SOL    HW215735   2.331   2.459  11.842  3.1023 -2.3263  0.0477
 1368SOL     OW15736   2.103   3.614   3.841 -0.6242 -0.0822 -0.6329
 1368SOL    HW115737   2.040   3.671   3.798 -0.4311  1.3262  0.9980
 1368SOL    HW215738   2.177   3.674   3.828 -0.2123  0.0372  2.3407
 1369SOL     OW15739   0.772   0.597   5.725 -0.1487  0.3041  0.5134
 1369SOL    HW115740   0.736   0.611   5.813  0.4206  0.0123  0.7917
 1369SOL    HW215741   0.739   0.674   5.680  0.8911  1.4920  1.7802
 1370SOL     OW15742   0.661   0.943   4.305 -0.3898  0.5054 -0.6943
 1370SOL    HW115743   0.675   0.977   4.217 -5.3638 -1.8132 -2.3274
 1370SOL    HW215744   0.727   0.980   4.364  0.2836 -0.2310 -0.9754
 1371SOL     OW15745   4.666   3.213   8.838  0.1996  0.1424  0.2508
 1371SOL    HW115746   4.673   3.242   8.929  0.8817 -1.1262  0.6069
 1371SOL    HW215747   0.007   3.165   8.814  0.2631  0.1752  0.3979
 1372SOL     OW15748   3.131   1.820   1.517  0.2958 -0.4868  0.0545
 1372SOL    HW115749   3.109   1.913   1.510  1.3125 -0.1838  0.8928
 1372SOL    HW215750   3.151   1.816   1.610 -2.0308  0.9873  0.6097
 1373SOL     OW15751   3.077   2.189   7.637 -0.0958 -0.1668 -0.0977
 1373SOL    HW115752   3.066   2.232   7.721  2.6060 -1.6788  1.0249
 1373SOL    HW215753   3.160   2.141   7.648  0.5534  0.8053 -0.7451
 1374SOL     OW15754   3.836   2.963  14.472 -0.2289  0.2422 -0.0169
 1374SOL    HW115755   3.836   2.870  14.452  1.7433  0.0480  0.9847
 1374SOL    HW215756   3.844   2.989  14.380 -1.4481  0.3525 -0.1051
 1375SOL     OW15757   2.481   2.777   2.997  0.2104  0.3719 -0.4129
 1375SOL    HW115758   2.452   2.716   2.929 -1.5322 -0.3915  1.0027
 1375SOL    HW215759   2.531   2.722   3.057  0.2081  1.4399  0.5588
 1376SOL     OW15760   1.294   2.485   8.708  0.3645 -0.5682 -0.5921
 1376SOL    HW115761   1.271   2.417   8.645  0.8466 -0.9854 -0.3114
 1376SOL    HW215762   1.283   2.567   8.660  0.0241 -0.4802 -0.3601
 1377SOL     OW15763   3.365   4.729   4.182  0.1030 -0.0010 -0.3080
 1377SOL    HW115764   3.406   4.698   4.263  0.1564 -0.6364 -0.5793
 1377SOL    HW215765   3.423   4.699   4.113 -0.7068 -1.2805 -0.4203
 1378SOL     OW15766   0.410   0.707   4.794  0.1357 -0.3946  0.3456
 1378SOL    HW115767   0.430   0.764   4.869 -2.0841  2.1549 -1.0291
 1378SOL    HW215768   0.415   0.757   4.713  0.7299 -1.3977 -0.2234
 1379SOL     OW15769   1.917   1.645   4.574 -0.4490  0.3196  0.3548
 1379SOL    HW115770   1.865   1.722   4.599  1.5933  1.5775  0.7656
 1379SOL    HW215771   1.875   1.631   4.490  0.0195  0.8672  0.0274
 1380SOL     OW15772   1.826   0.671   6.098 -0.0301 -0.3131  0.8256
 1380SOL    HW115773   1.752   0.613   6.115 -1.6871  1.9393  1.2243
 1380SOL    HW215774   1.855   0.677   6.189  1.4089 -2.3753  0.5148
 1381SOL     OW15775   4.541   4.434   8.052  0.1984  0.3365  0.3787
 1381SOL    HW115776   4.601   4.465   7.984 -2.4165  0.3257 -1.9491
 1381SOL    HW215777   4.461   4.486   8.039  0.1512  0.2675  0.3908
 1382SOL     OW15778   1.429   2.934   4.412 -0.1163  0.5325  0.2767
 1382SOL    HW115779   1.371   2.939   4.488  0.6090 -0.9474  0.9353
 1382SOL    HW215780   1.503   2.992   4.435  0.8724 -1.5544  2.3133
 1383SOL     OW15781   2.226   4.248   8.034  0.0812 -0.1703  0.1876
 1383SOL    HW115782   2.301   4.263   7.977 -0.0020  0.2910  0.1965
 1383SOL    HW215783   2.216   4.333   8.078 -3.3127  0.5516 -1.9962
 1384SOL     OW15784   2.022   0.090   8.702  0.1692 -0.3634 -0.5451
 1384SOL    HW115785   2.103   0.142   8.698  0.4868 -0.6726  1.7918
 1384SOL    HW215786   2.065   0.010   8.671 -2.6140 -2.2066  0.3615
 1385SOL     OW15787   0.814   1.254   9.129 -0.0185  1.1333  0.0174
 1385SOL    HW115788   0.743   1.300   9.174 -0.1538  1.6555 -0.7401
 1385SOL    HW215789   0.765   1.192   9.075  0.9620 -0.6421  1.1503
 1386SOL     OW15790   0.352   2.265   8.105  0.2582  0.3567 -0.0858
 1386SOL    HW115791   0.364   2.229   8.016  1.6866 -0.5722  0.4797
 1386SOL    HW215792   0.366   2.358   8.091 -0.3778  0.1629 -2.0450
 1387SOL     OW15793   1.846   2.799   5.077  0.0211 -0.5668 -0.1601
 1387SOL    HW115794   1.903   2.824   5.150  0.5651  0.0189 -0.7845
 1387SOL    HW215795   1.910   2.798   5.006 -0.4661  0.4715 -0.6160
 1388SOL     OW15796   2.048   2.348   4.195  0.1249 -0.5857  0.5931
 1388SOL    HW115797   2.086   2.410   4.133 -3.2861 -0.9961 -1.9231
 1388SOL    HW215798   1.965   2.392   4.213 -0.0620 -0.9980  0.7470
 1389SOL     OW15799   2.214   2.669  12.307 -0.1020  0.1669 -0.0416
 1389SOL    HW115800   2.256   2.627  12.382  1.7088 -0.6289 -1.5101
 1389SOL    HW215801   2.219   2.612  12.230  0.7655  0.8513 -0.4887
 1390SOL     OW15802   1.376   1.658   8.529 -0.2345  0.0923 -0.2546
 1390SOL    HW115803   1.426   1.702   8.598  1.3401  0.6332 -1.7287
 1390SOL    HW215804   1.352   1.583   8.584 -0.1348 -1.3200 -2.1566
 1391SOL     OW15805   2.525   1.342  17.665  0.2243  0.3998  0.0155
 1391SOL    HW115806   2.445   1.327  17.715  0.0690  2.2523  0.3076
 1391SOL    HW215807   2.587   1.299  17.724 -0.5792 -0.2779  0.3771
 1392SOL     OW15808   2.363   4.380  13.751  0.0284 -0.5208 -0.0900
 1392SOL    HW115809   2.439   4.406  13.700 -1.0122  0.2841 -1.2349
 1392SOL    HW215810   2.295   4.363  13.685 -0.1334  0.8580 -0.2762
 1393SOL     OW15811   0.843   3.020   1.377  0.3299 -0.5387  0.7768
 1393SOL    HW115812   0.834   2.967   1.456  0.7516 -0.9063  0.5810
 1393SOL    HW215813   0.938   3.032   1.377  0.4128 -1.1878  0.9528
 1394SOL     OW15814   0.124   4.150   9.778  1.0376 -0.6309  0.3800
 1394SOL    HW115815   0.086   4.117   9.860 -2.3637  0.8588 -0.6039
 1394SOL    HW215816   0.058   4.212   9.749 -0.7232 -2.8846 -0.3921
 1395SOL     OW15817   2.583   0.887   4.924 -0.9568  0.3416  0.1068
 1395SOL    HW115818   2.663   0.855   4.966 -1.9248 -0.2887  1.4546
 1395SOL    HW215819   2.623   0.954   4.868  0.0001 -0.3066  0.0213
 1396SOL     OW15820   3.929   0.280   1.845 -0.0489 -0.3285 -0.3056
 1396SOL    HW115821   3.924   0.237   1.760  0.5212 -1.1970  0.0942
 1396SOL    HW215822   3.973   0.220   1.906  0.7051 -0.1057 -0.6211
 1397SOL     OW15823   2.262   1.150   4.408 -0.6247 -0.1085  0.3245
 1397SOL    HW115824   2.190   1.131   4.469 -0.4951  0.2168  0.5754
 1397SOL    HW215825   2.217   1.187   4.332 -0.0967 -0.6770 -0.2683
 1398SOL     OW15826   1.919   1.897   6.649 -0.2161 -0.0874 -0.3827
 1398SOL    HW115827   1.989   1.945   6.606  0.9149 -1.2398  0.1489
 1398SOL    HW215828   1.961   1.820   6.687 -2.6304 -1.2767 -0.0984
 1399SOL     OW15829   1.502   4.435  16.186  0.6226  0.1957 -0.3410
 1399SOL    HW115830   1.564   4.410  16.256  1.3107 -0.0764 -1.0456
 1399SOL    HW215831   1.497   4.530  16.191  1.1501  0.2481 -0.8813
 1400SOL     OW15832   4.398   2.128  17.441  0.2644 -0.0492  0.1315
 1400SOL    HW115833   4.462   2.064  17.474  0.8077  0.7948  0.7135
 1400SOL    HW215834   4.386   2.183  17.518 -2.3487 -0.2017 -0.1832
 1401SOL     OW15835   2.617   0.579   3.264 -0.2790  0.1601  0.5461
 1401SOL    HW115836   2.690   0.604   3.320  1.3534 -0.4284 -1.3080
 1401SOL    HW215837   2.643   0.492   3.233 -1.1119  0.1348 -0.1106
 1402SOL     OW15838   4.476   1.742   3.804  0.5757 -0.5505 -0.4198
 1402SOL    HW115839   4.522   1.822   3.830 -0.4839 -0.9613  2.7399
 1402SOL    HW215840   4.407   1.748   3.871  0.5223  0.7256 -0.5911
 1403SOL     OW15841   4.095   3.728   0.088 -0.0533 -0.3261 -0.1671
 1403SOL    HW115842   4.042   3.784   0.144  2.9462  1.1863  1.1345
 1403SOL    HW215843   4.184   3.738   0.123 -0.3040  2.1448 -0.2541
 1404SOL     OW15844   0.630   3.653  15.074 -0.1566  0.2461 -0.1530
 1404SOL    HW115845   0.723   3.672  15.087 -0.0504  0.3309 -1.0328
 1404SOL    HW215846   0.604   3.731  15.025  0.4544 -1.4239 -3.0696
 1405SOL     OW15847   1.051   3.333   1.851 -0.0617  0.0530  0.2800
 1405SOL    HW115848   1.130   3.387   1.856 -0.4196  0.4822  1.3160
 1405SOL    HW215849   1.038   3.323   1.756  0.2329  1.4496  0.0944
 1406SOL     OW15850   2.496   0.566   6.741  0.1039 -0.3619  0.0198
 1406SOL    HW115851   2.568   0.614   6.783  1.1355 -1.2583 -0.7418
 1406SOL    HW215852   2.444   0.534   6.815 -1.6584  1.7908 -0.2618
 1407SOL     OW15853   4.405   1.738   8.696 -0.1202  0.5650  0.3606
 1407SOL    HW115854   4.383   1.828   8.672 -1.4678  0.2265  0.3144
 1407SOL    HW215855   4.470   1.750   8.765 -0.4259  3.0706  0.2090
 1408SOL     OW15856   2.830   1.300   5.601  0.1488 -0.3104  0.4874
 1408SOL    HW115857   2.914   1.346   5.589  0.1455  0.1460  2.2311
 1408SOL    HW215858   2.830   1.264   5.512 -1.4996  0.4528  0.1908
 1409SOL     OW15859   1.594   2.801   7.733  0.4361 -0.2205 -0.3114
 1409SOL    HW115860   1.611   2.764   7.819  1.1694 -0.1945 -0.4472
 1409SOL    HW215861   1.499   2.788   7.736  0.2940  0.9075 -0.0893
 1410SOL     OW15862   0.973   1.650   2.945 -0.4571  0.5475  0.1650
 1410SOL    HW115863   0.937   1.695   3.022  0.8271  2.3922 -0.3206
 1410SOL    HW215864   0.997   1.727   2.894 -1.2437 -0.3353 -1.5241
 1411SOL     OW15865   3.919   0.782   8.913  0.0342  0.0478  0.0227
 1411SOL    HW115866   3.945   0.690   8.921 -1.0774 -0.1966  0.8217
 1411SOL    HW215867   4.003   0.815   8.879 -0.7773  2.6899  0.6120
 1412SOL     OW15868   3.942   0.445   4.817  0.4916  1.0678 -0.0375
 1412SOL    HW115869   3.953   0.397   4.899  2.4711  0.8888 -0.4044
 1412SOL    HW215870   3.876   0.506   4.850  1.7945  2.8537 -0.7012
 1413SOL     OW15871   4.467   2.651   0.271 -0.2029  0.6264  0.2886
 1413SOL    HW115872   4.390   2.594   0.272  0.0998  0.2330  0.9435
 1413SOL    HW215873   4.437   2.732   0.313  0.1817  0.2983  1.1899
 1414SOL     OW15874   0.121   3.095   2.660  0.0764  0.1630  0.1771
 1414SOL    HW115875   0.067   3.033   2.709  0.2110  1.1140  1.5118
 1414SOL    HW215876   0.054   3.161   2.638  1.4437  1.9173  1.2263
 1415SOL     OW15877   0.477   0.271  17.257  0.2604  0.0285 -0.3639
 1415SOL    HW115878   0.484   0.208  17.184 -1.4457 -3.4071  2.4473
 1415SOL    HW215879   0.417   0.340  17.229  0.3520  0.6886  1.1039
 1416SOL     OW15880   2.483   2.138   4.604 -0.4010  0.4842  0.2133
 1416SOL    HW115881   2.538   2.100   4.673  2.1664 -0.9703 -2.6501
 1416SOL    HW215882   2.398   2.117   4.643 -1.4904 -0.1682 -2.5481
 1417SOL     OW15883   1.000   0.593   1.868 -0.2211 -0.2933  0.5704
 1417SOL    HW115884   1.006   0.571   1.775 -1.2499 -1.8986  0.8989
 1417SOL    HW215885   0.919   0.640   1.889 -0.3611 -0.0631 -0.4942
 1418SOL     OW15886   3.456   4.506   8.888  0.2786 -0.0229 -0.1870
 1418SOL    HW115887   3.446   4.530   8.980  0.0073 -1.9147  0.2830
 1418SOL    HW215888   3.550   4.496   8.874  0.3210  0.4320 -0.2240
 1419SOL     OW15889   1.212   4.605   5.644 -0.0099  0.3388 -0.0718
 1419SOL    HW115890   1.213   4.518   5.604 -0.0054  0.7057 -0.8731
 1419SOL    HW215891   1.127   4.637   5.612 -0.0595  0.6981  0.4284
 1420SOL     OW15892   0.784   4.613   7.566 -0.8476  0.0894 -0.1568
 1420SOL    HW115893   0.819   4.524   7.554 -0.9425 -0.0287  0.3944
 1420SOL    HW215894   0.778   4.627   7.661  1.3757 -0.8443  0.1256
 1421SOL     OW15895   1.073   4.058  14.938  0.4962 -0.0580  0.5775
 1421SOL    HW115896   1.055   4.029  14.849 -0.6393  1.2700  0.3827
 1421SOL    HW215897   0.984   4.085  14.963  1.4963  1.3546  2.6484
 1422SOL     OW15898   0.356   0.831   5.744 -1.0447 -0.4725  0.6265
 1422SOL    HW115899   0.450   0.814   5.754 -1.3099 -2.7306 -0.7229
 1422SOL    HW215900   0.351   0.813   5.650 -1.1326  0.5087  0.4506
 1423SOL     OW15901   3.239   0.803   7.584 -0.0407  0.6417  0.0049
 1423SOL    HW115902   3.175   0.760   7.528  0.0865 -0.7589  0.9530
 1423SOL    HW215903   3.271   0.871   7.524  0.5356 -0.2715 -0.7067
 1424SOL     OW15904   0.619   3.970   7.744 -0.0201  0.0007 -0.2717
 1424SOL    HW115905   0.528   3.995   7.760 -0.3475 -0.0827 -2.0148
 1424SOL    HW215906   0.608   3.938   7.655  2.3107  1.4616 -1.0904
 1425SOL     OW15907   1.431   2.579   2.935  0.0215 -0.0175 -0.2933
 1425SOL    HW115908   1.474   2.585   2.850  0.3307  0.3416 -0.1122
 1425SOL    HW215909   1.345   2.542   2.915  0.0965 -0.7266  0.7192
 1426SOL     OW15910   0.205   0.686  12.002  0.2873  0.1645 -0.2588
 1426SOL    HW115911   0.289   0.645  12.018  0.8921  1.2587 -0.5885
 1426SOL    HW215912   0.183   0.703  12.094  0.8910 -2.2185  0.3251
 1427SOL     OW15913   0.845   0.981   6.604  0.1408 -0.1423  0.2459
 1427SOL    HW115914   0.866   1.064   6.647 -0.6011  0.4532 -0.5531
 1427SOL    HW215915   0.846   0.917   6.675  0.5573 -0.0621  0.3118
 1428SOL     OW15916   0.666   0.880  15.751 -0.4755  0.5216 -0.4618
 1428SOL    HW115917   0.600   0.837  15.805  0.4941  1.5720  1.5396
 1428SOL    HW215918   0.644   0.847  15.664 -0.5467 -0.3121 -0.1261
 1429SOL     OW15919   0.380   2.042  17.173  0.3232 -0.3169  0.4985
 1429SOL    HW115920   0.298   1.993  17.171  1.7941 -2.7822  1.0383
 1429SOL    HW215921   0.446   1.973  17.178  0.5674  0.0814  2.8701
 1430SOL     OW15922   0.960   4.686   2.848  0.3391  0.2091  0.4974
 1430SOL    HW115923   1.029   4.657   2.788  0.6013  1.8181  0.0157
 1430SOL    HW215924   0.912   0.016   2.803  0.7108 -0.4810 -0.9686
 1431SOL     OW15925   4.566   1.486   3.950  0.2421 -0.1523  0.6320
 1431SOL    HW115926   4.649   1.528   3.924  1.5419 -2.9304  0.3464
 1431SOL    HW215927   4.595   1.402   3.986  1.0334 -0.1581 -0.0059
 1432SOL     OW15928   2.030   4.088   2.580 -0.2048 -0.5685  0.0787
 1432SOL    HW115929   2.085   4.053   2.510  1.3175 -2.0941  2.0116
 1432SOL    HW215930   1.953   4.119   2.533  1.7241  2.1378 -1.2770
 1433SOL     OW15931   3.199   0.259   7.263  0.0299  0.0828 -0.0237
 1433SOL    HW115932   3.167   0.326   7.323 -0.8337 -0.1001 -0.2774
 1433SOL    HW215933   3.250   0.205   7.324  0.0974  1.5234  1.1888
 1434SOL     OW15934   4.468   3.367   6.446 -0.3762 -0.0835 -0.2678
 1434SOL    HW115935   4.556   3.356   6.410  0.3398  0.3224  1.3721
 1434SOL    HW215936   4.402   3.361   6.377  0.4999 -2.0466 -0.9189
 1435SOL     OW15937   3.139   1.636   8.549  0.2958 -0.3125  0.4421
 1435SOL    HW115938   3.097   1.550   8.557 -3.0774  1.2188 -0.9760
 1435SOL    HW215939   3.193   1.635   8.628 -0.9436  1.6752  1.2996
 1436SOL     OW15940   3.086   4.362   1.873 -0.3881  0.9178 -0.1628
 1436SOL    HW115941   3.060   4.454   1.863 -1.0389  0.7549  0.0439
 1436SOL    HW215942   3.169   4.357   1.826  0.4081  1.0573  1.2008
 1437SOL     OW15943   0.827   4.138   5.546 -0.0028  0.0240  0.1008
 1437SOL    HW115944   0.908   4.104   5.584  1.5376  2.0734 -1.3889
 1437SOL    HW215945   0.761   4.107   5.608 -0.5997  0.9477 -0.0727
 1438SOL     OW15946   2.374   2.076   0.851  0.3197  0.3510 -0.9288
 1438SOL    HW115947   2.329   2.098   0.933  1.5712  1.9091 -0.6384
 1438SOL    HW215948   2.429   2.000   0.872  0.0161 -0.2022 -2.1389
 1439SOL     OW15949   1.986   2.302   1.929 -0.0035 -0.2702  0.2823
 1439SOL    HW115950   2.002   2.331   1.839  2.7360 -2.1573  0.1828
 1439SOL    HW215951   1.909   2.248   1.909  0.3762 -1.0166  0.8517
 1440SOL     OW15952   2.516   0.492   5.675  0.0623  0.3123 -0.0144
 1440SOL    HW115953   2.580   0.425   5.650 -0.8362  0.0666 -1.6606
 1440SOL    HW215954   2.531   0.492   5.769  0.7338  1.2054 -0.1229
 1441SOL     OW15955   2.728   1.699  14.962  0.2287  0.3420 -0.4664
 1441SOL    HW115956   2.642   1.733  14.987 -0.1842 -0.4338 -0.8363
 1441SOL    HW215957   2.782   1.776  14.943 -3.0987  2.9642  0.6080
 1442SOL     OW15958   4.452   1.673   4.133  0.2243  0.0127 -0.1402
 1442SOL    HW115959   4.536   1.703   4.169 -0.1255  2.2007 -1.1577
 1442SOL    HW215960   4.483   1.607   4.071  0.3636  0.5308 -0.6244
 1443SOL     OW15961   2.246   0.558   7.847  0.0903  0.1411  0.2360
 1443SOL    HW115962   2.269   0.642   7.888  1.0464 -0.1176  0.2394
 1443SOL    HW215963   2.152   0.550   7.864 -0.1291 -0.4079 -1.1895
 1444SOL     OW15964   1.666   4.609   6.091  0.0312 -0.8045 -0.2790
 1444SOL    HW115965   1.678   4.615   6.186 -0.1732  1.7086 -0.4228
 1444SOL    HW215966   1.597   4.543   6.091  0.0133 -0.7894  0.7490
 1445SOL     OW15967   3.152   3.551   1.944 -0.4927  0.4630  0.0353
 1445SOL    HW115968   3.190   3.635   1.972 -0.1180  0.7318 -1.2575
 1445SOL    HW215969   3.220   3.523   1.882 -0.8148 -3.5836  1.5280
 1446SOL     OW15970   4.037   0.288  14.643 -0.5289  0.0126 -0.0020
 1446SOL    HW115971   3.981   0.211  14.654 -1.0356 -0.0921 -3.3030
 1446SOL    HW215972   3.990   0.336  14.711 -0.6572 -0.4470  0.2370
 1447SOL     OW15973   0.559   0.203   8.749 -0.3218  0.0960  0.2105
 1447SOL    HW115974   0.506   0.171   8.822  0.4479  0.9411  1.1524
 1447SOL    HW215975   0.607   0.275   8.790 -1.5975 -0.2469  2.2947
 1448SOL     OW15976   4.450   1.983   5.724 -0.9981  0.5437 -0.5932
 1448SOL    HW115977   4.363   1.955   5.752 -0.7343 -0.9558 -1.2430
 1448SOL    HW215978   4.511   1.948   5.790  0.7619  0.1139 -2.4137
 1449SOL     OW15979   1.646   0.297   3.007  0.4604 -0.0052  0.0365
 1449SOL    HW115980   1.582   0.272   3.074  0.3251  0.0821 -0.0584
 1449SOL    HW215981   1.616   0.387   2.992 -1.0514 -0.5911 -0.4224
 1450SOL     OW15982   2.610   4.330   3.799  0.3956 -0.7113 -0.0527
 1450SOL    HW115983   2.593   4.236   3.798 -0.7093 -0.5106 -0.7466
 1450SOL    HW215984   2.704   4.324   3.785  0.3123 -2.6417  0.1999
 1451SOL     OW15985   4.251   2.162  16.526 -0.1464  0.0472 -0.2743
 1451SOL    HW115986   4.309   2.090  16.500  2.5722  2.4987 -0.9906
 1451SOL    HW215987   4.168   2.121  16.500 -1.4192  1.0026  2.2120
 1452SOL     OW15988   0.045   1.513  13.676  0.3862 -0.0649  0.4222
 1452SOL    HW115989   0.060   1.554  13.592  2.7942  1.9548  1.8531
 1452SOL    HW215990   0.130   1.473  13.694  0.8643  1.6405  1.9037
 1453SOL     OW15991   3.268   3.377   2.555  0.2192  0.4525  0.2561
 1453SOL    HW115992   3.276   3.428   2.474  1.5876 -0.7602 -0.3735
 1453SOL    HW215993   3.327   3.305   2.533 -0.6298 -0.1722  0.0126
 1454SOL     OW15994   1.317   2.970   4.696 -0.0645 -0.2223 -0.1040
 1454SOL    HW115995   1.257   2.994   4.767 -0.8717 -1.0439 -0.5139
 1454SOL    HW215996   1.340   3.056   4.661  0.7470 -0.3732  0.0720
 1455SOL     OW15997   3.778   0.441   7.440 -0.0174  0.1355  0.6738
 1455SOL    HW115998   3.758   0.524   7.485 -0.1606  0.7026 -0.4279
 1455SOL    HW215999   3.740   0.460   7.354  0.0408  2.2489  1.1171
 1456SOL     OW16000   4.006   2.043  16.487  0.0705  0.0600 -0.0908
 1456SOL    HW116001   4.001   1.967  16.546 -2.1190 -1.4889 -2.2972
 1456SOL    HW216002   3.962   2.104  16.545 -0.5052  0.0587 -0.5320
 1457SOL     OW16003   0.826   4.298   5.920  0.1978 -0.1338  0.3890
 1457SOL    HW116004   0.791   4.210   5.935 -1.0105  0.4669  1.1230
 1457SOL    HW216005   0.755   4.340   5.872  1.2315 -1.4342 -2.2661
 1458SOL     OW16006   2.301   1.288  17.208  0.4646  0.1890 -0.4958
 1458SOL    HW116007   2.373   1.293  17.270 -1.0474  2.4873  1.0665
 1458SOL    HW216008   2.361   1.286  17.133 -1.3363  1.4713 -1.9927
 1459SOL     OW16009   2.208   3.300   7.843  0.3583 -0.2046  0.0787
 1459SOL    HW116010   2.259   3.268   7.917  1.0961  0.4940 -0.1308
 1459SOL    HW216011   2.119   3.294   7.878  0.0412  0.7498 -0.5823
 1460SOL     OW16012   0.490   1.580  13.164  0.1244  0.2081  0.0229
 1460SOL    HW116013   0.427   1.602  13.233 -1.5915 -1.9292 -0.8807
 1460SOL    HW216014   0.566   1.551  13.215  1.0321 -0.9258 -1.9924
 1461SOL     OW16015   4.306   1.276  16.937 -0.4995 -0.0638 -0.1964
 1461SOL    HW116016   4.302   1.368  16.911 -0.0354  0.1016  0.2967
 1461SOL    HW216017   4.217   1.259  16.967  0.4300 -0.2884  2.4884
 1462SOL     OW16018   3.611   4.636  15.929  0.0195 -0.5860  0.4117
 1462SOL    HW116019   3.679   4.589  15.978  1.9290  3.8060  2.0080
 1462SOL    HW216020   3.656   4.671  15.852 -1.4187  2.4760  0.9569
 1463SOL     OW16021   2.986   4.042  15.195 -0.3208 -0.3515  0.0419
 1463SOL    HW116022   2.996   3.948  15.183 -1.0349 -0.4733  0.4354
 1463SOL    HW216023   2.906   4.042  15.247 -0.4607  0.7447 -0.1585
 1464SOL     OW16024   1.514   1.192  13.745 -0.2489 -0.2574  0.4084
 1464SOL    HW116025   1.609   1.182  13.736 -0.3002 -0.5574  0.1900
 1464SOL    HW216026   1.504   1.278  13.787 -0.3955  0.1886 -0.5214
 1465SOL     OW16027   3.445   4.692   1.515  0.0897  0.4538  0.1226
 1465SOL    HW116028   3.460   0.038   1.556  1.1123  0.2643  0.1253
 1465SOL    HW216029   3.496   4.699   1.434 -1.9541 -0.0475 -1.2058
 1466SOL     OW16030   3.870   3.776  14.669 -0.4935  0.2476 -0.8992
 1466SOL    HW116031   3.957   3.745  14.646  0.0366  2.0646 -1.3247
 1466SOL    HW216032   3.870   3.778  14.765  1.7085 -1.5021 -0.8765
 1467SOL     OW16033   3.852   2.603   2.593  0.1172  0.5631  0.6851
 1467SOL    HW116034   3.908   2.549   2.648 -1.5975  0.3368  2.2058
 1467SOL    HW216035   3.837   2.543   2.521  2.6142  0.2672  0.3994
 1468SOL     OW16036   1.327   3.940   6.315 -0.0098  0.2377  0.1955
 1468SOL    HW116037   1.247   3.902   6.279  0.5522 -0.1444 -0.6661
 1468SOL    HW216038   1.371   3.960   6.232 -1.1603  0.4046 -0.3763
 1469SOL     OW16039   3.893   0.856  13.050 -0.0650 -0.3072  0.0380
 1469SOL    HW116040   3.922   0.937  13.009 -1.2544  0.0404 -0.1093
 1469SOL    HW216041   3.902   0.873  13.144  0.0884  0.2220 -0.0739
 1470SOL     OW16042   2.938   0.126   7.392  0.3796  0.3211 -0.2368
 1470SOL    HW116043   2.887   0.081   7.460  1.6484  1.3452  1.3882
 1470SOL    HW216044   2.910   0.215   7.413 -1.1133  0.4704 -2.8075
 1471SOL     OW16045   2.114   4.604   7.414 -0.1046 -0.8542 -0.1585
 1471SOL    HW116046   2.131   4.591   7.320 -0.1734 -0.1654 -0.2645
 1471SOL    HW216047   2.039   4.661   7.396  0.4435 -0.4920 -1.3546
 1472SOL     OW16048   3.167   0.774   3.533 -0.4681 -0.3041  0.2387
 1472SOL    HW116049   3.169   0.696   3.588  0.8995 -0.0142  0.6119
 1472SOL    HW216050   3.081   0.802   3.565 -0.3694 -0.0958  0.3234
 1473SOL     OW16051   2.644   4.574  11.493 -0.2174 -0.2693 -0.1095
 1473SOL    HW116052   2.552   4.547  11.495  0.4919 -2.6692  0.5889
 1473SOL    HW216053   2.693   4.505  11.539 -1.7966 -0.3688  1.4008
 1474SOL     OW16054   1.913   0.722  12.559  0.0348 -0.5999 -0.1188
 1474SOL    HW116055   1.819   0.731  12.542  0.1735 -2.9195 -2.1977
 1474SOL    HW216056   1.948   0.751  12.475 -1.6303 -2.3837 -1.4474
 1475SOL     OW16057   1.837   4.443   3.908  1.3412  0.1477 -0.2283
 1475SOL    HW116058   1.781   4.376   3.869  0.5611  2.2446 -2.7267
 1475SOL    HW216059   1.920   4.439   3.860  1.3465 -1.6467 -0.0390
 1476SOL     OW16060   1.422   2.349   4.832  0.0505  0.0685 -0.3398
 1476SOL    HW116061   1.400   2.413   4.899  1.6616 -0.8829  1.1028
 1476SOL    HW216062   1.493   2.392   4.783  0.6063 -0.6058 -0.1359
 1477SOL     OW16063   0.716   0.286   7.265  0.1992 -0.4324 -0.6352
 1477SOL    HW116064   0.686   0.196   7.274  3.1105 -1.2150  1.3057
 1477SOL    HW216065   0.711   0.305   7.359 -0.3994  1.2466 -1.0075
 1478SOL     OW16066   2.213   0.054  16.002  0.5420  0.1725 -0.5731
 1478SOL    HW116067   2.220   0.067  15.907  0.4944  0.4767 -0.5376
 1478SOL    HW216068   2.182   0.141  16.027 -0.0196 -0.4040  0.7266
 1479SOL     OW16069   0.111   2.786  16.003 -0.1734 -0.5866  0.0937
 1479SOL    HW116070   0.115   2.726  15.929 -0.0931 -1.9981  1.2352
 1479SOL    HW216071   0.066   2.861  15.965  0.3695  0.0093  0.6176
 1480SOL     OW16072   3.746   1.491  14.040  0.4824  0.3009 -0.2326
 1480SOL    HW116073   3.786   1.412  14.004  0.4346 -1.0241  2.6403
 1480SOL    HW216074   3.801   1.560  14.003  1.4408  0.4082  1.3731
 1481SOL     OW16075   2.637   2.268  10.827 -0.7353 -0.0433 -0.2810
 1481SOL    HW116076   2.624   2.303  10.915 -0.0492  1.2623 -0.7039
 1481SOL    HW216077   2.727   2.294  10.806  0.0573  1.0280  4.4202
 1482SOL     OW16078   0.729   0.154   1.335 -0.0000  0.1731 -0.4361
 1482SOL    HW116079   0.636   0.173   1.319  0.2781  1.8989 -0.0480
 1482SOL    HW216080   0.727   0.059   1.345 -0.8144 -0.0991 -2.9785
 1483SOL     OW16081   3.346   4.092  15.886 -0.1136  0.0970 -0.0297
 1483SOL    HW116082   3.392   4.014  15.916  0.5142  1.1925  1.8365
 1483SOL    HW216083   3.387   4.111  15.801 -2.9241  3.5465 -0.6414
 1484SOL     OW16084   4.118   1.182   8.292 -0.1037 -0.1916 -0.0088
 1484SOL    HW116085   4.140   1.256   8.348 -0.2093 -0.8928  0.9576
 1484SOL    HW216086   4.099   1.225   8.209  1.0290  0.8114  0.2397
 1485SOL     OW16087   1.799   1.620  10.903  0.1348  0.1885 -0.0298
 1485SOL    HW116088   1.787   1.551  10.838 -1.1241  2.5310 -2.2776
 1485SOL    HW216089   1.892   1.635  10.884  0.0615 -0.0897 -0.6090
 1486SOL     OW16090   0.746   4.103  16.309  0.5358 -0.2876  0.0380
 1486SOL    HW116091   0.717   4.043  16.240  1.2639  0.0164 -0.5250
 1486SOL    HW216092   0.702   4.060  16.383 -2.1807 -0.7920 -1.8506
 1487SOL     OW16093   4.015   0.860   2.790 -0.3875  0.8573  1.1373
 1487SOL    HW116094   3.934   0.825   2.827 -1.3516 -0.5327 -2.2843
 1487SOL    HW216095   4.056   0.783   2.751  1.7026  2.0186  0.9892
 1488SOL     OW16096   2.008   1.275  10.288  0.0346 -0.4713  0.0916
 1488SOL    HW116097   2.084   1.277  10.230 -1.0806  0.8428 -1.3378
 1488SOL    HW216098   1.963   1.197  10.257  2.2605 -2.1385  1.0599
 1489SOL     OW16099   0.577   0.474   8.351  0.7984 -0.4157 -0.3352
 1489SOL    HW116100   0.512   0.529   8.307  0.6680  0.3193  0.7933
 1489SOL    HW216101   0.588   0.397   8.295  2.0099  0.9095 -1.9255
 1490SOL     OW16102   2.715   3.921  16.685  0.2434 -0.5195 -0.2448
 1490SOL    HW116103   2.678   4.006  16.709 -1.8538 -0.9143 -2.0880
 1490SOL    HW216104   2.800   3.960  16.665  1.3171 -2.6260  0.2297
 1491SOL     OW16105   2.595   4.334   9.494 -0.1893 -0.2245  0.1597
 1491SOL    HW116106   2.510   4.331   9.538  0.0346 -0.2175  0.5922
 1491SOL    HW216107   2.611   4.428   9.493 -0.2243 -0.2258 -1.0595
 1492SOL     OW16108   2.574   4.158  16.716  0.2957  0.0362  0.5995
 1492SOL    HW116109   2.548   4.222  16.783  1.8081  0.2074  1.0237
 1492SOL    HW216110   2.614   4.208  16.645 -0.9853 -1.3600 -1.1233
 1493SOL     OW16111   4.648   4.369   9.829  0.2380 -0.5692 -0.3946
 1493SOL    HW116112   4.649   4.424   9.751  2.5837 -1.1927 -0.7985
 1493SOL    HW216113   4.723   4.402   9.878 -2.2213  0.2510  2.8394
 1494SOL     OW16114   2.338   3.480   7.688  0.0069 -0.1954  0.1741
 1494SOL    HW116115   2.293   3.401   7.720 -1.6634  1.0411  0.8608
 1494SOL    HW216116   2.429   3.459   7.707  0.4993  1.5079 -0.3110
 1495SOL     OW16117   1.316   0.092   2.120 -0.9344 -0.0606  0.3422
 1495SOL    HW116118   1.388   0.047   2.165 -0.2641 -0.6638 -1.3486
 1495SOL    HW216119   1.368   0.147   2.062  0.6885 -1.0496  0.8540
 1496SOL     OW16120   0.635   1.981   7.710 -0.4648  0.1721 -0.6032
 1496SOL    HW116121   0.597   1.894   7.720  0.8066 -0.3798 -0.5873
 1496SOL    HW216122   0.684   1.989   7.792 -1.6845  0.7906  0.0737
 1497SOL     OW16123   2.383   0.563   8.930 -0.3624 -0.3127 -0.0529
 1497SOL    HW116124   2.398   0.470   8.912 -0.3772 -0.3567  0.1714
 1497SOL    HW216125   2.442   0.612   8.872 -0.6524 -0.2324 -0.2882
 1498SOL     OW16126   2.816   0.756  11.952  0.5786  0.1565  0.7081
 1498SOL    HW116127   2.870   0.710  11.889 -3.5931 -1.4533 -1.6215
 1498SOL    HW216128   2.867   0.747  12.032  0.8753 -0.5884  0.4246
 1499SOL     OW16129   0.118   4.212   9.324 -0.3742 -1.0059 -0.1961
 1499SOL    HW116130   0.035   4.189   9.365 -0.0956  2.4200  2.2979
 1499SOL    HW216131   0.091   4.195   9.234  0.5238 -0.7836 -0.5083
 1500SOL     OW16132   4.351   2.057   3.675 -0.1428 -0.6143  0.2781
 1500SOL    HW116133   4.422   2.106   3.634 -0.8610 -1.5375 -2.0766
 1500SOL    HW216134   4.403   2.036   3.753 -1.0216 -0.9126  0.7852
 1501SOL     OW16135   1.458   4.024   8.824 -0.4153 -0.3706  0.3385
 1501SOL    HW116136   1.488   3.933   8.819  2.4155  0.7946 -3.1242
 1501SOL    HW216137   1.513   4.075   8.766  0.3582 -0.6989  0.7825
 1502SOL     OW16138   3.144   4.161   4.346  0.5804  0.1761 -0.1374
 1502SOL    HW116139   3.106   4.087   4.299  0.9331  0.3642 -0.7251
 1502SOL    HW216140   3.233   4.170   4.312  1.6654  0.9492  2.9109
 1503SOL     OW16141   2.936   4.050  15.836  0.0835 -0.3061  0.4555
 1503SOL    HW116142   2.912   4.108  15.763 -3.9246  0.5586  2.4637
 1503SOL    HW216143   2.920   3.962  15.803 -1.1252 -1.1657  3.3597
 1504SOL     OW16144   2.986   1.800  10.632  0.7552  0.0272 -0.4801
 1504SOL    HW116145   3.074   1.826  10.659  1.3507  0.1574 -2.5491
 1504SOL    HW216146   2.984   1.710  10.664  0.3964 -0.8330 -2.9251
 1505SOL     OW16147   2.012   3.199  16.484 -0.1966 -0.4595  0.3444
 1505SOL    HW116148   1.952   3.143  16.435  0.3983 -3.3430  2.9190
 1505SOL    HW216149   2.076   3.129  16.492 -0.3539 -0.8542 -1.9428
 1506SOL     OW16150   0.727   3.823   8.906  0.5510  0.2132  0.1487
 1506SOL    HW116151   0.811   3.779   8.919  1.1992  0.7102 -2.3085
 1506SOL    HW216152   0.732   3.893   8.972  0.2127  0.0611  0.3334
 1507SOL     OW16153   3.554   3.604   6.890 -0.5971 -0.0051  0.0145
 1507SOL    HW116154   3.524   3.671   6.951 -3.2858 -0.6247 -0.6056
 1507SOL    HW216155   3.605   3.550   6.951 -1.2924  0.3636  0.9168
 1508SOL     OW16156   2.151   2.075   7.081 -0.8394  0.3844  0.1772
 1508SOL    HW116157   2.226   2.111   7.034 -0.1686 -0.6358  0.4911
 1508SOL    HW216158   2.155   1.989   7.039  0.8373  0.4294  0.2511
 1509SOL     OW16159   0.003   2.728   8.723 -0.0139  0.7482  0.0168
 1509SOL    HW116160   4.678   2.658   8.738  0.2115  0.7922  1.2076
 1509SOL    HW216161   0.071   2.677   8.679  0.1334 -0.1012  1.2186
 1510SOL     OW16162   2.096   3.525   3.333 -0.7548 -0.1736 -0.5805
 1510SOL    HW116163   2.148   3.476   3.269 -0.1072  0.2463 -0.3819
 1510SOL    HW216164   2.005   3.521   3.304 -1.7083  0.6558  2.2712
 1511SOL     OW16165   0.199   1.717   8.044  0.2602 -0.6364  0.2303
 1511SOL    HW116166   0.265   1.741   8.108  0.8427 -1.0314 -0.2197
 1511SOL    HW216167   0.138   1.790   8.053  0.8462 -0.1498  0.2948
 1512SOL     OW16168   4.566   3.384   9.074  0.6596 -0.4165 -0.3153
 1512SOL    HW116169   4.579   3.478   9.080  1.9513 -0.6857  1.1433
 1512SOL    HW216170   4.626   3.354   9.142  1.6615  0.0408 -1.0121
 1513SOL     OW16171   2.405   4.624   6.780  0.5694 -0.3790 -0.0341
 1513SOL    HW116172   2.427   4.575   6.701  1.7526 -3.5134  2.2623
 1513SOL    HW216173   2.476   4.688   6.787  1.1612 -1.1433  1.0074
 1514SOL     OW16174   4.016   0.007   1.177  0.1167  0.0693 -0.5018
 1514SOL    HW116175   4.087   0.070   1.192  0.0404  0.5173 -2.0986
 1514SOL    HW216176   4.027   4.678   1.243  0.5093 -1.0949 -1.7757
 1515SOL     OW16177   3.325   4.305   8.035  0.1088 -0.4030 -0.1604
 1515SOL    HW116178   3.269   4.271   8.105 -1.0051  0.3587 -0.6760
 1515SOL    HW216179   3.408   4.316   8.081  0.2673  1.0037 -0.7748
 1516SOL     OW16180   0.109   0.414   9.219  0.4305 -0.0913 -0.8037
 1516SOL    HW116181   0.166   0.469   9.272 -0.3148 -0.8945  0.8510
 1516SOL    HW216182   0.075   0.465   9.146 -1.3840 -2.6161 -1.7314
 1517SOL     OW16183   2.902   1.458   5.979  0.0041 -0.1358 -0.1496
 1517SOL    HW116184   2.996   1.441   5.983  0.0902  0.6469  0.9736
 1517SOL    HW216185   2.908   1.551   5.999 -0.9661 -0.2847  0.8436
 1518SOL     OW16186   3.980   4.624  15.831 -0.2849 -0.9351  0.0139
 1518SOL    HW116187   3.959   4.717  15.835  0.0838 -0.7993 -1.2015
 1518SOL    HW216188   3.942   4.593  15.913 -0.9363  2.4687  0.9891
 1519SOL     OW16189   0.883   2.252   7.149 -0.0472  0.6386 -0.2286
 1519SOL    HW116190   0.976   2.270   7.164 -0.0570  1.3829 -1.0689
 1519SOL    HW216191   0.882   2.187   7.080 -1.0521  0.2175  0.1825
 1520SOL     OW16192   1.793   3.590   7.196 -0.1318 -0.2907  0.5384
 1520SOL    HW116193   1.804   3.552   7.109 -1.1651 -2.0803  1.1880
 1520SOL    HW216194   1.873   3.640   7.208  0.4822 -0.8030 -1.4692
 1521SOL     OW16195   1.381   1.997  15.769  0.2458  0.7339 -0.2387
 1521SOL    HW116196   1.369   1.934  15.698  1.4274 -1.3809  1.4636
 1521SOL    HW216197   1.303   1.997  15.825  0.2538 -0.6383 -0.2447
 1522SOL     OW16198   2.471   4.410   0.978  0.0306  0.5450 -0.2249
 1522SOL    HW116199   2.447   4.332   0.928  0.8772  0.0485  0.1542
 1522SOL    HW216200   2.403   4.474   0.954  0.2340  0.9632  0.3044
 1523SOL     OW16201   0.849   1.864   8.943 -0.1637 -0.1274 -0.2658
 1523SOL    HW116202   0.916   1.884   8.877  1.8530  0.2545  1.9012
 1523SOL    HW216203   0.767   1.866   8.894 -0.0654 -0.4089 -0.4384
 1524SOL     OW16204   1.073   3.401   9.152  0.0895 -0.4798 -0.6450
 1524SOL    HW116205   1.149   3.400   9.209 -1.4676  1.8896  1.4677
 1524SOL    HW216206   1.010   3.425   9.220  0.0716 -0.0195 -0.8229
 1525SOL     OW16207   4.676   2.908  12.968 -0.3252  0.1100 -0.0138
 1525SOL    HW116208   4.658   2.985  13.023 -0.3086 -0.2969  0.5600
 1525SOL    HW216209   4.727   2.863  13.035 -0.5084 -0.5185 -0.2980
 1526SOL     OW16210   4.572   2.617   6.209  0.0745  0.1922  0.5148
 1526SOL    HW116211   4.477   2.609   6.211 -0.0287  1.7505  1.5171
 1526SOL    HW216212   4.587   2.665   6.290  2.7527  2.1794 -1.1696
 1527SOL     OW16213   0.708   2.252   6.640  0.8368  0.0135  0.5697
 1527SOL    HW116214   0.666   2.330   6.677  0.7271  1.1913 -2.0793
 1527SOL    HW216215   0.686   2.184   6.704 -1.1671  0.1851  0.0818
 1528SOL     OW16216   1.329   3.744   3.467 -0.3054 -0.4917 -0.0232
 1528SOL    HW116217   1.328   3.775   3.376 -0.8564 -0.8427 -0.1428
 1528SOL    HW216218   1.238   3.714   3.478 -0.4772  0.3720  0.8646
 1529SOL     OW16219   0.765   0.547   9.006  0.2867 -0.3472 -0.4244
 1529SOL    HW116220   0.685   0.498   9.024  0.5590  0.6399  3.3048
 1529SOL    HW216221   0.791   0.506   8.923  0.3367  1.2509 -1.2049
 1530SOL     OW16222   1.638   2.672  12.784  0.2529 -0.5245 -0.1385
 1530SOL    HW116223   1.635   2.606  12.715 -1.5739 -0.1457 -0.4240
 1530SOL    HW216224   1.586   2.747  12.757 -0.6472 -0.9017  0.5198
 1531SOL     OW16225   4.357   3.279   0.499 -0.5565 -0.0134  0.3510
 1531SOL    HW116226   4.277   3.331   0.492 -0.0626  0.4992 -1.4965
 1531SOL    HW216227   4.353   3.262   0.593 -1.2574  2.3766  0.7389
 1532SOL     OW16228   2.573   4.333   0.597  0.1759 -0.2936 -0.1879
 1532SOL    HW116229   2.592   4.402   0.660  0.5763 -1.0895  0.5626
 1532SOL    HW216230   2.517   4.268   0.640  0.9105 -1.1022 -0.4463
 1533SOL     OW16231   2.734   2.179  12.097  0.4904 -0.6885  0.6555
 1533SOL    HW116232   2.782   2.234  12.159 -0.9465  1.6858 -0.3035
 1533SOL    HW216233   2.803   2.141  12.042 -1.3464 -0.9103 -1.4797
 1534SOL     OW16234   1.602   1.376  15.197 -0.0153 -0.4222 -0.1009
 1534SOL    HW116235   1.567   1.300  15.151 -0.3323  0.0528 -0.6483
 1534SOL    HW216236   1.639   1.425  15.124  0.6569 -1.6973 -0.6242
 1535SOL     OW16237   1.222   2.959   1.659 -0.3482 -0.3911  0.2607
 1535SOL    HW116238   1.301   2.916   1.626  0.0275  0.5855 -0.1010
 1535SOL    HW216239   1.263   3.003   1.733  1.9991 -0.1406 -1.1863
 1536SOL     OW16240   2.620   0.692  16.001  0.2162 -0.3702  0.5958
 1536SOL    HW116241   2.541   0.746  15.994 -0.0775 -0.4673  3.0485
 1536SOL    HW216242   2.612   0.651  16.087  1.5360  0.8142  1.2749
 1537SOL     OW16243   3.070   4.696   7.618  0.2074  0.6588  0.1473
 1537SOL    HW116244   3.080   4.720   7.525 -2.0009  0.0885 -0.2256
 1537SOL    HW216245   3.113   4.611   7.613 -0.3192  0.3320  1.3337
 1538SOL     OW16246   1.557   0.157  13.166 -0.2777  0.0944  0.0345
 1538SOL    HW116247   1.628   0.165  13.102  0.0398 -0.2587  0.3387
 1538SOL    HW216248   1.483   0.197  13.121  0.7854 -0.0478 -1.8515
 1539SOL     OW16249   2.873   4.029   3.601  0.5129 -0.2642 -0.5367
 1539SOL    HW116250   2.838   3.943   3.624  0.9065 -0.4609 -0.6843
 1539SOL    HW216251   2.797   4.076   3.565  0.1551 -0.6378 -0.2738
 1540SOL     OW16252   0.411   3.341   3.393  0.2713  0.4662  0.0071
 1540SOL    HW116253   0.432   3.292   3.313 -1.0185  2.6764 -1.6683
 1540SOL    HW216254   0.362   3.271   3.436  2.0022 -1.5198 -1.2124
 1541SOL     OW16255   3.204   0.874  16.569 -0.0583  0.6623  0.1694
 1541SOL    HW116256   3.227   0.817  16.496 -0.5780  1.8155 -0.8834
 1541SOL    HW216257   3.261   0.835  16.636  0.9757  1.1698 -0.4192
 1542SOL     OW16258   2.814   1.503   4.978  0.2765  0.1190 -0.2826
 1542SOL    HW116259   2.900   1.466   4.958 -0.8161 -2.5701 -0.0038
 1542SOL    HW216260   2.817   1.580   4.922  3.6051  0.5959  0.5050
 1543SOL     OW16261   0.868   1.163  12.118  0.9172 -0.0898  0.1042
 1543SOL    HW116262   0.782   1.134  12.088  0.8509 -0.4520  0.6386
 1543SOL    HW216263   0.858   1.258  12.124 -0.8601 -0.2239 -0.6758
 1544SOL     OW16264   2.090   2.744  14.781  0.4496  0.3299  0.2388
 1544SOL    HW116265   2.106   2.678  14.714  0.3692 -1.0491  1.5707
 1544SOL    HW216266   2.092   2.703  14.868  1.1066 -0.8360 -0.3207
 1545SOL     OW16267   3.639   0.088   8.542  0.5209  0.5991 -0.3409
 1545SOL    HW116268   3.727   0.122   8.529  0.7473  1.4235  3.3300
 1545SOL    HW216269   3.657   4.738   8.572 -1.8373 -0.9796 -3.5219
 1546SOL     OW16270   0.330   1.051   2.201 -0.2498  0.3804  0.3711
 1546SOL    HW116271   0.354   1.009   2.283  2.1231  1.0069  0.0009
 1546SOL    HW216272   0.377   1.134   2.212  0.3708 -0.0901  1.1996
 1547SOL     OW16273   0.431   2.075   9.420 -0.9802  0.1984 -0.1721
 1547SOL    HW116274   0.390   2.008   9.476  0.8753 -1.0203 -0.3040
 1547SOL    HW216275   0.387   2.157   9.446  0.8078  1.5016 -1.2645
 1548SOL     OW16276   2.530   3.802   4.122  0.1714 -0.5983  0.0231
 1548SOL    HW116277   2.565   3.862   4.056  2.5231 -3.0916 -0.9946
 1548SOL    HW216278   2.609   3.777   4.170 -1.2706 -1.7354  1.8035
 1549SOL     OW16279   4.286   3.665   8.168  0.0318 -0.0481 -0.2798
 1549SOL    HW116280   4.211   3.722   8.152 -0.0218 -0.2913 -0.8651
 1549SOL    HW216281   4.300   3.672   8.263  1.6849 -0.7753 -0.4616
 1550SOL     OW16282   4.343   3.748  10.955 -0.2298  0.0326  0.7212
 1550SOL    HW116283   4.407   3.677  10.949 -1.6435 -1.0605 -1.0981
 1550SOL    HW216284   4.287   3.727  10.880 -3.8108  2.4895  2.6965
 1551SOL     OW16285   4.693   4.572   7.868 -0.0423 -0.0719 -0.2918
 1551SOL    HW116286   4.680   4.627   7.791 -0.2124  2.5158  1.5587
 1551SOL    HW216287   4.733   4.634   7.930 -0.7055  0.2628 -0.1893
 1552SOL     OW16288   4.549   2.656   9.557 -0.1646  0.4043  0.0024
 1552SOL    HW116289   4.515   2.746   9.555 -0.6795  0.2341  0.8800
 1552SOL    HW216290   4.509   2.620   9.478  0.1152 -2.4398  1.1629
 1553SOL     OW16291   3.736   2.144   6.457  0.1524 -0.2898 -0.2748
 1553SOL    HW116292   3.763   2.202   6.385  1.0799 -0.5515 -0.1405
 1553SOL    HW216293   3.823   2.125   6.492  0.4731 -0.7252 -1.2767
 1554SOL     OW16294   0.295   1.611   5.724  0.1473  0.1208 -0.2915
 1554SOL    HW116295   0.293   1.588   5.631 -0.6411 -1.9406  0.2434
 1554SOL    HW216296   0.221   1.672   5.730 -1.2449 -1.6187  0.2792
 1555SOL     OW16297   1.270   4.465   1.727 -0.4205 -0.4218  0.4685
 1555SOL    HW116298   1.184   4.457   1.686 -0.9531  0.2672  1.4407
 1555SOL    HW216299   1.280   4.377   1.763  0.9672 -0.4154  0.0914
 1556SOL     OW16300   3.021   2.515   9.706 -0.0703 -0.3014  0.2990
 1556SOL    HW116301   2.960   2.483   9.640  1.3636 -0.0734 -1.1548
 1556SOL    HW216302   3.034   2.434   9.756 -0.1299 -0.8541 -0.5666
 1557SOL     OW16303   2.226   2.439  12.125  1.0285  0.0066  0.2263
 1557SOL    HW116304   2.292   2.424  12.057  0.0136 -1.6060 -0.3993
 1557SOL    HW216305   2.159   2.372  12.113  0.0158  1.6278 -2.9553
 1558SOL     OW16306   0.567   2.876   9.309  0.1190 -0.0567 -0.4299
 1558SOL    HW116307   0.587   2.862   9.402 -0.3712  2.5985  0.0765
 1558SOL    HW216308   0.654   2.903   9.282  0.7378 -0.2151  1.3782
 1559SOL     OW16309   4.716   2.792   2.583  0.2671  0.1502  0.3071
 1559SOL    HW116310   4.631   2.761   2.613 -1.4480  1.9444 -2.7391
 1559SOL    HW216311   0.016   2.718   2.538 -0.8124 -0.7469  0.8619
 1560SOL     OW16312   0.840   2.571  10.131  0.5410 -0.4876  0.0002
 1560SOL    HW116313   0.751   2.535  10.122  0.0965  1.0775 -1.8315
 1560SOL    HW216314   0.889   2.494  10.101  0.5594 -0.4316 -0.1135
 1561SOL     OW16315   0.686   3.881  16.174  0.4559  0.3224  0.3492
 1561SOL    HW116316   0.679   3.790  16.206  0.1532  0.5634  0.9699
 1561SOL    HW216317   0.769   3.881  16.127  0.1400  2.2495 -0.1857
 1562SOL     OW16318   1.957   3.845  15.368 -0.1660  0.3164 -0.8840
 1562SOL    HW116319   2.009   3.874  15.294 -0.1182  0.3617 -0.8332
 1562SOL    HW216320   1.941   3.752  15.352  1.9469 -0.2706  0.4104
 1563SOL     OW16321   0.170   2.180   7.696  0.4529 -0.2609  0.5824
 1563SOL    HW116322   0.199   2.196   7.606 -2.3474  0.4945 -0.1691
 1563SOL    HW216323   0.080   2.150   7.686  0.4321  0.4700 -1.4792
 1564SOL     OW16324   0.270   1.333   7.725  0.4112 -0.5113 -0.8041
 1564SOL    HW116325   0.226   1.267   7.779 -2.8590  0.2981 -2.4873
 1564SOL    HW216326   0.257   1.405   7.786  0.4784 -1.7787  0.7089
 1565SOL     OW16327   3.743   0.669   7.580 -0.2188 -0.4642  0.0498
 1565SOL    HW116328   3.678   0.722   7.534  1.9300  2.1604  0.0069
 1565SOL    HW216329   3.798   0.729   7.631 -1.9760  1.7763 -0.6605
 1566SOL     OW16330   0.302   3.715   4.156  0.1085 -0.2110 -0.1763
 1566SOL    HW116331   0.213   3.684   4.137 -0.1209  0.7168 -0.5959
 1566SOL    HW216332   0.334   3.640   4.206 -2.0775  0.2608  1.9549
 1567SOL     OW16333   1.497   0.241   1.943 -0.1811  0.6008  0.9441
 1567SOL    HW116334   1.529   0.153   1.925  0.1345  0.3962  2.4985
 1567SOL    HW216335   1.497   0.286   1.858 -1.7391  1.9438  1.6676
 1568SOL     OW16336   3.334   2.314   7.261  0.4192 -0.0653  0.0952
 1568SOL    HW116337   3.245   2.280   7.250 -0.2014  1.4468  0.4953
 1568SOL    HW216338   3.384   2.234   7.277 -1.3515 -0.7716  2.0795
 1569SOL     OW16339   3.960   3.542   7.194  0.8926  0.0006  0.0635
 1569SOL    HW116340   3.978   3.592   7.273  0.9102 -1.6614  1.1220
 1569SOL    HW216341   3.941   3.607   7.126 -0.9587  0.7679  1.3051
 1570SOL     OW16342   4.099   1.433   8.126  0.6396 -0.2620  0.0724
 1570SOL    HW116343   4.120   1.526   8.130 -0.1268 -0.1900  2.4985
 1570SOL    HW216344   4.128   1.417   8.037 -0.2811 -0.9933 -0.1011
 1571SOL     OW16345   1.965   0.777   4.048  0.2592 -0.6938 -0.3113
 1571SOL    HW116346   1.986   0.825   4.128 -1.0352  0.1299 -0.4636
 1571SOL    HW216347   2.040   0.719   4.037  0.0376 -1.3365  1.4953
 1572SOL     OW16348   0.312   0.367   1.178 -0.1731  0.1204  0.1650
 1572SOL    HW116349   0.341   0.459   1.180 -0.1783  0.1412 -0.6546
 1572SOL    HW216350   0.317   0.352   1.084 -0.2577  1.6694 -0.0823
 1573SOL     OW16351   2.709   4.648   7.244  0.0059 -0.1807  0.2053
 1573SOL    HW116352   2.636   4.708   7.227  2.2324  2.1789 -0.8082
 1573SOL    HW216353   2.710   4.654   7.339  1.2254  1.0583  0.1091
 1574SOL     OW16354   4.597   1.872   9.676  0.6719 -0.4478  0.3334
 1574SOL    HW116355   4.514   1.827   9.667  0.3662  0.0353  0.7581
 1574SOL    HW216356   4.631   1.854   9.764 -0.8581 -1.9464  0.5954
 1575SOL     OW16357   3.515   1.184   4.019 -0.0980 -0.0154 -0.1714
 1575SOL    HW116358   3.530   1.273   4.052  0.2730 -0.3777  0.6442
 1575SOL    HW216359   3.452   1.193   3.948  1.8627 -0.5031 -1.9647
 1576SOL     OW16360   3.971   3.691   7.452 -0.3093  0.1111  0.0426
 1576SOL    HW116361   4.066   3.702   7.453 -0.4640  1.3890  1.6598
 1576SOL    HW216362   3.944   3.781   7.431  0.6123  0.6336  1.0537
 1577SOL     OW16363   2.197   0.548  10.182  0.1709  0.1350 -0.1723
 1577SOL    HW116364   2.156   0.576  10.264 -0.1526  3.4253 -1.4531
 1577SOL    HW216365   2.117   0.525  10.133  0.7709 -2.3164 -0.0093
 1578SOL     OW16366   1.754   2.984  16.297  0.3126  0.3465  0.2585
 1578SOL    HW116367   1.820   2.990  16.228 -1.5013 -1.3021 -1.6317
 1578SOL    HW216368   1.744   3.076  16.323  1.7199  0.6489 -0.2936
 1579SOL     OW16369   4.184   4.610  10.974 -0.6342 -0.4391 -0.1163
 1579SOL    HW116370   4.250   4.679  10.983 -0.9123 -0.3370  1.1783
 1579SOL    HW216371   4.217   4.575  10.892 -2.1615 -0.6154 -0.6594
 1580SOL     OW16372   4.738   2.204  14.636  0.7051 -0.2401 -0.0346
 1580SOL    HW116373   4.653   2.174  14.605  1.4260 -1.3557 -0.9471
 1580SOL    HW216374   0.039   2.239  14.556 -0.3225  1.1610  0.0780
 1581SOL     OW16375   4.051   1.643   3.445  0.3529  0.2535  0.3034
 1581SOL    HW116376   4.066   1.586   3.521 -4.3521 -0.6294  0.5392
 1581SOL    HW216377   4.064   1.721   3.500 -1.8802  1.0401 -0.3079
 1582SOL     OW16378   1.652   0.709   7.688  0.1322  0.1632  0.0296
 1582SOL    HW116379   1.726   0.662   7.726  1.0643  0.3844 -1.5384
 1582SOL    HW216380   1.689   0.776   7.631  0.7139  0.4508  0.7395
 1583SOL     OW16381   1.334   0.016   8.616 -0.6166  0.1511 -0.6155
 1583SOL    HW116382   1.386   0.096   8.612 -1.3061  0.5850 -0.8352
 1583SOL    HW216383   1.251   0.046   8.578 -0.9156 -0.1240 -0.1772
 1584SOL     OW16384   3.363   3.354   3.299 -0.2447 -0.1170  0.2585
 1584SOL    HW116385   3.313   3.433   3.282  0.3828 -0.5018 -3.3290
 1584SOL    HW216386   3.421   3.367   3.374  0.1386  1.6907 -0.3606
 1585SOL     OW16387   2.310   1.133   6.446 -0.2404 -0.2397  0.4718
 1585SOL    HW116388   2.219   1.130   6.475 -0.2583  0.3593  0.4579
 1585SOL    HW216389   2.361   1.093   6.517  0.9111  1.0835  0.3851
 1586SOL     OW16390   2.773   1.885   9.837 -0.2746  0.3848 -0.0704
 1586SOL    HW116391   2.800   1.794   9.839 -1.3901  0.0559  0.3066
 1586SOL    HW216392   2.835   1.915   9.771 -0.2659  0.3235 -0.0894
 1587SOL     OW16393   2.830   3.648   9.326 -0.1676  0.6332 -0.0097
 1587SOL    HW116394   2.793   3.561   9.314  0.0957  0.5759 -0.4128
 1587SOL    HW216395   2.834   3.679   9.235 -0.2637 -0.6674 -0.4596
 1588SOL     OW16396   0.880   3.421   2.709  0.1543 -0.5096 -0.5396
 1588SOL    HW116397   0.793   3.430   2.671  1.6691  0.4239 -3.7150
 1588SOL    HW216398   0.940   3.413   2.635  2.4910  3.0582  0.9832
 1589SOL     OW16399   0.251   0.346  16.942  0.0680  0.0476  0.0338
 1589SOL    HW116400   0.319   0.290  16.979 -0.9481 -2.4203 -1.7472
 1589SOL    HW216401   0.239   0.413  17.009  3.2106  1.2736 -0.6565
 1590SOL     OW16402   0.111   2.277   6.610 -0.3772  0.1471  0.0044
 1590SOL    HW116403   0.036   2.334   6.629 -0.3080  0.7228 -1.4830
 1590SOL    HW216404   0.174   2.340   6.575 -1.8854  0.9690 -1.2146
 1591SOL     OW16405   1.999   1.749   8.752 -0.9923  0.5011  0.1315
 1591SOL    HW116406   1.987   1.803   8.830 -1.9016 -0.3024  0.5548
 1591SOL    HW216407   1.935   1.779   8.687 -1.2338 -0.0690  0.1040
 1592SOL     OW16408   0.944   3.658  16.814  0.3172 -0.0078 -0.1952
 1592SOL    HW116409   0.903   3.702  16.888 -0.5814 -1.3701  0.1138
 1592SOL    HW216410   0.939   3.567  16.842 -2.2683  0.9033  2.3149
 1593SOL     OW16411   0.280   0.938  15.604  0.1185 -0.0651  0.2550
 1593SOL    HW116412   0.333   1.013  15.631 -0.4724  0.3651  0.2265
 1593SOL    HW216413   0.347   0.872  15.587 -0.9787 -1.1124 -0.0238
 1594SOL     OW16414   4.159   1.487   5.688 -0.2658  0.2321  0.8695
 1594SOL    HW116415   4.084   1.430   5.677 -2.4558  3.4722 -0.9062
 1594SOL    HW216416   4.230   1.434   5.724  0.3996  1.0282  0.7394
 1595SOL     OW16417   1.828   0.422  14.415 -0.4420  0.0874  0.0044
 1595SOL    HW116418   1.862   0.433  14.326  1.2818  1.8036  0.8794
 1595SOL    HW216419   1.755   0.484  14.413 -0.0794  0.4674 -1.1970
 1596SOL     OW16420   3.798   3.543   2.183 -0.2263 -0.4462 -0.2711
 1596SOL    HW116421   3.820   3.634   2.207  0.5735 -0.0069 -2.7058
 1596SOL    HW216422   3.882   3.500   2.170 -0.7526 -1.4954 -0.1556
 1597SOL     OW16423   2.697   1.102   7.527 -0.1165 -0.5232  0.8131
 1597SOL    HW116424   2.789   1.124   7.542  0.6195 -2.6124 -0.6000
 1597SOL    HW216425   2.699   1.010   7.554  1.7029 -1.1357 -1.4094
 1598SOL     OW16426   1.583   4.449   7.021  0.5542 -0.1938 -0.3102
 1598SOL    HW116427   1.571   4.495   7.104  1.1462 -1.2831  0.3902
 1598SOL    HW216428   1.495   4.412   7.015  0.4210  0.3104 -1.3270
 1599SOL     OW16429   0.396   3.458   8.991  0.0555 -0.2442 -0.1890
 1599SOL    HW116430   0.311   3.427   9.023 -0.0172 -0.5001 -0.6338
 1599SOL    HW216431   0.365   3.544   8.963 -1.4704 -0.2422  1.4466
 1600SOL     OW16432   1.123   2.292   3.150  0.1045  0.2199  0.1377
 1600SOL    HW116433   1.056   2.329   3.208  0.3568 -0.2541  0.7279
 1600SOL    HW216434   1.139   2.365   3.089  0.9810 -0.7287 -0.7611
 1601SOL     OW16435   4.705   1.978  11.266  0.1101  0.0137 -0.1070
 1601SOL    HW116436   4.653   1.970  11.346  0.8173  2.0564  0.5590
 1601SOL    HW216437   0.017   1.899  11.281  0.7790  0.8846  2.1592
 1602SOL     OW16438   4.530   3.613   6.248 -0.9533  0.4974 -0.3871
 1602SOL    HW116439   4.441   3.584   6.265 -0.7594  0.2718  0.2639
 1602SOL    HW216440   4.557   3.540   6.193 -0.5314 -0.8075  1.5392
 1603SOL     OW16441   2.315   4.561   8.067 -0.2185 -0.2592  0.4118
 1603SOL    HW116442   2.316   4.637   8.010  0.8825  0.5314  1.4755
 1603SOL    HW216443   2.237   4.561   8.123  0.5029 -0.7571  1.4251
 1604SOL     OW16444   2.256   4.342   8.329 -0.1853 -0.5242 -0.3345
 1604SOL    HW116445   2.213   4.257   8.321 -2.7619  0.8806 -1.7819
 1604SOL    HW216446   2.223   4.374   8.414  1.2271  1.8807 -0.6904
 1605SOL     OW16447   1.401   0.500   3.762 -0.5161 -0.7743 -0.1159
 1605SOL    HW116448   1.431   0.550   3.838 -0.3307  1.2035 -1.4893
 1605SOL    HW216449   1.453   0.420   3.764  1.3878  0.5104  1.6476
 1606SOL     OW16450   3.554   2.779   5.055 -0.6187 -1.0435 -0.4200
 1606SOL    HW116451   3.493   2.707   5.071 -3.0778  0.8166 -1.3096
 1606SOL    HW216452   3.603   2.745   4.981  0.7420  2.0813 -0.9654
 1607SOL     OW16453   3.166   2.349   2.300  0.5390 -0.2164 -0.7058
 1607SOL    HW116454   3.230   2.291   2.342 -0.5129 -0.6500  0.2933
 1607SOL    HW216455   3.092   2.290   2.289 -0.2914  0.5890  0.6514
 1608SOL     OW16456   3.776   3.384   6.435 -0.3004  0.0486 -0.7050
 1608SOL    HW116457   3.687   3.395   6.470 -0.6653 -2.8317 -0.6683
 1608SOL    HW216458   3.780   3.288   6.426 -0.9590 -0.1681  1.2433
 1609SOL     OW16459   1.781   3.343   2.087 -0.2069  0.6767  0.1027
 1609SOL    HW116460   1.754   3.253   2.069 -0.7693  1.0358 -0.8131
 1609SOL    HW216461   1.836   3.351   2.008  0.7431 -0.7290  0.6054
 1610SOL     OW16462   2.966   2.045   5.172 -0.1613  0.0778 -0.2847
 1610SOL    HW116463   2.963   2.102   5.249 -0.5966  0.5873 -0.6779
 1610SOL    HW216464   2.973   2.110   5.103  0.4423  0.8138  0.4712
 1611SOL     OW16465   1.553   0.036   6.673  0.7028  0.6039 -0.5550
 1611SOL    HW116466   1.546   4.680   6.664  0.2794  0.3920  1.9629
 1611SOL    HW216467   1.470   0.068   6.636  0.0259 -0.0250  0.4146
 1612SOL     OW16468   4.247   4.544  13.578  0.2739  0.1139  0.0247
 1612SOL    HW116469   4.266   4.585  13.494 -2.4165  0.1526 -0.5944
 1612SOL    HW216470   4.174   4.491  13.544 -0.1620  0.9923 -0.4052
 1613SOL     OW16471   2.357   0.925   2.805  0.8290  0.7012  0.3271
 1613SOL    HW116472   2.377   0.937   2.712 -2.2303  0.8253 -0.3121
 1613SOL    HW216473   2.272   0.881   2.802  0.2125  2.0070 -1.1732
 1614SOL     OW16474   3.303   1.773   1.067  0.2828  0.1169 -0.2225
 1614SOL    HW116475   3.299   1.869   1.068  0.8386  0.1604 -2.7538
 1614SOL    HW216476   3.303   1.749   1.160  0.5530  0.4500 -0.1397
 1615SOL     OW16477   3.220   3.814   3.701 -0.3079  0.4127  0.0002
 1615SOL    HW116478   3.185   3.903   3.711 -1.2820 -0.1579  1.7077
 1615SOL    HW216479   3.223   3.788   3.793  0.9805 -1.5142 -0.5909
 1616SOL     OW16480   4.498   2.802  14.295 -0.0138  0.6744 -0.2711
 1616SOL    HW116481   4.517   2.888  14.257  2.3877 -0.1014 -0.8182
 1616SOL    HW216482   4.506   2.742  14.222  0.9114  1.0153 -0.4387
 1617SOL     OW16483   2.591   0.954  17.661 -0.3950  0.5100  0.2319
 1617SOL    HW116484   2.685   0.959  17.642 -0.7183  1.8704 -0.9765
 1617SOL    HW216485   2.562   0.958  17.570 -0.3473 -2.9612  0.0338
 1618SOL     OW16486   0.242   0.230  11.365 -0.1489  0.5130 -0.5482
 1618SOL    HW116487   0.177   0.160  11.369  1.4136 -0.9200 -0.0208
 1618SOL    HW216488   0.227   0.273  11.281 -1.0017  1.4622  0.0940
 1619SOL     OW16489   2.489   3.544   2.692 -0.4362  0.5237 -0.1467
 1619SOL    HW116490   2.441   3.519   2.771  0.2070 -1.1306 -0.2915
 1619SOL    HW216491   2.573   3.547   2.737 -0.7588 -2.9136  0.6723
 1620SOL     OW16492   1.865   1.628   5.388 -0.0537  0.0767  0.0649
 1620SOL    HW116493   1.824   1.542   5.404 -0.9231  0.2995 -0.9174
 1620SOL    HW216494   1.784   1.678   5.375 -1.2421 -1.6192  0.8177
 1621SOL     OW16495   0.000   0.922   3.382  0.6001 -0.0902 -0.3070
 1621SOL    HW116496   0.017   0.866   3.458  1.2113  0.6049  0.0748
 1621SOL    HW216497   4.647   0.944   3.386  0.7416  0.4764 -0.1856
 1622SOL     OW16498   0.270   0.558  14.320  0.4419 -0.2449 -0.3362
 1622SOL    HW116499   0.350   0.510  14.298 -0.5399 -2.1495  0.2436
 1622SOL    HW216500   0.220   0.484  14.354  1.5063 -2.1558 -2.9632
 1623SOL     OW16501   3.265   3.775   2.017 -0.2905 -0.1727  0.1463
 1623SOL    HW116502   3.341   3.757   2.073  1.4630 -0.4775 -2.2982
 1623SOL    HW216503   3.309   3.834   1.956 -3.5944  2.9409  0.8395
 1624SOL     OW16504   1.347   1.228   2.947  0.1133 -0.2164 -0.0523
 1624SOL    HW116505   1.292   1.150   2.943 -3.7972  2.5967 -0.3245
 1624SOL    HW216506   1.323   1.273   2.866 -0.0607 -2.5140 -1.2591
 1625SOL     OW16507   4.155   2.822   4.109  0.4850  0.0779 -0.1034
 1625SOL    HW116508   4.195   2.854   4.029  1.1631  0.2061  0.2855
 1625SOL    HW216509   4.072   2.868   4.118  1.1660  1.5493 -1.4439
 1626SOL     OW16510   1.427   0.125   2.680 -0.2778  0.0339 -0.1574
 1626SOL    HW116511   1.458   0.121   2.590 -4.7400  0.0992 -1.6848
 1626SOL    HW216512   1.410   0.032   2.695 -0.1979 -0.2857 -2.0643
 1627SOL     OW16513   3.650   2.287  16.285 -0.4757  0.0399 -0.3438
 1627SOL    HW116514   3.670   2.263  16.194 -0.4541  2.0625 -0.8808
 1627SOL    HW216515   3.685   2.210  16.329 -0.2112 -1.0780 -2.4864
 1628SOL     OW16516   4.692   4.609  15.027  0.2553 -0.5077  0.3474
 1628SOL    HW116517   4.609   4.637  15.066  0.1980  2.9612 -2.2803
 1628SOL    HW216518   0.009   4.684  15.043 -2.1032  1.3641 -0.1510
 1629SOL     OW16519   2.153   2.522   6.018 -0.1457 -0.0665  0.1285
 1629SOL    HW116520   2.213   2.475   6.077 -0.6156  0.3600  0.9479
 1629SOL    HW216521   2.114   2.454   5.964 -1.7709  0.4093  0.7025
 1630SOL     OW16522   1.733   4.402  14.160  0.0082 -0.4062 -0.6727
 1630SOL    HW116523   1.711   4.488  14.195 -2.3477 -1.7026  1.0585
 1630SOL    HW216524   1.653   4.371  14.117 -1.0965 -1.4225  2.0990
 1631SOL     OW16525   3.592   3.774   3.028  0.1391 -0.1604  0.2212
 1631SOL    HW116526   3.548   3.835   3.089 -0.4284 -1.4037  1.0542
 1631SOL    HW216527   3.593   3.693   3.078  1.0703  0.3210  0.9695
 1632SOL     OW16528   2.506   2.012  10.873  0.4766  0.2950  0.1813
 1632SOL    HW116529   2.417   2.034  10.844  0.3296 -0.9640 -0.3347
 1632SOL    HW216530   2.551   2.084  10.830 -0.0389 -0.4598 -1.6575
 1633SOL     OW16531   1.331   1.712   5.312  0.1590 -0.1416  0.0620
 1633SOL    HW116532   1.319   1.634   5.257  0.4044  0.8156 -1.3588
 1633SOL    HW216533   1.403   1.750   5.261  0.2300  2.1465  1.8871
 1634SOL     OW16534   2.596   2.279   1.969  0.3270  0.4992  0.1093
 1634SOL    HW116535   2.586   2.290   1.874 -0.3511  0.6285  0.1899
 1634SOL    HW216536   2.688   2.292   1.992 -0.7913  2.4441  3.4881
 1635SOL     OW16537   2.889   1.404   1.853 -0.5393  0.3166  0.1046
 1635SOL    HW116538   2.907   1.496   1.839 -1.6523  0.2202 -1.8982
 1635SOL    HW216539   2.912   1.364   1.769 -1.1664 -0.0144  0.0916
 1636SOL     OW16540   1.270   0.416   3.019  0.1529 -0.2163 -0.3315
 1636SOL    HW116541   1.204   0.481   2.996 -2.0083 -2.2464  0.1456
 1636SOL    HW216542   1.319   0.467   3.083  0.9231 -0.6311 -0.5845
 1637SOL     OW16543   0.588   0.277   4.265 -0.2117  0.0748  0.1469
 1637SOL    HW116544   0.505   0.242   4.299  1.0864 -1.0030  2.2265
 1637SOL    HW216545   0.621   0.329   4.338 -1.7756  2.9134 -1.1921
 1638SOL     OW16546   0.323   4.055   5.911  0.0335  0.5231 -0.4390
 1638SOL    HW116547   0.388   4.121   5.935  0.1732  0.2915 -0.1789
 1638SOL    HW216548   0.369   4.010   5.840 -0.2812  0.4248 -0.5806
 1639SOL     OW16549   1.129   3.527  14.773 -0.2514  0.0812  0.6382
 1639SOL    HW116550   1.145   3.608  14.821  0.7476  0.4959 -0.3984
 1639SOL    HW216551   1.089   3.485  14.849  1.2809 -0.1193  1.3293
 1640SOL     OW16552   0.204   1.958   0.014 -0.3856  0.0546  0.6171
 1640SOL    HW116553   0.235   1.927  17.684  0.1467 -0.4419  0.9890
 1640SOL    HW216554   0.136   1.894   0.033 -0.5420  0.2720  0.7901
 1641SOL     OW16555   0.145   4.685  16.749  0.5245  0.4217 -0.0823
 1641SOL    HW116556   0.118   4.685  16.657 -0.6649  1.3214  0.2790
 1641SOL    HW216557   0.141   4.590  16.762  0.1059  0.5477  0.6777
 1642SOL     OW16558   1.670   3.973   6.960 -0.6797  0.0223 -0.0073
 1642SOL    HW116559   1.723   3.918   6.904 -0.9841  0.6115 -0.8845
 1642SOL    HW216560   1.742   3.992   7.020  0.3377  1.5047 -1.6934
 1643SOL     OW16561   3.651   3.346   2.335 -0.2268 -0.4402  0.0330
 1643SOL    HW116562   3.691   3.398   2.265 -1.1686  1.2885  0.7831
 1643SOL    HW216563   3.620   3.269   2.288 -3.5713  0.4741  0.7914
 1644SOL     OW16564   0.621   1.976   5.957  0.3121 -0.6328 -0.3594
 1644SOL    HW116565   0.568   2.052   5.980  0.7724 -1.2540  2.6664
 1644SOL    HW216566   0.634   1.953   6.049  0.0851  0.2475 -0.1093
 1645SOL     OW16567   0.539   4.167   5.639 -0.3849 -0.6082  0.3770
 1645SOL    HW116568   0.554   4.178   5.733 -1.9104  0.6337  0.4748
 1645SOL    HW216569   0.499   4.080   5.632 -2.4916  0.0955  3.6365
 1646SOL     OW16570   1.698   0.739   4.049 -0.5242 -0.1519 -0.2583
 1646SOL    HW116571   1.714   0.744   4.143 -2.8438 -2.4896  0.2639
 1646SOL    HW216572   1.789   0.746   4.020  0.0363  0.0590  1.5488
 1647SOL     OW16573   0.473   0.202   1.299  0.2418 -0.0744  0.2920
 1647SOL    HW116574   0.417   0.270   1.260  0.2258  0.7106  1.6879
 1647SOL    HW216575   0.413   0.127   1.299  1.6388 -1.1973 -2.1047
 1648SOL     OW16576   0.890   2.605   4.503  0.0365 -0.0739 -0.8745
 1648SOL    HW116577   0.912   2.555   4.581 -0.6966  1.3839  0.2717
 1648SOL    HW216578   0.971   2.654   4.488  0.9905 -2.0432 -2.1187
 1649SOL     OW16579   4.739   2.263   2.429  0.6247 -0.5675  0.4510
 1649SOL    HW116580   4.651   2.302   2.427  0.5537 -0.7340  0.2963
 1649SOL    HW216581   4.722   2.197   2.497  2.7523 -1.9139 -0.3209
 1650SOL     OW16582   2.718   4.630   8.908 -0.7894 -0.1032 -0.1880
 1650SOL    HW116583   2.701   4.538   8.886 -1.2984  0.1324 -0.7659
 1650SOL    HW216584   2.744   4.622   9.000 -1.0788  1.4099  0.0213
 1651SOL     OW16585   0.135   0.965   8.593 -0.0507 -0.1128 -0.0965
 1651SOL    HW116586   0.063   0.992   8.536  0.4226 -0.0045 -0.6380
 1651SOL    HW216587   0.186   0.900   8.545  1.0602 -1.7171  3.2647
 1652SOL     OW16588   2.121   1.064   6.105  0.2415 -0.2389 -0.3125
 1652SOL    HW116589   2.039   1.085   6.149  0.7878  2.1191 -0.4463
 1652SOL    HW216590   2.080   0.993   6.056  1.3722 -2.3372  1.7677
 1653SOL     OW16591   1.021   1.491   9.250  0.0949  0.1032 -0.4354
 1653SOL    HW116592   0.941   1.538   9.227 -0.0111 -0.0956 -0.4750
 1653SOL    HW216593   1.025   1.418   9.188  1.3312 -1.8713  1.9620
 1654SOL     OW16594   0.649   0.301   5.269  0.2229 -0.2607 -0.0990
 1654SOL    HW116595   0.585   0.317   5.200 -0.1614 -1.1236  0.0607
 1654SOL    HW216596   0.736   0.310   5.229 -0.5753  1.7409 -1.3908
 1655SOL     OW16597   3.575   0.812   4.759 -0.7411  0.3325  0.2821
 1655SOL    HW116598   3.534   0.752   4.822 -0.0105  0.3820  0.8082
 1655SOL    HW216599   3.496   0.858   4.731  0.1023  0.3463 -2.0989
 1656SOL     OW16600   0.336   0.067   4.153 -0.3498  0.4844 -0.3779
 1656SOL    HW116601   0.369   0.084   4.242  1.7416  0.1153 -1.0925
 1656SOL    HW216602   0.363   4.715   4.140 -1.9557 -0.2347  1.4008
 1657SOL     OW16603   3.339   2.150   2.381 -0.4062 -0.0512  0.4366
 1657SOL    HW116604   3.337   2.147   2.476  1.3864  0.3804  0.4912
 1657SOL    HW216605   3.368   2.062   2.359  2.8356  1.6788 -2.3131
 1658SOL     OW16606   2.115   4.619   9.070 -0.3650  0.0113  0.1974
 1658SOL    HW116607   2.103   4.536   9.116 -3.6331  2.1624  3.2713
 1658SOL    HW216608   2.206   4.627   9.097 -0.2184 -1.3059  0.0885
 1659SOL     OW16609   2.976   3.633  15.829  0.4527 -0.4017  0.3274
 1659SOL    HW116610   2.937   3.699  15.772 -0.7170 -0.2539  1.3094
 1659SOL    HW216611   2.895   3.610  15.874  1.9078 -0.9274  2.6597
 1660SOL     OW16612   1.651   2.538  16.492 -0.0736  0.1069  0.7669
 1660SOL    HW116613   1.595   2.540  16.569 -0.1894 -2.4931  0.7467
 1660SOL    HW216614   1.687   2.627  16.489 -0.5400  0.2406 -0.8081
 1661SOL     OW16615   3.997   2.014   2.293 -0.4716 -0.6957  0.1027
 1661SOL    HW116616   3.902   2.007   2.302 -0.4826  0.7596  1.1722
 1661SOL    HW216617   4.012   2.032   2.386 -0.6486  1.2218 -0.2379
 1662SOL     OW16618   1.388   4.582   9.431 -0.4701 -0.1300  0.1451
 1662SOL    HW116619   1.417   4.535   9.509  2.3268  1.4136  0.0323
 1662SOL    HW216620   1.390   4.672   9.463  1.2641 -0.3619  0.6568
 1663SOL     OW16621   0.064   0.527   4.976  0.1144  0.3832 -0.0901
 1663SOL    HW116622   0.147   0.512   5.021  0.1919  1.7690  0.2343
 1663SOL    HW216623   0.000   0.523   5.046  2.1636 -0.8672  1.7000
 1664SOL     OW16624   0.205   3.829  15.689 -0.6448 -0.1697 -0.0207
 1664SOL    HW116625   0.235   3.744  15.658  1.3694  0.9700 -1.2193
 1664SOL    HW216626   0.284   3.882  15.701 -0.5266 -0.7454  1.6994
 1665SOL     OW16627   3.981   4.260  14.583 -0.2163  0.2218  0.2262
 1665SOL    HW116628   3.933   4.340  14.601  0.3697  0.6891 -0.3211
 1665SOL    HW216629   3.922   4.217  14.521  2.4817  0.0146 -2.2183
 1666SOL     OW16630   4.003   3.976   1.420 -0.1812  0.0431  0.3675
 1666SOL    HW116631   4.022   4.065   1.394 -1.2832  0.0018 -0.5684
 1666SOL    HW216632   3.921   3.986   1.470 -0.5639 -1.0470 -0.0341
 1667SOL     OW16633   3.229   3.427   7.833  0.3303 -0.1588  0.1578
 1667SOL    HW116634   3.152   3.432   7.890  0.7893  0.9006  0.6872
 1667SOL    HW216635   3.275   3.349   7.863 -0.0746  0.5391  2.6063
 1668SOL     OW16636   0.627   1.862  16.243  0.3268  0.1540 -0.3687
 1668SOL    HW116637   0.582   1.918  16.179 -4.8285 -1.1859  2.0913
 1668SOL    HW216638   0.711   1.858  16.199 -0.4778  0.0197 -1.8983
 1669SOL     OW16639   0.971   3.539  17.085  0.7834 -0.4758  1.1131
 1669SOL    HW116640   0.938   3.454  17.114 -0.2977 -0.7117 -0.8451
 1669SOL    HW216641   0.904   3.601  17.114 -0.1906  0.8826 -4.0610
 1670SOL     OW16642   4.227   1.498  15.976 -0.5106 -0.6411 -0.2290
 1670SOL    HW116643   4.300   1.445  15.943  0.3017  1.2748 -1.5002
 1670SOL    HW216644   4.260   1.587  15.976 -0.2504 -0.7366 -0.4301
 1671SOL     OW16645   1.095   4.103   4.589  0.1071 -0.3407 -0.5837
 1671SOL    HW116646   1.112   4.113   4.683  2.3701 -1.7506 -0.8545
 1671SOL    HW216647   1.090   4.010   4.569 -1.5255  0.0125 -1.9113
 1672SOL     OW16648   3.489   3.691   2.151  0.0259  0.1569 -0.0597
 1672SOL    HW116649   3.454   3.628   2.214 -2.1688  0.5952 -0.8430
 1672SOL    HW216650   3.562   3.645   2.111 -1.2560  0.5225 -2.8002
 1673SOL     OW16651   3.946   2.953   4.201 -0.3578 -0.2786 -0.1217
 1673SOL    HW116652   3.924   3.039   4.165 -0.1360  0.1055  0.6464
 1673SOL    HW216653   3.867   2.921   4.246  0.1804 -1.0843  0.2603
 1674SOL     OW16654   4.269   0.176   2.616  0.9098  0.0692  0.8454
 1674SOL    HW116655   4.192   0.231   2.631 -0.0089 -0.6421 -1.3287
 1674SOL    HW216656   4.317   0.235   2.558  2.2026 -2.3450 -0.5346
 1675SOL     OW16657   1.286   3.585   2.852 -0.2940 -0.0076  0.3358
 1675SOL    HW116658   1.216   3.648   2.864 -0.6683 -0.7364  2.0279
 1675SOL    HW216659   1.343   3.624   2.785  0.0478 -0.4337  0.3748
 1676SOL     OW16660   2.095   0.210  14.773 -0.6698 -0.2148  0.3804
 1676SOL    HW116661   2.048   0.247  14.847  0.2162  1.6735 -0.0052
 1676SOL    HW216662   2.149   0.151  14.826  0.6010  0.0190 -0.6638
 1677SOL     OW16663   2.522   3.791  10.159  0.8837 -0.4677  0.0038
 1677SOL    HW116664   2.595   3.843  10.194 -1.2315  1.2245  1.9240
 1677SOL    HW216665   2.562   3.705  10.171  1.4687 -0.2399 -0.2874
 1678SOL     OW16666   2.143   1.859  17.605 -0.0572  0.6570 -0.2154
 1678SOL    HW116667   2.232   1.833  17.580  0.3701  0.2514  1.7371
 1678SOL    HW216668   2.143   1.855  17.701 -1.6831 -0.0785 -0.2411
 1679SOL     OW16669   0.621   4.459   5.798  0.0095 -0.2840 -0.6705
 1679SOL    HW116670   0.535   4.493   5.773  0.4873  1.8524  0.5631
 1679SOL    HW216671   0.675   4.488   5.725 -1.3769 -0.0068 -1.5931
 1680SOL     OW16672   0.679   1.094  12.551 -0.1129 -0.2240 -0.1360
 1680SOL    HW116673   0.596   1.110  12.596  0.1714  3.4214 -0.8727
 1680SOL    HW216674   0.671   0.999  12.541  0.6991  0.0491 -3.2562
 1681SOL     OW16675   1.580   0.898   5.616 -0.1394  0.1424 -0.1347
 1681SOL    HW116676   1.561   0.991   5.600  1.5100  0.5962  0.5652
 1681SOL    HW216677   1.675   0.895   5.618 -0.0920  0.7687 -1.3433
 1682SOL     OW16678   4.648   1.982   7.367  0.2435 -0.3759  0.2212
 1682SOL    HW116679   4.626   2.071   7.391  0.8609 -0.0128 -0.5557
 1682SOL    HW216680   4.690   1.967   7.452  0.8232 -2.0754 -0.3511
 1683SOL     OW16681   2.112   2.563   8.783  0.5570  0.4509 -0.1541
 1683SOL    HW116682   2.165   2.501   8.832 -2.2191  0.3528  2.7396
 1683SOL    HW216683   2.050   2.503   8.741 -0.4558  1.8908 -0.7385
 1684SOL     OW16684   4.121   3.284   3.622 -0.0995 -0.7943 -0.1851
 1684SOL    HW116685   4.174   3.356   3.658 -1.6455  0.3142 -0.1078
 1684SOL    HW216686   4.192   3.222   3.606 -1.9420 -2.2836 -2.4772
 1685SOL     OW16687   1.522   4.379   0.795  0.3903  0.2549  0.1010
 1685SOL    HW116688   1.469   4.369   0.716  2.2347 -0.6871 -1.0078
 1685SOL    HW216689   1.509   4.294   0.839 -0.8151 -0.4105 -1.5545
 1686SOL     OW16690   1.395   2.893   3.942  0.3268  0.4447  0.7231
 1686SOL    HW116691   1.436   2.838   4.008 -2.3593 -1.3929  0.8491
 1686SOL    HW216692   1.418   2.984   3.962 -0.9157  0.8895  0.1669
 1687SOL     OW16693   3.678   1.604   6.202  0.1191 -0.4724 -0.2424
 1687SOL    HW116694   3.738   1.571   6.135 -1.1270 -1.0566 -1.0943
 1687SOL    HW216695   3.714   1.558   6.278 -0.2820  2.2562  1.6144
 1688SOL     OW16696   0.419   4.205   7.931 -0.1538  0.1563  0.0455
 1688SOL    HW116697   0.386   4.153   7.857 -1.7562  0.7941  0.3032
 1688SOL    HW216698   0.513   4.207   7.914  0.2514 -0.3289  2.2608
 1689SOL     OW16699   0.056   4.505   4.757  0.0544 -0.4534 -0.1826
 1689SOL    HW116700   0.076   4.596   4.736 -0.8276 -0.2311 -0.0272
 1689SOL    HW216701   0.118   4.489   4.829 -1.5703  0.7068  1.4594
 1690SOL     OW16702   0.650   0.685   5.973  0.0703  0.2522  0.0221
 1690SOL    HW116703   0.638   0.774   6.006  0.3700 -0.2753  1.5617
 1690SOL    HW216704   0.645   0.644   6.059 -0.7126 -0.5878 -0.4178
 1691SOL     OW16705   2.538   0.216   0.058  0.6513 -0.4562  0.1263
 1691SOL    HW116706   2.576   0.190   0.141  0.0932  0.2167  0.5893
 1691SOL    HW216707   2.446   0.220   0.082  0.8713  0.3385  0.8582
 1692SOL     OW16708   3.018   4.457   6.122  0.2608  0.1340  0.1389
 1692SOL    HW116709   2.962   4.425   6.193  0.1416 -0.4989 -0.2439
 1692SOL    HW216710   2.951   4.503   6.072 -0.0147  0.4668  0.8101
 1693SOL     OW16711   2.613   3.574  13.364 -0.0354 -0.4270 -0.6038
 1693SOL    HW116712   2.612   3.549  13.271 -0.1162  1.9210 -1.2331
 1693SOL    HW216713   2.529   3.541  13.397 -0.3674  1.1959  0.1278
 1694SOL     OW16714   0.039   2.042   4.788  0.1824  0.1880 -0.1196
 1694SOL    HW116715   0.088   2.069   4.710  4.0693  1.0674  2.5998
 1694SOL    HW216716   4.735   2.124   4.810 -2.0661 -0.8853 -0.5430
 1695SOL     OW16717   1.986   3.494   9.104  0.5185  0.1315 -0.3456
 1695SOL    HW116718   2.071   3.491   9.061  0.8120 -0.7689  0.2822
 1695SOL    HW216719   1.956   3.406   9.081 -0.5062  0.2677  0.4249
 1696SOL     OW16720   3.340   0.111   6.209  0.0336 -0.3126 -0.3116
 1696SOL    HW116721   3.251   0.135   6.181  0.5579 -0.3846 -2.0092
 1696SOL    HW216722   3.380   0.183   6.161  0.3619 -0.1048  0.2772
 1697SOL     OW16723   1.439   3.937   5.759 -0.2058 -0.0026 -0.4500
 1697SOL    HW116724   1.516   3.988   5.734 -1.7605  1.1203 -2.9145
 1697SOL    HW216725   1.426   3.947   5.853 -0.7337 -2.3340 -0.2701
 1698SOL     OW16726   4.333   1.678   3.164  0.2192 -0.2473 -0.3707
 1698SOL    HW116727   4.314   1.675   3.070 -1.3710  1.1274 -0.1070
 1698SOL    HW216728   4.428   1.677   3.172  0.4690  0.0823 -3.3327
 1699SOL     OW16729   0.226   2.863   5.993 -0.1154  0.1986  0.4058
 1699SOL    HW116730   0.208   2.857   6.087 -1.0650  1.5617  0.3180
 1699SOL    HW216731   0.310   2.819   5.988 -0.2078 -0.1072  1.4813
 1700SOL     OW16732   3.921   0.154  15.886  0.0002  0.2841 -0.0342
 1700SOL    HW116733   3.862   0.184  15.955  0.5688 -1.8449  1.3820
 1700SOL    HW216734   3.904   0.224  15.822  0.0070  0.0794 -0.2565
 1701SOL     OW16735   0.936   1.448  11.228  0.0567 -0.1755 -0.5599
 1701SOL    HW116736   0.888   1.380  11.276 -0.7468  0.9228  0.1915
 1701SOL    HW216737   1.017   1.464  11.277 -0.9853  2.9504  0.1326
 1702SOL     OW16738   4.592   0.777   7.371 -0.5129 -0.2046  0.3278
 1702SOL    HW116739   4.599   0.709   7.304  0.2451 -1.4585  1.6765
 1702SOL    HW216740   4.574   0.853   7.315 -1.5265  0.1051  1.0709
 1703SOL     OW16741   3.113   1.565   2.146  0.1187 -0.7488  0.0753
 1703SOL    HW116742   3.022   1.543   2.163  0.4542 -2.2442 -0.0594
 1703SOL    HW216743   3.132   1.618   2.223  3.0358  0.5720 -1.5472
 1704SOL     OW16744   3.724   0.241   7.803  0.1387  0.4387  0.4802
 1704SOL    HW116745   3.659   0.193   7.856 -1.1520  0.2174 -1.3068
 1704SOL    HW216746   3.799   0.201   7.847  0.8645  1.7325  0.3974
 1705SOL     OW16747   3.918   3.471   6.825  0.7258  0.3768 -0.4044
 1705SOL    HW116748   3.941   3.535   6.758 -0.0586 -1.2618 -2.2262
 1705SOL    HW216749   3.884   3.399   6.772  1.3398 -1.3685  1.5526
 1706SOL     OW16750   2.581   4.394   7.410  0.4483 -0.3254  0.0517
 1706SOL    HW116751   2.657   4.453   7.410 -0.1699  0.4626 -0.5740
 1706SOL    HW216752   2.519   4.457   7.373 -0.9744 -1.5242  0.3891
 1707SOL     OW16753   2.680   1.453   0.935 -0.1160 -1.0070 -0.0925
 1707SOL    HW116754   2.682   1.528   0.876 -1.5968 -0.7470  0.2034
 1707SOL    HW216755   2.706   1.492   1.018  0.7389 -0.0107 -0.8318
 1708SOL     OW16756   4.276   4.129   0.445 -0.2954  0.0511  0.7262
 1708SOL    HW116757   4.333   4.053   0.458  1.3941  1.5480  2.0378
 1708SOL    HW216758   4.246   4.146   0.534  3.3282  1.1218  1.7632
 1709SOL     OW16759   4.173   1.850  14.264 -0.1838 -0.0045  0.3509
 1709SOL    HW116760   4.081   1.852  14.288 -0.4993 -2.5983 -0.5810
 1709SOL    HW216761   4.194   1.941  14.246 -3.2217  1.0213  2.0237
 1710SOL     OW16762   0.874   1.720   3.816 -0.2744 -0.0042 -0.1723
 1710SOL    HW116763   0.912   1.789   3.762  2.1846  0.0271  1.5589
 1710SOL    HW216764   0.950   1.716   3.875  2.1278  1.5579 -3.1557
 1711SOL     OW16765   4.656   1.309   2.430  0.2248  0.0500 -0.6587
 1711SOL    HW116766   4.623   1.244   2.368 -3.5816  1.3734 -0.0559
 1711SOL    HW216767   4.582   1.370   2.423  0.9433  1.0067  0.1091
 1712SOL     OW16768   2.790   3.982   8.384 -0.0666 -0.0751  0.6270
 1712SOL    HW116769   2.806   3.966   8.290 -1.6778  0.0128  0.3300
 1712SOL    HW216770   2.732   3.907   8.400 -1.4199  1.0106  0.8037
 1713SOL     OW16771   0.413   1.524   2.070  0.5142  0.5251 -0.1105
 1713SOL    HW116772   0.333   1.501   2.117  1.6298  1.5643  2.3111
 1713SOL    HW216773   0.372   1.583   2.007  0.8728  0.9988  0.0972
 1714SOL     OW16774   0.205   0.423   1.924  0.1559 -0.1458 -0.4244
 1714SOL    HW116775   0.211   0.515   1.899 -0.2821 -0.0072 -0.0068
 1714SOL    HW216776   0.145   0.393   1.856  0.6326  1.0108 -1.3595
 1715SOL     OW16777   0.308   0.969   7.769 -0.1222  0.4190 -0.5014
 1715SOL    HW116778   0.230   0.919   7.741 -0.6838  1.6196 -1.0655
 1715SOL    HW216779   0.272   1.040   7.822  2.1110  0.3649  1.0854
 1716SOL     OW16780   3.325   2.691   5.960  0.6476  0.0820  0.2034
 1716SOL    HW116781   3.256   2.667   5.897  1.6947  1.0455 -1.3137
 1716SOL    HW216782   3.370   2.765   5.919 -1.2205  0.9678 -0.2533
 1717SOL     OW16783   0.699   3.475   5.436  0.4199 -0.4937 -0.2173
 1717SOL    HW116784   0.647   3.556   5.431  1.0598 -0.0939 -0.4447
 1717SOL    HW216785   0.780   3.485   5.386 -0.0702  1.7858 -0.5581
 1718SOL     OW16786   3.548   2.450   8.381 -0.0229  0.4302 -0.6545
 1718SOL    HW116787   3.620   2.396   8.414 -0.0561 -0.1744 -1.5712
 1718SOL    HW216788   3.579   2.532   8.421 -1.1197 -0.6528  2.4056
 1719SOL     OW16789   3.482   3.238   4.720  0.1603 -0.6556 -0.5560
 1719SOL    HW116790   3.428   3.306   4.759  0.6452  0.0666 -1.1368
 1719SOL    HW216791   3.545   3.223   4.790  2.1840  0.5248 -2.1093
 1720SOL     OW16792   0.379   2.179   4.352 -0.0902 -0.1767  0.4509
 1720SOL    HW116793   0.354   2.259   4.305  0.5896 -0.2158  0.0113
 1720SOL    HW216794   0.327   2.192   4.431 -0.8636  0.1413 -0.1143
 1721SOL     OW16795   3.658   2.060   1.593 -0.4867 -0.2992  0.1813
 1721SOL    HW116796   3.627   2.001   1.662 -3.7584 -0.3254 -1.3373
 1721SOL    HW216797   3.750   2.038   1.608 -0.4161 -0.3314 -0.3276
 1722SOL     OW16798   0.694   1.312   7.995 -0.3169 -0.1607  0.1729
 1722SOL    HW116799   0.764   1.334   7.933 -0.8811  1.1218 -0.0019
 1722SOL    HW216800   0.736   1.241   8.044  0.0683 -1.6437 -2.3005
 1723SOL     OW16801   3.054   1.019  14.288  0.2694 -0.0921 -0.0076
 1723SOL    HW116802   3.119   1.046  14.352 -0.4711 -0.1595  0.7686
 1723SOL    HW216803   3.073   1.080  14.216 -0.4119  2.0331  1.6096
 1724SOL     OW16804   3.008   0.901   8.512  0.2413 -1.0024 -0.0667
 1724SOL    HW116805   2.917   0.894   8.483  0.0664  0.0407  0.2288
 1724SOL    HW216806   3.030   0.809   8.527 -1.5182 -0.7027  4.3037
 1725SOL     OW16807   4.607   3.226   8.159  0.4534 -0.2091  0.3136
 1725SOL    HW116808   4.636   3.178   8.236  1.2068  0.8154  0.6692
 1725SOL    HW216809   4.521   3.184   8.154 -0.0273  0.9857 -1.7835
 1726SOL     OW16810   4.610   1.999  13.347 -0.3764 -0.1104 -0.4062
 1726SOL    HW116811   4.521   1.982  13.317 -1.0343  0.2283  1.3455
 1726SOL    HW216812   4.642   1.909  13.340 -0.8424 -0.2692 -0.4936
 1727SOL     OW16813   1.999   3.073   4.861 -0.0731  0.4546  0.1697
 1727SOL    HW116814   1.942   3.104   4.931 -0.7175  0.5272 -0.3854
 1727SOL    HW216815   2.022   3.155   4.817  2.2808 -0.3358 -0.0654
 1728SOL     OW16816   4.084   1.714   8.468  0.3874  0.5626  0.4099
 1728SOL    HW116817   4.161   1.761   8.434 -0.4903  2.3210  0.8302
 1728SOL    HW216818   4.036   1.695   8.388  1.1687  0.5132 -0.0555
 1729SOL     OW16819   4.098   4.302   3.774 -0.1328 -0.0806 -0.1684
 1729SOL    HW116820   4.110   4.366   3.845 -1.1377  0.3516 -0.3894
 1729SOL    HW216821   4.157   4.335   3.707  2.0207 -0.1314  1.6932
 1730SOL     OW16822   0.155   1.405   3.391  0.4434  0.1603  0.2632
 1730SOL    HW116823   0.144   1.432   3.482 -0.1568 -0.0413  0.2495
 1730SOL    HW216824   0.066   1.382   3.365  0.6475 -1.9421  1.4712
 1731SOL     OW16825   4.031   2.930   1.583 -0.2440 -0.3474 -0.2868
 1731SOL    HW116826   4.100   2.923   1.649 -0.8454 -1.2904  0.2541
 1731SOL    HW216827   4.078   2.943   1.501  0.1470  0.5177  0.0765
 1732SOL     OW16828   2.582   4.441   1.238 -0.1921 -0.2561 -0.6246
 1732SOL    HW116829   2.542   4.439   1.151 -0.1117 -1.1104 -0.6442
 1732SOL    HW216830   2.519   4.490   1.291 -1.7206 -0.4294 -2.2761
 1733SOL     OW16831   4.239   0.385   0.676  0.2741  0.1085  0.1272
 1733SOL    HW116832   4.155   0.378   0.721  0.1660 -2.1241 -0.4027
 1733SOL    HW216833   4.235   0.303   0.625 -0.0811  0.1608  0.0724
 1734SOL     OW16834   1.811   4.721   1.078  0.1472 -0.0908  0.8336
 1734SOL    HW116835   1.848   0.036   1.008  0.1193 -0.0708  0.8342
 1734SOL    HW216836   1.811   4.634   1.038  1.2817  0.2569  0.0940
 1735SOL     OW16837   3.856   2.582   3.702 -0.2359  0.0064  0.0038
 1735SOL    HW116838   3.844   2.548   3.790  0.1792 -0.1278  0.0086
 1735SOL    HW216839   3.921   2.650   3.720  0.8026 -0.7097 -0.9956
 1736SOL     OW16840   1.521   4.068   6.676  0.0397  0.5419 -0.5323
 1736SOL    HW116841   1.462   4.085   6.749  1.1429  0.4305  0.3932
 1736SOL    HW216842   1.473   4.114   6.607  0.6776 -1.2702 -2.1894
 1737SOL     OW16843   3.079   2.291   9.887  0.5881  0.3882 -0.9735
 1737SOL    HW116844   3.109   2.200   9.882  0.6655  0.5359 -3.4039
 1737SOL    HW216845   3.083   2.314   9.980  0.4947 -1.8546 -0.4287
 1738SOL     OW16846   0.895   3.692   9.165  0.2841 -0.1233  0.3659
 1738SOL    HW116847   0.954   3.645   9.223  0.4604  1.5356  1.5276
 1738SOL    HW216848   0.933   3.659   9.083  0.7015 -0.9209  0.8774
 1739SOL     OW16849   3.662   0.519   1.044 -0.2558 -0.0798  0.0609
 1739SOL    HW116850   3.578   0.552   1.076  1.3245  1.8640  2.2360
 1739SOL    HW216851   3.688   0.580   0.975 -1.2435 -0.6830 -0.8435
 1740SOL     OW16852   0.715   2.714   7.595 -0.1769 -0.6847  0.1997
 1740SOL    HW116853   0.781   2.726   7.662 -2.2171  0.7061  1.9577
 1740SOL    HW216854   0.758   2.700   7.510  1.0398 -0.2216  0.7424
 1741SOL     OW16855   2.506   2.143  14.431 -0.7542 -0.4908 -0.2084
 1741SOL    HW116856   2.414   2.153  14.455 -0.9211  0.1092 -1.1028
 1741SOL    HW216857   2.506   2.211  14.364  2.5187  0.5528  0.8653
 1742SOL     OW16858   2.450   4.328   5.372  0.0551  0.1762  0.0466
 1742SOL    HW116859   2.475   4.379   5.295  0.6904  0.6662  0.5754
 1742SOL    HW216860   2.410   4.248   5.338 -0.9252  0.9494 -0.6153
 1743SOL     OW16861   3.624   1.689   5.460 -0.0294  0.1209 -0.5863
 1743SOL    HW116862   3.597   1.727   5.377  0.4270  0.0895 -0.7513
 1743SOL    HW216863   3.617   1.767   5.515  0.1645  1.0987 -1.9478
 1744SOL     OW16864   1.541   1.450  13.900 -0.3615  0.0005  0.0773
 1744SOL    HW116865   1.633   1.472  13.886 -0.2371 -0.0960  0.7332
 1744SOL    HW216866   1.502   1.533  13.872  0.9421 -0.1524 -2.1245
 1745SOL     OW16867   3.484   4.398   3.920 -0.2353  0.2501 -0.0819
 1745SOL    HW116868   3.482   4.487   3.884  1.5474  0.1247 -0.5063
 1745SOL    HW216869   3.578   4.393   3.940 -0.1944  0.1213 -0.3043
 1746SOL     OW16870   2.110   0.933  10.954 -0.2121  0.0939 -0.4880
 1746SOL    HW116871   2.100   0.930  10.859  0.6455  1.1436 -0.6166
 1746SOL    HW216872   2.179   0.869  10.972  0.2393  0.2468 -1.6629
 1747SOL     OW16873   1.080   2.902   9.303 -0.5051  0.6069 -0.0085
 1747SOL    HW116874   1.080   2.829   9.240  1.3261  0.3779  0.2783
 1747SOL    HW216875   1.102   2.851   9.381  0.6656 -0.5751 -1.1057
 1748SOL     OW16876   0.992   0.391   3.652  0.4621  0.3452  0.8194
 1748SOL    HW116877   1.049   0.333   3.603 -1.1824 -0.3859 -0.2379
 1748SOL    HW216878   0.946   0.329   3.709 -1.8387  3.4960  2.4053
 1749SOL     OW16879   0.970   3.684  14.616 -0.2780 -0.4832  0.2409
 1749SOL    HW116880   0.890   3.678  14.667 -0.9609  0.0311 -0.7856
 1749SOL    HW216881   1.030   3.623  14.660 -0.6720 -0.5726  0.6459
 1750SOL     OW16882   1.343   2.297  17.434  0.1867  0.6194 -0.0706
 1750SOL    HW116883   1.410   2.232  17.454 -0.0799 -0.4057 -2.5700
 1750SOL    HW216884   1.398   2.343  17.370  1.0177  1.6383  1.3803
 1751SOL     OW16885   0.636   0.197   3.057  0.2729  0.1190 -0.2040
 1751SOL    HW116886   0.577   0.249   3.003  0.6499  0.8394  0.0799
 1751SOL    HW216887   0.664   0.134   2.989  1.9670  1.7235 -1.0048
 1752SOL     OW16888   4.149   3.240   9.882  0.0690 -0.4027 -0.2483
 1752SOL    HW116889   4.076   3.222   9.941  0.9655 -0.3841  0.8466
 1752SOL    HW216890   4.124   3.210   9.794  4.0001 -0.2549 -1.4188
 1753SOL     OW16891   4.192   0.560   4.368  0.2868  0.3462  0.1090
 1753SOL    HW116892   4.106   0.589   4.398  0.2151  1.0999 -0.8286
 1753SOL    HW216893   4.182   0.583   4.276 -1.2541  1.1056  0.4640
 1754SOL     OW16894   1.674   4.639  14.628 -0.0193 -0.1474 -0.0401
 1754SOL    HW116895   1.615   4.610  14.697  1.1805  0.0090  1.0376
 1754SOL    HW216896   1.733   4.564  14.622  0.3537 -0.0318  2.2558
 1755SOL     OW16897   1.843   1.138  16.323  0.2220 -0.7197  0.2325
 1755SOL    HW116898   1.920   1.089  16.353  1.3323  1.0757  0.3357
 1755SOL    HW216899   1.812   1.088  16.248 -1.5399  0.8920 -0.0943
 1756SOL     OW16900   1.808   1.329   5.197  0.4267  0.1297 -0.1175
 1756SOL    HW116901   1.891   1.360   5.161  1.2652 -1.6018  0.3243
 1756SOL    HW216902   1.749   1.366   5.131 -0.3936 -1.3681 -0.2140
 1757SOL     OW16903   0.387   0.315   8.587 -0.0775 -0.4992 -0.4946
 1757SOL    HW116904   0.367   0.255   8.515  1.5861 -0.0173 -1.3766
 1757SOL    HW216905   0.441   0.267   8.649 -1.2606 -1.6280 -0.3583
 1758SOL     OW16906   0.698   2.629   8.162 -0.2684 -0.5689  0.5839
 1758SOL    HW116907   0.662   2.706   8.118 -0.0426 -0.4733  0.5629
 1758SOL    HW216908   0.677   2.642   8.254  0.6658  0.4735  0.6560
 1759SOL     OW16909   3.321   1.131   0.767 -0.3929  0.0770  0.5484
 1759SOL    HW116910   3.268   1.091   0.836  0.7222 -1.4207  0.5309
 1759SOL    HW216911   3.305   1.224   0.782  1.3177  0.6743 -1.3494
 1760SOL     OW16912   3.365   1.639   3.135 -0.0907  0.5267  0.1341
 1760SOL    HW116913   3.372   1.702   3.063  0.6113  0.4979  0.1741
 1760SOL    HW216914   3.455   1.628   3.165 -0.1208  0.9861  0.3806
 1761SOL     OW16915   1.045   2.890  12.179  0.3784  0.4225  0.0324
 1761SOL    HW116916   0.976   2.955  12.182 -0.4556 -0.5197  1.2067
 1761SOL    HW216917   1.027   2.842  12.098  0.2058  0.5104  0.0190
 1762SOL     OW16918   4.189   2.807  10.790 -0.2367  0.4166  0.2393
 1762SOL    HW116919   4.188   2.851  10.875 -1.5797 -0.6548  0.7818
 1762SOL    HW216920   4.109   2.755  10.794 -0.2728  0.5303  0.9984
 1763SOL     OW16921   2.784   0.425   7.862  0.8689  0.8736  0.0504
 1763SOL    HW116922   2.869   0.384   7.846  0.0930  0.7040 -3.5464
 1763SOL    HW216923   2.759   0.371   7.937  1.7776 -1.2129 -1.1785
 1764SOL     OW16924   0.848   2.273  17.274 -0.5113  0.0527  0.4747
 1764SOL    HW116925   0.788   2.207  17.309  0.0206  0.0205  1.3385
 1764SOL    HW216926   0.927   2.244  17.318  0.3964 -0.6845 -1.6882
 1765SOL     OW16927   4.107   3.495   8.393 -0.5857 -0.0944 -0.0704
 1765SOL    HW116928   4.190   3.535   8.420  0.1813 -1.4769 -0.4284
 1765SOL    HW216929   4.052   3.494   8.471  1.6117  0.4597  1.4926
 1766SOL     OW16930   3.004   3.576   4.384  0.5751  0.0002 -0.0051
 1766SOL    HW116931   2.995   3.572   4.289 -1.2450 -0.0609  0.1743
 1766SOL    HW216932   3.009   3.481   4.398 -0.2499 -0.0297  0.0444
 1767SOL     OW16933   2.857   0.347   5.087 -0.5339 -0.9387 -0.1140
 1767SOL    HW116934   2.865   0.432   5.130  0.9089 -1.1805  0.0901
 1767SOL    HW216935   2.811   0.372   5.007 -1.0084 -1.9931 -0.1712
 1768SOL     OW16936   1.359   0.676   8.256  0.6018 -0.6452 -0.5303
 1768SOL    HW116937   1.308   0.740   8.206  0.3358 -0.1686  0.3443
 1768SOL    HW216938   1.306   0.596   8.251 -1.4026  0.6843 -0.8026
 1769SOL     OW16939   1.915   2.278   5.963  0.1932 -0.1444 -0.1233
 1769SOL    HW116940   1.971   2.304   5.890  1.5651 -1.8003  0.3333
 1769SOL    HW216941   1.840   2.229   5.931  0.4856 -1.1139  0.6680
 1770SOL     OW16942   3.769   1.242   2.127  0.6279  0.2277 -0.6507
 1770SOL    HW116943   3.720   1.205   2.200 -1.5364  1.2112 -1.6201
 1770SOL    HW216944   3.705   1.231   2.057 -1.3770 -0.7116  1.3451
 1771SOL     OW16945   1.875   3.316   7.352  0.3073 -0.0373 -0.3262
 1771SOL    HW116946   1.867   3.337   7.445  0.0505  0.5425 -0.4805
 1771SOL    HW216947   1.964   3.279   7.352 -0.0609 -0.9296  0.9903
 1772SOL     OW16948   4.187   2.315  14.453 -0.0840  0.2017 -0.0062
 1772SOL    HW116949   4.231   2.256  14.392  0.3833  1.0502 -0.5027
 1772SOL    HW216950   4.254   2.384  14.456 -0.2480  0.4777 -2.8490
 1773SOL     OW16951   2.035   2.810   4.866  0.1293  0.3477  0.2477
 1773SOL    HW116952   2.064   2.778   4.780 -0.6188  0.3863 -0.0166
 1773SOL    HW216953   2.024   2.904   4.852  0.3904 -0.0323 -2.6030
 1774SOL     OW16954   3.075   3.046   1.488 -0.1731 -0.5105  0.6562
 1774SOL    HW116955   3.041   2.989   1.557 -1.7488  1.9867  1.9450
 1774SOL    HW216956   3.159   3.080   1.519 -0.6219  0.6998  0.5490
 1775SOL     OW16957   4.054   3.270  10.805  0.0467 -0.3620  0.6411
 1775SOL    HW116958   4.076   3.191  10.755 -2.8774 -0.8444  0.1281
 1775SOL    HW216959   4.125   3.271  10.869  0.1939 -0.1602  0.4724
 1776SOL     OW16960   1.376   1.510   4.491  0.5841 -0.3997  0.6568
 1776SOL    HW116961   1.442   1.542   4.429 -1.7301 -0.0506 -1.6333
 1776SOL    HW216962   1.342   1.590   4.531  2.3427 -0.4707  2.3135
 1777SOL     OW16963   0.441   3.477  12.878  0.3216 -0.3530  0.1938
 1777SOL    HW116964   0.376   3.410  12.859  1.5284 -1.2119 -0.8739
 1777SOL    HW216965   0.517   3.421  12.892  1.0488  0.7536  0.7108
 1778SOL     OW16966   2.002   0.228   6.956 -0.3848 -0.0079  0.3789
 1778SOL    HW116967   2.063   0.160   6.927 -0.0057  0.8661 -0.8820
 1778SOL    HW216968   2.040   0.257   7.039  2.0057  0.8927 -1.0393
 1779SOL     OW16969   0.016   0.814   7.945 -0.0741 -0.3802 -0.3204
 1779SOL    HW116970   0.070   0.790   7.870 -0.0048 -0.7733 -0.1437
 1779SOL    HW216971   4.671   0.836   7.906 -0.5718 -1.3375  0.2195
 1780SOL     OW16972   2.589   2.623   3.198 -0.1840 -0.2274 -0.3982
 1780SOL    HW116973   2.544   2.614   3.282  1.8297 -1.2409  0.5714
 1780SOL    HW216974   2.678   2.601   3.226 -1.1058 -0.7162  2.1612
 1781SOL     OW16975   2.708   1.313   2.989  0.4434 -0.3460  0.2342
 1781SOL    HW116976   2.700   1.401   3.025  0.9096 -0.1267 -0.2058
 1781SOL    HW216977   2.614   1.294   2.990  0.4202 -0.2488 -0.9609
 1782SOL     OW16978   4.001   0.438  14.386  1.0376 -0.9019 -0.0220
 1782SOL    HW116979   3.909   0.453  14.365  0.3827 -3.8068  0.7259
 1782SOL    HW216980   4.018   0.513  14.443 -1.0053 -1.7245  1.6830
 1783SOL     OW16981   3.342   2.653   4.958 -0.5573 -0.0939  0.3150
 1783SOL    HW116982   3.370   2.567   4.929 -0.4580 -0.0978  0.4243
 1783SOL    HW216983   3.246   2.644   4.961 -0.4841 -0.3812  1.6791
 1784SOL     OW16984   4.260   0.746  11.383  0.0298 -0.3600 -0.4611
 1784SOL    HW116985   4.214   0.821  11.420  1.8705 -0.8287  2.7367
 1784SOL    HW216986   4.201   0.735  11.308 -0.9646  0.0162  0.2756
 1785SOL     OW16987   3.950   3.794  12.867 -0.2112 -0.2042  0.1670
 1785SOL    HW116988   4.017   3.776  12.801  0.3171 -1.8115  1.1286
 1785SOL    HW216989   3.883   3.828  12.807  0.5974 -0.9131 -1.1274
 1786SOL     OW16990   3.353   3.853   8.342 -0.4605  0.0304 -0.2287
 1786SOL    HW116991   3.399   3.835   8.424 -0.3967  0.0986 -0.2492
 1786SOL    HW216992   3.428   3.892   8.295 -0.9345  1.1001 -0.0959
 1787SOL     OW16993   4.131   3.673  14.636  0.0840 -0.0358  0.0284
 1787SOL    HW116994   4.165   3.622  14.710 -0.8012 -0.6393  0.0236
 1787SOL    HW216995   4.205   3.728  14.612  2.0433 -2.6055  0.2133
 1788SOL     OW16996   3.844   0.162   8.062 -0.3772  0.0923 -0.4832
 1788SOL    HW116997   3.818   0.074   8.089 -1.6777  0.6306  0.0245
 1788SOL    HW216998   3.921   0.125   8.017  0.5920  2.8435 -1.0970
 1789SOL     OW16999   4.497   0.900  16.947 -0.2216  0.1768  0.2798
 1789SOL    HW117000   4.446   0.820  16.952  1.9063 -1.0691  1.9905
 1789SOL    HW217001   4.512   0.901  16.852 -3.2468  2.1944 -0.2045
 1790SOL     OW17002   1.210   2.918   3.413  0.1260  0.1040 -0.1273
 1790SOL    HW117003   1.211   2.998   3.360  1.2161  0.2722  0.1398
 1790SOL    HW217004   1.235   2.951   3.500 -1.4965 -1.1855  0.8212
 1791SOL     OW17005   2.467   1.656   7.533 -0.6832 -0.2569 -0.2548
 1791SOL    HW117006   2.513   1.691   7.609 -0.5084 -0.0706 -0.4474
 1791SOL    HW217007   2.480   1.718   7.461 -0.6523  0.8621  0.7329
 1792SOL     OW17008   0.443   2.394  13.666 -0.4416 -0.0383 -0.1245
 1792SOL    HW117009   0.517   2.382  13.606  1.1634  3.0813  1.1853
 1792SOL    HW217010   0.387   2.327  13.627 -0.4522  0.3314 -0.7547
 1793SOL     OW17011   4.503   2.432  15.959 -0.4747 -0.6697  0.1212
 1793SOL    HW117012   4.421   2.381  15.958 -0.3520 -0.8818  0.9161
 1793SOL    HW217013   4.544   2.401  15.878 -0.4515 -0.9985  0.2589
 1794SOL     OW17014   1.936   0.729   4.502 -0.3102  0.6933 -0.1835
 1794SOL    HW117015   1.960   0.819   4.521 -1.9367  0.9486  0.7259
 1794SOL    HW217016   1.873   0.717   4.574 -1.8762  1.4899 -1.4258
 1795SOL     OW17017   1.147   0.632   2.910 -0.0075  0.3374 -0.0963
 1795SOL    HW117018   1.231   0.678   2.897  0.2664 -0.4566 -1.1204
 1795SOL    HW217019   1.098   0.690   2.969  1.3403  0.3566  1.0026
 1796SOL     OW17020   1.708   4.461   1.001  0.1642 -0.2053  0.3614
 1796SOL    HW117021   1.661   4.441   0.920  0.8861 -0.7388  0.0688
 1796SOL    HW217022   1.657   4.404   1.059 -0.7295 -0.6063 -0.8120
 1797SOL     OW17023   3.558   4.646   4.033 -0.2029 -0.4144  0.1373
 1797SOL    HW117024   3.608   4.590   4.092  1.5536  0.2486 -0.6989
 1797SOL    HW217025   3.619   4.705   3.988 -0.8826  0.4256  0.3059
 1798SOL     OW17026   0.650   2.729  12.124  0.1100 -0.6910  0.0286
 1798SOL    HW117027   0.677   2.662  12.186 -2.3890  0.5371  2.4373
 1798SOL    HW217028   0.709   2.699  12.055 -0.0357 -0.1657 -0.3325
 1799SOL     OW17029   4.580   2.632   3.889 -0.3777 -0.2849 -0.4503
 1799SOL    HW117030   4.522   2.574   3.938  2.3455 -1.8352  0.9987
 1799SOL    HW217031   4.665   2.594   3.913  1.2286  1.9308 -2.6756
 1800SOL     OW17032   1.544   3.378   4.801  0.0553 -0.5298 -0.0994
 1800SOL    HW117033   1.465   3.391   4.749 -0.3506 -0.2383  0.5779
 1800SOL    HW217034   1.582   3.303   4.756 -1.5913 -0.4361 -1.6376
 1801SOL     OW17035   1.766   3.065   1.978 -0.2610  0.3793  0.4476
 1801SOL    HW117036   1.851   3.020   1.979  0.2691  1.3263 -1.4798
 1801SOL    HW217037   1.748   3.062   1.884  0.8858  0.3231  0.2256
 1802SOL     OW17038   3.691   0.401   2.989  0.1288 -0.2326  0.1117
 1802SOL    HW117039   3.710   0.328   2.930  3.1670  0.5820  0.0750
 1802SOL    HW217040   3.650   0.463   2.929  2.6164  0.7666 -0.5572
 1803SOL     OW17041   3.699   3.362  13.926  0.6654  0.8419  0.8180
 1803SOL    HW117042   3.682   3.329  13.838  1.0286  2.4075  0.1675
 1803SOL    HW217043   3.630   3.428  13.929  0.1831  0.2831  2.4320
 1804SOL     OW17044   2.131   4.303  17.073 -0.2972 -0.3615 -0.4967
 1804SOL    HW117045   2.148   4.230  17.013 -1.4561 -1.4073  0.4405
 1804SOL    HW217046   2.203   4.294  17.135  0.1380  0.7964 -0.8373
 1805SOL     OW17047   2.937   2.240   6.234 -0.0157  0.3403 -0.3159
 1805SOL    HW117048   3.004   2.272   6.173  1.2020 -0.1078  0.7920
 1805SOL    HW217049   2.930   2.149   6.206  1.7105 -0.1307  0.7678
 1806SOL     OW17050   0.304   4.466   7.231  0.2526 -0.1786  0.5006
 1806SOL    HW117051   0.215   4.480   7.264  0.3934  0.3950  0.6328
 1806SOL    HW217052   0.354   4.484   7.310 -0.5013  0.3093  0.8683
 1807SOL     OW17053   3.145   4.449   2.941  0.2729 -0.3899  0.1140
 1807SOL    HW117054   3.184   4.363   2.961 -1.3214 -1.3919 -1.0457
 1807SOL    HW217055   3.143   4.486   3.029  0.9272  1.1522 -0.5274
 1808SOL     OW17056   3.849   2.696   9.261 -0.0380 -0.0037  0.1968
 1808SOL    HW117057   3.811   2.610   9.243 -0.3380  0.0761  0.4493
 1808SOL    HW217058   3.939   2.678   9.289  0.1106 -2.0916 -1.6574
 1809SOL     OW17059   0.730   3.945   2.412  0.0808 -0.1936  0.2471
 1809SOL    HW117060   0.781   3.923   2.490 -0.8976 -2.4602  0.2535
 1809SOL    HW217061   0.753   3.878   2.348 -2.3924 -0.6756 -0.1558
 1810SOL     OW17062   1.261   2.314  10.163 -0.1475 -0.6042 -0.4878
 1810SOL    HW117063   1.247   2.219  10.167 -2.4287 -0.2419 -0.0302
 1810SOL    HW217064   1.317   2.327  10.086 -0.4788  1.7689 -0.3113
 1811SOL     OW17065   1.132   0.526   2.320  0.2409  0.3209 -0.4330
 1811SOL    HW117066   1.127   0.432   2.305 -1.5073  0.5767 -1.5234
 1811SOL    HW217067   1.147   0.549   2.228  3.2664 -0.1382 -0.0401
 1812SOL     OW17068   0.506   4.513   4.813  0.2175 -0.0654  0.4050
 1812SOL    HW117069   0.564   4.546   4.882 -0.5466 -2.0113  1.9625
 1812SOL    HW217070   0.569   4.499   4.742  0.1635 -2.3430  0.8123
 1813SOL     OW17071   0.814   2.212   2.438 -0.0944  0.4051  0.6904
 1813SOL    HW117072   0.893   2.201   2.385 -0.3090  0.2100  0.4125
 1813SOL    HW217073   0.752   2.262   2.386  0.5499  0.2613 -0.2080
 1814SOL     OW17074   3.127   4.469   4.331 -0.7016 -0.2076  0.5747
 1814SOL    HW117075   3.170   4.461   4.416 -0.2740 -1.5609  0.2383
 1814SOL    HW217076   3.111   4.380   4.300  1.3462 -0.1017 -0.8116
 1815SOL     OW17077   3.532   2.262   0.753  0.3240  0.9109 -0.1777
 1815SOL    HW117078   3.482   2.227   0.827  1.7477 -0.9195 -0.0788
 1815SOL    HW217079   3.461   2.301   0.702 -1.6520 -2.9115 -0.3168
 1816SOL     OW17080   3.774   0.482   2.064  0.2090 -0.6906 -0.4763
 1816SOL    HW117081   3.825   0.403   2.045 -0.4903 -1.7896  2.1382
 1816SOL    HW217082   3.745   0.497   1.974 -2.9020  0.2518  0.7157
 1817SOL     OW17083   3.999   2.636  10.827  0.1603 -0.2693 -0.3612
 1817SOL    HW117084   3.907   2.627  10.802  0.0562  1.4430 -0.5548
 1817SOL    HW217085   3.988   2.609  10.918 -1.7454 -0.8198 -0.7508
 1818SOL     OW17086   0.053   2.925   6.858 -0.1076 -0.0032  0.3502
 1818SOL    HW117087   0.123   2.989   6.845 -0.8985  0.3839 -1.9887
 1818SOL    HW217088   0.094   2.839   6.850  2.1010  1.2806 -1.9740
 1819SOL     OW17089   1.709   1.437   8.675 -0.5838  0.6416 -0.1780
 1819SOL    HW117090   1.692   1.492   8.752  0.5920  0.3343  0.3094
 1819SOL    HW217091   1.642   1.369   8.678 -0.3815  0.4712  0.3943
 1820SOL     OW17092   0.380   1.934   5.366 -0.3826 -0.0847 -0.5296
 1820SOL    HW117093   0.416   1.921   5.454 -0.6135 -0.8066 -0.5457
 1820SOL    HW217094   0.346   2.024   5.366  0.2241  0.1509 -0.4160
 1821SOL     OW17095   1.532   4.136   5.250 -0.1580  0.1993 -0.0781
 1821SOL    HW117096   1.503   4.082   5.324  2.8849 -1.8435 -0.3552
 1821SOL    HW217097   1.467   4.203   5.231  0.2975 -0.2757 -3.2964
 1822SOL     OW17098   0.232   2.014  12.223 -0.7931 -1.0395 -0.4666
 1822SOL    HW117099   0.203   2.092  12.175 -0.0981  1.0793  2.5377
 1822SOL    HW217100   0.141   1.989  12.242 -0.2063 -3.1636 -0.4648
 1823SOL     OW17101   1.400   3.916   3.262 -0.0856  0.1561 -0.3946
 1823SOL    HW117102   1.386   4.002   3.302 -0.0399  0.3815 -0.8674
 1823SOL    HW217103   1.477   3.918   3.206 -1.2104  0.9594 -1.9008
 1824SOL     OW17104   0.967   1.036   3.208  0.4212  0.1232 -0.4860
 1824SOL    HW117105   0.960   0.968   3.276 -1.4780  1.0618  0.2517
 1824SOL    HW217106   1.030   1.095   3.247 -1.2668  2.2107 -0.9305
 1825SOL     OW17107   2.672   0.343   4.347 -0.0788 -0.4051 -0.5073
 1825SOL    HW117108   2.750   0.394   4.369 -0.6017 -0.0623  0.5832
 1825SOL    HW217109   2.608   0.413   4.340 -0.4777 -0.4562  2.4467
 1826SOL     OW17110   2.627   3.171   2.951  0.0820  0.5442 -0.0987
 1826SOL    HW117111   2.651   3.237   2.886 -0.5937  0.0021 -0.8945
 1826SOL    HW217112   2.538   3.146   2.927  0.5435 -0.2155 -1.0409
 1827SOL     OW17113   4.589   0.118   1.033  0.3075 -0.3958 -0.4442
 1827SOL    HW117114   4.653   0.178   1.072  0.1026 -0.1984 -0.4156
 1827SOL    HW217115   4.557   0.070   1.109 -2.3986 -1.0007 -1.9599
 1828SOL     OW17116   1.792   0.309   7.084 -0.2322 -0.0845 -0.2618
 1828SOL    HW117117   1.715   0.284   7.033 -0.1620  1.0398 -0.9111
 1828SOL    HW217118   1.858   0.283   7.019  4.1604  2.3834  3.2599
 1829SOL     OW17119   2.816   2.914   6.172  0.5409  0.4677  0.2485
 1829SOL    HW117120   2.798   2.996   6.126  1.2869  0.5261  0.0690
 1829SOL    HW217121   2.733   2.904   6.218  0.9802  0.3737  1.0159
 1830SOL     OW17122   0.142   2.982   3.436  0.6247  0.8280  0.0690
 1830SOL    HW117123   0.075   2.915   3.443  0.9470  0.3993 -0.8636
 1830SOL    HW217124   0.101   3.064   3.464  2.2952  1.6796  0.0422
 1831SOL     OW17125   3.698   2.979   2.495  0.0309  0.0499 -0.2695
 1831SOL    HW117126   3.690   2.942   2.583  2.4037  1.6537  0.5898
 1831SOL    HW217127   3.632   2.925   2.450 -0.0734  0.4410 -0.5830
 1832SOL     OW17128   0.985   2.747   8.436 -0.3872 -0.5836  0.4691
 1832SOL    HW117129   0.942   2.733   8.520 -1.0637  1.9233  0.5565
 1832SOL    HW217130   1.024   2.663   8.413 -0.8230 -0.0280 -2.2591
 1833SOL     OW17131   2.047   3.872   2.743 -0.1468 -0.2035  0.2159
 1833SOL    HW117132   2.033   3.953   2.693 -0.1855  0.3484  1.1210
 1833SOL    HW217133   2.124   3.839   2.696  0.6826  0.7862  0.8700
 1834SOL     OW17134   0.023   1.157   7.450  0.0693  0.0200 -0.3199
 1834SOL    HW117135   4.711   1.095   7.502  2.7859 -1.1914  0.8766
 1834SOL    HW217136   4.688   1.196   7.404 -0.6859 -1.8676 -0.7036
 1835SOL     OW17137   1.025   2.923   7.054  0.7047  0.6367  0.1290
 1835SOL    HW117138   1.102   2.868   7.064  0.0283 -0.2829  0.2910
 1835SOL    HW217139   0.958   2.856   7.038  0.1742  0.7385  1.8455
 1836SOL     OW17140   3.089   4.029   3.793 -0.1247  0.0965 -0.3454
 1836SOL    HW117141   3.028   4.070   3.732 -0.5670 -0.2974 -0.1707
 1836SOL    HW217142   3.082   4.081   3.872 -0.1518  0.4839 -0.6029
 1837SOL     OW17143   2.038   0.626  10.380 -0.2189 -0.3741 -0.1898
 1837SOL    HW117144   2.037   0.652  10.472 -3.0472 -3.3649  0.6122
 1837SOL    HW217145   1.995   0.704  10.346  0.6419 -0.8312 -2.3908
 1838SOL     OW17146   0.069   4.352   6.144  0.4918 -0.2183  1.0366
 1838SOL    HW117147   0.053   4.348   6.238  0.2134 -1.6155  0.9245
 1838SOL    HW217148   0.014   4.427   6.120  0.4533 -0.0964  1.5168
 1839SOL     OW17149   2.625   3.614   2.444 -0.3531  0.3730  0.0350
 1839SOL    HW117150   2.555   3.600   2.508  0.4017 -1.1648  0.5065
 1839SOL    HW217151   2.618   3.709   2.432 -0.4989  0.3116 -0.3517
 1840SOL     OW17152   3.567   0.256  10.689 -0.5112  0.6973  0.0329
 1840SOL    HW117153   3.514   0.224  10.617  0.8062  1.3764 -1.2306
 1840SOL    HW217154   3.501   0.255  10.758  0.5067 -1.7829  0.9491
 1841SOL     OW17155   2.510   2.841   8.538  0.0294  0.1744 -0.1567
 1841SOL    HW117156   2.565   2.899   8.486 -1.4384  0.2257 -1.6457
 1841SOL    HW217157   2.502   2.777   8.468 -1.7927  0.9162 -0.6341
 1842SOL     OW17158   2.554   0.150   5.810  0.0034  0.3866  0.1248
 1842SOL    HW117159   2.589   0.068   5.775  0.7682  0.7220  0.0960
 1842SOL    HW217160   2.513   0.178   5.727  1.1408  1.6943  0.0028
 1843SOL     OW17161   2.206   2.646   3.343  0.6482 -0.0828 -0.1122
 1843SOL    HW117162   2.298   2.664   3.328  0.8320 -0.3691  0.6610
 1843SOL    HW217163   2.203   2.620   3.435 -1.0343 -1.9651 -0.6708
 1844SOL     OW17164   0.848   1.166  14.119  0.4141  0.1160  0.4297
 1844SOL    HW117165   0.822   1.214  14.041  2.0801  0.7969  0.3077
 1844SOL    HW217166   0.941   1.186  14.120  0.4429  0.0230 -2.9375
 1845SOL     OW17167   1.405   3.508   0.998 -0.1152  0.6685 -0.3329
 1845SOL    HW117168   1.422   3.585   0.944 -0.7923  1.2007  0.2014
 1845SOL    HW217169   1.477   3.450   0.973 -0.9507 -0.5717  0.0845
 1846SOL     OW17170   1.249   0.448  13.698 -0.2003  0.2282  0.0916
 1846SOL    HW117171   1.249   0.489  13.611 -1.2500 -2.0670 -0.9947
 1846SOL    HW217172   1.164   0.404  13.702 -1.1856  1.9525 -1.6510
 1847SOL     OW17173   2.346   4.216   2.073  0.0915 -0.8214 -0.3098
 1847SOL    HW117174   2.318   4.253   2.157 -0.5608  0.1121 -0.9373
 1847SOL    HW217175   2.440   4.203   2.087 -0.1515 -1.3859  0.8148
 1848SOL     OW17176   1.887   1.792   6.289 -0.0915  0.2191  0.2921
 1848SOL    HW117177   1.873   1.831   6.375 -0.8512  0.6779 -0.0320
 1848SOL    HW217178   1.801   1.808   6.250  0.0985 -0.6024 -0.4405
 1849SOL     OW17179   2.700   3.261  17.298  0.1141  0.3682 -0.1815
 1849SOL    HW117180   2.786   3.223  17.286  0.3693  1.1500 -0.8255
 1849SOL    HW217181   2.692   3.300  17.211 -0.0805  2.2633  0.6796
 1850SOL     OW17182   2.655   2.969  17.016 -0.3353 -0.0097  0.7334
 1850SOL    HW117183   2.627   3.038  17.076  0.3957  2.0331 -1.2871
 1850SOL    HW217184   2.588   2.974  16.948  0.6397 -0.2424 -0.2497
 1851SOL     OW17185   2.866   4.274   8.342  0.2377  0.1647 -0.0853
 1851SOL    HW117186   2.884   4.180   8.337 -1.8792 -0.0957 -2.6802
 1851SOL    HW217187   2.778   4.266   8.306  0.1712  1.6607 -0.2443
 1852SOL     OW17188   1.124   1.098   9.216  0.5787  0.0041  0.6857
 1852SOL    HW117189   1.085   1.170   9.167 -0.8164  0.6808  2.7837
 1852SOL    HW217190   1.102   1.028   9.156  1.2226  1.0777 -0.8031
 1853SOL     OW17191   3.474   0.644   0.637  0.2323  0.1569 -0.3480
 1853SOL    HW117192   3.445   0.569   0.688 -1.4397  0.7986 -0.3507
 1853SOL    HW217193   3.521   0.592   0.572  1.2304  1.6822 -0.8462
 1854SOL     OW17194   0.584   0.879  17.655  0.5904  0.5157 -0.3627
 1854SOL    HW117195   0.662   0.879  17.710  2.8680 -0.9364 -3.5842
 1854SOL    HW217196   0.614   0.858  17.567 -1.7165 -1.4428 -0.6739
 1855SOL     OW17197   1.964   2.208  13.294  0.1578  0.1412 -0.1178
 1855SOL    HW117198   2.000   2.167  13.373  0.5268  1.1530  0.2333
 1855SOL    HW217199   1.895   2.144  13.274  0.6924  0.1968 -2.1775
 1856SOL     OW17200   2.249   4.260   6.147 -0.6077 -0.2526 -0.0416
 1856SOL    HW117201   2.213   4.300   6.068  2.2495  0.3759 -1.0072
 1856SOL    HW217202   2.298   4.329   6.191  0.4325 -0.9336 -0.1315
 1857SOL     OW17203   2.943   2.986   3.963  0.0830  0.4850  0.4202
 1857SOL    HW117204   2.990   3.038   3.898 -0.2935 -0.4131 -0.5781
 1857SOL    HW217205   2.943   2.896   3.932  1.7037  0.4920  0.4323
 1858SOL     OW17206   3.889   0.351   6.081 -0.0300 -0.2984 -1.2333
 1858SOL    HW117207   3.951   0.292   6.039 -0.4107 -2.4508  1.1701
 1858SOL    HW217208   3.879   0.319   6.171  3.3697  0.3363 -0.6310
 1859SOL     OW17209   1.659   4.211   1.688  0.1033 -0.3654  0.4157
 1859SOL    HW117210   1.701   4.178   1.608 -0.6459 -0.6732  0.1561
 1859SOL    HW217211   1.705   4.178   1.765 -1.6354 -1.1510  1.0962
 1860SOL     OW17212   1.352   2.650   9.626 -0.3807  0.7511  0.1988
 1860SOL    HW117213   1.415   2.698   9.572 -0.7549 -1.1302 -1.9000
 1860SOL    HW217214   1.271   2.696   9.603 -0.7355  0.4116  0.7517
 1861SOL     OW17215   3.977   0.575   5.592 -0.1743  0.8786 -1.0733
 1861SOL    HW117216   3.991   0.576   5.497  1.8899  1.8952 -0.7588
 1861SOL    HW217217   3.912   0.641   5.617  0.0088  0.8231 -0.4523
 1862SOL     OW17218   3.400   2.385  10.642  0.1312  0.5520  0.3425
 1862SOL    HW117219   3.412   2.480  10.640  2.4063  0.2582 -0.0597
 1862SOL    HW217220   3.334   2.372  10.574 -1.5637 -1.1008  2.3246
 1863SOL     OW17221   2.988   4.467  12.792  0.2033  0.5064 -0.1913
 1863SOL    HW117222   2.896   4.491  12.779 -0.6161 -1.6459  1.7900
 1863SOL    HW217223   2.973   4.386  12.840  2.3403  0.4408  0.3635
 1864SOL     OW17224   3.761   1.437   4.155  0.2002  0.0185 -0.1102
 1864SOL    HW117225   3.789   1.346   4.164  0.5695  0.2048  0.6183
 1864SOL    HW217226   3.671   1.419   4.126  0.1000  1.5396 -0.7364
 1865SOL     OW17227   4.287   3.198   4.509  0.0180 -0.0054 -0.2299
 1865SOL    HW117228   4.243   3.152   4.580  1.0978 -2.0027 -0.8488
 1865SOL    HW217229   4.218   3.259   4.483  0.7094  1.4719  1.4003
 1866SOL     OW17230   0.392   1.844   2.141  0.1216 -0.1535 -0.6815
 1866SOL    HW117231   0.331   1.811   2.207  0.3733 -0.3426 -0.5440
 1866SOL    HW217232   0.418   1.926   2.182 -0.5689 -0.7336  0.9206
 1867SOL     OW17233   3.435   3.157   7.491  0.6125  0.2368  0.2063
 1867SOL    HW117234   3.376   3.099   7.538 -1.1116  0.8531 -1.1739
 1867SOL    HW217235   3.411   3.244   7.523  1.4169 -0.1992  1.9651
 1868SOL     OW17236   1.311   2.233   9.115 -0.5962 -0.5602  0.5879
 1868SOL    HW117237   1.232   2.243   9.061  0.4423  0.1992 -0.7688
 1868SOL    HW217238   1.285   2.172   9.184  0.3802  0.3882  1.7981
 1869SOL     OW17239   3.074   4.566  12.295  0.3522  0.0215  0.0041
 1869SOL    HW117240   3.141   4.633  12.307  0.0415  0.6167 -1.6054
 1869SOL    HW217241   3.020   4.583  12.372 -0.1995 -0.6252 -0.2398
 1870SOL     OW17242   3.973   2.280   1.920 -0.6198  0.6900  0.0661
 1870SOL    HW117243   4.067   2.275   1.906 -0.8141  2.1164 -1.8250
 1870SOL    HW217244   3.956   2.191   1.951 -1.4438  0.4668 -0.9895
 1871SOL     OW17245   2.910   3.701   6.546 -0.1461  0.3573  0.8336
 1871SOL    HW117246   2.837   3.748   6.508  0.2271  0.1203 -0.1889
 1871SOL    HW217247   2.872   3.615   6.564 -0.7638  0.1969 -1.2529
 1872SOL     OW17248   2.143   1.761  11.134 -0.4030  0.5881 -0.1463
 1872SOL    HW117249   2.202   1.765  11.059 -0.6480 -1.0899 -0.4220
 1872SOL    HW217250   2.208   1.730  11.197  2.2327  0.1617 -3.0554
 1873SOL     OW17251   1.204   1.241  15.597 -0.2230  0.6420 -0.2442
 1873SOL    HW117252   1.290   1.239  15.554 -0.0139  1.4423  0.1309
 1873SOL    HW217253   1.224   1.261  15.688 -2.8323  0.6435  0.3269
 1874SOL     OW17254   0.182   0.294  15.002  0.5020  0.2378  0.6687
 1874SOL    HW117255   0.183   0.330  14.913  1.1930  1.2649  1.1070
 1874SOL    HW217256   0.193   0.372  15.055  2.2515  1.0405 -0.8843
 1875SOL     OW17257   3.061   4.223  11.242  0.2743 -0.2453 -0.0805
 1875SOL    HW117258   3.092   4.133  11.254  1.1269 -0.1568 -1.6624
 1875SOL    HW217259   2.988   4.226  11.303 -1.2801  1.2275 -2.0290
 1876SOL     OW17260   2.488   1.462   7.060 -0.6365  0.1481  0.1491
 1876SOL    HW117261   2.473   1.389   7.120  1.0710  0.6652  1.2279
 1876SOL    HW217262   2.578   1.454   7.028 -0.7313 -2.3405  0.5298
 1877SOL     OW17263   3.402   1.784   6.662  0.0837  0.1285 -0.0071
 1877SOL    HW117264   3.334   1.826   6.715  1.0266  2.8933 -0.9770
 1877SOL    HW217265   3.409   1.860   6.605  1.3155 -0.7789 -1.0634
 1878SOL     OW17266   0.568   2.902  13.906 -0.2303 -0.0156 -0.0117
 1878SOL    HW117267   0.590   2.993  13.927 -2.3515 -0.0708  2.4098
 1878SOL    HW217268   0.496   2.916  13.845  0.3447  0.4411 -0.5879
 1879SOL     OW17269   1.702   0.900   1.967  0.2232  0.3914  0.8315
 1879SOL    HW117270   1.674   0.815   2.000 -0.4034  0.7543  1.2416
 1879SOL    HW217271   1.796   0.883   1.970 -0.1765 -1.6645  1.4479
 1880SOL     OW17272   2.315   3.188   9.657 -0.2251 -0.3595  0.4870
 1880SOL    HW117273   2.370   3.122   9.699  0.4632 -1.5378 -2.3082
 1880SOL    HW217274   2.257   3.130   9.608 -0.8805  0.8209 -0.1089
 1881SOL     OW17275   0.482   1.897   8.023 -0.4073 -0.3544  0.4855
 1881SOL    HW117276   0.565   1.932   7.990 -0.4155  0.5637  1.4379
 1881SOL    HW217277   0.429   1.949   7.962 -0.4452 -2.0012 -0.8670
 1882SOL     OW17278   0.444   2.641   6.017  0.2795  0.4051  0.4793
 1882SOL    HW117279   0.478   2.580   6.083 -1.1479  0.8835  1.6521
 1882SOL    HW217280   0.526   2.666   5.976 -0.3814  0.1155 -1.0003
 1883SOL     OW17281   3.594   1.223   5.565  0.3476  0.2401 -0.6498
 1883SOL    HW117282   3.595   1.127   5.559 -0.0117  0.0763  1.7477
 1883SOL    HW217283   3.505   1.225   5.601  0.7251  0.4025  0.2670
 1884SOL     OW17284   3.487   4.529   6.645  0.0874  0.0267 -0.1299
 1884SOL    HW117285   3.507   4.615   6.681  0.8925  0.4232 -1.5153
 1884SOL    HW217286   3.455   4.540   6.555  0.0155 -4.1682 -0.5987
 1885SOL     OW17287   2.038   1.692   7.130  0.4508 -0.0763  0.4189
 1885SOL    HW117288   2.101   1.717   7.061  1.1608 -3.3187 -0.0840
 1885SOL    HW217289   2.098   1.643   7.186  0.2792 -0.7146  0.0437
 1886SOL     OW17290   3.388   1.479   3.684 -0.6607  0.2668 -0.3877
 1886SOL    HW117291   3.336   1.560   3.686  0.7349  1.1233  0.9064
 1886SOL    HW217292   3.468   1.508   3.726 -1.3097  1.5523 -0.0325
 1887SOL     OW17293   3.739   4.703   1.580  0.1689  0.0701 -0.3904
 1887SOL    HW117294   3.680   4.717   1.507 -0.4087 -1.6289 -0.2436
 1887SOL    HW217295   3.779   0.050   1.573 -1.3095  0.4447 -3.7827
 1888SOL     OW17296   3.366   0.833   0.481  0.0437  0.5990  0.3942
 1888SOL    HW117297   3.398   0.773   0.548  0.2702  1.9141  1.4389
 1888SOL    HW217298   3.418   0.810   0.404  1.6703  2.2091  1.0247
 1889SOL     OW17299   0.168   3.645  10.421  0.4666  0.0148  0.2635
 1889SOL    HW117300   0.177   3.598  10.337  2.0826  0.4156  0.2146
 1889SOL    HW217301   0.240   3.708  10.413 -0.3010  1.1103  2.2069
 1890SOL     OW17302   0.082   0.066   5.143 -0.3919  0.7279  0.5345
 1890SOL    HW117303   0.035   0.014   5.208 -1.4130  0.8079 -0.1600
 1890SOL    HW217304   0.164   0.018   5.133 -0.3064  1.1451 -0.7211
 1891SOL     OW17305   2.523   3.487   6.201 -0.2344  0.6791  0.1530
 1891SOL    HW117306   2.484   3.428   6.137 -0.3725  2.0244 -0.9789
 1891SOL    HW217307   2.615   3.497   6.177 -0.4431  0.9535 -0.5197
 1892SOL     OW17308   3.351   0.956   4.688  0.0001 -0.1723 -0.0561
 1892SOL    HW117309   3.286   0.959   4.759 -0.4647 -0.0336 -0.4838
 1892SOL    HW217310   3.306   0.994   4.613  0.6779  1.1171  0.1960
 1893SOL     OW17311   0.156   0.163   9.164 -0.2014  0.3886 -0.3469
 1893SOL    HW117312   0.139   0.256   9.174  1.6002  0.5130  1.6903
 1893SOL    HW217313   0.180   0.132   9.252 -1.4599 -0.3943 -0.2787
 1894SOL     OW17314   0.576   4.252   3.633 -0.8115  0.3114 -0.4124
 1894SOL    HW117315   0.632   4.176   3.619 -0.4041  0.6544 -0.6699
 1894SOL    HW217316   0.644   4.313   3.603  0.5703 -0.6561  0.7430
 1895SOL     OW17317   3.704   4.136  15.917 -0.2257 -0.5442  0.2376
 1895SOL    HW117318   3.744   4.210  15.871 -0.1019 -0.8416 -0.1325
 1895SOL    HW217319   3.699   4.169  16.007 -0.2301  3.2885 -1.1548
 1896SOL     OW17320   1.540   3.749   1.536  0.0565  0.0189 -0.1088
 1896SOL    HW117321   1.602   3.820   1.553  0.2524 -0.5071  1.3235
 1896SOL    HW217322   1.588   3.667   1.540  0.4035  0.0962 -2.4137
 1897SOL     OW17323   3.558   4.205   7.190  0.1568 -0.3290 -0.6606
 1897SOL    HW117324   3.570   4.277   7.127  2.7425 -0.7693 -0.6914
 1897SOL    HW217325   3.543   4.137   7.125  0.4845 -1.2025  0.1760
 1898SOL     OW17326   3.957   3.206   1.992  0.3265 -0.0586  0.0748
 1898SOL    HW117327   3.968   3.173   2.081 -0.0441 -0.2769  0.0382
 1898SOL    HW217328   3.914   3.126   1.964 -1.7176  0.4527  1.7696
 1899SOL     OW17329   2.986   2.959   6.805  0.4204  0.4458  0.3558
 1899SOL    HW117330   2.909   2.974   6.751 -0.6625  0.2218  1.8228
 1899SOL    HW217331   2.944   2.961   6.891 -1.2647  0.3991 -0.4622
 1900SOL     OW17332   1.849   3.320   1.817  0.3572 -0.0497 -0.3247
 1900SOL    HW117333   1.811   3.365   1.742  1.7764  1.7461  0.0357
 1900SOL    HW217334   1.795   3.242   1.810 -1.5067  1.1495  0.5779
 1901SOL     OW17335   3.697   0.910   3.981 -0.3181  0.0653 -0.4326
 1901SOL    HW117336   3.636   0.983   3.991 -1.0670 -0.9899  2.5176
 1901SOL    HW217337   3.672   0.879   3.894 -0.5303  1.3665 -0.8247
 1902SOL     OW17338   4.614   2.131   3.548 -0.6484 -0.4709 -0.1443
 1902SOL    HW117339   4.626   2.131   3.453  2.5006  1.1873  0.2317
 1902SOL    HW217340   4.635   2.222   3.566 -0.5696 -0.8803  1.8571
 1903SOL     OW17341   4.516   3.791   3.588  0.1322 -1.0841  0.2076
 1903SOL    HW117342   4.480   3.880   3.593  1.2932 -0.5324 -1.0441
 1903SOL    HW217343   4.601   3.814   3.549  1.0188 -0.3661  2.5297
 1904SOL     OW17344   2.548   2.389   7.039 -0.6018  0.0699  0.1639
 1904SOL    HW117345   2.518   2.383   7.130  0.3934  2.2041  0.6289
 1904SOL    HW217346   2.617   2.453   7.060 -1.5906  1.0165  0.5213
 1905SOL     OW17347   3.501   0.378  11.347 -0.5019  0.3006 -0.2557
 1905SOL    HW117348   3.457   0.294  11.361 -0.1889  0.3588  1.0881
 1905SOL    HW217349   3.540   0.387  11.434 -2.0639  2.0114  0.2695
 1906SOL     OW17350   4.695   2.361   5.591  0.7801  0.7178 -0.5421
 1906SOL    HW117351   4.627   2.328   5.649  0.6114 -0.7431 -1.5747
 1906SOL    HW217352   4.697   2.454   5.614 -1.6660  0.9948 -1.4436
 1907SOL     OW17353   4.091   0.359   7.814  0.1059 -0.0204  0.8268
 1907SOL    HW117354   4.168   0.413   7.795 -0.9892  1.3913  0.3876
 1907SOL    HW217355   4.035   0.361   7.736  1.0557  0.5116  0.1413
 1908SOL     OW17356   1.458   0.644   3.978 -0.0316 -0.1130 -0.5885
 1908SOL    HW117357   1.526   0.711   3.991 -1.1613  1.2557 -1.8283
 1908SOL    HW217358   1.466   0.585   4.053  1.9912 -0.2063 -0.8674
 1909SOL     OW17359   0.472   1.437   4.435 -0.4914  0.2585  0.2723
 1909SOL    HW117360   0.394   1.397   4.473  0.3350 -0.4321  1.2585
 1909SOL    HW217361   0.483   1.505   4.501 -0.2559  1.0171 -0.5513
 1910SOL     OW17362   4.257   0.757   2.414 -0.1598  0.1054 -0.2103
 1910SOL    HW117363   4.339   0.781   2.457 -0.2107 -3.6269  1.9722
 1910SOL    HW217364   4.212   0.841   2.424  1.6604  1.1347 -0.6216
 1911SOL     OW17365   0.676   2.381  13.164  0.0012  0.4070  0.0323
 1911SOL    HW117366   0.625   2.450  13.121  0.7467 -0.6957 -2.6223
 1911SOL    HW217367   0.616   2.307  13.172 -2.3266  2.3546  0.6001
 1912SOL     OW17368   1.383   0.108   3.442  0.6271  0.1559  0.2571
 1912SOL    HW117369   1.441   0.055   3.497  0.2751 -2.1971 -1.5929
 1912SOL    HW217370   1.369   0.041   3.375  1.0965 -0.7667  1.0823
 1913SOL     OW17371   2.891   3.092   4.648  0.1727  0.4147 -0.5422
 1913SOL    HW117372   2.982   3.089   4.678 -0.9938  1.3611  3.0699
 1913SOL    HW217373   2.877   3.185   4.661  0.6781  0.5697 -1.1046
 1914SOL     OW17374   4.046   0.711  10.453  0.1819 -0.3940 -0.1414
 1914SOL    HW117375   4.131   0.755  10.463  0.3470 -0.6762 -0.3019
 1914SOL    HW217376   3.989   0.748  10.520 -0.2805 -0.7996 -0.3096
 1915SOL     OW17377   4.631   4.151   9.457 -0.3098 -0.1139 -0.9477
 1915SOL    HW117378   4.550   4.188   9.423  0.7326  0.2960 -3.0141
 1915SOL    HW217379   4.630   4.164   9.552 -0.1953 -2.8767 -0.5531
 1916SOL     OW17380   3.374   1.333   1.121 -0.1210 -0.5391 -0.1505
 1916SOL    HW117381   3.315   1.263   1.095 -0.4545 -0.4666  0.4294
 1916SOL    HW217382   3.452   1.287   1.089 -0.4582 -0.3430 -1.2551
 1917SOL     OW17383   1.357   1.152  16.175  0.2188 -0.4088  0.5109
 1917SOL    HW117384   1.311   1.228  16.209  2.2018  0.4127  1.3830
 1917SOL    HW217385   1.370   1.181  16.084  1.1576 -0.9346  0.4749
 1918SOL     OW17386   2.830   3.217   7.378  0.0153  0.3019  0.5232
 1918SOL    HW117387   2.885   3.294   7.365  1.0104 -0.4934  0.0410
 1918SOL    HW217388   2.742   3.250   7.395 -0.6233 -0.7788 -0.6735
 1919SOL     OW17389   4.103   0.928   0.547 -0.5101 -1.1425  0.5350
 1919SOL    HW117390   4.113   1.010   0.499  0.3773 -1.4272  0.2326
 1919SOL    HW217391   4.138   0.871   0.479  0.7518  0.8691 -0.4949
 1920SOL     OW17392   1.883   1.991   2.191  0.0872  0.8173 -0.1223
 1920SOL    HW117393   1.826   2.068   2.198 -0.5294  0.4691 -1.4027
 1920SOL    HW217394   1.862   1.959   2.104  2.3808 -0.0039 -0.3668
 1921SOL     OW17395   1.744   3.504   3.764 -0.4343 -0.2467  0.2133
 1921SOL    HW117396   1.663   3.551   3.782 -1.4512 -1.9805  0.2084
 1921SOL    HW217397   1.811   3.572   3.759 -1.1694  0.6613  2.6821
 1922SOL     OW17398   1.691   3.224  11.363 -0.6029 -0.1732  0.0949
 1922SOL    HW117399   1.608   3.272  11.370 -0.4884 -0.1884  1.4639
 1922SOL    HW217400   1.732   3.214  11.449  2.4014  1.3748 -1.1728
 1923SOL     OW17401   3.979   0.281   3.328  0.0933  0.0896 -0.1970
 1923SOL    HW117402   3.969   0.203   3.272 -1.4788  0.8769 -1.0163
 1923SOL    HW217403   4.034   0.330   3.267  1.2019 -0.5781  0.2630
 1924SOL     OW17404   2.017   1.456  15.730  0.3027 -0.3901 -0.5817
 1924SOL    HW117405   1.937   1.488  15.772 -0.2344 -1.3334 -0.8980
 1924SOL    HW217406   2.040   1.382  15.786 -0.1689 -0.3345 -0.3124
 1925SOL     OW17407   3.875   2.071  15.928 -0.3722 -0.1572  0.2154
 1925SOL    HW117408   3.881   1.981  15.896 -0.5119 -0.4940  1.1354
 1925SOL    HW217409   3.915   2.066  16.015 -0.4066  2.8122  0.4033
 1926SOL     OW17410   4.678   1.307  13.373 -0.1314  0.9241 -0.1203
 1926SOL    HW117411   4.707   1.216  13.382  0.1483  1.0701  0.4666
 1926SOL    HW217412   4.632   1.322  13.456  0.4626 -2.3199  0.8068
 1927SOL     OW17413   3.841   1.807  15.879  0.1112  0.0786 -0.0674
 1927SOL    HW117414   3.880   1.721  15.891  0.5152  0.4124  1.0478
 1927SOL    HW217415   3.772   1.784  15.817  0.5767 -2.2191  0.2707
 1928SOL     OW17416   1.737   2.506   7.560 -0.2075  0.1440  0.0753
 1928SOL    HW117417   1.728   2.601   7.569 -2.1459  0.0091 -0.4043
 1928SOL    HW217418   1.832   2.495   7.559  0.3359  4.9555 -1.0618
 1929SOL     OW17419   1.068   2.436   2.577 -0.5029  0.6027 -0.1751
 1929SOL    HW117420   1.014   2.405   2.650 -0.0961  0.5432  0.1022
 1929SOL    HW217421   1.154   2.428   2.618  0.5413 -1.2369 -2.7540
 1930SOL     OW17422   4.284   4.227   0.014  0.1418  0.4061 -0.0957
 1930SOL    HW117423   4.249   4.270  17.692  1.4692  0.2906 -0.7676
 1930SOL    HW217424   4.332   4.151  17.736 -1.5880 -0.7735  0.1594
 1931SOL     OW17425   0.433   0.856   4.567  0.0940 -0.5832 -0.5171
 1931SOL    HW117426   0.348   0.873   4.526  0.0686  0.9014  0.1427
 1931SOL    HW217427   0.488   0.926   4.534 -1.2198 -0.1605 -1.8279
 1932SOL     OW17428   4.102   3.512   1.243 -0.0966  0.2768 -1.2782
 1932SOL    HW117429   4.038   3.580   1.219  1.0995  2.3695  1.5403
 1932SOL    HW217430   4.085   3.498   1.336  1.4984  1.9231 -0.7451
 1933SOL     OW17431   2.259   3.853   1.811  0.3295 -0.4051  0.1783
 1933SOL    HW117432   2.338   3.825   1.858  1.5295  0.2393 -1.4404
 1933SOL    HW217433   2.277   3.946   1.797  0.2970 -0.5272 -0.6773
 1934SOL     OW17434   0.087   3.707  12.826  0.1457 -0.3814  0.2093
 1934SOL    HW117435   0.143   3.754  12.765 -1.3402 -0.3163 -1.0991
 1934SOL    HW217436   0.116   3.736  12.912  0.9726 -1.2485  0.2348
 1935SOL     OW17437   2.074   1.315   9.324  0.4395 -0.0327  0.5377
 1935SOL    HW117438   1.981   1.298   9.306  1.0201 -0.0788 -2.3858
 1935SOL    HW217439   2.100   1.241   9.378  0.2745 -0.8720 -0.5298
 1936SOL     OW17440   1.806   3.790   5.344 -0.3034 -0.7646 -0.4026
 1936SOL    HW117441   1.806   3.726   5.415 -1.5005  0.5840  0.8204
 1936SOL    HW217442   1.762   3.741   5.274  0.4196 -2.0696  0.0645
 1937SOL     OW17443   1.078   1.693  12.929  0.0861 -0.0928 -0.2478
 1937SOL    HW117444   1.134   1.658  12.860 -1.6999 -0.7855 -1.3361
 1937SOL    HW217445   1.025   1.753  12.877 -0.7551  0.4954  1.2987
 1938SOL     OW17446   0.294   2.218   2.987 -0.3393 -0.5382 -0.1835
 1938SOL    HW117447   0.245   2.279   2.932  0.1698  1.6005  1.7716
 1938SOL    HW217448   0.381   2.257   2.977 -0.4967  0.0626  0.8299
 1939SOL     OW17449   4.558   3.842  13.081 -0.3411  0.1811 -0.5651
 1939SOL    HW117450   4.494   3.913  13.078 -1.5359 -0.8022  1.2367
 1939SOL    HW217451   4.632   3.898  13.060 -0.1309 -0.0693 -0.4956
 1940SOL     OW17452   4.198   2.322   3.659  0.2815  0.0114  0.4220
 1940SOL    HW117453   4.219   2.228   3.654  1.3568  0.3765 -2.1956
 1940SOL    HW217454   4.104   2.319   3.675 -0.1307  3.7082 -1.4262
 1941SOL     OW17455   3.322   1.052   1.957  0.1763  0.0178  0.3264
 1941SOL    HW117456   3.374   1.078   1.881  2.2119 -2.5879  0.8166
 1941SOL    HW217457   3.349   1.114   2.025 -0.2288 -1.8668  2.2001
 1942SOL     OW17458   1.853   2.306   8.147 -0.5010 -0.4466 -0.8917
 1942SOL    HW117459   1.881   2.391   8.111 -1.5621  1.2886  2.3180
 1942SOL    HW217460   1.853   2.253   8.068  1.3399 -0.7423 -0.7011
 1943SOL     OW17461   4.576   3.930   9.194  0.1713  0.4045 -0.3182
 1943SOL    HW117462   4.663   3.930   9.233  0.7277  1.2125 -1.5631
 1943SOL    HW217463   4.571   4.015   9.149  0.5808  1.6389  1.9865
 1944SOL     OW17464   1.565   1.673   2.195  0.4916  0.3689 -0.6907
 1944SOL    HW117465   1.504   1.604   2.169  0.6208  0.4356 -1.1843
 1944SOL    HW217466   1.513   1.725   2.255  1.4270  0.1533  0.3126
 1945SOL     OW17467   2.434   2.527   3.823 -0.3970 -0.4162  0.2912
 1945SOL    HW117468   2.438   2.432   3.812 -0.2129 -0.4574  0.7189
 1945SOL    HW217469   2.524   2.560   3.823 -0.4486 -0.2909 -1.7136
 1946SOL     OW17470   2.928   4.259   3.232  0.0368  0.1534 -0.1196
 1946SOL    HW117471   3.023   4.252   3.239  0.0624  1.7455  1.2123
 1946SOL    HW217472   2.910   4.167   3.214  0.1921 -0.0048  0.5314
 1947SOL     OW17473   0.617   4.128   0.874  0.1340  0.0890 -0.6925
 1947SOL    HW117474   0.607   4.187   0.799 -0.8833  2.2917  1.1715
 1947SOL    HW217475   0.524   4.123   0.897  0.6606  0.5869  1.4926
 1948SOL     OW17476   1.861   1.267  13.105 -0.1751  0.2544 -0.5728
 1948SOL    HW117477   1.789   1.285  13.165 -0.7154 -2.8153 -0.2976
 1948SOL    HW217478   1.923   1.323  13.153 -1.8231 -0.1082  1.9719
 1949SOL     OW17479   2.223   4.388   3.456  0.0097 -0.4721  0.0479
 1949SOL    HW117480   2.177   4.439   3.389  1.3995  0.5139 -0.1418
 1949SOL    HW217481   2.309   4.428   3.444 -0.2928 -0.2291 -1.2671
 1950SOL     OW17482   2.455   3.852  16.854 -0.1598  0.3883 -0.2959
 1950SOL    HW117483   2.497   3.795  16.919 -1.0976 -0.2797 -0.2832
 1950SOL    HW217484   2.476   3.935  16.898  0.0636 -0.6882  1.6163
 1951SOL     OW17485   4.185   3.767   6.860 -0.1103 -0.0033  0.3539
 1951SOL    HW117486   4.197   3.754   6.766  1.5695  0.4626  0.5061
 1951SOL    HW217487   4.214   3.692   6.913  1.7717  0.4403 -0.0477
 1952SOL     OW17488   2.535   2.300  10.537 -0.7238  0.0420  0.2672
 1952SOL    HW117489   2.514   2.268  10.624  1.3858  1.1235  1.1905
 1952SOL    HW217490   2.545   2.392  10.561 -0.2806 -0.2247  1.1258
 1953SOL     OW17491   1.176   0.975  15.639  0.0486 -0.2155 -0.6337
 1953SOL    HW117492   1.174   1.064  15.605 -2.5479  1.5549  4.1265
 1953SOL    HW217493   1.269   0.961  15.652  0.6447  3.3805 -0.9856
 1954SOL     OW17494   3.103   1.153   8.257 -0.5963  0.7050  0.3534
 1954SOL    HW117495   3.065   1.240   8.270 -1.2313  0.9607 -3.2290
 1954SOL    HW217496   3.062   1.119   8.177  2.5934  0.4348 -1.1799
 1955SOL     OW17497   3.226   0.418  11.071 -0.4367  0.1097  0.1941
 1955SOL    HW117498   3.137   0.441  11.097  0.6455  3.4476  0.9334
 1955SOL    HW217499   3.246   0.347  11.131  0.8060  0.9192  0.7360
 1956SOL     OW17500   0.898   0.540   1.610  0.6347 -0.4109 -0.4494
 1956SOL    HW117501   0.962   0.572   1.546 -0.6609  2.9461 -0.0906
 1956SOL    HW217502   0.815   0.552   1.563  0.3710 -0.6793 -0.0462
 1957SOL     OW17503   3.363   3.467   0.445  0.5432 -0.1060  0.0001
 1957SOL    HW117504   3.412   3.501   0.520  0.4190 -0.1965  0.1232
 1957SOL    HW217505   3.277   3.508   0.453  0.1090 -0.8032 -1.0287
 1958SOL     OW17506   4.361   3.570   5.868  0.3412 -0.5350  0.0263
 1958SOL    HW117507   4.424   3.628   5.911  0.0022 -0.9573  1.1148
 1958SOL    HW217508   4.339   3.513   5.942  0.7634  1.2612  1.5193
 1959SOL     OW17509   4.171   1.167   4.993 -0.4118  0.5038 -0.2843
 1959SOL    HW117510   4.144   1.076   4.978 -1.2870  0.6760  0.2583
 1959SOL    HW217511   4.142   1.191   5.081  1.5079 -1.0848  0.7691
 1960SOL     OW17512   1.824   3.785   7.767 -0.1405 -0.4698  0.2375
 1960SOL    HW117513   1.898   3.777   7.828 -0.2376  0.7865  0.5269
 1960SOL    HW217514   1.821   3.880   7.760  0.3748 -0.6059 -1.6659
 1961SOL     OW17515   1.370   4.232   3.011  0.2199 -0.3402 -0.2084
 1961SOL    HW117516   1.408   4.302   2.957 -0.1085 -0.1637 -0.2108
 1961SOL    HW217517   1.448   4.181   3.029  0.2237 -1.0199 -2.1399
 1962SOL     OW17518   2.533   3.502   4.456 -0.0349 -0.5504  0.0773
 1962SOL    HW117519   2.450   3.461   4.434 -0.5828  0.6981 -0.1971
 1962SOL    HW217520   2.498   3.576   4.506 -1.0726 -0.6004 -0.5844
 1963SOL     OW17521   3.597   3.455   6.671  0.3293  0.0187 -0.1530
 1963SOL    HW117522   3.641   3.375   6.700  1.5938  0.1884 -1.6163
 1963SOL    HW217523   3.608   3.504   6.753 -2.0841 -0.5256  0.4851
 1964SOL     OW17524   4.591   1.352   3.544 -0.1824 -0.3044 -0.2188
 1964SOL    HW117525   4.527   1.412   3.582 -0.3289  0.1531 -1.2157
 1964SOL    HW217526   4.554   1.266   3.564  1.2730 -1.3190 -1.9491
 1965SOL     OW17527   1.205   3.823  14.788  0.6075 -0.7517  0.2078
 1965SOL    HW117528   1.129   3.854  14.739  2.1767  2.3043 -0.3327
 1965SOL    HW217529   1.187   3.878  14.865  2.5196  0.5035 -0.2233
 1966SOL     OW17530   0.338   0.862   0.297 -0.2201 -0.0366  0.1384
 1966SOL    HW117531   0.265   0.807   0.270  0.0900 -0.2454 -0.2652
 1966SOL    HW217532   0.323   0.932   0.233 -0.8103  0.4049  0.7553
 1967SOL     OW17533   1.653   3.627   6.477  0.0562  0.4831  0.1943
 1967SOL    HW117534   1.617   3.681   6.548  0.7550  0.0113  0.9090
 1967SOL    HW217535   1.577   3.607   6.422 -0.4478 -0.1097  1.1130
 1968SOL     OW17536   4.253   2.362   7.731 -0.2759 -0.0030 -0.0016
 1968SOL    HW117537   4.241   2.449   7.770  0.4142  0.9635 -1.9634
 1968SOL    HW217538   4.247   2.391   7.640 -2.5077  0.3241  0.2518
 1969SOL     OW17539   0.872   3.359   2.072  0.0062 -0.0401 -0.7683
 1969SOL    HW117540   0.931   3.336   2.001  1.0213 -2.9962  1.0492
 1969SOL    HW217541   0.877   3.454   2.058 -0.5046  0.1297  0.1556
 1970SOL     OW17542   2.199   3.413   0.509  0.1295  0.3381  0.1660
 1970SOL    HW117543   2.146   3.378   0.437  0.6558 -1.0954  0.4713
 1970SOL    HW217544   2.162   3.500   0.524  2.9791  1.2381  2.0431
 1971SOL     OW17545   1.331   1.369  16.996  0.0289 -0.0458 -0.3229
 1971SOL    HW117546   1.372   1.353  17.081  0.1921 -0.9309 -0.5672
 1971SOL    HW217547   1.284   1.453  16.989  2.1471  1.0457 -1.4539
 1972SOL     OW17548   3.488   0.261   1.174 -0.8249  0.4649 -0.0288
 1972SOL    HW117549   3.547   0.207   1.226  0.7725 -0.3307 -2.6930
 1972SOL    HW217550   3.505   0.355   1.187  0.0117  0.6773 -2.7262
 1973SOL     OW17551   1.161   3.987   0.761 -0.5419  0.0465  0.0593
 1973SOL    HW117552   1.152   4.082   0.751 -0.1845 -0.0591 -1.2281
 1973SOL    HW217553   1.095   3.969   0.829 -1.3198  0.2016 -0.6530
 1974SOL     OW17554   1.228   3.851   8.882  0.1030  0.1817 -0.2020
 1974SOL    HW117555   1.206   3.768   8.840  1.2352 -1.0769  1.6671
 1974SOL    HW217556   1.314   3.862   8.841  0.1497 -1.2853 -0.4816
 1975SOL     OW17557   3.119   3.695   8.521  0.2022  0.3443  0.2088
 1975SOL    HW117558   3.199   3.643   8.516  0.3741  0.3803  2.4596
 1975SOL    HW217559   3.113   3.743   8.439 -1.4730  0.4513  0.3863
 1976SOL     OW17560   1.385   2.923  13.873  0.0364 -0.2883 -0.3673
 1976SOL    HW117561   1.390   3.016  13.893  1.5723 -0.3036 -0.6875
 1976SOL    HW217562   1.477   2.906  13.855  0.1490  1.6505 -1.6198
 1977SOL     OW17563   1.337   4.669   0.180  0.7236  0.6994  0.0917
 1977SOL    HW117564   1.342   4.580   0.146  0.2815  0.4159  0.7701
 1977SOL    HW217565   1.249   4.699   0.159  1.4567  3.6440  1.1152
 1978SOL     OW17566   2.389   0.146  11.998  0.2058  0.2213  0.0361
 1978SOL    HW117567   2.319   0.211  12.005  1.2660  1.2144  1.3376
 1978SOL    HW217568   2.347   0.074  12.047  1.1665 -0.5538 -0.2831
 1979SOL     OW17569   2.840   2.138   1.374 -1.1894  0.3005 -0.4963
 1979SOL    HW117570   2.777   2.130   1.446 -1.2135 -0.9951 -0.6578
 1979SOL    HW217571   2.802   2.207   1.321  2.3848  1.3548 -1.7065
 1980SOL     OW17572   3.832   0.076   0.259  0.4310 -0.5363  0.3287
 1980SOL    HW117573   3.886   0.113   0.329 -1.9085  0.7295  1.4591
 1980SOL    HW217574   3.866   4.727   0.250 -0.9768 -0.8467 -2.0443
 1981SOL     OW17575   0.159   3.872   8.780  0.2075 -0.4227 -0.0967
 1981SOL    HW117576   0.160   3.815   8.703  1.2654  1.4020 -1.4399
 1981SOL    HW217577   0.079   3.923   8.766 -0.1577 -1.6202 -2.3628
 1982SOL     OW17578   3.378   1.702   4.138 -0.7411 -0.1706 -0.0754
 1982SOL    HW117579   3.300   1.679   4.088  0.2874  0.2261 -1.8768
 1982SOL    HW217580   3.386   1.792   4.106  0.0517 -0.7974 -1.6387
 1983SOL     OW17581   2.846   4.342   4.027 -0.0804 -0.9389 -0.9577
 1983SOL    HW117582   2.870   4.373   3.940 -1.3277  2.0778 -0.2270
 1983SOL    HW217583   2.751   4.336   4.021 -0.4036  2.5369  0.3292
 1984SOL     OW17584   0.850   1.389   3.815 -0.1144 -0.3114 -0.2837
 1984SOL    HW117585   0.836   1.484   3.819  0.1079 -0.2130 -1.7414
 1984SOL    HW217586   0.761   1.359   3.800 -0.5702  0.8454  0.1233
 1985SOL     OW17587   2.644   1.792   7.690  0.0622 -0.4855  0.5311
 1985SOL    HW117588   2.701   1.770   7.764 -0.3510  0.9033  1.2635
 1985SOL    HW217589   2.598   1.872   7.717  0.4750  1.3097 -4.1446
 1986SOL     OW17590   0.919   0.234   2.731 -0.3880  0.3239 -0.0813
 1986SOL    HW117591   0.976   0.311   2.729 -0.8883  0.6913 -0.2390
 1986SOL    HW217592   0.937   0.212   2.640 -2.3982  0.9046 -0.6195
 1987SOL     OW17593   4.690   2.535   0.804  0.2977  0.6574  0.1068
 1987SOL    HW117594   4.631   2.566   0.735  1.6964 -0.5273 -1.6258
 1987SOL    HW217595   4.733   2.620   0.812  0.2637  0.6863 -0.0054
 1988SOL     OW17596   2.695   0.420   2.834 -0.0342  0.7223 -0.4054
 1988SOL    HW117597   2.688   0.393   2.926  2.1008  0.0760 -0.4432
 1988SOL    HW217598   2.764   0.486   2.826 -0.8008  1.6676  0.7896
 1989SOL     OW17599   3.091   3.078   7.382  0.0332  0.1907 -0.2079
 1989SOL    HW117600   3.098   3.037   7.468  0.1226 -0.4948 -0.5420
 1989SOL    HW217601   3.018   3.135   7.408 -0.2866 -0.2707 -0.0972
 1990SOL     OW17602   0.829   0.595  11.555  0.9780  0.2484  0.2350
 1990SOL    HW117603   0.835   0.536  11.631 -0.3741 -0.6456 -0.3554
 1990SOL    HW217604   0.813   0.678  11.601  0.8900  0.5876 -0.4183
 1991SOL     OW17605   3.843   0.980   5.495  0.2248 -0.1670  0.1491
 1991SOL    HW117606   3.875   0.928   5.568  0.5691 -1.6561 -1.0794
 1991SOL    HW217607   3.922   1.030   5.475  0.2859 -0.5440 -0.5222
 1992SOL     OW17608   1.108   2.787   9.571 -0.4484  0.0347 -0.4315
 1992SOL    HW117609   1.025   2.743   9.590 -0.1344 -0.8383 -1.0883
 1992SOL    HW217610   1.100   2.871   9.615  0.5584 -0.6455  1.0359
 1993SOL     OW17611   0.807   3.836   4.095 -0.1922 -0.3905  0.4815
 1993SOL    HW117612   0.843   3.861   4.180 -0.4374  0.9199  0.1940
 1993SOL    HW217613   0.715   3.822   4.118 -1.2057  1.4093 -2.4076
 1994SOL     OW17614   4.266   3.135   2.035  0.6148 -0.4741 -0.4172
 1994SOL    HW117615   4.194   3.120   2.095  0.4401 -0.3188 -0.5881
 1994SOL    HW217616   4.338   3.156   2.094 -0.8625  0.7064  0.9516
 1995SOL     OW17617   3.186   4.295  11.656  0.8964 -0.0711  0.2161
 1995SOL    HW117618   3.134   4.258  11.727  2.9529 -1.5446  0.9561
 1995SOL    HW217619   3.172   4.220  11.599  1.1906 -0.6245  0.8636
 1996SOL     OW17620   4.071   2.036   8.433  0.5253 -0.2069 -0.1743
 1996SOL    HW117621   4.085   1.954   8.387 -3.3360 -2.0789  1.9509
 1996SOL    HW217622   4.031   2.089   8.364 -0.0220  0.2992  0.5189
 1997SOL     OW17623   1.574   1.482  11.379 -0.2043  0.1452 -0.4057
 1997SOL    HW117624   1.560   1.446  11.467  2.1081 -1.8015 -0.8458
 1997SOL    HW217625   1.560   1.409  11.319  0.4844  0.1587 -0.5810
 1998SOL     OW17626   0.809   1.814  15.454 -0.6768  0.0454 -0.0422
 1998SOL    HW117627   0.796   1.796  15.361  0.5662  2.0395 -0.6048
 1998SOL    HW217628   0.874   1.748  15.479  0.1514  1.2182  0.9363
 1999SOL     OW17629   3.410   4.163   1.760 -0.4502 -0.0322  0.5881
 1999SOL    HW117630   3.498   4.177   1.725 -0.8144  2.5103  0.6561
 1999SOL    HW217631   3.385   4.254   1.779 -1.0283 -0.0282 -0.1989
 2000SOL     OW17632   2.979   3.777   7.742  0.4981 -0.2366 -0.1120
 2000SOL    HW117633   2.934   3.696   7.768 -1.3221  0.5631 -0.7357
 2000SOL    HW217634   3.062   3.741   7.711  0.7370 -0.3321  0.6510
 2001SOL     OW17635   0.531   3.288   4.476  0.0526  0.6315 -0.1177
 2001SOL    HW117636   0.509   3.380   4.494  0.3423  0.8354 -0.7811
 2001SOL    HW217637   0.552   3.249   4.561  0.1359 -1.6453 -1.1943
 2002SOL     OW17638   4.287   3.846   7.485  0.9784 -0.5887  0.3034
 2002SOL    HW117639   4.276   3.752   7.497 -2.2350 -0.3251 -0.6920
 2002SOL    HW217640   4.382   3.847   7.471  1.0577 -1.3066  0.8012
 2003SOL     OW17641   2.196   2.359   9.399  0.0731  0.0593  1.1744
 2003SOL    HW117642   2.143   2.381   9.475  1.2028 -2.0595  2.5577
 2003SOL    HW217643   2.125   2.323   9.346 -0.3928  1.0350  1.1433
 2004SOL     OW17644   3.856   0.015   6.548 -0.2864  0.4482 -0.4019
 2004SOL    HW117645   3.809   4.708   6.617 -1.1217  1.1821 -0.4844
 2004SOL    HW217646   3.790   0.002   6.480 -0.1265  0.6845 -0.6029
 2005SOL     OW17647   2.771   3.005   1.780 -0.0900  0.6289 -0.1792
 2005SOL    HW117648   2.754   3.010   1.874  0.9448  1.3421 -0.0218
 2005SOL    HW217649   2.838   3.074   1.775  0.9188 -0.2827  0.7968
 2006SOL     OW17650   2.807   0.910  14.165 -0.0475  0.2876 -0.0777
 2006SOL    HW117651   2.815   0.821  14.197  0.0112  0.4757  0.4259
 2006SOL    HW217652   2.894   0.936  14.196  0.5943 -1.1029 -0.7013
 2007SOL     OW17653   0.026   1.171   5.615 -0.6276  0.2762  0.1243
 2007SOL    HW117654   0.030   1.253   5.566 -0.3717  0.6120  0.7084
 2007SOL    HW217655   0.051   1.206   5.701  0.1904  1.0240 -0.4215
 2008SOL     OW17656   3.646   0.962   3.719 -0.0070  0.6098 -0.1383
 2008SOL    HW117657   3.574   0.918   3.674 -0.6131  0.1309  1.2928
 2008SOL    HW217658   3.618   1.052   3.737 -2.2355 -0.3969  1.4614
 2009SOL     OW17659   2.395   0.558   4.592 -0.3786  0.0515  0.3892
 2009SOL    HW117660   2.350   0.609   4.659  0.2389 -0.1305  0.9351
 2009SOL    HW217661   2.435   0.626   4.537  1.2553 -0.4650  0.9480
 2010SOL     OW17662   4.725   2.635  13.380 -0.5399  0.1914 -0.2112
 2010SOL    HW117663   4.664   2.693  13.426  0.3873 -1.2297  2.7815
 2010SOL    HW217664   0.070   2.645  13.425 -2.5548 -1.2132  3.8074
 2011SOL     OW17665   0.185   3.887   2.266 -0.3780 -0.1165  0.5181
 2011SOL    HW117666   0.169   3.889   2.172  1.3677 -0.5689  0.2073
 2011SOL    HW217667   0.239   3.964   2.281  0.5102 -0.0793 -2.9361
 2012SOL     OW17668   2.942   3.923  13.466 -0.5574 -0.0303  0.1077
 2012SOL    HW117669   2.866   3.876  13.432  1.7972 -3.5668 -0.2568
 2012SOL    HW217670   2.895   4.005  13.478 -0.5682  0.0114 -0.2244
 2013SOL     OW17671   2.596   1.669   2.452  0.7131  0.0201  0.3604
 2013SOL    HW117672   2.593   1.756   2.411  0.4927 -0.0089  0.3152
 2013SOL    HW217673   2.666   1.677   2.517  0.2501 -2.3432  1.1666
 2014SOL     OW17674   0.142   3.365   1.993 -0.1198 -0.0003 -0.3109
 2014SOL    HW117675   0.195   3.319   1.928  1.9802  0.1516  1.3121
 2014SOL    HW217676   0.055   3.366   1.952  0.0281  2.0396 -0.5641
 2015SOL     OW17677   1.290   1.329   7.905  0.3544 -0.2244 -0.2639
 2015SOL    HW117678   1.239   1.259   7.945  1.1129 -0.3846  0.4278
 2015SOL    HW217679   1.262   1.401   7.962  1.5533  1.0529 -1.2959
 2016SOL     OW17680   3.317   0.253   6.876 -0.1402  0.0885 -0.3094
 2016SOL    HW117681   3.239   0.294   6.914 -0.9525 -3.1915  1.6192
 2016SOL    HW217682   3.377   0.297   6.936  1.9277  0.1643 -2.4457
 2017SOL     OW17683   3.007   3.361   6.434 -0.0778 -0.1800 -0.3086
 2017SOL    HW117684   3.076   3.325   6.377 -0.2915 -1.4933  0.2598
 2017SOL    HW217685   3.047   3.428   6.489 -4.1234  1.2965  0.8429
 2018SOL     OW17686   4.504   4.059  16.865  1.0666 -0.0106 -0.0017
 2018SOL    HW117687   4.443   4.015  16.806 -2.1370  0.4681  2.9580
 2018SOL    HW217688   4.510   4.000  16.940 -1.1785  1.1687  1.1069
 2019SOL     OW17689   0.492   1.072   7.592 -0.5586 -0.3043  0.5173
 2019SOL    HW117690   0.430   1.066   7.665  0.4929  2.5258  1.6252
 2019SOL    HW217691   0.533   0.986   7.599  0.0265 -0.0656 -0.0407
 2020SOL     OW17692   4.320   1.065   1.964  0.3401 -0.6976 -0.3292
 2020SOL    HW117693   4.237   1.112   1.978 -0.8291 -2.5996 -0.9775
 2020SOL    HW217694   4.312   1.013   2.044 -1.6075  1.6969  1.0338
 2021SOL     OW17695   2.569   1.474   9.151 -0.7594  0.7289 -0.3685
 2021SOL    HW117696   2.523   1.391   9.163 -0.8324  1.0641  1.6700
 2021SOL    HW217697   2.603   1.481   9.240 -0.1021  0.3903 -0.5876
 2022SOL     OW17698   0.492   1.125   4.428 -0.6315 -0.2106 -0.4190
 2022SOL    HW117699   0.526   1.069   4.358  1.0216  0.1694  0.0839
 2022SOL    HW217700   0.474   1.206   4.380  0.6205 -0.6244 -1.5693
 2023SOL     OW17701   3.619   4.145  11.023 -0.4023 -0.3705  0.3774
 2023SOL    HW117702   3.696   4.141  11.080  0.9046 -0.0851 -1.3718
 2023SOL    HW217703   3.596   4.238  11.013 -0.7756 -0.5669 -0.5277
 2024SOL     OW17704   0.141   0.127   8.878 -0.4950 -0.2966  0.1375
 2024SOL    HW117705   0.182   0.213   8.874  0.3426 -0.7222 -0.4276
 2024SOL    HW217706   0.137   0.106   8.971  0.1497 -0.0642  0.2151
 2025SOL     OW17707   0.475   2.129   2.300  0.5040 -0.0301  0.2072
 2025SOL    HW117708   0.527   2.064   2.348  1.2547  0.4391  0.0348
 2025SOL    HW217709   0.534   2.204   2.288  1.0730 -0.4266  0.5244
 2026SOL     OW17710   3.935   4.275   6.395  0.2448 -0.2276  0.3661
 2026SOL    HW117711   3.883   4.283   6.475  0.1757 -0.9249  0.3948
 2026SOL    HW217712   3.964   4.366   6.389  1.6926 -0.9414 -3.4044
 2027SOL     OW17713   1.105   3.086   1.423 -0.4457  0.3983  0.5894
 2027SOL    HW117714   1.117   3.028   1.499  1.3769  2.3189  1.7629
 2027SOL    HW217715   1.128   3.174   1.452  1.1879 -0.1474  0.9548
 2028SOL     OW17716   0.702   2.715   5.932 -0.2247 -0.3917 -0.3083
 2028SOL    HW117717   0.773   2.732   5.871  0.5223  0.4681  0.8056
 2028SOL    HW217718   0.646   2.791   5.915  1.1773  0.7679  0.2585
 2029SOL     OW17719   1.189   0.169  17.316 -0.4413  0.0253 -0.5052
 2029SOL    HW117720   1.193   0.186  17.410  2.0766 -3.1202 -0.0452
 2029SOL    HW217721   1.262   0.110  17.299  0.0790 -0.0620  2.0643
 2030SOL     OW17722   1.666   1.921  13.030  0.1316 -0.0236 -0.7747
 2030SOL    HW117723   1.701   1.995  13.080  0.6648 -0.1763 -0.9161
 2030SOL    HW217724   1.574   1.940  13.046  0.0219 -0.0774 -1.3501
 2031SOL     OW17725   1.100   4.718   5.393  0.3414 -0.0912  0.0481
 2031SOL    HW117726   1.038   4.711   5.465  0.0065  1.6011 -0.0768
 2031SOL    HW217727   1.156   0.036   5.445  0.1437  1.9135 -1.9525
 2032SOL     OW17728   1.271   2.742   8.864  0.4010 -0.1217  0.1451
 2032SOL    HW117729   1.281   2.749   8.770  1.0458  3.3418  0.5020
 2032SOL    HW217730   1.224   2.659   8.867 -2.4960  1.5255 -0.8465
 2033SOL     OW17731   3.912   2.121   1.404  0.0982 -0.0694 -0.1425
 2033SOL    HW117732   3.984   2.158   1.353 -0.5765 -1.3196 -1.9875
 2033SOL    HW217733   3.901   2.172   1.484 -1.7433 -2.8898  1.3545
 2034SOL     OW17734   3.310   1.942   5.455 -0.4650 -0.1247  0.1722
 2034SOL    HW117735   3.245   1.884   5.416  0.7274 -0.5463 -1.2212
 2034SOL    HW217736   3.268   2.027   5.445 -0.7081 -0.2532  0.1189
 2035SOL     OW17737   1.792   3.116   4.179  0.3548 -0.0666 -0.1866
 2035SOL    HW117738   1.756   3.030   4.158 -0.8491 -0.0963  1.9823
 2035SOL    HW217739   1.853   3.125   4.106  0.9053 -3.4465 -0.1690
 2036SOL     OW17740   3.683   2.251   2.312 -0.5646  0.3447 -0.3201
 2036SOL    HW117741   3.762   2.305   2.306 -0.1271  0.0240  2.7829
 2036SOL    HW217742   3.628   2.288   2.380 -0.3388  0.6637 -0.3102
 2037SOL     OW17743   4.592   1.295   8.632  0.3820 -0.8094  0.0505
 2037SOL    HW117744   4.611   1.266   8.721  3.6664 -0.6160 -0.6098
 2037SOL    HW217745   4.521   1.358   8.650 -0.7514 -2.4023  1.0800
 2038SOL     OW17746   1.299   4.159  11.345 -0.3481 -0.4904  0.4446
 2038SOL    HW117747   1.214   4.178  11.385 -0.3409 -0.1518  0.2975
 2038SOL    HW217748   1.319   4.075  11.387  2.0799  0.1348  0.5724
 2039SOL     OW17749   4.396   3.637   8.736 -0.4623 -0.3273 -0.4866
 2039SOL    HW117750   4.328   3.570   8.742 -0.0811 -0.7385 -0.8465
 2039SOL    HW217751   4.434   3.636   8.824  0.2875 -0.9989 -0.8240
 2040SOL     OW17752   0.942   4.605  12.944 -0.3295 -0.4129  0.2376
 2040SOL    HW117753   1.007   4.535  12.937 -1.5858 -1.4763 -0.8404
 2040SOL    HW217754   0.990   4.684  12.917 -0.0365 -0.3613  0.9251
 2041SOL     OW17755   1.440   1.842   3.236  0.1049 -0.2506  0.2482
 2041SOL    HW117756   1.369   1.891   3.195  0.4385  1.4879  1.7877
 2041SOL    HW217757   1.406   1.752   3.240 -0.6418  0.0796  1.2643
 2042SOL     OW17758   1.924   0.658   2.800  0.6876 -0.4905 -0.0131
 2042SOL    HW117759   1.945   0.637   2.891  0.9059  0.7531  0.2287
 2042SOL    HW217760   1.983   0.732   2.781 -0.6141  0.8161  1.0439
 2043SOL     OW17761   1.169   3.346   6.762 -0.1127  0.0249  0.2489
 2043SOL    HW117762   1.180   3.257   6.796  0.7401  0.4031  0.9901
 2043SOL    HW217763   1.261   3.371   6.753  0.4706 -1.1060  2.8503
 2044SOL     OW17764   1.969   0.014  11.228  0.5309  0.3845 -0.7905
 2044SOL    HW117765   1.903   0.082  11.217  0.8291  0.6129 -1.1741
 2044SOL    HW217766   1.945   4.688  11.162 -0.3491  0.2119 -0.3009
 2045SOL     OW17767   2.824   3.061   2.702  0.5574 -0.5130 -0.1462
 2045SOL    HW117768   2.789   3.150   2.695  0.6616 -0.4561  0.0559
 2045SOL    HW217769   2.915   3.078   2.727  0.3972 -0.8344  0.6691
 2046SOL     OW17770   4.247   2.278  15.374 -0.1124  0.0005  0.7278
 2046SOL    HW117771   4.158   2.241  15.378 -0.4269  0.8360  1.5718
 2046SOL    HW217772   4.216   2.363  15.342 -0.5330 -0.4400 -0.0448
 2047SOL     OW17773   1.364   3.064   2.523 -0.6684 -0.5159 -0.0838
 2047SOL    HW117774   1.362   2.972   2.551 -1.6973 -0.1754  0.9501
 2047SOL    HW217775   1.375   3.059   2.428 -0.7747  1.0338 -0.1681
 2048SOL     OW17776   2.060   1.275  15.926  0.3680 -0.5056  0.7073
 2048SOL    HW117777   2.110   1.232  15.995  1.1183 -1.2011 -0.2644
 2048SOL    HW217778   1.973   1.287  15.966 -0.1503 -0.9767 -0.2721
 2049SOL     OW17779   2.928   3.160  10.615  0.0652  0.6939 -0.2422
 2049SOL    HW117780   2.943   3.209  10.535 -1.3269 -0.9203 -1.4956
 2049SOL    HW217781   2.967   3.220  10.678 -0.0261 -0.6892  1.1472
 2050SOL     OW17782   1.310   4.508   5.363  0.2171 -0.0996  0.0333
 2050SOL    HW117783   1.386   4.549   5.405  2.1339 -2.8608 -0.7667
 2050SOL    HW217784   1.246   4.579   5.371 -0.9728 -0.9308 -1.9615
 2051SOL     OW17785   3.096   2.555   5.859 -0.0373 -0.5143  0.4133
 2051SOL    HW117786   3.031   2.486   5.844  0.9244 -1.1148 -0.9496
 2051SOL    HW217787   3.054   2.592   5.937 -0.5982 -1.1966  0.4296
 2052SOL     OW17788   4.000   0.762  17.176 -0.0163 -0.2282  0.3484
 2052SOL    HW117789   3.918   0.713  17.187  1.2164 -2.5985 -1.1027
 2052SOL    HW217790   4.057   0.703  17.225  0.7740  1.2057  1.1759
 2053SOL     OW17791   4.540   3.671   9.090 -0.4911  0.1087  0.9066
 2053SOL    HW117792   4.559   3.752   9.137 -0.7408 -0.4811  2.0193
 2053SOL    HW217793   4.616   3.675   9.032 -0.9639 -1.3839  0.1729
 2054SOL     OW17794   2.998   0.380  14.839  0.6672  0.0440 -0.0891
 2054SOL    HW117795   3.051   0.342  14.909  1.5102 -0.2834 -0.8998
 2054SOL    HW217796   2.992   0.471  14.868  0.7141  0.1467 -0.4055
 2055SOL     OW17797   0.402   3.754   7.933  0.3637  0.4747 -0.3062
 2055SOL    HW117798   0.403   3.686   7.866  2.0915  0.8240 -0.6283
 2055SOL    HW217799   0.324   3.803   7.908  0.4267 -0.1371 -1.6678
 2056SOL     OW17800   2.112   4.058   0.087  0.2447  0.4522 -0.2627
 2056SOL    HW117801   2.025   4.023   0.070  0.4090 -0.8258  1.5682
 2056SOL    HW217802   2.116   4.122   0.015 -0.3390  0.5304 -0.2290
 2057SOL     OW17803   0.475   2.608  10.131 -0.1201 -0.1484 -0.8160
 2057SOL    HW117804   0.521   2.633  10.211  3.2637 -2.6466 -1.9785
 2057SOL    HW217805   0.507   2.520  10.112  0.0977 -0.1278 -0.5485
 2058SOL     OW17806   4.482   0.552  14.869 -0.0818  0.3992  0.3595
 2058SOL    HW117807   4.555   0.571  14.810 -0.1616  0.5230  0.3021
 2058SOL    HW217808   4.405   0.574  14.817  0.6246 -0.7310 -1.1689
 2059SOL     OW17809   2.108   1.655   7.784  0.2181 -0.5860  0.2846
 2059SOL    HW117810   2.090   1.566   7.814 -0.0566 -0.3774  0.7423
 2059SOL    HW217811   2.151   1.684   7.865  0.5560  0.3074 -0.2125
 2060SOL     OW17812   3.402   1.677   4.904  0.8251  0.0912 -0.0238
 2060SOL    HW117813   3.377   1.585   4.898 -0.7251  0.6135 -1.6640
 2060SOL    HW217814   3.443   1.687   4.818 -0.0202 -1.9241 -0.6567
 2061SOL     OW17815   1.905   4.549   9.817 -0.0916 -0.1824 -0.1775
 2061SOL    HW117816   1.847   4.584   9.749 -1.2007 -0.0060  0.8577
 2061SOL    HW217817   1.837   4.491   9.853 -0.4967  0.7673  0.5909
 2062SOL     OW17818   3.205   1.923   8.395  0.1869  0.0582 -0.5973
 2062SOL    HW117819   3.183   1.842   8.442 -0.8113 -0.1275 -1.3841
 2062SOL    HW217820   3.278   1.948   8.451 -1.2678  0.6158  1.0685
 2063SOL     OW17821   2.552   3.332   6.563  0.6280  0.5311  0.3746
 2063SOL    HW117822   2.500   3.295   6.491  0.2386  1.5810  0.1272
 2063SOL    HW217823   2.625   3.270   6.565  2.4557  2.6071 -2.5366
 2064SOL     OW17824   1.982   3.546   8.048  0.3565  0.4882 -0.5609
 2064SOL    HW117825   1.970   3.457   8.015  1.3877  0.3685 -0.6181
 2064SOL    HW217826   1.986   3.597   7.968 -1.2950 -0.3079 -1.1317
 2065SOL     OW17827   4.136   2.989  10.986 -0.1811 -0.2359 -0.0230
 2065SOL    HW117828   4.123   3.084  10.977 -1.8658 -0.6649 -2.1029
 2065SOL    HW217829   4.228   2.989  11.010 -0.1967  0.7804  0.0659
 2066SOL     OW17830   2.083   1.027   8.930  0.2490 -0.2210  0.6273
 2066SOL    HW117831   2.095   0.932   8.923 -2.0653 -0.5996  1.9397
 2066SOL    HW217832   2.097   1.050   8.838 -2.6197 -1.5819 -0.1353
 2067SOL     OW17833   4.638   0.995  11.518 -0.3079  0.0679  0.0739
 2067SOL    HW117834   4.597   1.041  11.592 -0.0607 -0.4855  0.5545
 2067SOL    HW217835   4.650   1.062  11.451 -1.9864  0.9752  0.6790
 2068SOL     OW17836   0.354   0.438   0.252 -0.0872  0.6712  0.4356
 2068SOL    HW117837   0.319   0.526   0.268  0.7435  0.7395  1.8861
 2068SOL    HW217838   0.352   0.429   0.157  2.0743 -1.8811  0.6360
 2069SOL     OW17839   0.820   1.449   2.415  0.0715 -0.1494 -0.8709
 2069SOL    HW117840   0.751   1.508   2.383 -1.4182 -1.0683  0.6162
 2069SOL    HW217841   0.763   1.372   2.420  0.7727 -0.4188  3.1778
 2070SOL     OW17842   2.414   1.680   5.378 -0.2884  0.3391 -0.1215
 2070SOL    HW117843   2.378   1.714   5.297  2.2803  1.9186 -0.5981
 2070SOL    HW217844   2.362   1.602   5.399 -1.6543  1.0327 -0.9262
 2071SOL     OW17845   2.960   0.678  11.754 -0.2549 -0.5762 -0.1304
 2071SOL    HW117846   3.051   0.652  11.738 -0.0238  0.5323 -0.6012
 2071SOL    HW217847   2.967   0.765  11.717 -0.1788 -1.2496 -1.6900
 2072SOL     OW17848   0.138   4.708  10.459 -0.5790 -0.8242 -0.6350
 2072SOL    HW117849   0.172   4.663  10.382 -1.5289 -0.2800 -1.3584
 2072SOL    HW217850   0.055   4.732  10.417 -0.2464 -0.4925 -1.0907
 2073SOL     OW17851   3.267   0.600  10.258 -0.0620  0.5551  0.8654
 2073SOL    HW117852   3.335   0.617  10.193  0.5518 -0.9888  1.0817
 2073SOL    HW217853   3.210   0.538  10.212  1.2303 -1.6486  2.2126
 2074SOL     OW17854   4.132   2.764   0.225 -0.2137 -0.1586  0.1097
 2074SOL    HW117855   4.182   2.748   0.305 -0.3559 -1.0637  0.0169
 2074SOL    HW217856   4.138   2.675   0.189  0.4203  0.2837 -0.8998
 2075SOL     OW17857   1.539   0.060   9.973 -0.4531 -0.0834  0.4428
 2075SOL    HW117858   1.574   4.729  10.027  0.1051  0.3182  0.6042
 2075SOL    HW217859   1.452   0.074  10.010  1.4796  3.0406  3.7933
 2076SOL     OW17860   1.844   1.159   1.921  0.1353  0.0055  0.0104
 2076SOL    HW117861   1.853   1.066   1.897  0.5677  0.7156 -2.5946
 2076SOL    HW217862   1.823   1.164   2.014  1.3471 -0.8916  0.3384
 2077SOL     OW17863   0.700   3.568   6.127  1.3144  0.7059  0.6832
 2077SOL    HW117864   0.633   3.629   6.160 -0.0800  0.8629 -2.4495
 2077SOL    HW217865   0.667   3.486   6.163  0.5892  0.7733  0.1815
 2078SOL     OW17866   4.192   3.737   4.966 -0.1231  0.3045  0.1657
 2078SOL    HW117867   4.198   3.653   4.922 -1.3436  1.7484 -2.7281
 2078SOL    HW217868   4.097   3.745   4.977  0.3002  1.8169  2.7212
 2079SOL     OW17869   2.452   0.628  15.416  0.0532 -0.2306  0.0768
 2079SOL    HW117870   2.535   0.634  15.463 -0.0499  1.8439 -0.0374
 2079SOL    HW217871   2.483   0.678  15.340  1.8474 -1.4976 -0.0170
 2080SOL     OW17872   0.233   1.288   8.129  0.0637  0.1438  0.1341
 2080SOL    HW117873   0.167   1.347   8.166 -1.7074 -1.9103  0.1990
 2080SOL    HW217874   0.300   1.352   8.104  0.5067  0.0007  0.9221
 2081SOL     OW17875   4.093   0.513   6.425 -0.3809  0.1871 -0.5194
 2081SOL    HW117876   4.030   0.445   6.449  1.3088 -2.2257 -2.9309
 2081SOL    HW217877   4.149   0.519   6.502 -0.3827 -0.2655 -0.4864
 2082SOL     OW17878   4.339   4.393  15.297  0.3232 -0.2567 -0.3081
 2082SOL    HW117879   4.380   4.309  15.315  2.7334  1.2905  1.3589
 2082SOL    HW217880   4.373   4.438  15.374 -1.4021  0.9570 -0.2562
 2083SOL     OW17881   0.238   4.294   8.860 -0.5296  0.0168  0.0960
 2083SOL    HW117882   0.238   4.313   8.767  0.3756  1.4927  0.4112
 2083SOL    HW217883   0.171   4.355   8.890 -1.1053 -0.5282 -0.0744
 2084SOL     OW17884   1.407   1.194  15.410  0.6756  0.3387  0.1677
 2084SOL    HW117885   1.483   1.204  15.352 -0.1669  1.5259 -0.7079
 2084SOL    HW217886   1.340   1.221  15.348 -2.1881 -3.5581  1.5827
 2085SOL     OW17887   2.560   3.473  17.537  0.1060  0.2230 -0.4235
 2085SOL    HW117888   2.533   3.552  17.583  0.1695 -0.2222  0.3845
 2085SOL    HW217889   2.650   3.472  17.569  0.3305  1.8883 -0.9822
 2086SOL     OW17890   2.995   1.983   4.509 -0.2631 -0.5925  0.4878
 2086SOL    HW117891   2.955   2.019   4.588  1.4751 -0.7839  1.4573
 2086SOL    HW217892   2.918   1.995   4.453 -0.3676  1.0687  0.9783
 2087SOL     OW17893   4.587   1.564  12.379 -0.2417  0.6139 -0.3017
 2087SOL    HW117894   4.673   1.571  12.338  0.3924  1.8110  1.2346
 2087SOL    HW217895   4.610   1.538  12.468  2.9457  0.4955 -1.1685
 2088SOL     OW17896   4.658   2.498   5.969  0.4960  0.6254 -0.5308
 2088SOL    HW117897   4.647   2.545   6.052  0.4797 -0.6186  0.1747
 2088SOL    HW217898   4.732   2.548   5.934 -0.0112  1.8572  0.1480
 2089SOL     OW17899   4.402   4.453   8.444  0.4694  0.0893 -0.3753
 2089SOL    HW117900   4.465   4.411   8.386 -1.6367 -0.5510 -2.2220
 2089SOL    HW217901   4.407   4.385   8.511  0.6289  0.4285 -0.0441
 2090SOL     OW17902   0.277   0.743  13.287 -0.1223 -0.3068  0.6851
 2090SOL    HW117903   0.276   0.838  13.275  0.6296 -0.3650  0.1992
 2090SOL    HW217904   0.223   0.717  13.212 -0.8434  2.3067  0.2980
 2091SOL     OW17905   3.172   3.480   0.176  0.3477 -0.3852  0.3946
 2091SOL    HW117906   3.245   3.542   0.185 -1.9737  2.4123 -0.0426
 2091SOL    HW217907   3.103   3.535   0.214  1.9132  1.1503  1.0102
 2092SOL     OW17908   3.686   0.357   6.550  0.2118  0.1228  0.2829
 2092SOL    HW117909   3.656   0.446   6.565 -0.8393 -0.2954  0.6600
 2092SOL    HW217910   3.778   0.361   6.577 -0.1624  2.5640  1.1288
 2093SOL     OW17911   2.129   2.999   5.175 -0.3839 -0.0718 -0.0401
 2093SOL    HW117912   2.148   3.091   5.159  1.5893 -0.9027 -2.4517
 2093SOL    HW217913   2.211   2.953   5.161  1.3702  2.7671  1.0496
 2094SOL     OW17914   0.589   1.335   2.640  0.3786  0.1959  0.4389
 2094SOL    HW117915   0.615   1.275   2.709  0.0406 -0.5197 -0.0521
 2094SOL    HW217916   0.645   1.412   2.649  2.0232 -0.7484 -1.5275
 2095SOL     OW17917   3.064   0.540   9.059  0.1905  0.3803 -0.5927
 2095SOL    HW117918   3.076   0.447   9.075 -0.3361  0.1445 -1.5465
 2095SOL    HW217919   3.029   0.559   9.146  3.0937  1.8760  0.2313
 2096SOL     OW17920   4.088   2.338  16.237  0.2501  0.2060  0.1541
 2096SOL    HW117921   3.999   2.305  16.244 -0.5362  2.3486  0.3587
 2096SOL    HW217922   4.080   2.433  16.226  0.6108  0.4558  2.2216
 2097SOL     OW17923   2.918   0.164   4.398  0.5708 -0.1867 -0.0544
 2097SOL    HW117924   2.893   0.203   4.315  2.0864 -2.1373 -1.4350
 2097SOL    HW217925   2.993   0.114   4.366 -0.1802 -0.2590 -1.6875
 2098SOL     OW17926   1.880   3.318   2.421 -0.1884 -0.9144  0.3283
 2098SOL    HW117927   1.899   3.266   2.499 -1.5322 -2.8113 -0.6207
 2098SOL    HW217928   1.798   3.277   2.393 -0.5733  0.2372 -0.2164
 2099SOL     OW17929   2.490   2.379   7.325  0.0415  0.1931  0.2514
 2099SOL    HW117930   2.433   2.302   7.317  1.8962 -0.9419 -2.0829
 2099SOL    HW217931   2.516   2.377   7.417 -1.4887 -0.5004  0.6726
 2100SOL     OW17932   0.640   0.633   3.997 -0.2580  0.0620  0.8681
 2100SOL    HW117933   0.562   0.581   3.975  0.6747 -1.1998  0.5612
 2100SOL    HW217934   0.682   0.632   3.911 -0.2231  0.6246  0.8776
 2101SOL     OW17935   1.759   0.173   8.854  0.0094  0.1573 -0.2293
 2101SOL    HW117936   1.832   0.120   8.824 -0.0022 -0.0281  0.0652
 2101SOL    HW217937   1.725   0.119   8.925  1.5223 -0.4358  0.0402
 2102SOL     OW17938   1.100   1.841   4.226 -0.1489 -0.7030 -0.3731
 2102SOL    HW117939   1.164   1.892   4.276  0.9644 -1.3913 -1.1045
 2102SOL    HW217940   1.018   1.873   4.264 -0.3725 -1.5189 -0.1801
 2103SOL     OW17941   1.134   2.541   8.366 -0.2813  0.2311  0.0308
 2103SOL    HW117942   1.120   2.447   8.360  0.5535  0.1251 -0.2956
 2103SOL    HW217943   1.229   2.551   8.351  0.0880 -4.8586 -0.8476
 2104SOL     OW17944   3.639   4.527  17.453 -0.4136 -0.1333 -0.7580
 2104SOL    HW117945   3.547   4.542  17.433 -0.1943  1.2857 -0.6655
 2104SOL    HW217946   3.650   4.433  17.467 -0.7847  0.0600  0.8042
 2105SOL     OW17947   2.323   4.364   4.173  0.3814  0.0647  0.4615
 2105SOL    HW117948   2.320   4.274   4.204  1.1953 -0.5388 -1.2245
 2105SOL    HW217949   2.271   4.419   4.233 -0.5270 -0.8999  0.5558
 2106SOL     OW17950   2.900   0.059   2.762  0.1216 -0.5222  0.1992
 2106SOL    HW117951   2.973   4.739   2.742 -0.0816 -0.7143  0.0222
 2106SOL    HW217952   2.872   0.025   2.847 -2.2387  0.4825 -0.1697
 2107SOL     OW17953   2.154   0.986  10.222  0.1575  0.0561  0.3488
 2107SOL    HW117954   2.166   1.057  10.159  0.0346 -0.2425 -0.0096
 2107SOL    HW217955   2.240   0.945  10.220  0.1539  0.0394  0.5829
 2108SOL     OW17956   3.929   0.992   1.771  0.2593  0.2182 -0.1194
 2108SOL    HW117957   4.017   0.985   1.734  0.4558  1.8781 -0.0053
 2108SOL    HW217958   3.894   0.905   1.789  0.7974 -0.2467 -1.3360
 2109SOL     OW17959   3.964   3.632   8.188 -0.0541 -0.0770  0.2040
 2109SOL    HW117960   3.916   3.555   8.158 -1.5970  2.0870 -2.8983
 2109SOL    HW217961   3.988   3.616   8.279 -1.2549 -1.2406  0.3057
 2110SOL     OW17962   0.437   2.662   5.306  0.1466  0.0888  0.3082
 2110SOL    HW117963   0.375   2.712   5.253 -0.5559  0.4100  1.4340
 2110SOL    HW217964   0.510   2.722   5.318 -0.9780  1.2306  1.4242
 2111SOL     OW17965   1.856   4.253   8.359  0.1252  0.3049  0.2620
 2111SOL    HW117966   1.807   4.178   8.392  1.4870  0.6642  3.0530
 2111SOL    HW217967   1.942   4.228   8.392  0.9023  3.0338  0.3057
 2112SOL     OW17968   2.639   0.707   6.916 -0.2723 -0.2365  0.8867
 2112SOL    HW117969   2.558   0.669   6.949  1.0948 -0.7936  3.5388
 2112SOL    HW217970   2.681   0.741   6.995  1.9548 -0.2832 -0.2687
 2113SOL     OW17971   3.058   4.110   1.705 -0.2000 -0.1100 -0.2428
 2113SOL    HW117972   2.976   4.160   1.692  0.9316  2.2107  1.4742
 2113SOL    HW217973   3.091   4.155   1.783 -1.4077  2.5996 -1.2594
 2114SOL     OW17974   2.537   0.643   9.562 -0.2315  0.9582  0.0296
 2114SOL    HW117975   2.482   0.665   9.637 -0.1517  0.0851  0.3319
 2114SOL    HW217976   2.501   0.557   9.543 -2.4091  1.7797  0.4058
 2115SOL     OW17977   3.516   3.980   1.028 -0.2320  0.4155  0.2253
 2115SOL    HW117978   3.488   4.071   1.019  0.4244  0.5978  0.0167
 2115SOL    HW217979   3.472   3.951   0.949  0.1664  1.9754 -0.5603
 2116SOL     OW17980   4.231   4.217  14.498  0.0153 -0.2054 -0.2415
 2116SOL    HW117981   4.234   4.131  14.539 -2.7721 -0.7238 -1.1004
 2116SOL    HW217982   4.153   4.247  14.544  1.4160  1.4420  1.0537
 2117SOL     OW17983   2.473   1.500   4.132 -0.7807  0.2956  0.3166
 2117SOL    HW117984   2.443   1.547   4.055  0.2725 -0.7802 -0.7575
 2117SOL    HW217985   2.397   1.486   4.189  1.0071  4.2571  3.7584
 2118SOL     OW17986   1.173   0.082   2.977 -0.2561 -0.1181  0.0422
 2118SOL    HW117987   1.104   0.041   2.924  1.6404 -2.5629 -0.5163
 2118SOL    HW217988   1.235   0.108   2.910  0.6062  1.0392  1.2867
 2119SOL     OW17989   3.117   0.744  12.782 -0.2865  0.4285  0.1966
 2119SOL    HW117990   3.129   0.721  12.874 -0.3663 -1.8939 -0.3734
 2119SOL    HW217991   3.088   0.836  12.779 -1.2657  0.0311 -2.5448
 2120SOL     OW17992   2.415   2.627   4.082  0.3699  0.1974 -0.3189
 2120SOL    HW117993   2.404   2.619   3.988  0.3144  1.9004 -0.4562
 2120SOL    HW217994   2.326   2.609   4.112  1.1136 -0.7399  1.3479
 2121SOL     OW17995   3.843   3.462   5.622  0.3525  0.4749  1.2664
 2121SOL    HW117996   3.910   3.489   5.684 -0.2393  0.3386  1.9659
 2121SOL    HW217997   3.774   3.429   5.680 -1.2487  1.2222 -0.1817
 2122SOL     OW17998   2.830   1.258   3.255 -0.4509 -0.7929  0.5278
 2122SOL    HW117999   2.917   1.286   3.227 -0.3872  0.0621  1.5901
 2122SOL    HW218000   2.773   1.275   3.180  1.5389 -0.3360 -0.8773
 2123SOL     OW18001   3.724   4.412   2.091  0.1168  0.5252 -0.3034
 2123SOL    HW118002   3.676   4.359   2.154  0.2856 -0.0132 -0.6284
 2123SOL    HW218003   3.684   4.381   2.009 -1.0687 -2.4702  1.4180
 2124SOL     OW18004   2.039   0.425   7.647 -0.1438 -0.2105 -0.2797
 2124SOL    HW118005   1.957   0.380   7.668  0.0328 -0.7446 -0.7388
 2124SOL    HW218006   2.018   0.505   7.695  1.4085 -0.1510  0.2766
 2125SOL     OW18007   1.693   2.342   2.784 -0.1430 -0.1309 -0.2621
 2125SOL    HW118008   1.776   2.389   2.788 -0.9794  1.1940  1.5672
 2125SOL    HW218009   1.639   2.400   2.837  1.8417  1.0651  0.4414
 2126SOL     OW18010   2.187   0.267  11.778  0.6227  0.1081  0.1639
 2126SOL    HW118011   2.282   0.262  11.765  0.6083  1.5813 -0.4662
 2126SOL    HW218012   2.159   0.317  11.701  3.2740  0.3296 -0.6570
 2127SOL     OW18013   2.825   2.380   2.120  0.0529 -0.0371  0.4278
 2127SOL    HW118014   2.883   2.322   2.169  1.7561 -0.8344 -2.5511
 2127SOL    HW218015   2.893   2.417   2.064  1.7798 -1.2593  1.7336
 2128SOL     OW18016   2.667   1.774   5.016 -0.2512 -0.5333  0.8642
 2128SOL    HW118017   2.636   1.750   4.929  1.4375 -1.3658  0.4906
 2128SOL    HW218018   2.760   1.789   4.999 -0.6738 -0.2627 -1.1462
 2129SOL     OW18019   1.265   2.297   2.283 -0.2284 -0.1074 -0.4127
 2129SOL    HW118020   1.287   2.246   2.361  0.1911  2.1048  0.9467
 2129SOL    HW218021   1.325   2.249   2.227  0.5264 -3.3247  3.1601
 2130SOL     OW18022   0.201   2.807  12.694 -0.3011 -0.2251  0.0861
 2130SOL    HW118023   0.231   2.852  12.615 -0.7393  1.1915  0.7253
 2130SOL    HW218024   0.257   2.846  12.762 -2.3821  1.7140  0.6699
 2131SOL     OW18025   2.365   4.280  17.243 -0.1216 -0.3136 -0.3218
 2131SOL    HW118026   2.451   4.315  17.266  0.8965 -2.4309 -0.8628
 2131SOL    HW218027   2.307   4.298  17.318  1.3368  1.1990  0.4504
 2132SOL     OW18028   1.331   4.584   3.936  0.1383  0.1825  0.5086
 2132SOL    HW118029   1.291   4.500   3.960 -0.4836  0.7125  1.3496
 2132SOL    HW218030   1.423   4.584   3.963 -0.2089 -1.8868  1.7571
 2133SOL     OW18031   3.797   2.315   7.713 -0.2994 -0.0229  0.0332
 2133SOL    HW118032   3.740   2.372   7.765 -3.1506 -3.2074  0.3664
 2133SOL    HW218033   3.873   2.300   7.770 -0.1262 -1.1670 -0.5158
 2134SOL     OW18034   0.853   3.302   1.419  0.4048  0.4506  0.1752
 2134SOL    HW118035   0.839   3.208   1.425 -2.7060  0.9204  0.0289
 2134SOL    HW218036   0.889   3.321   1.333  0.0545 -2.0473 -0.5257
 2135SOL     OW18037   1.671   3.879   9.851  0.5612  0.4638 -0.0282
 2135SOL    HW118038   1.724   3.800   9.842 -0.4158 -0.1058 -0.7404
 2135SOL    HW218039   1.689   3.893   9.944 -2.1711 -1.0493  0.7368
 2136SOL     OW18040   1.010   2.421   3.369  0.6254  0.2501 -0.2226
 2136SOL    HW118041   0.973   2.367   3.438 -0.2180  4.3583  2.5937
 2136SOL    HW218042   1.041   2.504   3.407  1.4209 -0.0049 -0.3282
 2137SOL     OW18043   4.219   4.643   6.517 -0.4289 -0.4804  0.0021
 2137SOL    HW118044   4.298   4.688   6.547  1.5924 -3.5707 -0.5615
 2137SOL    HW218045   4.251   4.576   6.456 -0.7235  1.1835 -1.9829
 2138SOL     OW18046   2.614   2.894   6.946 -0.1164 -0.0376  0.1114
 2138SOL    HW118047   2.678   2.824   6.935  1.1760  0.8591  1.8185
 2138SOL    HW218048   2.540   2.854   6.900 -0.0180  0.8590 -0.8171
 2139SOL     OW18049   1.738   4.283   9.468 -0.0492 -0.4377 -0.0581
 2139SOL    HW118050   1.648   4.286   9.433 -0.6603  0.6005  1.6272
 2139SOL    HW218051   1.719   4.248   9.555 -4.1395  1.4191 -0.1881
 2140SOL     OW18052   3.959   1.558   2.803  0.4635  0.0003 -0.6556
 2140SOL    HW118053   3.942   1.501   2.879 -0.8241  1.9344  0.5065
 2140SOL    HW218054   3.977   1.495   2.734  0.4475 -0.6813 -0.0424
 2141SOL     OW18055   0.462   0.650  12.184 -0.4735 -0.0428 -0.1007
 2141SOL    HW118056   0.516   0.571  12.175 -0.5346  0.2500 -3.0889
 2141SOL    HW218057   0.521   0.722  12.160  0.8322 -0.4619  1.8679
 2142SOL     OW18058   1.985   4.088   4.379 -0.0636  0.2070 -0.6475
 2142SOL    HW118059   1.939   4.113   4.299  0.8148  0.1175 -1.1682
 2142SOL    HW218060   1.930   4.132   4.444 -2.3023 -0.0156 -2.3774
 2143SOL     OW18061   1.482   2.206   9.431 -0.2500 -0.5834 -0.2134
 2143SOL    HW118062   1.469   2.123   9.384  0.7812 -0.6147 -0.4606
 2143SOL    HW218063   1.525   2.260   9.364 -1.5225 -1.5322 -1.8085
 2144SOL     OW18064   3.124   0.800   5.198 -0.3572  0.0220  0.5682
 2144SOL    HW118065   3.211   0.827   5.227 -0.0416  1.7155 -1.9379
 2144SOL    HW218066   3.090   0.890   5.203  2.3820  1.1504 -1.0753
 2145SOL     OW18067   3.855   2.868   8.507  0.5529  0.2012 -0.2712
 2145SOL    HW118068   3.914   2.943   8.500 -2.2868  2.3387 -1.3786
 2145SOL    HW218069   3.887   2.813   8.579  2.5228  1.2832 -0.3177
 2146SOL     OW18070   3.249   2.725  15.711  0.2299  0.2578  0.1405
 2146SOL    HW118071   3.324   2.772  15.747  0.8458 -0.9506  0.4546
 2146SOL    HW218072   3.199   2.802  15.686  0.7273  0.1698 -1.1015
 2147SOL     OW18073   0.150   0.149   0.549  0.1883 -0.2864  0.0187
 2147SOL    HW118074   0.104   0.076   0.591  0.2164 -0.2729  0.0720
 2147SOL    HW218075   0.159   0.121   0.457 -0.3443 -3.8072  1.0458
 2148SOL     OW18076   2.947   2.266  16.561 -0.1838 -0.3313 -0.3338
 2148SOL    HW118077   3.011   2.226  16.620 -0.0273  0.6855  0.1762
 2148SOL    HW218078   2.991   2.341  16.521  0.2720  0.7613  2.2366
 2149SOL     OW18079   4.439   1.311   3.066 -0.0348  0.3452 -0.3357
 2149SOL    HW118080   4.446   1.218   3.045 -2.1033  0.3091 -0.8506
 2149SOL    HW218081   4.362   1.304   3.122  2.0097  2.1107  2.6894
 2150SOL     OW18082   0.088   4.043   8.045  0.4620 -0.5215  0.3563
 2150SOL    HW118083   0.138   4.118   8.077  0.6248 -0.4429 -0.0874
 2150SOL    HW218084   0.041   4.024   8.127  0.0363 -0.5237  0.1096
 2151SOL     OW18085   3.098   0.758   4.233  0.5033  0.0109  0.3955
 2151SOL    HW118086   3.141   0.815   4.170  0.9350 -0.3289  0.3788
 2151SOL    HW218087   3.057   0.817   4.296 -2.1219  0.0997 -1.3986
 2152SOL     OW18088   4.271   2.517   8.406 -0.0335  0.4513 -0.3036
 2152SOL    HW118089   4.304   2.456   8.340  0.6834  1.3443 -0.7696
 2152SOL    HW218090   4.326   2.593   8.386  0.2355  0.6832  1.2802
 2153SOL     OW18091   1.563   1.660  14.290 -0.2456  0.7928 -0.2518
 2153SOL    HW118092   1.517   1.739  14.318  1.7993  0.8391  2.9653
 2153SOL    HW218093   1.645   1.699  14.259 -0.4467  1.7190  0.3753
 2154SOL     OW18094   1.804   3.274  11.626 -0.4525 -0.2093  0.0829
 2154SOL    HW118095   1.884   3.311  11.588  0.8474 -1.4446  1.6037
 2154SOL    HW218096   1.831   3.266  11.717 -1.0293  0.5246  0.3165
 2155SOL     OW18097   4.081   2.036   6.901 -0.1217 -0.2000  0.4869
 2155SOL    HW118098   4.043   2.029   6.813 -1.3625  0.7362  0.9401
 2155SOL    HW218099   4.108   1.945   6.913 -1.0039 -0.7045 -1.2911
 2156SOL     OW18100   4.061   1.897   3.130 -0.0520 -0.1877  0.3561
 2156SOL    HW118101   4.143   1.913   3.176  0.1321 -2.1161  0.6987
 2156SOL    HW218102   4.098   1.922   3.045 -0.0755 -0.7310  0.1846
 2157SOL     OW18103   1.572   1.382   7.028  0.2328 -0.1546 -0.2122
 2157SOL    HW118104   1.554   1.302   6.979  0.4326 -0.6674  0.5577
 2157SOL    HW218105   1.664   1.402   7.010  0.3592  0.2420  0.8645
 2158SOL     OW18106   3.736   3.859  16.694  0.0200 -0.5662 -0.0758
 2158SOL    HW118107   3.754   3.941  16.738 -0.3576 -0.3107 -0.4032
 2158SOL    HW218108   3.791   3.797  16.743  0.0252  0.8122  1.6192
 2159SOL     OW18109   1.688   0.036   6.901  0.9384 -0.5372 -0.1916
 2159SOL    HW118110   1.690   4.681   6.891 -0.8391 -0.6130  0.1135
 2159SOL    HW218111   1.654   0.060   6.815 -2.4147  1.0391  1.5582
 2160SOL     OW18112   2.852   4.246   1.581 -0.0296  0.6557  0.5989
 2160SOL    HW118113   2.883   4.323   1.533 -0.8556  0.6354  0.0148
 2160SOL    HW218114   2.763   4.236   1.545  1.1110  0.9645 -2.3421
 2161SOL     OW18115   1.290   0.876   0.126 -0.2872 -0.1484 -0.2138
 2161SOL    HW118116   1.245   0.827   0.195 -1.2688 -0.0440 -0.7770
 2161SOL    HW218117   1.369   0.911   0.168  1.0311 -1.9819 -1.1774
 2162SOL     OW18118   2.963   0.798  14.491 -0.5962  0.3539 -0.1128
 2162SOL    HW118119   3.028   0.732  14.466  0.0116  1.6513 -1.9012
 2162SOL    HW218120   2.880   0.771  14.452  0.4892 -0.1106 -2.0733
 2163SOL     OW18121   3.056   1.970  10.169  0.2855  0.1374  0.4762
 2163SOL    HW118122   3.026   1.879  10.181  1.2168 -0.1038  0.9858
 2163SOL    HW218123   2.979   2.016  10.203 -0.2496 -1.1767  1.0563
 2164SOL     OW18124   3.865   1.274  15.616  0.4692  0.0691  0.2628
 2164SOL    HW118125   3.943   1.313  15.576 -1.0331 -1.3423 -3.9937
 2164SOL    HW218126   3.905   1.220  15.684  1.0735 -1.0311 -0.9836
 2165SOL     OW18127   4.182   0.476   3.159  0.4259 -0.1451 -0.5461
 2165SOL    HW118128   4.275   0.469   3.181  0.6114 -1.8317 -1.8763
 2165SOL    HW218129   4.177   0.572   3.164  0.0146 -0.2912  1.5094
 2166SOL     OW18130   2.295   0.013  16.533  0.1645  0.2843 -0.0298
 2166SOL    HW118131   2.248   4.708  16.463  0.9166  0.2794 -0.5236
 2166SOL    HW218132   2.293   0.105  16.507  1.4501  0.4117  0.3407
 2167SOL     OW18133   0.628   3.488   7.410  0.0527  0.0827 -0.4026
 2167SOL    HW118134   0.706   3.442   7.380 -2.5687 -3.1731 -2.1888
 2167SOL    HW218135   0.561   3.424   7.386 -0.2422 -0.6449  2.3465
 2168SOL     OW18136   2.877   3.250   3.745 -0.1935 -0.0356  0.3724
 2168SOL    HW118137   2.963   3.213   3.764 -0.3503 -0.3135  0.5462
 2168SOL    HW218138   2.858   3.209   3.661 -3.4607 -1.9178  2.0116
 2169SOL     OW18139   0.563   4.654   7.971  0.1255  0.1114  0.5155
 2169SOL    HW118140   0.476   4.647   8.011 -1.0929 -1.0162 -2.2831
 2169SOL    HW218141   0.590   4.735   8.012 -0.4954  1.4622 -1.7484
 2170SOL     OW18142   0.766   2.933   2.369 -0.1112  0.7813 -0.5568
 2170SOL    HW118143   0.687   2.970   2.330 -1.5756 -0.4493  1.2555
 2170SOL    HW218144   0.732   2.851   2.403  0.1355  1.0339  0.2949
 2171SOL     OW18145   0.868   1.476   5.406 -0.2952  0.8519  0.3554
 2171SOL    HW118146   0.786   1.471   5.356 -0.8119  3.1223  0.9910
 2171SOL    HW218147   0.847   1.539   5.475 -0.9161  0.6812  0.3233
 2172SOL     OW18148   2.442   0.389   9.543 -0.1116  0.2482  0.5680
 2172SOL    HW118149   2.419   0.307   9.498 -0.8375  0.9577 -0.3550
 2172SOL    HW218150   2.510   0.351   9.599  1.1358  0.7722 -0.5974
 2173SOL     OW18151   3.437   2.388   8.812  0.1541  0.2368 -0.3266
 2173SOL    HW118152   3.411   2.472   8.772 -0.1910  2.0909  3.7833
 2173SOL    HW218153   3.357   2.342   8.838  1.7879 -0.9748  2.5054
 2174SOL     OW18154   2.906   2.147  11.376 -0.1445  0.5522  0.5277
 2174SOL    HW118155   2.824   2.100  11.363  2.7029 -3.5546 -2.4113
 2174SOL    HW218156   2.889   2.241  11.382 -0.4053  0.5387 -0.0320
 2175SOL     OW18157   2.781   1.922   3.158 -0.3034  0.1238  0.3009
 2175SOL    HW118158   2.716   1.916   3.089  0.0412  0.5017 -0.0546
 2175SOL    HW218159   2.866   1.932   3.114  0.1197  0.1566  1.1283
 2176SOL     OW18160   2.626   1.660   4.784  0.2953  0.3253  0.2834
 2176SOL    HW118161   2.542   1.616   4.797 -0.5403  1.8778  0.1036
 2176SOL    HW218162   2.679   1.584   4.757  2.0838  0.7970  2.4729
 2177SOL     OW18163   4.247   1.906  11.749 -0.0280 -0.4298 -0.8696
 2177SOL    HW118164   4.298   1.889  11.670 -1.9300  0.6542 -2.3373
 2177SOL    HW218165   4.314   1.944  11.805  0.2694  0.1847 -1.6444
 2178SOL     OW18166   3.978   1.399  14.274  0.5405 -0.3443 -0.3064
 2178SOL    HW118167   3.939   1.324  14.320  1.8246 -0.6786  0.2360
 2178SOL    HW218168   3.965   1.374  14.183  0.0124 -0.2792 -0.2467
 2179SOL     OW18169   1.477   3.048   7.488  0.5053  0.4760 -0.4294
 2179SOL    HW118170   1.538   3.063   7.559 -1.2493  0.5558  1.0763
 2179SOL    HW218171   1.526   3.000   7.422  1.5168 -0.2839  0.8946
 2180SOL     OW18172   1.966   2.543   6.872  0.3976  0.4682 -0.3773
 2180SOL    HW118173   2.050   2.588   6.872 -0.5772  2.2690  0.3707
 2180SOL    HW218174   1.908   2.619   6.877 -0.7428 -0.3643 -0.8996
 2181SOL     OW18175   2.240   0.377   5.085 -0.4510  0.3605 -0.5266
 2181SOL    HW118176   2.226   0.417   5.170  2.2846 -1.0902  0.5868
 2181SOL    HW218177   2.151   0.348   5.061 -0.9909  1.2224  0.4186
 2182SOL     OW18178   3.300   0.834   1.125  0.1937  0.0497  0.3929
 2182SOL    HW118179   3.393   0.851   1.110  0.6189 -3.1183 -0.8032
 2182SOL    HW218180   3.267   0.878   1.046 -1.6829 -1.6530  0.1919
 2183SOL     OW18181   4.395   2.911  15.923 -0.0005  0.1504 -0.0261
 2183SOL    HW118182   4.419   2.909  15.830 -1.6133 -0.9980 -0.4166
 2183SOL    HW218183   4.439   2.833  15.957 -0.7188  0.6850  2.1014
 2184SOL     OW18184   2.464   0.121   2.439  0.1205  0.4527  0.0151
 2184SOL    HW118185   2.530   0.184   2.410 -0.0238  0.8667  0.5711
 2184SOL    HW218186   2.512   0.080   2.511 -2.6599 -2.0241  0.4628
 2185SOL     OW18187   1.237   0.420  15.598 -0.0020  0.1636 -0.1999
 2185SOL    HW118188   1.217   0.413  15.691 -1.2962  1.7428 -0.3660
 2185SOL    HW218189   1.156   0.451  15.557 -1.3763 -2.1342  0.7755
 2186SOL     OW18190   0.045   0.889   9.388 -0.3896 -0.1092  0.2402
 2186SOL    HW118191   0.049   0.959   9.324  0.9713 -0.2788  0.1355
 2186SOL    HW218192   0.067   0.814   9.333  1.0112 -0.6323  1.5102
 2187SOL     OW18193   4.105   0.219   6.006  0.8769 -0.1699  0.7870
 2187SOL    HW118194   4.133   0.195   5.918 -1.0411  3.4030 -0.7942
 2187SOL    HW218195   4.170   0.288   6.019 -1.3911  2.1777 -0.3789
 2188SOL     OW18196   0.826   1.816   6.541 -0.0055 -0.2125  0.9715
 2188SOL    HW118197   0.896   1.751   6.550 -1.1010 -1.7177 -1.4999
 2188SOL    HW218198   0.875   1.898   6.531  0.8432 -0.6071  1.8508
 2189SOL     OW18199   3.891   2.735   4.542  0.7686 -0.6384  0.0936
 2189SOL    HW118200   3.961   2.795   4.516  0.0109  1.5504  3.0321
 2189SOL    HW218201   3.903   2.661   4.483  1.9537 -1.1350  0.9443
 2190SOL     OW18202   0.155   4.114   5.255  0.0343  0.0530  0.3459
 2190SOL    HW118203   0.242   4.136   5.289 -1.1156  0.3906  3.0716
 2190SOL    HW218204   0.158   4.025   5.290  1.6913 -0.1865 -0.3793
 2191SOL     OW18205   3.367   3.078   3.917 -0.2397 -0.2921  0.1570
 2191SOL    HW118206   3.459   3.069   3.945  0.2813  3.3769 -0.4200
 2191SOL    HW218207   3.343   3.147   3.979 -1.5115 -0.5549 -0.0408
 2192SOL     OW18208   0.942   2.957  16.936 -0.4115 -0.4361  0.0667
 2192SOL    HW118209   0.987   2.966  17.020 -1.2893  1.7792  0.2745
 2192SOL    HW218210   1.011   2.981  16.873 -1.4767 -0.5228 -1.1312
 2193SOL     OW18211   2.678   3.324   4.764  0.1567 -0.0166 -0.4587
 2193SOL    HW118212   2.676   3.311   4.859 -0.1005 -3.2613 -0.9170
 2193SOL    HW218213   2.605   3.270   4.733 -0.2405  0.2824 -0.0401
 2194SOL     OW18214   2.742   1.812   8.778 -0.6784  0.4429 -0.4885
 2194SOL    HW118215   2.675   1.800   8.844  0.5670  0.0444  0.7029
 2194SOL    HW218216   2.785   1.893   8.806  2.0838 -1.0566 -0.3999
 2195SOL     OW18217   1.462   3.096   9.030 -0.6809  0.0977 -0.0405
 2195SOL    HW118218   1.385   3.043   9.049  0.7819 -1.2235  2.2727
 2195SOL    HW218219   1.512   3.078   9.110 -0.3747 -1.6531 -0.6471
 2196SOL     OW18220   1.953   3.493   6.986  0.1144  0.1062  0.1386
 2196SOL    HW118221   2.006   3.462   7.059  0.7610 -0.6844 -0.6639
 2196SOL    HW218222   1.982   3.584   6.983  1.7161 -0.4622 -1.3101
 2197SOL     OW18223   0.549   0.757   8.791 -0.3466 -0.3915  0.4857
 2197SOL    HW118224   0.534   0.670   8.754 -0.0394  0.2346 -1.1297
 2197SOL    HW218225   0.510   0.818   8.728 -1.4154  1.7195  3.2027
 2198SOL     OW18226   2.487   0.807   7.359  0.1039 -0.1342  0.3958
 2198SOL    HW118227   2.553   0.738   7.370  1.0051  0.2257 -2.5518
 2198SOL    HW218228   2.416   0.755   7.323  0.8149 -1.3835  0.7768
 2199SOL     OW18229   3.502   3.895   2.335  0.1492 -0.3127 -0.1648
 2199SOL    HW118230   3.590   3.877   2.368  0.4181  1.9796  0.4281
 2199SOL    HW218231   3.491   3.830   2.265 -1.5086  2.2604 -2.3357
 2200SOL     OW18232   0.681   3.686  13.765  0.1734  0.2650 -0.1734
 2200SOL    HW118233   0.621   3.758  13.783  0.0244  0.1744 -0.3106
 2200SOL    HW218234   0.648   3.655  13.681 -0.6482 -2.0013  1.0038
 2201SOL     OW18235   2.588   4.093   2.163 -0.5397 -0.0730 -0.5816
 2201SOL    HW118236   2.620   4.183   2.154  0.0209 -0.1329  0.9005
 2201SOL    HW218237   2.658   4.043   2.121 -0.8560  1.0942 -2.5011
 2202SOL     OW18238   4.595   3.390   9.443  0.5235  0.0684  0.4701
 2202SOL    HW118239   4.573   3.477   9.475  1.5194  0.5325 -0.1262
 2202SOL    HW218240   4.689   3.404   9.455  0.4586  0.9024  0.0336
 2203SOL     OW18241   3.833   0.012   0.781  0.0839  0.2061  0.1450
 2203SOL    HW118242   3.830   0.107   0.767 -0.6622  0.1065 -0.4069
 2203SOL    HW218243   3.895   4.721   0.715  0.5693 -1.5949  1.4200
 2204SOL     OW18244   1.043   3.867   7.106 -0.4602  0.4230  0.2415
 2204SOL    HW118245   1.091   3.795   7.147 -1.2090 -0.4550 -0.4329
 2204SOL    HW218246   1.001   3.909   7.181 -2.5377 -1.4459  0.1166
 2205SOL     OW18247   2.672   0.276   5.362  0.6491 -0.6380  0.7089
 2205SOL    HW118248   2.692   0.365   5.332 -0.9453 -0.4719  0.1532
 2205SOL    HW218249   2.635   0.295   5.448 -1.5713  0.4698 -0.4942
 2206SOL     OW18250   4.100   0.012   4.582  0.7911  0.0427  0.3872
 2206SOL    HW118251   4.167   0.075   4.606 -0.6860  1.4869  0.7259
 2206SOL    HW218252   4.022   0.066   4.594 -0.3806 -1.4004 -0.6225
 2207SOL     OW18253   4.608   4.247  11.190  0.6633 -0.5434  0.3389
 2207SOL    HW118254   4.584   4.319  11.132  0.3626 -1.4267 -0.6405
 2207SOL    HW218255   4.616   4.181  11.121 -2.6057  0.5203 -1.0617
 2208SOL     OW18256   2.762   2.831   3.682 -0.4957 -0.1510  0.2214
 2208SOL    HW118257   2.770   2.900   3.617 -0.2150 -1.3978 -1.0536
 2208SOL    HW218258   2.834   2.835   3.745 -0.2268  1.0246 -0.1576
 2209SOL     OW18259   4.542   1.053   2.662  0.2197 -0.0508 -0.5158
 2209SOL    HW118260   4.611   1.023   2.721 -0.2061  0.3737  0.1905
 2209SOL    HW218261   4.560   1.145   2.682  0.9995 -0.8302  2.3533
 2210SOL     OW18262   4.588   2.091   8.605  0.6621  0.2087  0.5447
 2210SOL    HW118263   4.566   2.067   8.695  0.7696 -1.3761  0.1582
 2210SOL    HW218264   4.674   2.049   8.603 -0.3522 -1.7416 -2.9892
 2211SOL     OW18265   1.182   0.084   4.678 -0.8796  0.1323  0.0032
 2211SOL    HW118266   1.098   0.129   4.670 -0.8430  0.1354 -0.3638
 2211SOL    HW218267   1.245   0.153   4.654  0.7531 -1.1092  0.7212
 2212SOL     OW18268   0.861   2.050  15.043  0.1690  0.1603  0.5388
 2212SOL    HW118269   0.796   2.093  14.987 -1.5710 -2.5246  0.4809
 2212SOL    HW218270   0.818   2.058  15.129  1.0437 -1.8752  1.1649
 2213SOL     OW18271   0.169   4.241   5.567 -0.1401  0.1957  0.4925
 2213SOL    HW118272   0.117   4.201   5.497  0.5252  0.3850 -0.1064
 2213SOL    HW218273   0.230   4.172   5.591  2.5976  1.5239 -2.6810
 2214SOL     OW18274   1.789   0.851   8.237  0.7362 -0.2642 -0.2953
 2214SOL    HW118275   1.795   0.885   8.148 -2.2128  1.8414  0.2944
 2214SOL    HW218276   1.753   0.765   8.218 -1.8887  0.6980  0.2046
 2215SOL     OW18277   4.073   0.997   1.174 -0.0771 -0.0374  0.3468
 2215SOL    HW118278   4.110   0.962   1.093 -1.7471 -0.8588 -0.0765
 2215SOL    HW218279   4.000   0.940   1.200  0.3089 -0.2036  1.0640
 2216SOL     OW18280   0.499   2.912   1.601 -0.1586  0.6235  0.5166
 2216SOL    HW118281   0.506   2.858   1.522  1.6499 -1.5008  2.1398
 2216SOL    HW218282   0.443   2.985   1.574 -1.6691 -0.4656  0.6464
 2217SOL     OW18283   4.008   0.343   3.823 -0.2785  0.2898  0.5527
 2217SOL    HW118284   3.978   0.287   3.752 -0.0315  2.1525 -1.0274
 2217SOL    HW218285   4.041   0.420   3.776 -0.8021  0.3457  0.2758
 2218SOL     OW18286   1.772   0.453   7.319  0.4031  0.4103  0.0946
 2218SOL    HW118287   1.777   0.383   7.254  0.1153 -0.1992  0.7258
 2218SOL    HW218288   1.715   0.513   7.271  0.4480 -0.8648 -1.5544
 2219SOL     OW18289   2.361   2.224  10.073 -0.0328 -0.6270 -0.5740
 2219SOL    HW118290   2.395   2.135  10.060 -0.9153 -1.1422  0.6308
 2219SOL    HW218291   2.447   2.267  10.072 -0.3512  0.0683  2.1409
 2220SOL     OW18292   4.631   0.724   2.923  0.2667  0.4223 -0.9187
 2220SOL    HW118293   4.677   0.779   2.987  0.5819 -0.7163 -0.1707
 2220SOL    HW218294   4.699   0.661   2.898 -0.8193  1.1671 -5.8000
 2221SOL     OW18295   0.743   4.086  10.929  0.2892  0.2041 -0.0855
 2221SOL    HW118296   0.804   4.160  10.934 -1.2241  1.3019  1.7582
 2221SOL    HW218297   0.709   4.088  11.018  2.8417  0.5270  0.8793
 2222SOL     OW18298   3.206   1.728   3.686 -0.2840 -0.1859 -0.3251
 2222SOL    HW118299   3.199   1.715   3.592 -2.4256  0.7707 -0.2959
 2222SOL    HW218300   3.234   1.819   3.695 -0.1069 -0.3059  0.3779
 2223SOL     OW18301   0.745   2.050   2.072 -0.1758  0.2067 -0.4293
 2223SOL    HW118302   0.703   2.124   2.117 -1.1851 -1.6716  1.7291
 2223SOL    HW218303   0.779   2.090   1.992  1.5926 -2.0826 -0.8027
 2224SOL     OW18304   3.583   0.483   5.078  0.3852 -0.1858  0.3822
 2224SOL    HW118305   3.596   0.398   5.037  2.9383  1.1318 -1.4768
 2224SOL    HW218306   3.519   0.470   5.148 -1.6269  2.3523 -0.9746
 2225SOL     OW18307   0.136   1.658   6.316  0.0605 -0.1996  0.0097
 2225SOL    HW118308   0.229   1.678   6.332 -0.1780 -0.2407  1.4946
 2225SOL    HW218309   0.102   1.701   6.395 -1.6281 -0.1038 -0.7821
 2226SOL     OW18310   1.982   1.502   8.649 -0.2973 -0.7111 -0.4599
 2226SOL    HW118311   1.968   1.595   8.669  0.9039 -0.4853 -0.7005
 2226SOL    HW218312   1.898   1.460   8.670  0.8947 -1.8537  2.0025
 2227SOL     OW18313   2.262   4.087   4.299  0.3525 -0.4426  0.2592
 2227SOL    HW118314   2.170   4.097   4.321  0.6047 -0.7687  1.5119
 2227SOL    HW218315   2.262   4.003   4.254 -1.6196  1.1444 -2.6394
 2228SOL     OW18316   2.058   2.767   4.161 -0.3906 -0.1357  0.2448
 2228SOL    HW118317   2.102   2.803   4.238 -1.8758 -0.0509  1.0535
 2228SOL    HW218318   1.972   2.809   4.173 -1.8251 -2.9662 -0.1954
 2229SOL     OW18319   3.364   2.403   3.683  0.1300 -0.2780  0.2617
 2229SOL    HW118320   3.396   2.490   3.658 -1.5586  0.6104  1.1588
 2229SOL    HW218321   3.399   2.395   3.772  0.1401  3.5782  0.6095
 2230SOL     OW18322   4.471   1.384  15.860  0.3233  0.6215 -0.2751
 2230SOL    HW118323   4.466   1.309  15.919 -0.6149  1.2141  0.4054
 2230SOL    HW218324   4.557   1.403  15.896  0.1350  3.3406 -1.2435
 2231SOL     OW18325   4.693   0.873  11.867  0.3861  0.4534  0.3148
 2231SOL    HW118326   4.713   0.806  11.932  3.7850  1.5203  0.3690
 2231SOL    HW218327   4.667   0.948  11.920  0.9152  0.9434 -0.1262
 2232SOL     OW18328   0.745   3.750  16.988  0.3621  0.1736 -0.1951
 2232SOL    HW118329   0.707   3.725  17.073  1.3820 -1.3686 -0.2058
 2232SOL    HW218330   0.674   3.719  16.932 -0.3632  0.0495  0.8014
 2233SOL     OW18331   2.597   2.956   9.172  0.4587 -0.1125  1.1440
 2233SOL    HW118332   2.650   3.024   9.131  0.0896 -2.2390 -2.8354
 2233SOL    HW218333   2.581   3.004   9.253 -1.9609  1.2279 -0.1227
 2234SOL     OW18334   2.207   0.681   5.011  0.0548 -0.3026  0.2329
 2234SOL    HW118335   2.157   0.667   5.091  0.2660  3.0221  0.9651
 2234SOL    HW218336   2.250   0.596   5.010 -1.7623 -1.2070 -1.1920
 2235SOL     OW18337   1.105   2.937  17.199 -0.2049 -0.6168  0.6804
 2235SOL    HW118338   1.178   2.925  17.138  1.3086  4.2106  1.5423
 2235SOL    HW218339   1.114   2.889  17.281  0.1837 -1.8469 -0.0918
 2236SOL     OW18340   4.286   0.770  15.901  0.0979 -0.2811  0.1795
 2236SOL    HW118341   4.279   0.675  15.912 -0.9927 -0.0474  1.4651
 2236SOL    HW218342   4.373   0.774  15.861 -0.0540 -1.1303 -0.2433
 2237SOL     OW18343   1.889   3.269  11.877 -0.0008 -0.1694  0.7371
 2237SOL    HW118344   1.863   3.203  11.941 -0.0235 -0.7005  0.1775
 2237SOL    HW218345   1.907   3.340  11.940 -1.2115  2.6449 -2.1101
 2238SOL     OW18346   4.208   3.444   8.748  0.5875 -0.5755 -0.4697
 2238SOL    HW118347   4.232   3.384   8.818 -2.1002 -1.1633 -0.0527
 2238SOL    HW218348   4.133   3.484   8.792  0.3847  1.6119 -2.7963
 2239SOL     OW18349   2.152   2.058   3.315  0.4647  0.5528  0.5300
 2239SOL    HW118350   2.124   1.970   3.338  0.4744  0.2680 -0.5361
 2239SOL    HW218351   2.074   2.111   3.294  2.0368  3.1389  1.1668
 2240SOL     OW18352   0.804   1.406  17.276 -0.0511 -0.5340  0.4069
 2240SOL    HW118353   0.757   1.377  17.198 -1.9751 -0.4864  1.5631
 2240SOL    HW218354   0.831   1.324  17.318 -0.3526 -1.3565 -0.9853
 2241SOL     OW18355   3.651   3.974   5.980  0.2069 -0.3361  0.6497
 2241SOL    HW118356   3.689   4.004   6.063  1.0566 -0.7918  0.4273
 2241SOL    HW218357   3.704   4.032   5.926 -0.0989 -2.2273 -1.6850
 2242SOL     OW18358   3.607   0.216   5.008 -0.4348  0.2259 -0.1945
 2242SOL    HW118359   3.542   0.149   5.026 -1.8560  1.8773  0.9020
 2242SOL    HW218360   3.640   0.198   4.921  3.5674  0.9119  1.1828
 2243SOL     OW18361   0.729   0.023   3.976 -0.2190  0.0465 -0.2180
 2243SOL    HW118362   0.723   0.112   4.011  0.6113 -0.2176  0.5929
 2243SOL    HW218363   0.804   4.731   4.026 -1.6967 -0.7115  1.5375
 2244SOL     OW18364   3.711   0.760   0.160  0.5767  0.3010 -0.1510
 2244SOL    HW118365   3.720   0.675   0.117  1.5705  0.3246  0.0198
 2244SOL    HW218366   3.640   0.735   0.219  0.7644 -0.3918 -0.2142
 2245SOL     OW18367   3.643   1.052   6.197  0.0130  0.5330  0.4717
 2245SOL    HW118368   3.561   1.078   6.239  0.2405 -0.4523  1.5245
 2245SOL    HW218369   3.631   0.958   6.207 -0.0209  0.3450 -1.3169
 2246SOL     OW18370   0.570   3.612  13.526  0.5908 -0.3194 -0.5556
 2246SOL    HW118371   0.544   3.533  13.479  2.9509 -1.2305 -0.3234
 2246SOL    HW218372   0.542   3.678  13.462 -0.3193  1.0258  1.2326
 2247SOL     OW18373   1.938   4.233   1.159  0.2119 -0.0783 -0.2297
 2247SOL    HW118374   2.009   4.221   1.223 -1.4847  0.8203  1.8451
 2247SOL    HW218375   1.890   4.307   1.195 -0.6838 -1.1739  0.8455
 2248SOL     OW18376   4.714   3.436   4.288  0.0591  0.0002  0.3756
 2248SOL    HW118377   4.646   3.474   4.231 -0.0272 -0.9061 -0.1285
 2248SOL    HW218378   4.666   3.385   4.353  0.1340 -0.2001  0.2735
 2249SOL     OW18379   0.368   2.706   6.326  0.5497 -0.2974  0.1445
 2249SOL    HW118380   0.287   2.757   6.316  1.4171  1.0159 -0.1709
 2249SOL    HW218381   0.419   2.743   6.253 -1.1322  1.4039 -0.1861
 2250SOL     OW18382   1.062   3.759   5.258 -0.1490  0.3761 -0.4006
 2250SOL    HW118383   1.062   3.795   5.170  0.1473  0.2853 -0.4374
 2250SOL    HW218384   1.140   3.800   5.296  0.0484  0.4617 -0.9072
 2251SOL     OW18385   3.412   0.184   0.907 -0.1639  0.2854 -0.4117
 2251SOL    HW118386   3.454   0.188   0.993 -0.7294 -0.4617 -0.0954
 2251SOL    HW218387   3.446   0.100   0.876 -1.5959 -0.5775  0.3239
 2252SOL     OW18388   1.302   0.161  10.064  0.1143 -0.1640  0.4485
 2252SOL    HW118389   1.355   0.240  10.062  0.2743 -0.2656  0.7609
 2252SOL    HW218390   1.214   0.197  10.059  0.6602  0.8014 -2.7018
 2253SOL     OW18391   2.927   3.857   3.379  0.5963  0.1625  0.1957
 2253SOL    HW118392   2.893   3.913   3.449  0.9248 -0.0899  0.5584
 2253SOL    HW218393   2.880   3.774   3.380  0.4753  0.2253 -1.0910
 2254SOL     OW18394   2.805   2.010   4.753  0.1194  0.0918  0.4928
 2254SOL    HW118395   2.713   2.005   4.778 -0.6867  0.2140 -2.3713
 2254SOL    HW218396   2.839   1.951   4.820  0.1029  1.6079  1.8555
 2255SOL     OW18397   3.679   4.382   3.152  0.1949  0.0131 -0.0884
 2255SOL    HW118398   3.636   4.395   3.236  1.0494  0.4197  0.2802
 2255SOL    HW218399   3.694   4.469   3.117  0.6666  0.4639  1.2460
 2256SOL     OW18400   2.652   0.754  10.143  0.6228 -0.0754 -0.1559
 2256SOL    HW118401   2.738   0.715  10.125  0.0867 -2.3513  2.0953
 2256SOL    HW218402   2.591   0.685  10.117  1.2684 -0.5219 -0.4820
 2257SOL     OW18403   2.875   2.515   6.668  0.0905  0.3862  0.2745
 2257SOL    HW118404   2.959   2.560   6.651  0.3709  0.1691  1.1224
 2257SOL    HW218405   2.861   2.475   6.582 -1.5973  1.2050  0.1778
 2258SOL     OW18406   1.275   3.923  15.086 -0.6797 -0.0615 -0.0140
 2258SOL    HW118407   1.204   3.983  15.063 -0.3373  0.2905 -0.1351
 2258SOL    HW218408   1.273   3.919  15.181 -1.3022  0.0015 -0.0213
 2259SOL     OW18409   3.702   1.632  13.542 -0.3443  0.0657  0.6487
 2259SOL    HW118410   3.769   1.688  13.502 -0.5885 -0.0898  0.0116
 2259SOL    HW218411   3.736   1.544  13.529  3.0623  1.7946 -2.0344
 2260SOL     OW18412   1.984   1.394   2.167  0.5016  0.3261 -0.3713
 2260SOL    HW118413   2.068   1.366   2.202  0.8446  2.0811  0.1917
 2260SOL    HW218414   2.010   1.481   2.139  1.3293 -0.5230 -2.2465
 2261SOL     OW18415   3.281   3.478   1.708 -0.0029 -0.0916  0.2158
 2261SOL    HW118416   3.319   3.400   1.668  1.5577  0.6054  0.3523
 2261SOL    HW218417   3.194   3.481   1.668 -0.2330  0.8895  0.7806
 2262SOL     OW18418   1.860   0.794   8.682  0.2800 -0.4800 -0.1959
 2262SOL    HW118419   1.920   0.768   8.612  1.0450  0.8184 -0.0336
 2262SOL    HW218420   1.900   0.752   8.759  1.7327 -0.3626 -0.8777
 2263SOL     OW18421   2.785   1.657   8.174  0.7795  0.3675  0.5312
 2263SOL    HW118422   2.778   1.731   8.234  1.3291  2.0287 -1.4803
 2263SOL    HW218423   2.817   1.593   8.238 -1.3957 -0.6912  0.5777
 2264SOL     OW18424   3.139   2.141  11.503  0.2691  0.1926  0.1725
 2264SOL    HW118425   3.058   2.143  11.452 -1.4512 -0.5968  2.8806
 2264SOL    HW218426   3.208   2.165  11.440  1.3664 -0.2789  1.1979
 2265SOL     OW18427   1.195   3.041   4.976  0.4726 -0.3764  0.3228
 2265SOL    HW118428   1.176   3.125   4.934  0.8667 -0.2198  0.4542
 2265SOL    HW218429   1.106   3.010   4.991  0.2760  0.3601  0.7260
 2266SOL     OW18430   2.351   0.041   6.175  0.1403  0.1628  0.1821
 2266SOL    HW118431   2.414   0.105   6.207 -0.2749  0.5586  0.2000
 2266SOL    HW218432   2.278   0.032   6.235 -0.4587  0.5426 -0.4900
 2267SOL     OW18433   1.674   1.126   2.931  0.6498 -0.0821 -0.1495
 2267SOL    HW118434   1.644   1.052   2.983  0.0003  1.5277  1.7987
 2267SOL    HW218435   1.608   1.134   2.863  0.5353  0.2717  0.0030
 2268SOL     OW18436   4.383   1.466   8.667 -0.1152 -0.1414  0.4271
 2268SOL    HW118437   4.327   1.470   8.744 -1.3908  1.6006 -0.5619
 2268SOL    HW218438   4.406   1.558   8.651  1.6130  0.0242  3.9378
 2269SOL     OW18439   3.665   3.149   1.797 -0.5937  0.0449  0.7022
 2269SOL    HW118440   3.697   3.169   1.709  0.4446  0.0248  1.0677
 2269SOL    HW218441   3.611   3.071   1.794 -0.3341 -0.1758  1.5533
 2270SOL     OW18442   2.290   0.809  13.730 -0.1475 -0.7164  0.1745
 2270SOL    HW118443   2.196   0.793  13.719 -0.3332 -0.1822  0.9405
 2270SOL    HW218444   2.295   0.744  13.800 -2.8398  1.2849  2.2521
 2271SOL     OW18445   1.790   4.196   6.732 -0.0126  0.1427  0.6378
 2271SOL    HW118446   1.711   4.166   6.687 -0.3853  0.8143  0.8490
 2271SOL    HW218447   1.783   4.145   6.812 -2.1532 -2.1396 -0.9894
 2272SOL     OW18448   1.596   0.256   1.148 -0.1376 -0.4163 -0.5851
 2272SOL    HW118449   1.628   0.212   1.227 -0.9092 -4.4744 -2.5268
 2272SOL    HW218450   1.634   0.344   1.151 -1.5137  0.1533 -0.0916
 2273SOL     OW18451   3.278   0.001   7.066  0.1597  0.3850 -0.3870
 2273SOL    HW118452   3.371   4.733   7.088 -0.2384 -2.6302  0.2794
 2273SOL    HW218453   3.272   0.095   7.045 -1.9587  0.3843  0.2323
 2274SOL     OW18454   2.367   0.915   8.775  0.1647 -0.4553 -0.1039
 2274SOL    HW118455   2.425   0.841   8.760  1.4004  0.7405 -1.2990
 2274SOL    HW218456   2.291   0.899   8.718 -2.1891  1.0342  2.5848
 2275SOL     OW18457   4.738   0.314   6.707  0.0887  0.3009 -0.0216
 2275SOL    HW118458   0.068   0.372   6.741  2.2847 -0.4326 -3.2825
 2275SOL    HW218459   0.002   0.238   6.765 -0.9667 -0.1478 -0.5556
 2276SOL     OW18460   4.051   3.700   4.401  0.4047 -0.3960 -0.0790
 2276SOL    HW118461   4.010   3.766   4.457  0.8429 -0.9227  0.8736
 2276SOL    HW218462   4.086   3.647   4.473 -0.7844  1.6651  2.0230
 2277SOL     OW18463   3.664   0.148   3.848 -0.2925 -0.3911  0.1703
 2277SOL    HW118464   3.753   0.172   3.873 -0.2206  1.4135 -1.7882
 2277SOL    HW218465   3.622   0.233   3.862 -0.0740 -0.0970 -0.9609
 2278SOL     OW18466   3.673   1.318   0.725 -0.2826 -0.3315 -0.3596
 2278SOL    HW118467   3.640   1.252   0.664  1.4891 -0.4320 -1.2129
 2278SOL    HW218468   3.593   1.365   0.746  0.0976 -0.9154  2.4386
 2279SOL     OW18469   1.282   1.431   8.676  0.6617 -0.3055  0.1840
 2279SOL    HW118470   1.272   1.341   8.705  0.0935 -0.1194  0.5723
 2279SOL    HW218471   1.302   1.475   8.759  0.9374 -1.7612  0.8876
 2280SOL     OW18472   1.401   4.382   8.051  0.0751 -0.5623 -0.4568
 2280SOL    HW118473   1.495   4.371   8.037 -0.0077 -1.2103 -0.5007
 2280SOL    HW218474   1.361   4.350   7.971 -1.1093 -2.8798  1.0444
 2281SOL     OW18475   0.755   1.582   8.492 -0.1430 -0.2421 -0.2802
 2281SOL    HW118476   0.849   1.564   8.486  0.3692  2.7393 -1.5414
 2281SOL    HW218477   0.716   1.495   8.484 -3.7623  1.2037  1.6123
 2282SOL     OW18478   3.124   2.016   3.466 -0.2145  0.2260  0.0324
 2282SOL    HW118479   3.149   2.032   3.375 -2.6701 -0.2756 -0.7393
 2282SOL    HW218480   3.033   1.985   3.464 -0.8096  1.9788 -1.7418
 2283SOL     OW18481   3.479   4.187  12.576 -0.2980  0.3325 -0.1453
 2283SOL    HW118482   3.479   4.118  12.509  1.1374  0.4099 -0.2226
 2283SOL    HW218483   3.509   4.267  12.532  1.9638  0.1344  1.0437
 2284SOL     OW18484   1.427   0.193   7.968  0.1899 -0.0176  0.4268
 2284SOL    HW118485   1.493   0.168   7.903  1.3528 -0.2281  1.7159
 2284SOL    HW218486   1.445   0.285   7.988  2.0723 -0.0460 -1.1068
 2285SOL     OW18487   1.187   0.827   2.091 -0.3799 -0.3159 -0.1710
 2285SOL    HW118488   1.218   0.859   2.176  0.2840 -0.8684 -0.2127
 2285SOL    HW218489   1.216   0.899   2.035  0.4391 -0.4356  0.0995
 2286SOL     OW18490   3.415   4.153   6.625  0.1676  0.0106 -0.3962
 2286SOL    HW118491   3.386   4.155   6.717  0.4631 -1.9276 -0.2671
 2286SOL    HW218492   3.344   4.194   6.576  1.4373 -0.2579 -2.4238
 2287SOL     OW18493   3.106   4.275   5.073 -0.2991 -0.6250  0.0588
 2287SOL    HW118494   3.130   4.193   5.031 -0.6739 -0.6935 -0.0226
 2287SOL    HW218495   3.062   4.320   5.001  2.8284  0.8006 -0.9253
 2288SOL     OW18496   4.170   0.790  12.933 -0.0047  0.0713 -0.9349
 2288SOL    HW118497   4.115   0.864  12.908  0.6472  0.9449  0.2066
 2288SOL    HW218498   4.177   0.764  12.841  0.2394  0.1577 -0.9427
 2289SOL     OW18499   0.942   3.101   6.155 -0.6948 -0.0549  0.0145
 2289SOL    HW118500   0.950   3.182   6.104  0.9793  0.1326  0.5854
 2289SOL    HW218501   1.018   3.046   6.137 -0.2966  0.5420 -0.1573
 2290SOL     OW18502   2.098   4.026   2.059 -0.0474  0.3275  0.3182
 2290SOL    HW118503   2.178   4.077   2.054 -1.5114  2.3553 -2.1658
 2290SOL    HW218504   2.092   4.003   2.152  1.1285 -1.7650 -0.1137
 2291SOL     OW18505   1.084   4.229  11.516 -0.5031  0.9787 -0.0710
 2291SOL    HW118506   1.087   4.324  11.505 -0.0403  0.8292 -1.2013
 2291SOL    HW218507   1.061   4.221  11.608  0.7954  0.7058  0.2341
 2292SOL     OW18508   2.845   3.178   7.864 -1.0266  0.4518 -0.5722
 2292SOL    HW118509   2.847   3.243   7.794  2.0930 -0.7415 -1.6089
 2292SOL    HW218510   2.793   3.103   7.835  1.2094 -1.0391 -0.6929
 2293SOL     OW18511   0.310   3.618   5.441 -0.4215  0.9199 -0.1428
 2293SOL    HW118512   0.281   3.696   5.392 -0.7841  1.1018  0.3611
 2293SOL    HW218513   0.322   3.558   5.367  0.5341 -0.4475  1.1295
 2294SOL     OW18514   0.702   1.162   5.363 -0.0392 -0.1838  0.0936
 2294SOL    HW118515   0.717   1.225   5.292 -3.1518 -0.5745 -0.8789
 2294SOL    HW218516   0.756   1.089   5.333  0.0383 -0.8704  1.9141
 2295SOL     OW18517   3.598   1.380   1.876 -0.6387 -0.0376 -0.1733
 2295SOL    HW118518   3.639   1.466   1.886 -1.7807  0.6747 -1.5768
 2295SOL    HW218519   3.531   1.390   1.945 -0.7650 -2.8423  0.1078
 2296SOL     OW18520   1.361   0.492   2.580  0.2116  0.1342 -0.0948
 2296SOL    HW118521   1.382   0.456   2.666 -0.2687  0.8450  0.3144
 2296SOL    HW218522   1.435   0.472   2.522 -1.1528  0.2705 -1.8752
 2297SOL     OW18523   3.310   0.607   6.297 -0.5463 -0.4237 -0.2418
 2297SOL    HW118524   3.370   0.552   6.246  0.7213 -1.2525  2.1188
 2297SOL    HW218525   3.232   0.597   6.242 -0.4190  1.4019 -0.7321
 2298SOL     OW18526   3.705   2.051  16.425 -0.7570  0.7163  0.8933
 2298SOL    HW118527   3.670   2.030  16.512 -0.5505  0.1763  0.8483
 2298SOL    HW218528   3.739   1.966  16.396 -2.5099  0.3256 -0.0542
 2299SOL     OW18529   0.035   0.768  17.094  0.2950  0.2149  0.3558
 2299SOL    HW118530   4.695   0.724  17.123  0.2471  0.3814  0.4772
 2299SOL    HW218531   0.000   0.855  17.075  0.5939  0.4015  0.6542
 2300SOL     OW18532   0.318   2.869   5.614  0.0974  0.3880 -0.3874
 2300SOL    HW118533   0.347   2.929   5.683  2.4715 -1.7095  0.4282
 2300SOL    HW218534   0.311   2.930   5.540 -2.2948 -0.6087 -0.9844
 2301SOL     OW18535   4.214   4.573  15.694  0.5160  0.4974 -0.3927
 2301SOL    HW118536   4.252   4.657  15.717 -0.0472  0.9775 -1.2381
 2301SOL    HW218537   4.128   4.581  15.736  0.2202 -4.4726 -0.0279
 2302SOL     OW18538   1.693   4.340  10.694  0.0041  0.0422  0.1753
 2302SOL    HW118539   1.742   4.266  10.731 -0.2249  0.1422  0.6787
 2302SOL    HW218540   1.747   4.357  10.617  0.0522  1.7527  0.5774
 2303SOL     OW18541   3.764   4.664   8.111 -0.0577  0.4239 -0.3648
 2303SOL    HW118542   3.751   4.628   8.199  0.4718  1.9138  0.3375
 2303SOL    HW218543   3.807   4.590   8.069 -1.3994  0.1756 -1.2785
 2304SOL     OW18544   1.980   0.672   6.335 -0.6481 -0.3233 -0.3635
 2304SOL    HW118545   2.075   0.677   6.327 -0.6326  1.4190  1.0119
 2304SOL    HW218546   1.986   0.604   6.403 -1.6364  0.6650  0.7129
 2305SOL     OW18547   0.774   2.233   9.108  0.2693 -0.5309  0.2238
 2305SOL    HW118548   0.683   2.205   9.116  0.2206 -0.6144 -0.6169
 2305SOL    HW218549   0.795   2.216   9.200  1.1278 -0.3338  0.0568
 2306SOL     OW18550   2.373   2.896   8.260 -0.4631  0.6830  0.0058
 2306SOL    HW118551   2.455   2.916   8.213  0.2654  0.6648  1.2757
 2306SOL    HW218552   2.357   2.980   8.302 -0.8427  0.4350  0.3595
 2307SOL     OW18553   1.391   0.023  17.307 -0.3034  0.0054 -0.7239
 2307SOL    HW118554   1.401   4.705  17.383 -2.9286 -0.5423 -0.7949
 2307SOL    HW218555   1.476   0.020  17.263 -0.0371  0.5440 -0.2294
 2308SOL     OW18556   1.784   2.922   8.569 -0.0800 -0.0921  0.2825
 2308SOL    HW118557   1.847   2.850   8.569  1.6009  1.3787  1.2396
 2308SOL    HW218558   1.752   2.928   8.659 -1.3924  0.1515 -0.2030
 2309SOL     OW18559   0.328   2.097   6.307 -0.1451 -0.2660  0.5230
 2309SOL    HW118560   0.389   2.140   6.247  2.9575 -2.5391  1.9800
 2309SOL    HW218561   0.263   2.167   6.315  1.1446  0.7914  1.8346
 2310SOL     OW18562   3.410   1.577   7.928  0.4165  0.2261 -0.7216
 2310SOL    HW118563   3.424   1.511   7.996  2.6850  0.7713 -0.6511
 2310SOL    HW218564   3.472   1.537   7.867 -0.0557 -1.5243 -0.0746
 2311SOL     OW18565   0.120   0.100  16.970  0.1437 -0.5052  0.2702
 2311SOL    HW118566   0.157   0.187  16.955  0.5473 -0.5545  1.0080
 2311SOL    HW218567   0.120   0.054  16.886 -2.1367  0.2500 -0.1398
 2312SOL     OW18568   3.086   2.916   3.550 -0.2498 -0.2737  0.1041
 2312SOL    HW118569   3.097   2.823   3.568  1.6562 -0.1632 -0.5131
 2312SOL    HW218570   3.141   2.926   3.472  0.4046  0.9508  0.7198
 2313SOL     OW18571   1.030   2.029   9.564  0.2968 -0.0646 -0.7244
 2313SOL    HW118572   1.078   2.049   9.645  0.8082 -1.4023 -0.6970
 2313SOL    HW218573   0.955   1.973   9.585 -0.9447  1.2159 -1.7586
 2314SOL     OW18574   2.966   4.345   5.822 -0.3534  0.3079  0.2076
 2314SOL    HW118575   2.986   4.438   5.837  0.1568 -0.0604  1.7040
 2314SOL    HW218576   2.875   4.361   5.794  0.6182 -1.9545 -4.2755
 2315SOL     OW18577   3.396   1.303  15.815 -0.1329 -0.6041  0.0013
 2315SOL    HW118578   3.459   1.266  15.754 -2.9223 -2.6810 -1.6410
 2315SOL    HW218579   3.359   1.377  15.768  0.2869 -0.2397  0.2405
 2316SOL     OW18580   0.193   1.351   6.982  0.3296  0.0110 -0.2239
 2316SOL    HW118581   0.193   1.369   7.076 -2.8686  0.5171 -0.3247
 2316SOL    HW218582   0.193   1.440   6.945 -0.7412 -0.7496 -2.0501
 2317SOL     OW18583   0.008   0.526  10.065  0.5329  0.5844 -0.1969
 2317SOL    HW118584   4.674   0.575  10.104 -0.0938  0.9772 -1.8654
 2317SOL    HW218585   0.079   0.585  10.089  0.9018  0.1249 -0.1710
 2318SOL     OW18586   0.992   3.818   2.942 -0.3739  0.5766  0.1276
 2318SOL    HW118587   1.072   3.868   2.958  0.2233 -0.3054 -0.1211
 2318SOL    HW218588   1.022   3.740   2.987  0.3339  0.7744  0.0025
 2319SOL     OW18589   3.277   0.506   3.333  0.7377 -0.0882 -0.1237
 2319SOL    HW118590   3.230   0.450   3.394 -1.8787  1.6440 -0.5875
 2319SOL    HW218591   3.236   0.476   3.252  2.7947 -2.4609 -0.3106
 2320SOL     OW18592   1.993   4.030  16.688  0.7083  0.6410 -0.6021
 2320SOL    HW118593   1.947   3.957  16.648 -0.0095  0.8023 -0.0636
 2320SOL    HW218594   2.026   3.987  16.767 -0.1848 -2.9079 -2.1680
 2321SOL     OW18595   2.545   4.376   7.049 -0.5667  0.2903 -0.2711
 2321SOL    HW118596   2.632   4.390   7.086 -0.0273 -0.3776 -1.3064
 2321SOL    HW218597   2.574   4.351   6.961  0.0177  1.5509 -0.4367
 2322SOL     OW18598   0.962   2.981   6.692 -0.1665 -0.0336 -0.2563
 2322SOL    HW118599   1.001   2.910   6.744 -0.3141  0.2144  0.1873
 2322SOL    HW218600   0.873   2.947   6.701  0.0971 -0.7394 -0.2661
 2323SOL     OW18601   2.948   4.677   6.935  0.3352 -0.4671  0.2154
 2323SOL    HW118602   3.042   4.669   6.920  0.3892 -0.4215  0.5284
 2323SOL    HW218603   2.928   4.700   6.844  0.6489  2.1608  0.8018
 2324SOL     OW18604   2.499   4.451   8.227  0.4984 -0.6457 -0.6552
 2324SOL    HW118605   2.437   4.407   8.286  2.6403 -0.0644  2.0131
 2324SOL    HW218606   2.436   4.474   8.159  0.1216  0.7323  0.1747
 2325SOL     OW18607   0.347   3.108  12.691  0.1066  0.2639  0.3466
 2325SOL    HW118608   0.437   3.104  12.724  0.0333  1.6943  0.7434
 2325SOL    HW218609   0.302   3.168  12.750 -1.4178  1.3482 -1.9134
 2326SOL     OW18610   1.933   2.455   3.336  0.1746  0.8114 -0.2387
 2326SOL    HW118611   1.921   2.361   3.321  0.7148  0.5798  0.7507
 2326SOL    HW218612   1.939   2.463   3.431  1.5848 -0.0734 -0.2496
 2327SOL     OW18613   3.584   0.537  10.579  0.3668 -0.3535  0.4414
 2327SOL    HW118614   3.568   0.446  10.603 -0.5993 -1.0366 -2.7106
 2327SOL    HW218615   3.668   0.537  10.532  0.5918  0.2281  0.8596
 2328SOL     OW18616   0.139   3.458   8.708  0.0941  0.3216 -0.0717
 2328SOL    HW118617   0.164   3.404   8.633  0.8290 -1.5808  1.5595
 2328SOL    HW218618   0.052   3.485   8.680 -0.3357  0.2582  1.1966
 2329SOL     OW18619   2.376   3.885   0.757  0.4894  0.1787 -0.0833
 2329SOL    HW118620   2.311   3.857   0.693  0.4595  1.2390 -0.5205
 2329SOL    HW218621   2.414   3.805   0.793  1.5534  0.8409  0.2648
 2330SOL     OW18622   0.518   1.408   9.921 -0.6315 -0.7617  0.6662
 2330SOL    HW118623   0.478   1.430  10.005  0.3509 -0.2059  0.9933
 2330SOL    HW218624   0.443   1.413   9.863  0.1980  0.9105 -0.2527
 2331SOL     OW18625   0.778   0.871   1.779 -0.0391 -0.0336 -0.1671
 2331SOL    HW118626   0.855   0.929   1.780  1.1385 -1.5746 -0.9749
 2331SOL    HW218627   0.762   0.853   1.687 -0.0276  0.2940 -0.2337
 2332SOL     OW18628   1.319   0.650  14.405  0.6002 -0.0250  0.4012
 2332SOL    HW118629   1.364   0.642  14.321  1.1918  1.0336  0.6169
 2332SOL    HW218630   1.392   0.698  14.444  0.2547  1.0516 -0.2990
 2333SOL     OW18631   4.080   2.740   3.739 -0.1882 -0.0792  0.1142
 2333SOL    HW118632   4.080   2.823   3.787 -0.9735 -0.8181  1.4284
 2333SOL    HW218633   4.157   2.692   3.770  1.0342 -0.1818 -3.0960
 2334SOL     OW18634   2.252   1.162  17.493  0.3223  0.1391 -0.4318
 2334SOL    HW118635   2.213   1.077  17.472 -0.5924  0.2930  0.6641
 2334SOL    HW218636   2.187   1.222  17.457  1.0605  1.2159  0.0141
 2335SOL     OW18637   2.450   0.176   6.392 -0.6253 -0.4580 -0.2025
 2335SOL    HW118638   2.545   0.191   6.401 -0.7486  0.4995 -0.5244
 2335SOL    HW218639   2.415   0.262   6.412  0.7688  0.2421 -0.7544
 2336SOL     OW18640   3.833   2.251   6.210  0.2048 -0.0773  0.4856
 2336SOL    HW118641   3.786   2.210   6.138 -0.0394  0.1762  0.5048
 2336SOL    HW218642   3.849   2.333   6.163 -0.4865  0.7102  1.6332
 2337SOL     OW18643   3.362   1.677   7.186 -0.0533 -0.4169 -0.4000
 2337SOL    HW118644   3.332   1.665   7.276 -0.8735 -0.1383 -0.6390
 2337SOL    HW218645   3.282   1.675   7.134 -1.2180 -1.4223  1.4534
 2338SOL     OW18646   2.934   0.443  14.134 -0.1065  0.5162 -0.0837
 2338SOL    HW118647   3.017   0.419  14.092 -0.4553  1.9896 -1.5902
 2338SOL    HW218648   2.865   0.431  14.070  1.3830 -0.6572 -1.4600
 2339SOL     OW18649   0.895   3.645  13.470 -0.5426  0.1171 -0.4450
 2339SOL    HW118650   0.813   3.597  13.452 -1.3697  1.5592 -0.5339
 2339SOL    HW218651   0.925   3.667  13.382  0.3552  1.3527  0.1769
 2340SOL     OW18652   2.494   3.124   7.905 -0.3806 -0.4472 -0.0345
 2340SOL    HW118653   2.418   3.082   7.947  0.1884 -1.1322  0.3037
 2340SOL    HW218654   2.564   3.093   7.962  1.0512 -0.3183 -1.7624
 2341SOL     OW18655   1.558   0.605   6.927  0.6159  0.4946 -0.3238
 2341SOL    HW118656   1.495   0.670   6.897 -0.9319 -1.2028 -0.7412
 2341SOL    HW218657   1.508   0.583   7.005  0.1118 -0.1449 -0.8300
 2342SOL     OW18658   2.951   2.339   5.784 -0.2836 -0.6252 -0.5655
 2342SOL    HW118659   3.023   2.288   5.746  0.0714  0.5442 -1.4630
 2342SOL    HW218660   2.875   2.294   5.747  0.2389 -0.8387 -1.3943
 2343SOL     OW18661   1.248   1.111   6.763 -0.0020  0.0256  0.1018
 2343SOL    HW118662   1.228   1.080   6.675 -0.6958 -1.6424  0.8665
 2343SOL    HW218663   1.307   1.040   6.787 -1.0338 -0.5809  0.8387
 2344SOL     OW18664   0.257   1.254   7.387  0.6129  0.2251 -0.2789
 2344SOL    HW118665   0.286   1.178   7.337 -1.9892 -0.6229 -0.5183
 2344SOL    HW218666   0.164   1.236   7.399  0.0983  1.8000 -1.9924
 2345SOL     OW18667   4.210   4.527   2.878  0.2866  0.8149 -0.1526
 2345SOL    HW118668   4.301   4.530   2.848  0.6527 -1.1383  0.8086
 2345SOL    HW218669   4.184   4.619   2.879  1.1693  1.0824 -1.4091
 2346SOL     OW18670   1.368   1.405  14.637  0.0505 -0.0517 -0.7116
 2346SOL    HW118671   1.388   1.378  14.727  1.8685  0.4937 -0.9712
 2346SOL    HW218672   1.439   1.463  14.611  0.5170 -1.4418 -2.4826
 2347SOL     OW18673   1.127   1.871   0.461 -0.2570  0.1522  0.0925
 2347SOL    HW118674   1.080   1.951   0.484  1.3742  1.6785 -1.8185
 2347SOL    HW218675   1.062   1.815   0.418 -2.6860  1.6964  1.7533
 2348SOL     OW18676   3.306   1.704   6.204 -0.1924 -0.2900 -0.4022
 2348SOL    HW118677   3.369   1.671   6.140 -0.2639 -0.4053 -0.4136
 2348SOL    HW218678   3.300   1.795   6.175 -2.8833 -0.0436  0.9298
 2349SOL     OW18679   3.772   0.766  11.246 -0.2411 -0.1998  0.2585
 2349SOL    HW118680   3.775   0.733  11.335 -1.6586 -0.6095  0.1551
 2349SOL    HW218681   3.701   0.830  11.256  0.3364  0.4909 -0.0702
 2350SOL     OW18682   1.786   4.368   5.636  0.6711 -0.1402  0.7404
 2350SOL    HW118683   1.740   4.439   5.681  1.3395  2.1949 -2.2104
 2350SOL    HW218684   1.826   4.328   5.713  0.4551 -1.3232  0.2335
 2351SOL     OW18685   2.263   0.395   5.454  0.3674 -0.3604 -0.2389
 2351SOL    HW118686   2.357   0.387   5.471  0.7366  1.0740 -1.6637
 2351SOL    HW218687   2.240   0.307   5.423  4.1907 -0.8979 -1.4720
 2352SOL     OW18688   4.656   0.942  15.970 -0.6558 -0.4484  0.2292
 2352SOL    HW118689   4.710   0.951  16.048  0.6691 -3.0291 -0.4145
 2352SOL    HW218690   4.680   1.028  15.933  1.0071 -1.0730 -0.1521
 2353SOL     OW18691   4.172   1.801   8.837  0.6040  0.6476 -0.2800
 2353SOL    HW118692   4.199   1.860   8.767 -0.5171  0.3514 -0.9694
 2353SOL    HW218693   4.198   1.714   8.805  0.9064 -0.0500  1.8699
 2354SOL     OW18694   1.577   3.081  10.839 -0.0874 -0.3016  0.0886
 2354SOL    HW118695   1.529   3.065  10.758  2.4623  1.7067 -1.8459
 2354SOL    HW218696   1.655   3.029  10.821  0.6146  0.1372  1.8026
 2355SOL     OW18697   0.507   1.253   1.393  0.1153  0.3282 -0.1832
 2355SOL    HW118698   0.421   1.238   1.353  1.3248  0.4325 -2.8505
 2355SOL    HW218699   0.490   1.328   1.450 -1.1643  0.6748 -1.0214
 2356SOL     OW18700   4.662   2.432   3.629 -0.0386  0.0142 -0.6891
 2356SOL    HW118701   4.721   2.504   3.608 -0.3412 -0.0565 -1.7803
 2356SOL    HW218702   4.590   2.462   3.575  0.6956  1.2100 -0.9969
 2357SOL     OW18703   1.674   3.605  13.460  0.3995  0.4571  0.1540
 2357SOL    HW118704   1.652   3.513  13.450 -2.3058  1.1045  0.2760
 2357SOL    HW218705   1.680   3.610  13.555  1.6204  0.6561  0.0630
 2358SOL     OW18706   2.909   2.223   2.576 -0.1737  0.3297 -0.0258
 2358SOL    HW118707   2.890   2.314   2.601 -1.4605  0.1941 -0.5147
 2358SOL    HW218708   2.834   2.204   2.520 -0.8184  2.5797  0.0778
 2359SOL     OW18709   1.349   1.741   7.188 -0.4681 -0.2040 -0.1399
 2359SOL    HW118710   1.294   1.806   7.145  0.2003  0.0161 -0.6742
 2359SOL    HW218711   1.286   1.708   7.252  0.2383 -0.0675  0.6317
 2360SOL     OW18712   3.753   2.933   6.088 -0.2428  0.3160 -0.3280
 2360SOL    HW118713   3.732   3.027   6.094  0.0530  0.2689  1.2896
 2360SOL    HW218714   3.818   2.930   6.017  0.9645 -0.1331  0.7946
 2361SOL     OW18715   1.278   3.720   6.484 -0.3224  0.9415 -0.5694
 2361SOL    HW118716   1.230   3.646   6.447 -3.5643  1.7173  2.0544
 2361SOL    HW218717   1.284   3.785   6.414 -2.5558 -0.3851 -1.9996
 2362SOL     OW18718   3.102   3.348   5.347 -0.0458  0.2026  0.2006
 2362SOL    HW118719   3.021   3.326   5.392 -0.7295 -0.7265 -1.4434
 2362SOL    HW218720   3.152   3.401   5.408 -1.4969 -0.2083  1.7333
 2363SOL     OW18721   2.352   2.223   1.440  0.0467 -0.4575  0.1733
 2363SOL    HW118722   2.321   2.260   1.523 -3.0783 -0.1195 -1.1366
 2363SOL    HW218723   2.425   2.279   1.414 -0.9585 -0.0253 -1.6971
 2364SOL     OW18724   3.295   4.192   7.291 -0.6824 -0.3106 -0.3453
 2364SOL    HW118725   3.247   4.263   7.334  1.5140 -0.0431  1.6635
 2364SOL    HW218726   3.376   4.230   7.256  0.1729 -0.4973  1.4566
 2365SOL     OW18727   2.852   4.189  13.427 -0.0417  0.1687  0.8361
 2365SOL    HW118728   2.879   4.281  13.418 -2.7062  0.6500 -1.9371
 2365SOL    HW218729   2.762   4.192  13.460 -0.0578  2.5451  0.5931
 2366SOL     OW18730   2.385   3.815   5.176 -0.1751 -0.0723 -0.0319
 2366SOL    HW118731   2.338   3.732   5.182  0.8421 -0.5291  1.5604
 2366SOL    HW218732   2.319   3.865   5.128  0.9279  1.2640 -0.1399
 2367SOL     OW18733   2.860   3.749   4.585 -0.0466  0.1932 -0.0583
 2367SOL    HW118734   2.877   3.682   4.651  0.0689 -1.3233 -1.6298
 2367SOL    HW218735   2.940   3.747   4.533  1.4726 -1.0872  2.3920
 2368SOL     OW18736   4.568   3.454   8.326  0.2301  0.2345  0.3969
 2368SOL    HW118737   4.603   3.385   8.270 -0.2918 -0.5527  1.0469
 2368SOL    HW218738   4.596   3.422   8.412 -0.1930 -0.7798  0.1480
 2369SOL     OW18739   2.685   4.241  17.052  0.0144  0.2281  0.0390
 2369SOL    HW118740   2.686   4.239  17.148  1.0489 -2.1765 -0.0273
 2369SOL    HW218741   2.736   4.322  17.039  0.6468 -0.1665  0.0464
 2370SOL     OW18742   0.873   0.629   3.047 -0.6931  0.1698 -0.0550
 2370SOL    HW118743   0.877   0.721   3.020 -1.3296  0.0813 -0.4483
 2370SOL    HW218744   0.862   0.578   2.967  0.7198 -0.5458  0.2142
 2371SOL     OW18745   0.750   4.149  11.550  1.0196 -0.2989  0.5266
 2371SOL    HW118746   0.697   4.186  11.621 -1.2617 -0.0203 -1.3253
 2371SOL    HW218747   0.712   4.062  11.561  1.0731 -0.5175 -1.0092
 2372SOL     OW18748   1.915   3.138   5.278  0.4313 -0.1489  0.2395
 2372SOL    HW118749   1.882   3.079   5.346 -1.1648  0.9952  0.4404
 2372SOL    HW218750   1.989   3.082   5.252 -0.5431 -0.4904 -1.8109
 2373SOL     OW18751   1.615   3.223   2.346  0.0826  0.0123  0.3299
 2373SOL    HW118752   1.548   3.270   2.395 -0.5187 -1.3805  0.8528
 2373SOL    HW218753   1.572   3.193   2.266  2.0537  4.2413 -2.3125
 2374SOL     OW18754   2.804   2.171   9.588  0.8442  0.1027 -0.2187
 2374SOL    HW118755   2.717   2.135   9.605  0.1497  1.3619 -1.0983
 2374SOL    HW218756   2.785   2.253   9.634 -0.8399 -1.1854  1.3942
 2375SOL     OW18757   0.335   4.108   4.126 -0.0505 -0.2215  0.4444
 2375SOL    HW118758   0.421   4.133   4.159  0.1803 -1.6420  0.9181
 2375SOL    HW218759   0.312   4.032   4.179  0.1520  0.5169  1.5674
 2376SOL     OW18760   2.462   2.612   8.314  0.5514 -0.2540  0.3362
 2376SOL    HW118761   2.520   2.560   8.371 -0.1315 -1.9997 -0.5510
 2376SOL    HW218762   2.374   2.574   8.318  0.7023 -0.6300  0.1334
 2377SOL     OW18763   3.098   3.992   8.605 -0.6605  0.0557  0.2984
 2377SOL    HW118764   3.165   4.059   8.619 -0.2553 -0.5042  0.9989
 2377SOL    HW218765   3.114   3.963   8.515  0.9036 -0.8089  0.8664
 2378SOL     OW18766   3.735   3.184   2.825 -0.2410 -0.3344  0.7105
 2378SOL    HW118767   3.763   3.093   2.832  1.4430 -0.0656 -2.3707
 2378SOL    HW218768   3.645   3.183   2.858  0.4733 -1.1404  2.5692
 2379SOL     OW18769   2.412   1.230   7.226  0.1008 -0.1402 -0.0290
 2379SOL    HW118770   2.505   1.224   7.250  0.0505  2.3983  0.7569
 2379SOL    HW218771   2.376   1.151   7.266  1.4953  0.0114  1.5179
 2380SOL     OW18772   4.462   1.362   5.560 -0.2365  0.3680  0.0167
 2380SOL    HW118773   4.437   1.281   5.515  1.5073  0.1739 -0.5809
 2380SOL    HW218774   4.554   1.374   5.537 -0.1617 -0.4177 -0.1025
 2381SOL     OW18775   1.036   4.023   5.714  0.5394 -0.0705  0.2966
 2381SOL    HW118776   1.032   3.929   5.728  1.8311 -0.3977 -1.4985
 2381SOL    HW218777   1.069   4.054   5.798  1.7314 -0.3233 -0.0736
 2382SOL     OW18778   4.362   4.448   6.370 -0.0329 -0.8675  0.4894
 2382SOL    HW118779   4.302   4.382   6.405 -1.3542  0.1890  0.2023
 2382SOL    HW218780   4.361   4.427   6.277 -0.1249 -1.4939  0.6329
 2383SOL     OW18781   1.691   1.011  15.352  0.5411 -0.0999  0.1231
 2383SOL    HW118782   1.704   1.096  15.393  1.7553 -0.0220 -0.4001
 2383SOL    HW218783   1.679   1.048  15.264 -1.6441 -1.4164 -0.1268
 2384SOL     OW18784   3.700   0.156  12.925 -0.1293  0.4579 -0.0554
 2384SOL    HW118785   3.757   0.185  12.997  0.6907 -0.6631 -0.2395
 2384SOL    HW218786   3.692   0.061  12.936  1.5049  0.2938 -0.2948
 2385SOL     OW18787   1.712   1.028  16.587 -0.0635 -0.1155 -0.0372
 2385SOL    HW118788   1.667   1.102  16.629 -1.7360 -0.7896 -0.6401
 2385SOL    HW218789   1.743   1.069  16.506 -1.5682  1.2778  0.0859
 2386SOL     OW18790   0.069   0.295   7.791 -0.1900 -0.8070  0.0454
 2386SOL    HW118791   0.120   0.340   7.724 -0.6103  2.8052  2.1593
 2386SOL    HW218792   4.731   0.275   7.738 -1.7892  0.3711  1.9390
 2387SOL     OW18793   1.246   3.886   6.739  0.6729 -0.1710  0.2053
 2387SOL    HW118794   1.229   3.821   6.671  1.7776 -2.4629  2.1396
 2387SOL    HW218795   1.260   3.833   6.817  0.1846  0.2685  0.5894
 2388SOL     OW18796   0.875   0.271   1.947  0.2645 -0.0002 -0.5391
 2388SOL    HW118797   0.805   0.302   1.889  0.1648  1.5809  0.4448
 2388SOL    HW218798   0.912   0.358   1.963  1.5694 -0.2947 -1.8658
 2389SOL     OW18799   4.296   3.146   4.070 -0.3842  0.6615 -0.0420
 2389SOL    HW118800   4.246   3.206   4.126 -1.1540  2.2896 -2.4558
 2389SOL    HW218801   4.360   3.205   4.029  0.1543 -0.0926 -0.2842
 2390SOL     OW18802   3.367   0.216   2.479  0.1616  0.8947 -0.1512
 2390SOL    HW118803   3.368   0.216   2.575  0.9689  1.2192 -0.1605
 2390SOL    HW218804   3.275   0.228   2.459 -0.3456 -2.0371  0.3837
 2391SOL     OW18805   0.453   3.978  15.819  0.2793 -0.2122 -0.5452
 2391SOL    HW118806   0.469   3.932  15.901 -2.7111  0.1936  0.2326
 2391SOL    HW218807   0.543   3.968  15.787  0.7439 -2.3765  1.4568
 2392SOL     OW18808   4.174   4.414   5.781 -0.1316  0.3344 -0.5218
 2392SOL    HW118809   4.242   4.482   5.778 -0.7839  1.0141  0.0465
 2392SOL    HW218810   4.233   4.340   5.794  0.5815  1.0223  0.1896
 2393SOL     OW18811   4.434   0.248   5.700  0.4953  0.0544 -0.0914
 2393SOL    HW118812   4.433   0.341   5.722 -0.1568 -0.5333  2.3397
 2393SOL    HW218813   4.481   0.253   5.617  2.2594  1.5429  0.9986
 2394SOL     OW18814   2.097   3.159   2.243 -0.4865 -0.3370 -0.7280
 2394SOL    HW118815   2.003   3.172   2.234 -0.3990  1.0162  0.2878
 2394SOL    HW218816   2.104   3.099   2.317 -1.9995 -0.5545 -0.7641
 2395SOL     OW18817   2.641   4.150   7.258  0.6544 -0.3838 -0.2916
 2395SOL    HW118818   2.644   4.218   7.326  1.8891  0.0456 -0.7792
 2395SOL    HW218819   2.700   4.087   7.300 -0.7908 -1.9458 -0.6105
 2396SOL     OW18820   4.036   0.003   2.842 -0.1570 -0.4570 -0.0334
 2396SOL    HW118821   3.946   4.720   2.820 -0.1719  1.9717 -2.4249
 2396SOL    HW218822   4.058   0.074   2.782  1.3117 -0.8776  0.0092
 2397SOL     OW18823   4.446   3.627  10.553  0.5371 -0.2399 -0.1826
 2397SOL    HW118824   4.485   3.582  10.628 -1.8799  0.1675  1.3118
 2397SOL    HW218825   4.380   3.565  10.524 -0.0007 -0.0251  0.6069
 2398SOL     OW18826   4.583   4.647  14.120 -0.7283 -0.6911 -0.3358
 2398SOL    HW118827   4.662   4.605  14.154 -0.2487 -0.2259 -0.8807
 2398SOL    HW218828   4.523   4.581  14.155 -0.0805 -1.3458 -0.4424
 2399SOL     OW18829   2.954   1.623   3.047 -0.0871  0.0476  0.8401
 2399SOL    HW118830   3.033   1.588   3.006 -0.1804 -1.6093  2.1098
 2399SOL    HW218831   2.981   1.715   3.039  0.6715 -0.2964 -0.6390
 2400SOL     OW18832   2.872   0.987  17.605 -0.1724  0.2403  0.5143
 2400SOL    HW118833   2.931   0.986  17.529 -1.0421  0.1978 -0.1515
 2400SOL    HW218834   2.910   1.057  17.658  0.8039 -0.2595  0.4814
 2401SOL     OW18835   3.268   4.553   8.399  0.8250  0.3257  0.3372
 2401SOL    HW118836   3.186   4.514   8.368  1.5967 -0.5743 -0.5734
 2401SOL    HW218837   3.256   4.645   8.375  0.5926  0.5851  1.4313
 2402SOL     OW18838   3.788   0.500   4.031  0.0530 -0.0922 -0.1239
 2402SOL    HW118839   3.760   0.471   4.118 -1.4422  1.0517 -0.2157
 2402SOL    HW218840   3.718   0.479   3.970 -1.5112  1.6476  1.0878
 2403SOL     OW18841   2.874   3.603  16.502 -0.5105  0.2602  0.6182
 2403SOL    HW118842   2.842   3.514  16.518 -0.4197  0.3018  1.0277
 2403SOL    HW218843   2.866   3.646  16.587 -0.3639  1.4764  0.0128
 2404SOL     OW18844   0.049   1.454   6.068 -0.4412  0.4932  0.2760
 2404SOL    HW118845   0.087   1.523   6.014  1.6325 -2.1570 -1.6423
 2404SOL    HW218846   0.087   1.485   6.150 -0.1348  0.5040  0.1314
 2405SOL     OW18847   3.959   4.628   5.757  0.0136 -0.2042  0.2383
 2405SOL    HW118848   3.998   4.652   5.673 -1.7435 -0.0498 -0.5418
 2405SOL    HW218849   4.026   4.561   5.776 -1.3261 -2.2706 -2.2305
 2406SOL     OW18850   2.864   0.347   9.621 -0.2609  0.0155  0.2332
 2406SOL    HW118851   2.780   0.302   9.618 -0.0428 -0.3737  0.0735
 2406SOL    HW218852   2.901   0.332   9.708  0.1926 -0.3729 -0.0251
 2407SOL     OW18853   0.926   3.218  14.505 -0.2370  0.2045 -0.2051
 2407SOL    HW118854   0.970   3.147  14.458  2.3088  1.0850  0.8687
 2407SOL    HW218855   1.006   3.266  14.526 -1.0097  0.4651  2.1349
 2408SOL     OW18856   2.589   3.871   6.734  0.7261 -0.5718 -0.5202
 2408SOL    HW118857   2.562   3.865   6.825 -1.9808 -0.5144 -1.3353
 2408SOL    HW218858   2.543   3.792   6.706  1.4333 -0.9391 -0.6614
 2409SOL     OW18859   4.559   0.668   9.342 -0.1042  0.1032  0.1233
 2409SOL    HW118860   4.569   0.579   9.308 -1.2180  0.7291 -1.8275
 2409SOL    HW218861   4.594   0.653   9.430 -0.9499  0.1861  0.4727
 2410SOL     OW18862   2.630   3.842   9.018  0.0404 -0.2081 -0.1855
 2410SOL    HW118863   2.536   3.857   9.024  0.1010  0.6878 -1.3879
 2410SOL    HW218864   2.656   3.881   8.934 -0.2006 -1.8691 -1.0375
 2411SOL     OW18865   1.810   0.431   8.933 -0.0999  0.4500  0.1767
 2411SOL    HW118866   1.903   0.446   8.948  0.2753 -0.8813 -0.7879
 2411SOL    HW218867   1.809   0.338   8.912 -0.8729  0.9741 -2.2078
 2412SOL     OW18868   1.857   0.140   6.308  0.7149  0.0210 -0.7851
 2412SOL    HW118869   1.785   0.167   6.251  1.0805 -1.4150 -1.9292
 2412SOL    HW218870   1.808   0.127   6.389  2.8883  0.4129  0.5888
 2413SOL     OW18871   2.739   3.886   8.051  0.3093  0.1203  1.2263
 2413SOL    HW118872   2.697   3.800   8.040  0.4548 -0.0295  1.8386
 2413SOL    HW218873   2.669   3.951   8.051 -1.8166 -2.1097 -1.4871
 2414SOL     OW18874   1.513   1.820   6.525  0.4812  0.3056  0.6117
 2414SOL    HW118875   1.604   1.839   6.505  0.4234 -1.8513 -1.6295
 2414SOL    HW218876   1.517   1.773   6.609  0.9761  0.2455  0.5511
 2415SOL     OW18877   3.471   1.610   6.454  0.1029 -0.2099  0.1851
 2415SOL    HW118878   3.387   1.615   6.409  1.0995  1.7473 -1.4076
 2415SOL    HW218879   3.457   1.657   6.537 -1.6722  0.7222 -0.6553
 2416SOL     OW18880   2.085   1.660   6.705 -0.6318 -0.1877 -0.2709
 2416SOL    HW118881   2.152   1.703   6.652 -0.5740 -1.4396 -1.1953
 2416SOL    HW218882   2.086   1.575   6.662 -2.5753 -0.0159 -0.6755
 2417SOL     OW18883   1.301   1.170   5.081  0.2837 -0.1091  0.6343
 2417SOL    HW118884   1.319   1.227   5.006  0.6438  2.6114  2.7692
 2417SOL    HW218885   1.290   1.085   5.039  0.1370 -1.1045  2.7058
 2418SOL     OW18886   0.698   2.072  15.248 -0.1371  0.1287 -0.3801
 2418SOL    HW118887   0.610   2.102  15.225 -1.0879 -2.5400 -0.2158
 2418SOL    HW218888   0.709   2.121  15.329  1.7093 -0.9173 -0.0102
 2419SOL     OW18889   3.629   3.883  10.926 -0.2423  0.0966 -0.2200
 2419SOL    HW118890   3.642   3.835  11.007  1.8547 -0.3027 -0.7923
 2419SOL    HW218891   3.629   3.975  10.953 -1.1850  0.6055 -1.9424
 2420SOL     OW18892   1.945   0.536   3.313  0.0478  0.6024 -0.3697
 2420SOL    HW118893   1.975   0.502   3.397 -0.9396 -0.7798 -0.5848
 2420SOL    HW218894   1.854   0.553   3.339  0.4488  1.8413  0.2103
 2421SOL     OW18895   1.013   2.506   2.295  0.5437  0.4030  0.0263
 2421SOL    HW118896   1.096   2.459   2.301 -0.3431 -1.4401 -2.1409
 2421SOL    HW218897   0.990   2.511   2.388  0.9918  2.6490  0.0162
 2422SOL     OW18898   2.836   0.034  16.586 -0.5025 -0.0207 -0.2538
 2422SOL    HW118899   2.929   0.039  16.567 -0.3948  0.7119  0.4589
 2422SOL    HW218900   2.833   4.702  16.651  1.4999  0.8713  0.8213
 2423SOL     OW18901   3.761   0.051   1.090 -0.2532  0.7872  0.3713
 2423SOL    HW118902   3.748   0.093   1.005 -2.2187 -0.2768  0.1487
 2423SOL    HW218903   3.856   0.050   1.101 -0.2095 -0.1815 -0.1423
 2424SOL     OW18904   3.298   1.787   7.766 -0.9136  0.6980  0.3947
 2424SOL    HW118905   3.353   1.723   7.812 -1.4632 -0.2415 -0.2579
 2424SOL    HW218906   3.247   1.828   7.836 -0.7538  1.6116 -0.0210
 2425SOL     OW18907   0.291   3.685   3.205 -0.6374  0.6429  0.1798
 2425SOL    HW118908   0.358   3.741   3.167  1.2490 -1.3100  0.6257
 2425SOL    HW218909   0.224   3.754   3.204 -1.6705 -0.3265  1.3013
 2426SOL     OW18910   2.985   1.406  17.231  0.1716 -0.3154 -0.1675
 2426SOL    HW118911   2.945   1.361  17.156  0.8083 -0.3032 -0.5193
 2426SOL    HW218912   2.971   1.496  17.202 -2.0384 -0.7198 -0.3873
 2427SOL     OW18913   3.564   1.139   1.743  0.0657 -0.5600 -0.1816
 2427SOL    HW118914   3.594   1.093   1.821 -0.3529  0.4562  0.5931
 2427SOL    HW218915   3.583   1.229   1.772  2.3938 -1.3033  0.5437
 2428SOL     OW18916   0.198   1.545  16.693 -0.4300  0.6593 -0.1999
 2428SOL    HW118917   0.107   1.574  16.696 -0.7021 -0.0487 -1.7742
 2428SOL    HW218918   0.231   1.609  16.630 -0.1428  0.6661 -0.0447
 2429SOL     OW18919   0.832   1.559   8.155 -0.3310 -0.2122  0.0305
 2429SOL    HW118920   0.813   1.593   8.067  0.7503  0.7979  0.1865
 2429SOL    HW218921   0.857   1.639   8.200 -0.7520 -0.3796  0.5615
 2430SOL     OW18922   1.424   0.283   8.215 -0.2175 -0.3173  0.4175
 2430SOL    HW118923   1.512   0.257   8.244 -1.0170 -0.2987  2.8456
 2430SOL    HW218924   1.413   0.226   8.139 -2.4134  1.2086 -0.4053
 2431SOL     OW18925   0.399   1.960   3.084 -0.3126  0.0851 -0.3527
 2431SOL    HW118926   0.347   1.888   3.049  0.1381 -0.2047 -0.4144
 2431SOL    HW218927   0.368   2.034   3.031  2.5400  2.7690  1.7326
 2432SOL     OW18928   0.739   1.649  17.498 -0.5464  0.0601 -0.9120
 2432SOL    HW118929   0.810   1.677  17.555 -1.9195 -0.1388  0.9179
 2432SOL    HW218930   0.787   1.595  17.436 -0.2811 -1.9052  0.9952
 2433SOL     OW18931   0.212   3.288   2.886 -0.4170  0.2292  0.4315
 2433SOL    HW118932   0.186   3.207   2.843  2.0502  0.4326 -1.4551
 2433SOL    HW218933   0.195   3.268   2.978 -1.0879 -1.2030 -0.0108
 2434SOL     OW18934   0.517   0.959   8.993  0.6233 -0.1304  0.0611
 2434SOL    HW118935   0.527   0.887   8.930 -1.8491  1.5394 -2.1971
 2434SOL    HW218936   0.425   0.982   8.981  0.2425 -1.0522  1.1402
 2435SOL     OW18937   3.395   0.713   9.135 -0.3387 -0.3135  0.1394
 2435SOL    HW118938   3.410   0.783   9.198 -2.6198  1.2729 -1.0780
 2435SOL    HW218939   3.325   0.751   9.082 -0.4209 -0.6336  0.0171
 2436SOL     OW18940   4.060   0.992  17.364 -0.0634 -0.2734  0.2228
 2436SOL    HW118941   4.031   0.969  17.275  0.9023 -0.2835 -0.0924
 2436SOL    HW218942   3.997   0.957  17.427 -1.7822 -0.7764 -1.7365
 2437SOL     OW18943   3.035   0.084  14.744  0.1769 -0.3579  0.1636
 2437SOL    HW118944   3.119   0.060  14.783 -0.5800 -2.1838  0.6781
 2437SOL    HW218945   2.999   0.140  14.812 -0.2040 -1.9903  1.2984
 2438SOL     OW18946   0.903   2.712   4.907  0.0328  0.6785  0.2313
 2438SOL    HW118947   0.916   2.662   4.826 -2.5226  1.3868 -0.6089
 2438SOL    HW218948   0.819   2.677   4.938  0.5311 -2.0749 -1.4938
 2439SOL     OW18949   0.002   1.002  13.347  0.1378 -0.3827  0.2792
 2439SOL    HW118950   4.647   1.011  13.333  0.5845  1.1769 -1.7202
 2439SOL    HW218951   0.043   1.053  13.277 -0.5609 -1.5640 -0.9953
 2440SOL     OW18952   1.662   4.228  14.358  0.0622  0.3993  0.0387
 2440SOL    HW118953   1.702   4.286  14.294 -0.1423  0.1659 -0.2968
 2440SOL    HW218954   1.657   4.281  14.438 -1.6503 -2.1973  1.6547
 2441SOL     OW18955   3.971   1.952   5.043  0.1542 -0.2417  0.3559
 2441SOL    HW118956   3.973   2.021   4.977  1.2551  0.7799  1.4621
 2441SOL    HW218957   4.065   1.944   5.059  0.0758  1.1001  1.4710
 2442SOL     OW18958   3.204   0.152  17.052  0.3068 -0.4398 -0.3209
 2442SOL    HW118959   3.112   0.128  17.051  0.3554 -0.7699  1.5017
 2442SOL    HW218960   3.194   0.239  17.015  2.0558 -0.4888 -0.9106
 2443SOL     OW18961   0.632   3.443  17.486 -0.2025  0.0750 -0.4299
 2443SOL    HW118962   0.608   3.362  17.532  1.4318 -1.1803 -1.7842
 2443SOL    HW218963   0.577   3.445  17.408 -0.2449 -0.3159 -0.4125
 2444SOL     OW18964   2.530   0.773  11.904  0.4032 -0.2797  0.5921
 2444SOL    HW118965   2.625   0.763  11.914  0.5211  0.6746  0.4766
 2444SOL    HW218966   2.535   0.855  11.855  1.0624 -0.6692  0.0151
 2445SOL     OW18967   3.439   2.838   5.342  0.7483 -0.4000 -0.0598
 2445SOL    HW118968   3.480   2.810   5.260 -0.3669 -1.8564 -0.1153
 2445SOL    HW218969   3.515   2.861   5.395  0.4662 -0.4677  0.3738
 2446SOL     OW18970   3.759   1.691   4.050  0.3637  0.3381  0.0029
 2446SOL    HW118971   3.739   1.740   4.130 -0.0944  2.9947 -1.7411
 2446SOL    HW218972   3.775   1.605   4.089 -0.6663  0.8543  1.5896
 2447SOL     OW18973   2.972   3.606   4.111 -0.0739  0.2084  0.7654
 2447SOL    HW118974   2.942   3.695   4.093 -2.0939 -0.8133 -1.0110
 2447SOL    HW218975   3.021   3.578   4.034 -2.6464 -0.6647 -0.5690
 2448SOL     OW18976   1.164   2.960   7.782 -0.2432 -0.7535 -0.4605
 2448SOL    HW118977   1.243   2.985   7.734 -0.6890  1.2668 -0.1796
 2448SOL    HW218978   1.107   2.911   7.724 -1.8772 -0.7450  1.1448
 2449SOL     OW18979   1.405   2.794  14.122  0.1666  0.2086 -0.5162
 2449SOL    HW118980   1.393   2.840  14.039  0.7452  1.5693  0.1456
 2449SOL    HW218981   1.320   2.807  14.165 -0.7999 -1.7125 -1.8671
 2450SOL     OW18982   4.473   2.694   5.840  0.0979 -0.6359  0.2780
 2450SOL    HW118983   4.416   2.623   5.810  1.3360 -2.1765  1.5935
 2450SOL    HW218984   4.513   2.656   5.918  2.0203 -1.4980 -1.1488
 2451SOL     OW18985   3.352   1.877   9.909 -0.0489 -0.0321  0.5220
 2451SOL    HW118986   3.372   1.815   9.979 -1.1726 -1.0540 -0.0579
 2451SOL    HW218987   3.420   1.943   9.923 -0.5991  0.3671  1.3085
 2452SOL     OW18988   3.304   3.742   1.633  0.2092  0.1139 -0.0669
 2452SOL    HW118989   3.328   3.652   1.654  0.4986  0.0462 -0.6973
 2452SOL    HW218990   3.348   3.788   1.705  0.5686 -0.4207  0.0538
 2453SOL     OW18991   1.590   2.109  12.049 -0.3403 -0.2936  0.2665
 2453SOL    HW118992   1.523   2.135  12.112  0.6865  0.3245  1.1108
 2453SOL    HW218993   1.530   2.087  11.978 -0.4549  1.8584 -0.3044
 2454SOL     OW18994   2.726   3.646   2.055 -0.7294 -0.2642  0.2695
 2454SOL    HW118995   2.649   3.617   2.105 -1.2009 -0.1492 -0.3896
 2454SOL    HW218996   2.801   3.623   2.109 -1.7228 -0.1227  1.7106
 2455SOL     OW18997   1.018   0.805   4.897  0.0420  0.0894 -0.1598
 2455SOL    HW118998   0.948   0.745   4.872 -1.1182  2.2219 -2.0313
 2455SOL    HW218999   0.975   0.877   4.943 -1.7733 -0.8234 -0.4387
 2456SOL     OW19000   1.612   3.447   7.485  0.2877  0.1162 -0.1072
 2456SOL    HW119001   1.646   3.535   7.470 -0.7971  0.8492  1.7590
 2456SOL    HW219002   1.669   3.405   7.421 -1.3406 -0.8691 -0.9191
 2457SOL     OW19003   1.769   1.206   6.435 -0.2486 -0.2905 -0.2973
 2457SOL    HW119004   1.718   1.151   6.376 -2.3944  0.1182  1.1868
 2457SOL    HW219005   1.717   1.190   6.513  1.2520 -0.2321  0.7219
 2458SOL     OW19006   1.405   4.282   3.764 -0.1794 -0.0799 -0.0942
 2458SOL    HW119007   1.387   4.188   3.755  2.9196 -0.7566  0.9567
 2458SOL    HW219008   1.343   4.308   3.832 -2.1781 -2.1010 -1.1427
 2459SOL     OW19009   0.970   0.707  13.034 -0.7287 -0.0677 -0.4420
 2459SOL    HW119010   0.987   0.779  13.095 -0.4819 -0.3465 -0.1818
 2459SOL    HW219011   1.054   0.699  12.987 -0.4917  0.9473 -0.1925
 2460SOL     OW19012   0.636   3.225   8.322 -0.4383 -0.1345 -0.5498
 2460SOL    HW119013   0.687   3.223   8.241  0.5051  0.2868  0.0281
 2460SOL    HW219014   0.649   3.314   8.356 -0.3988 -0.8823  1.3881
 2461SOL     OW19015   0.602   2.641   7.319 -0.2660 -0.1812 -0.2325
 2461SOL    HW119016   0.666   2.657   7.250 -1.0667 -1.8136 -1.3519
 2461SOL    HW219017   0.609   2.545   7.323  3.0905  0.0308 -1.0210
 2462SOL     OW19018   1.087   1.296  12.375 -0.1678  0.0316  0.3702
 2462SOL    HW119019   1.012   1.280  12.432 -1.7608  2.4113 -1.0832
 2462SOL    HW219020   1.099   1.390  12.371 -0.5768 -0.0076 -1.6277
 2463SOL     OW19021   2.382   2.915   3.208  0.9139  0.0751  0.1326
 2463SOL    HW119022   2.430   2.885   3.132  0.8031 -2.6263  1.1170
 2463SOL    HW219023   2.296   2.900   3.167  1.6986  1.2540 -1.9277
 2464SOL     OW19024   1.136   1.743   6.907 -0.1395 -0.3183 -0.6117
 2464SOL    HW119025   1.171   1.817   6.958  0.1454  0.4550 -1.9294
 2464SOL    HW219026   1.073   1.703   6.968 -0.6590  0.9042 -0.3430
 2465SOL     OW19027   1.092   4.254   2.365  0.2376 -1.2193  0.3149
 2465SOL    HW119028   1.015   4.227   2.314 -1.5157 -0.1130  2.3841
 2465SOL    HW219029   1.065   4.246   2.456 -0.6569  0.7283  0.2180
 2466SOL     OW19030   1.659   1.114   7.517  0.1006 -0.0082 -0.4473
 2466SOL    HW119031   1.670   1.176   7.445 -0.6019 -0.4356 -0.9208
 2466SOL    HW219032   1.580   1.145   7.561  1.0929  0.0968  1.2676
 2467SOL     OW19033   0.342   2.945   3.261  0.0757  0.5312 -0.2445
 2467SOL    HW119034   0.268   2.966   3.317  1.1161  1.4021  0.8238
 2467SOL    HW219035   0.340   3.022   3.204 -1.6979  1.0751  0.5580
 2468SOL     OW19036   1.156   1.602  15.203  0.3494  0.3853  0.0233
 2468SOL    HW119037   1.138   1.623  15.112 -0.7557 -3.4286 -0.6157
 2468SOL    HW219038   1.069   1.571  15.227  0.3413 -0.0770 -0.6051
 2469SOL     OW19039   2.830   4.272   4.313 -0.1772 -0.7899 -0.6725
 2469SOL    HW119040   2.861   4.302   4.227 -1.2759 -0.8487 -1.0907
 2469SOL    HW219041   2.748   4.320   4.320  1.3230  1.6807  0.3421
 2470SOL     OW19042   0.987   3.412   3.461 -0.0315  0.2380 -0.1388
 2470SOL    HW119043   0.960   3.443   3.548  0.0287  0.4241 -0.1870
 2470SOL    HW219044   0.935   3.475   3.412  0.8378  0.3717 -0.8882
 2471SOL     OW19045   2.023   1.141  10.540 -0.0192  0.4519  0.5737
 2471SOL    HW119046   1.937   1.184  10.537  0.8832  2.4649  3.5227
 2471SOL    HW219047   2.052   1.184  10.459  0.5748 -0.7257  0.1555
 2472SOL     OW19048   2.970   3.929   1.506 -0.2576  0.7165 -0.1510
 2472SOL    HW119049   2.881   3.923   1.540 -0.3244 -0.8736 -0.6420
 2472SOL    HW219050   3.008   3.973   1.582  0.1865 -0.2470  0.1797
 2473SOL     OW19051   0.368   2.752   6.923 -0.0532  0.0179  0.4654
 2473SOL    HW119052   0.285   2.703   6.920  0.0809 -0.1500 -0.4628
 2473SOL    HW219053   0.364   2.763   7.019  0.7759 -0.5914  0.5616
 2474SOL     OW19054   4.394   4.442   2.446 -0.5428  0.4842 -0.0258
 2474SOL    HW119055   4.345   4.513   2.488 -0.5708  0.4867 -0.0634
 2474SOL    HW219056   4.463   4.430   2.512 -0.4507 -1.3678 -0.4674
 2475SOL     OW19057   4.609   0.342   6.463  0.1032  0.0551  0.2032
 2475SOL    HW119058   4.637   0.433   6.454 -1.3853  0.4297 -0.6777
 2475SOL    HW219059   4.620   0.335   6.558  1.6282  1.1085  0.1075
 2476SOL     OW19060   1.895   4.596  16.436 -0.2866  0.5409 -0.2492
 2476SOL    HW119061   1.866   4.592  16.345  1.2133  2.1484 -0.7955
 2476SOL    HW219062   1.981   4.633  16.418  0.1810  0.4200  1.7064
 2477SOL     OW19063   2.460   2.170  15.040 -0.3029  0.9505  0.2050
 2477SOL    HW119064   2.549   2.200  15.018  0.5619 -1.1589  0.8196
 2477SOL    HW219065   2.453   2.087  14.993 -2.0180  2.1846 -1.6904
 2478SOL     OW19066   4.434   2.023   7.192  0.5741  0.0238 -0.2144
 2478SOL    HW119067   4.363   2.037   7.254 -0.3933 -0.3366 -1.2512
 2478SOL    HW219068   4.501   2.004   7.258 -0.5289 -0.4219  0.7715
 2479SOL     OW19069   0.770   0.272   8.247 -0.4151 -0.1128  0.1281
 2479SOL    HW119070   0.789   0.289   8.155 -1.2694 -2.2784 -0.4647
 2479SOL    HW219071   0.795   0.179   8.253 -0.6598 -0.0438  2.2158
 2480SOL     OW19072   4.111   0.052   2.362 -0.1203 -0.0155  0.0852
 2480SOL    HW119073   4.044   4.735   2.323  0.5742 -0.7350 -0.0721
 2480SOL    HW219074   4.048   0.107   2.408 -1.3109 -1.1011 -0.2572
 2481SOL     OW19075   3.164   1.119   3.624  0.6385  0.4009 -0.1069
 2481SOL    HW119076   3.188   1.145   3.535 -0.8583 -2.5848 -1.3890
 2481SOL    HW219077   3.170   1.023   3.618  0.7314  0.1833  3.4678
 2482SOL     OW19078   3.684   4.202   1.694  0.1039 -0.2288  0.5682
 2482SOL    HW119079   3.667   4.263   1.622  1.2782 -0.1922  0.3250
 2482SOL    HW219080   3.731   4.130   1.654  1.2010  0.1989  1.0892
 2483SOL     OW19081   3.710   1.466   6.906  0.3280  0.0665 -0.1812
 2483SOL    HW119082   3.705   1.504   6.993 -0.4773 -2.7168  0.9804
 2483SOL    HW219083   3.619   1.440   6.891  1.2445 -1.5763 -2.9087
 2484SOL     OW19084   1.503   3.493  12.034 -0.0499  0.1998  0.0853
 2484SOL    HW119085   1.421   3.456  12.066  0.9031 -1.0199  1.1006
 2484SOL    HW219086   1.567   3.434  12.075 -1.0826 -1.4470 -0.6710
 2485SOL     OW19087   4.460   0.992   7.168  0.0047  0.2811  0.3108
 2485SOL    HW119088   4.380   1.022   7.211 -0.2787  0.6047 -0.4434
 2485SOL    HW219089   4.516   1.065   7.195  0.3765  0.4024 -0.8094
 2486SOL     OW19090   3.597   1.526   7.745 -0.4265 -0.1834  0.2586
 2486SOL    HW119091   3.646   1.607   7.728  0.8755 -1.2728 -1.2171
 2486SOL    HW219092   3.592   1.488   7.657 -2.4024  1.0450 -0.1691
 2487SOL     OW19093   3.790   2.496  16.391  0.4059 -0.1418 -0.5598
 2487SOL    HW119094   3.810   2.534  16.306 -0.5848  1.9534  0.1462
 2487SOL    HW219095   3.730   2.431  16.354 -0.8412 -0.0613  1.3209
 2488SOL     OW19096   3.569   1.105   0.555  0.0483 -0.2407  0.4332
 2488SOL    HW119097   3.562   1.079   0.463 -0.4593  2.3273 -0.2468
 2488SOL    HW219098   3.482   1.082   0.587  0.0391 -1.2880 -0.3348
 2489SOL     OW19099   2.708   0.104   8.622 -0.3676  0.3129 -0.1167
 2489SOL    HW119100   2.676   0.020   8.657 -0.0526  0.4541  0.5082
 2489SOL    HW219101   2.735   0.083   8.533 -0.6516 -0.3339 -0.0516
 2490SOL     OW19102   4.602   2.394   7.215  0.4230 -0.6408 -0.5764
 2490SOL    HW119103   4.642   2.319   7.169 -2.0962 -0.9837 -2.2134
 2490SOL    HW219104   4.681   2.447   7.222 -0.6685  1.3911 -3.6973
 2491SOL     OW19105   0.034   0.963   1.487 -0.1663 -0.2475 -0.6085
 2491SOL    HW119106   0.047   1.045   1.440 -1.0084  0.0507 -0.3135
 2491SOL    HW219107   0.079   0.901   1.429  2.4085  0.3242  0.7838
 2492SOL     OW19108   2.793   1.357   6.655  0.1135  0.2063  0.3121
 2492SOL    HW119109   2.860   1.376   6.720 -0.5469 -1.0380  1.3618
 2492SOL    HW219110   2.805   1.420   6.584  2.0415 -0.0675  0.4104
 2493SOL     OW19111   0.067   3.080   7.677  0.1973 -0.1035 -0.0793
 2493SOL    HW119112   0.162   3.072   7.668  0.4474 -0.3614  2.7023
 2493SOL    HW219113   0.050   3.087   7.771  2.3563 -2.3644  0.4955
 2494SOL     OW19114   1.386   3.234   0.820  0.1941  0.6598 -0.0508
 2494SOL    HW119115   1.427   3.147   0.819  2.3492  1.6887 -0.8755
 2494SOL    HW219116   1.443   3.296   0.866 -1.3446  0.8647  1.5586
 2495SOL     OW19117   3.199   0.770   5.667  0.0671  0.2038  0.0501
 2495SOL    HW119118   3.151   0.852   5.673 -0.3517 -0.0567  0.2850
 2495SOL    HW219119   3.254   0.771   5.589  0.5787 -0.3185  0.3961
 2496SOL     OW19120   1.481   2.135   9.691 -0.0869  0.6042  0.1441
 2496SOL    HW119121   1.495   2.148   9.598 -0.6081  1.1270  0.1377
 2496SOL    HW219122   1.506   2.222   9.722  0.7583 -0.4292  2.3636
 2497SOL     OW19123   2.743   4.330   8.573 -0.2638 -0.2155 -1.3135
 2497SOL    HW119124   2.798   4.274   8.627 -1.4963 -0.7892 -0.6634
 2497SOL    HW219125   2.807   4.360   8.509  0.0942 -0.0560 -0.8828
 2498SOL     OW19126   0.927   1.857  12.743  0.1516  0.1442  0.7223
 2498SOL    HW119127   0.913   1.766  12.716  3.5844  0.2989 -1.5853
 2498SOL    HW219128   0.917   1.910  12.664  0.8689 -0.3366  0.3034
 2499SOL     OW19129   1.756   3.145   5.026 -0.0077 -1.0724  0.2496
 2499SOL    HW119130   1.701   3.095   5.086  0.0472  0.2513  1.3860
 2499SOL    HW219131   1.811   3.192   5.088 -0.8042  1.1309 -0.6916
 2500SOL     OW19132   2.343   0.240   3.378 -0.1732 -0.3096  0.1294
 2500SOL    HW119133   2.431   0.246   3.415  0.4701 -0.5349 -1.3567
 2500SOL    HW219134   2.344   0.315   3.319  1.4158 -1.0654 -0.8126
 2501SOL     OW19135   3.305   0.444   9.192 -0.3967 -0.6360  0.0799
 2501SOL    HW119136   3.319   0.425   9.100  3.1770 -1.6272  0.8211
 2501SOL    HW219137   3.339   0.533   9.200 -2.6434  0.1082  1.3612
 2502SOL     OW19138   3.194   0.455   2.194  0.1330 -0.1652 -0.1547
 2502SOL    HW119139   3.162   0.504   2.271 -1.1316 -1.0792 -0.0875
 2502SOL    HW219140   3.217   0.528   2.137  1.9850 -0.1172  0.6679
 2503SOL     OW19141   1.019   1.049   6.994  0.1208 -0.3953 -0.0839
 2503SOL    HW119142   0.994   0.979   6.934 -0.0636  0.4204 -0.9603
 2503SOL    HW219143   0.945   1.108   6.977 -0.1289 -0.3140  1.2642
 2504SOL     OW19144   2.499   0.058   8.911 -0.0435  0.3864 -0.4567
 2504SOL    HW119145   2.584   0.031   8.878  0.4275  2.4661 -0.8864
 2504SOL    HW219146   2.442   0.002   8.858  1.8755 -0.8145 -1.2439
 2505SOL     OW19147   1.252   2.947   9.039  0.7491 -0.6705  0.1858
 2505SOL    HW119148   1.248   2.935   9.134 -2.5048 -1.8254 -0.1093
 2505SOL    HW219149   1.252   2.855   9.010 -0.2492 -0.4140 -0.5854
 2506SOL     OW19150   3.656   1.395  12.816 -0.9854  0.3659 -0.2138
 2506SOL    HW119151   3.561   1.405  12.817 -1.3601 -3.7193  2.1551
 2506SOL    HW219152   3.671   1.339  12.740 -1.5262 -1.0777  0.7363
 2507SOL     OW19153   1.643   3.700   1.903  0.4970 -0.3025  0.1731
 2507SOL    HW119154   1.702   3.631   1.873  0.5583  0.4023 -1.3121
 2507SOL    HW219155   1.596   3.654   1.973  1.1697 -0.2273  0.6799
 2508SOL     OW19156   2.857   3.529   5.483 -0.9115 -0.0156 -0.0623
 2508SOL    HW119157   2.886   3.598   5.543 -3.1094  0.7582  0.1102
 2508SOL    HW219158   2.868   3.452   5.539 -2.2748  0.3899  0.7693
 2509SOL     OW19159   2.538   3.346  14.990 -0.1178  0.5617 -0.2099
 2509SOL    HW119160   2.581   3.282  14.933  1.0144  0.6872  0.4945
 2509SOL    HW219161   2.477   3.390  14.931 -1.1025  0.6863  0.9164
 2510SOL     OW19162   4.232   1.192  17.456  0.4169 -0.0101 -0.7811
 2510SOL    HW119163   4.195   1.120  17.405  1.1621 -1.0559  0.1452
 2510SOL    HW219164   4.176   1.185  17.533 -0.4679  0.8961 -1.3380
 2511SOL     OW19165   3.654   0.165   6.869  0.3645 -0.3204 -0.1059
 2511SOL    HW119166   3.575   0.182   6.818  0.0761 -1.9192 -0.2063
 2511SOL    HW219167   3.708   0.244   6.867 -0.9727  0.5483 -2.1132
 2512SOL     OW19168   0.027   4.425   8.650  0.4362  0.2838 -0.3644
 2512SOL    HW119169   0.050   4.518   8.648 -2.2188  0.8998 -1.6612
 2512SOL    HW219170   4.675   4.427   8.678  0.9893  0.8260  1.3690
 2513SOL     OW19171   2.032   4.419  12.143 -0.1459 -0.0894 -0.2044
 2513SOL    HW119172   1.978   4.398  12.067 -0.1524 -1.4386  0.1817
 2513SOL    HW219173   2.051   4.327  12.159 -1.6803 -0.3937 -0.0908
 2514SOL     OW19174   2.741   1.977   5.452 -0.3744 -0.7634 -0.2157
 2514SOL    HW119175   2.706   1.967   5.364 -0.4543 -1.2339 -0.1297
 2514SOL    HW219176   2.723   1.887   5.479  0.1167 -0.8088 -0.0334
 2515SOL     OW19177   3.653   4.067   6.560 -0.4211 -0.1277 -0.2474
 2515SOL    HW119178   3.561   4.073   6.585 -0.8935 -0.2985 -1.9357
 2515SOL    HW219179   3.694   4.074   6.646  0.1908 -0.2380 -0.5319
 2516SOL     OW19180   1.528   0.812   3.361  0.0163 -0.1250 -0.2278
 2516SOL    HW119181   1.447   0.857   3.334 -1.2353 -1.7494  0.8121
 2516SOL    HW219182   1.518   0.812   3.456 -0.7966  0.6968 -0.3138
 2517SOL     OW19183   0.314   1.572   0.104  0.0239  0.1301  0.1075
 2517SOL    HW119184   0.252   1.549   0.173 -1.0465  0.2593 -0.8100
 2517SOL    HW219185   0.255   1.572   0.029 -1.5355  0.5172  1.3533
 2518SOL     OW19186   4.648   4.134   6.962 -0.2864  0.6087  0.0670
 2518SOL    HW119187   4.628   4.189   6.886  0.3761  0.2281 -0.3918
 2518SOL    HW219188   4.714   4.190   7.002 -1.2735  0.4762  1.8409
 2519SOL     OW19189   2.263   3.011   4.097  0.0601  0.4983  0.0536
 2519SOL    HW119190   2.246   2.965   4.179 -0.6824  0.3317 -0.1873
 2519SOL    HW219191   2.306   2.948   4.039 -0.3184  1.9788 -1.8559
 2520SOL     OW19192   3.959   0.691   3.927 -0.8062 -0.3659 -0.1610
 2520SOL    HW119193   3.924   0.671   3.840 -1.1447 -1.5494  0.2468
 2520SOL    HW219194   3.900   0.627   3.966  0.2957  1.0502  3.8270
 2521SOL     OW19195   0.457   1.984   7.059  0.1857  0.3322  0.4752
 2521SOL    HW119196   0.464   1.911   6.998  1.9873  0.7023  0.2362
 2521SOL    HW219197   0.535   1.973   7.113 -0.0550 -1.2384  0.5082
 2522SOL     OW19198   0.947   2.088   3.097  0.1084  0.0616 -0.2591
 2522SOL    HW119199   1.007   2.040   3.153  1.3818  1.5963 -0.2894
 2522SOL    HW219200   0.997   2.167   3.075  1.1336 -0.8277 -1.0970
 2523SOL     OW19201   2.034   0.733   3.612  0.3666  0.3123 -0.4644
 2523SOL    HW119202   2.017   0.827   3.623  0.6155  0.2289  0.6517
 2523SOL    HW219203   1.996   0.708   3.528 -0.0622  0.6671 -0.3766
 2524SOL     OW19204   0.575   0.049   2.456 -0.1389  0.4641  0.7306
 2524SOL    HW119205   0.534   0.133   2.434 -3.1267 -1.5109 -1.3427
 2524SOL    HW219206   0.558   0.003   2.373  1.7307  2.3471 -0.7032
 2525SOL     OW19207   0.964   2.628   3.963 -0.3506  0.1074  0.5174
 2525SOL    HW119208   1.011   2.706   3.936 -0.6737  0.9243  2.3486
 2525SOL    HW219209   1.030   2.573   4.006 -0.5318 -1.9416 -1.8355
 2526SOL     OW19210   0.958   3.057  11.037  0.4206 -0.2855  0.4270
 2526SOL    HW119211   0.972   3.002  11.114 -0.6698 -0.1795  0.6948
 2526SOL    HW219212   1.030   3.121  11.032 -0.9293  1.2520  0.4675
 2527SOL     OW19213   3.359   1.391   4.828 -0.3458 -0.0037 -0.2242
 2527SOL    HW119214   3.444   1.348   4.830  0.0508  0.7507 -0.8059
 2527SOL    HW219215   3.336   1.393   4.735 -2.5487  0.9003  0.3261
 2528SOL     OW19216   4.548   2.635   4.557  0.1727  0.2218  0.0218
 2528SOL    HW119217   4.563   2.708   4.497 -0.0369  1.1786  1.1405
 2528SOL    HW219218   4.636   2.611   4.584 -0.9460  0.3585  3.7586
 2529SOL     OW19219   2.260   0.716  10.981  0.2026  0.3432 -0.3388
 2529SOL    HW119220   2.300   0.699  10.896  1.4262  0.3739  0.2398
 2529SOL    HW219221   2.331   0.769  11.017  0.8259  1.0740 -2.6568
 2530SOL     OW19222   4.349   0.557   5.101  0.4793  0.2836 -0.0273
 2530SOL    HW119223   4.379   0.597   5.019 -0.6913 -1.2409 -1.1914
 2530SOL    HW219224   4.261   0.555   5.063  0.0499 -0.3246  1.0035
 2531SOL     OW19225   2.299   2.323   3.534  0.4171 -0.4228 -0.6274
 2531SOL    HW119226   2.213   2.282   3.527  0.4666 -1.1406  2.5434
 2531SOL    HW219227   2.328   2.278   3.613 -1.7332 -2.5443 -1.0340
 2532SOL     OW19228   1.436   3.332   0.566 -0.6303 -0.0545  0.0825
 2532SOL    HW119229   1.395   3.300   0.646 -3.0060 -2.0382 -1.9266
 2532SOL    HW219230   1.527   3.309   0.581 -1.1406 -1.7132  0.6659
 2533SOL     OW19231   3.199   1.828   6.868  0.0761 -0.7278 -0.2695
 2533SOL    HW119232   3.136   1.901   6.872 -1.7742 -2.3764  1.0168
 2533SOL    HW219233   3.165   1.780   6.944 -0.2589 -0.8417 -0.4928
 2534SOL     OW19234   0.607   2.384  10.101  1.0460  0.7775  0.4033
 2534SOL    HW119235   0.585   2.320  10.169 -1.9279  0.7444 -0.5942
 2534SOL    HW219236   0.530   2.375  10.045  0.8294 -5.0661  1.6105
 2535SOL     OW19237   1.131   0.677   7.440 -0.5218 -0.2343  0.1192
 2535SOL    HW119238   1.158   0.725   7.362 -0.8222  1.3946  1.0112
 2535SOL    HW219239   1.213   0.689   7.488  0.6902  2.8583 -2.7176
 2536SOL     OW19240   2.973   1.202  17.427  0.4462  0.0174  0.0433
 2536SOL    HW119241   2.889   1.193  17.381  1.8473 -0.4046 -2.4502
 2536SOL    HW219242   2.999   1.281  17.380  1.1138 -1.0176 -1.3302
 2537SOL     OW19243   0.290   0.098   2.306 -0.8739 -0.1079  0.5665
 2537SOL    HW119244   0.353   0.067   2.240  0.2487  0.0479  1.5674
 2537SOL    HW219245   0.269   0.187   2.277 -1.9213 -0.2031  1.0514
 2538SOL     OW19246   3.638   1.792   5.164  0.1001  0.2129 -0.1208
 2538SOL    HW119247   3.690   1.801   5.084 -1.3058 -1.3808 -1.2138
 2538SOL    HW219248   3.569   1.858   5.152  1.4575  1.5640 -0.5620
 2539SOL     OW19249   4.692   0.938   3.111 -0.1802 -0.2716  0.1770
 2539SOL    HW119250   0.016   1.009   3.122 -2.0372  1.5462 -0.7645
 2539SOL    HW219251   4.685   0.919   3.205 -0.2728 -0.7550  0.0689
 2540SOL     OW19252   0.991   3.659   2.476  0.0603 -0.7684  0.5994
 2540SOL    HW119253   0.926   3.654   2.405 -0.2054 -0.8645  0.8491
 2540SOL    HW219254   0.934   3.700   2.540  0.5452 -0.6865  0.9775
 2541SOL     OW19255   0.100   0.756   5.871  0.1861  0.4316  0.5417
 2541SOL    HW119256   0.106   0.661   5.857 -2.5009  0.2190  0.7874
 2541SOL    HW219257   0.162   0.797   5.811  1.0843  2.6116  2.9482
 2542SOL     OW19258   1.131   2.832   6.196  0.6479 -0.2136 -0.0340
 2542SOL    HW119259   1.177   2.914   6.178  1.3311 -0.1672  1.9587
 2542SOL    HW219260   1.088   2.860   6.276 -2.1972 -1.0688 -1.2495
 2543SOL     OW19261   1.083   3.095  13.924 -0.9981 -0.2412  0.7380
 2543SOL    HW119262   1.113   3.158  13.989  0.7542 -0.2632 -0.0425
 2543SOL    HW219263   1.056   3.154  13.854 -0.5727 -1.3665 -0.3766
 2544SOL     OW19264   2.081   0.490   9.104  0.0659 -0.2560 -0.0944
 2544SOL    HW119265   2.133   0.410   9.107 -0.2455 -0.4652 -0.2836
 2544SOL    HW219266   2.007   0.467   9.161  1.4358 -0.2833  1.7007
 2545SOL     OW19267   2.720   4.584  12.226 -0.5654  0.1338  0.3424
 2545SOL    HW119268   2.803   4.543  12.200  0.0256  1.1953  0.5619
 2545SOL    HW219269   2.675   4.622  12.150  2.2642  2.7374 -0.0252
 2546SOL     OW19270   2.422   2.067   3.979  0.0178 -0.0864 -0.1773
 2546SOL    HW119271   2.389   2.124   4.048 -0.3850 -0.2559 -0.2272
 2546SOL    HW219272   2.429   1.984   4.026 -2.1406 -0.7094 -0.9473
 2547SOL     OW19273   3.504   4.310   5.706  0.3960  0.2414 -0.5318
 2547SOL    HW119274   3.550   4.257   5.641 -0.6721 -0.3123 -0.8461
 2547SOL    HW219275   3.566   4.381   5.719 -1.1098  1.8418 -2.0768
 2548SOL     OW19276   1.364   0.874   9.686 -0.4495 -0.2889  0.0770
 2548SOL    HW119277   1.402   0.866   9.598  0.1533 -2.4681  0.5384
 2548SOL    HW219278   1.439   0.915   9.729 -0.0485  0.0933 -0.9675
 2549SOL     OW19279   1.615   4.284   2.333 -0.8736 -0.4080 -0.2535
 2549SOL    HW119280   1.651   4.365   2.297  0.2255  0.3693  2.6090
 2549SOL    HW219281   1.697   4.237   2.349 -0.1770  0.4860 -1.2249
 2550SOL     OW19282   2.926   4.142   7.476 -0.5946  0.0520 -0.0082
 2550SOL    HW119283   2.917   4.094   7.394  0.8606 -0.0107 -0.1160
 2550SOL    HW219284   2.959   4.225   7.444  0.5666 -1.1439 -1.8666
 2551SOL     OW19285   4.402   1.016   6.321  0.0492  0.3421  0.1005
 2551SOL    HW119286   4.367   1.105   6.325 -0.9628 -0.0240 -0.6506
 2551SOL    HW219287   4.327   0.967   6.288 -0.7111  1.1018  0.6889
 2552SOL     OW19288   3.270   2.106   4.918  0.8708 -0.6395 -0.4150
 2552SOL    HW119289   3.207   2.176   4.902  1.2851  0.4737  2.7558
 2552SOL    HW219290   3.287   2.085   4.826 -0.6116  3.6956 -1.7028
 2553SOL     OW19291   1.376   3.010   5.430 -0.0702  0.0592 -0.4996
 2553SOL    HW119292   1.432   3.040   5.502 -0.2209  0.5498 -0.5863
 2553SOL    HW219293   1.436   2.938   5.411  0.3997  0.6055 -1.0886
 2554SOL     OW19294   1.703   3.812   5.002  0.0546  0.1724 -0.0070
 2554SOL    HW119295   1.638   3.745   5.023  1.3771 -0.9474  0.5395
 2554SOL    HW219296   1.778   3.780   5.052 -0.3726 -1.3974 -0.3581
 2555SOL     OW19297   1.336   3.591   7.501  0.2340 -0.3956 -0.2959
 2555SOL    HW119298   1.423   3.605   7.538 -0.1859  2.1652 -0.2735
 2555SOL    HW219299   1.327   3.496   7.508  3.8579 -0.9053 -2.0881
 2556SOL     OW19300   3.220   1.840   5.723  0.3396 -0.2117 -0.2650
 2556SOL    HW119301   3.160   1.771   5.696  0.0394  0.4124 -1.2230
 2556SOL    HW219302   3.273   1.848   5.643 -1.0640 -0.3636 -1.2103
 2557SOL     OW19303   2.769   4.649   4.256  0.4071 -0.5037  0.1038
 2557SOL    HW119304   2.849   4.600   4.241 -0.4165 -1.2265 -1.9289
 2557SOL    HW219305   2.701   4.583   4.274  0.2613 -0.1537  0.8262
 2558SOL     OW19306   3.793   4.486  14.359  0.6311  0.5171  0.2641
 2558SOL    HW119307   3.754   4.543  14.425  3.9176  0.5918  2.1326
 2558SOL    HW219308   3.863   4.543  14.329  0.5285 -0.0717 -1.1036
 2559SOL     OW19309   1.721   0.611   3.420  0.6741  0.8581  0.1031
 2559SOL    HW119310   1.701   0.629   3.512  2.8190  0.5339  0.6263
 2559SOL    HW219311   1.647   0.655   3.378  0.5856 -0.2210 -0.8947
 2560SOL     OW19312   3.673   3.238   8.187  0.4597  0.2587  0.0138
 2560SOL    HW119313   3.739   3.268   8.250 -0.1343  0.6063  0.4720
 2560SOL    HW219314   3.669   3.143   8.191  2.3009  0.1270 -1.1459
 2561SOL     OW19315   1.992   0.925   7.679  0.9637  0.4290  0.0329
 2561SOL    HW119316   1.952   0.979   7.748  1.9746  1.2546 -0.0275
 2561SOL    HW219317   1.996   0.991   7.610 -0.7787  0.8059  0.2857
 2562SOL     OW19318   1.534   3.127   3.655 -0.7272  0.4388  0.4084
 2562SOL    HW119319   1.613   3.167   3.690  0.2563 -1.0005 -0.1869
 2562SOL    HW219320   1.564   3.038   3.640  1.4166  1.4158 -1.0308
 2563SOL     OW19321   3.052   2.933  13.020 -0.2076 -0.0053 -0.0469
 2563SOL    HW119322   3.036   3.022  12.987 -0.1427  0.8024  2.0881
 2563SOL    HW219323   3.090   2.956  13.104 -0.9107 -0.4922  0.3988
 2564SOL     OW19324   0.339   1.107  11.997 -0.2442  0.1575  0.2366
 2564SOL    HW119325   0.286   1.088  12.075 -1.1552 -2.1392 -0.9608
 2564SOL    HW219326   0.269   1.071  11.944 -1.6866 -0.1837  2.3754
 2565SOL     OW19327   3.740   2.139  16.978  0.2847  0.0464 -0.2516
 2565SOL    HW119328   3.656   2.109  16.943  0.1987 -0.3439  0.2831
 2565SOL    HW219329   3.723   2.191  17.056 -1.1022  0.5764 -0.9048
 2566SOL     OW19330   0.713   3.073  16.784  0.1140 -0.6207  0.3969
 2566SOL    HW119331   0.760   3.001  16.826 -0.0219 -1.9644 -1.7860
 2566SOL    HW219332   0.744   3.157  16.819  0.8485 -0.4886 -0.6052
 2567SOL     OW19333   1.137   1.745  13.305 -0.3280 -0.3777  0.5558
 2567SOL    HW119334   1.135   1.756  13.400 -0.8872 -0.9470  0.6097
 2567SOL    HW219335   1.229   1.763  13.283  0.4897  0.1853  4.4195
 2568SOL     OW19336   1.103   4.148   5.950 -0.6352 -0.4330 -0.2280
 2568SOL    HW119337   1.020   4.140   5.997 -1.8901  3.0240 -1.7827
 2568SOL    HW219338   1.107   4.244   5.953 -1.0482 -0.4419  0.6872
 2569SOL     OW19339   3.569   4.251   6.384 -0.0169  0.0561 -0.3422
 2569SOL    HW119340   3.614   4.189   6.442 -0.7086 -1.7284 -1.7106
 2569SOL    HW219341   3.488   4.203   6.370 -0.1854  0.1426  0.3379
 2570SOL     OW19342   1.425   2.386   9.952 -0.4051  0.0418  0.0109
 2570SOL    HW119343   1.434   2.386   9.857  0.2887 -1.4578  0.0801
 2570SOL    HW219344   1.502   2.331   9.965 -0.1592  0.0560 -1.3622
 2571SOL     OW19345   2.783   0.750   6.633  0.5344 -0.4972  0.1223
 2571SOL    HW119346   2.706   0.764   6.689 -1.3245 -1.0395 -2.2982
 2571SOL    HW219347   2.794   0.842   6.607 -2.6401  0.1059  0.7999
 2572SOL     OW19348   4.199   2.335  16.761  0.8875 -0.4533 -0.0981
 2572SOL    HW119349   4.207   2.280  16.683 -2.1733  0.4503 -1.0304
 2572SOL    HW219350   4.107   2.334  16.786  0.9407 -1.6849  0.0440
 2573SOL     OW19351   2.107   3.724   7.357  0.5454  0.2390  0.3356
 2573SOL    HW119352   2.148   3.712   7.443  0.0995 -3.5860  0.0311
 2573SOL    HW219353   2.184   3.730   7.301 -1.7857 -0.0033 -2.8809
 2574SOL     OW19354   0.629   4.372  10.317 -0.1561  0.3959  0.4286
 2574SOL    HW119355   0.538   4.373  10.285  0.7321 -1.3592 -2.0883
 2574SOL    HW219356   0.638   4.280  10.341  0.4780  0.1779 -0.6505
 2575SOL     OW19357   0.289   1.509   5.448 -0.4217 -0.0038 -0.3232
 2575SOL    HW119358   0.213   1.537   5.396  0.3480 -0.5945 -1.7527
 2575SOL    HW219359   0.351   1.481   5.381  0.2349 -2.2017  1.2174
 2576SOL     OW19360   0.804   3.129   9.064  0.6110  0.1342  0.3755
 2576SOL    HW119361   0.853   3.150   8.984  0.6854 -1.3834  0.0202
 2576SOL    HW219362   0.722   3.177   9.050  2.0242  1.5146 -3.1409
 2577SOL     OW19363   2.734   0.398   8.962 -0.0360 -0.0029 -0.6694
 2577SOL    HW119364   2.770   0.322   8.917 -1.5487  0.1233 -2.1329
 2577SOL    HW219365   2.780   0.475   8.929 -0.1847  0.3184 -0.1289
 2578SOL     OW19366   0.521   3.347  15.533  0.0963 -0.2637 -0.0297
 2578SOL    HW119367   0.565   3.416  15.482  1.6430 -1.4715 -0.3250
 2578SOL    HW219368   0.532   3.271  15.477  2.2353  0.1765 -0.2076
 2579SOL     OW19369   4.677   3.291   7.090 -0.1165 -0.5019  0.1194
 2579SOL    HW119370   4.730   3.344   7.150 -0.3403  1.1491 -1.1468
 2579SOL    HW219371   4.714   3.204   7.107 -2.6724 -1.8998 -1.4292
 2580SOL     OW19372   1.067   2.544   7.025 -0.6356 -0.4543  0.0061
 2580SOL    HW119373   1.048   2.471   6.965  2.2210 -1.1155 -0.0880
 2580SOL    HW219374   1.117   2.494   7.089 -0.6647  0.2503  0.5714
 2581SOL     OW19375   0.464   0.584   1.190  0.8347  0.2600  0.3312
 2581SOL    HW119376   0.551   0.579   1.230  0.4493  0.6540  1.2324
 2581SOL    HW219377   0.421   0.653   1.240 -1.2455 -1.3595  0.8056
 2582SOL     OW19378   3.515   4.723   5.337 -0.1971 -0.2454 -0.8526
 2582SOL    HW119379   3.555   4.687   5.257  2.8499  1.7338 -0.1928
 2582SOL    HW219380   3.490   4.637   5.371  2.3249 -1.2997 -1.6211
 2583SOL     OW19381   1.597   0.119  12.719 -0.0296  0.5009 -0.4872
 2583SOL    HW119382   1.642   0.098  12.801  2.4828  0.8048 -1.8073
 2583SOL    HW219383   1.634   0.047  12.669 -1.1591 -0.3487 -0.0886
 2584SOL     OW19384   3.178   3.107   1.885  0.5263 -0.4885  0.0162
 2584SOL    HW119385   3.222   3.086   1.803 -1.8941 -1.9030 -0.8991
 2584SOL    HW219386   3.097   3.150   1.860  0.0950 -0.2851  1.7593
 2585SOL     OW19387   0.518   3.205  17.585  0.1063 -0.0989 -0.0268
 2585SOL    HW119388   0.453   3.150  17.541 -0.0491 -1.5972  2.0133
 2585SOL    HW219389   0.591   3.147  17.564  1.3669  1.5494 -0.1768
 2586SOL     OW19390   1.824   2.250   4.877 -0.0002 -0.2089  0.0756
 2586SOL    HW119391   1.915   2.265   4.901 -0.0127  1.1585 -0.7098
 2586SOL    HW219392   1.827   2.155   4.890 -1.3577 -0.4743 -1.6175
 2587SOL     OW19393   2.370   0.223   0.554 -0.1258  0.3185  0.4651
 2587SOL    HW119394   2.352   0.271   0.634 -1.9074  0.9382 -0.3027
 2587SOL    HW219395   2.298   0.265   0.506 -2.0087 -2.7052  0.6754
 2588SOL     OW19396   3.913   3.927   7.334 -0.0894  0.0240  0.3689
 2588SOL    HW119397   3.954   3.941   7.249  0.4496  0.5483  0.7214
 2588SOL    HW219398   3.899   4.016   7.366 -2.3285 -0.6755  1.3750
 2589SOL     OW19399   2.560   4.091   8.044  0.2380 -0.0156  0.1694
 2589SOL    HW119400   2.508   4.128   7.973  0.2273 -0.0177  0.1759
 2589SOL    HW219401   2.609   4.172   8.061 -1.1557  0.8083  0.3119
 2590SOL     OW19402   4.222   1.163   3.291  0.2987  0.0393  0.0697
 2590SOL    HW119403   4.161   1.093   3.269 -0.6395  0.3348  1.7587
 2590SOL    HW219404   4.172   1.236   3.253 -2.1837 -1.8466 -0.2858
 2591SOL     OW19405   0.678   4.068   8.500  0.5688  0.1822  0.1807
 2591SOL    HW119406   0.608   4.067   8.565  0.8821  0.0824  0.5163
 2591SOL    HW219407   0.638   4.072   8.413  1.6124 -0.5298 -0.3297
 2592SOL     OW19408   3.894   1.856   3.877 -0.6485  0.0399 -0.0304
 2592SOL    HW119409   3.859   1.810   3.954  0.3610 -0.0449  0.3788
 2592SOL    HW219410   3.871   1.786   3.816  2.7509  1.0169 -2.4557
 2593SOL     OW19411   4.245   0.085  14.748 -0.0361  0.0065 -0.0192
 2593SOL    HW119412   4.197   0.160  14.783 -2.4333 -1.3718 -0.3829
 2593SOL    HW219413   4.328   0.087  14.796 -0.3108  0.6726  0.4202
 2594SOL     OW19414   3.243   4.529  11.235 -0.0669  0.1556  0.1257
 2594SOL    HW119415   3.320   4.582  11.212 -0.0015 -0.0005 -0.0147
 2594SOL    HW219416   3.255   4.518  11.329  0.5199  0.3542  0.0774
 2595SOL     OW19417   4.726   1.404   9.183  0.1646  0.3668  0.9145
 2595SOL    HW119418   0.056   1.362   9.133 -0.0575  1.8960 -0.6821
 2595SOL    HW219419   0.018   1.380   9.270  0.1062 -1.7450  0.3497
 2596SOL     OW19420   1.783   2.501   3.903  0.1670  0.2042  0.2668
 2596SOL    HW119421   1.772   2.487   3.997  1.4777 -2.2076  0.0580
 2596SOL    HW219422   1.804   2.414   3.870  1.0695  0.9319 -1.0838
 2597SOL     OW19423   0.598   2.931   5.318  0.2571  0.0481  0.1301
 2597SOL    HW119424   0.647   2.952   5.397  0.7861 -2.8901  0.5486
 2597SOL    HW219425   0.638   2.985   5.250  0.6846  0.7020  0.8974
 2598SOL     OW19426   0.557   2.894  10.391 -0.2237 -0.3778  0.2902
 2598SOL    HW119427   0.560   2.933  10.479 -0.6429  2.0443 -0.7678
 2598SOL    HW219428   0.584   2.804  10.407 -0.4209 -0.1635  1.8248
 2599SOL     OW19429   0.265   2.513   6.518 -0.1661 -0.0709  0.2846
 2599SOL    HW119430   0.303   2.573   6.454 -0.5086  0.0522  0.2015
 2599SOL    HW219431   0.325   2.525   6.593 -1.6926  0.5047  1.4118
 2600SOL     OW19432   0.137   0.831  15.829 -0.0731 -0.6411 -0.2870
 2600SOL    HW119433   0.205   0.877  15.781  1.2009 -0.4466  1.6935
 2600SOL    HW219434   0.077   0.898  15.861  0.8006  0.1517 -0.3257
 2601SOL     OW19435   0.045   3.317   5.089 -0.8942 -0.8411 -0.2869
 2601SOL    HW119436   0.052   3.283   5.178 -1.0998 -1.6141 -0.5679
 2601SOL    HW219437   4.690   3.315   5.072 -0.3111 -2.9861 -3.1965
 2602SOL     OW19438   4.146   2.751   3.463 -0.2571 -0.4069 -0.1245
 2602SOL    HW119439   4.090   2.726   3.536  0.7293 -1.9100  0.1121
 2602SOL    HW219440   4.100   2.819   3.414  1.1311 -0.1332 -1.0534
 2603SOL     OW19441   1.000   2.797  11.923 -0.3844 -0.1474  0.1614
 2603SOL    HW119442   0.923   2.745  11.902 -0.6642  1.0174 -1.7380
 2603SOL    HW219443   1.047   2.778  11.841  2.5683  3.4958  1.0155
 2604SOL     OW19444   1.417   4.357  10.666  0.2242 -0.3819 -0.1439
 2604SOL    HW119445   1.504   4.329  10.694  1.2590  1.8519 -1.1808
 2604SOL    HW219446   1.434   4.420  10.596 -1.9081  1.0887  0.6595
 2605SOL     OW19447   3.150   1.480   6.367 -0.0694  0.4820 -0.3112
 2605SOL    HW119448   3.075   1.438   6.324  0.8074 -1.2311 -0.1734
 2605SOL    HW219449   3.160   1.553   6.305  1.0524  1.3087  0.8465
 2606SOL     OW19450   2.165   1.121  13.162  0.3332 -0.7183 -0.3204
 2606SOL    HW119451   2.154   1.058  13.233  2.6308 -1.0582 -0.2679
 2606SOL    HW219452   2.072   1.141  13.151  0.8332  2.3360  1.2951
 2607SOL     OW19453   1.805   3.518   1.637 -0.0403 -0.0124 -0.3213
 2607SOL    HW119454   1.877   3.471   1.595  0.3183  1.6170 -1.5383
 2607SOL    HW219455   1.838   3.608   1.644 -0.6750  0.2183 -0.2642
 2608SOL     OW19456   0.794   4.347  12.808 -0.2608 -0.5153 -0.0551
 2608SOL    HW119457   0.829   4.393  12.731  0.0286 -2.0320 -0.8400
 2608SOL    HW219458   0.727   4.405  12.842 -2.2400 -0.9212 -3.2157
 2609SOL     OW19459   2.238   1.332   7.497  0.1047 -0.3418 -0.4933
 2609SOL    HW119460   2.328   1.317   7.470  0.4282  1.4642 -0.3715
 2609SOL    HW219461   2.231   1.423   7.469 -0.8283  0.3946  2.1307
 2610SOL     OW19462   0.352   0.165  14.701  0.6511 -0.3205 -0.0528
 2610SOL    HW119463   0.325   0.254  14.724 -1.7844 -0.7017 -1.4634
 2610SOL    HW219464   0.288   0.140  14.635  0.4114  0.6184 -0.1772
 2611SOL     OW19465   2.361   1.802   8.710  0.4178  0.7512 -0.4055
 2611SOL    HW119466   2.266   1.818   8.707 -0.1188 -2.0169  1.7088
 2611SOL    HW219467   2.385   1.861   8.782  3.2079  1.6024 -2.0648
 2612SOL     OW19468   4.344   3.297   7.281 -0.3691 -0.0959  0.0313
 2612SOL    HW119469   4.387   3.383   7.285 -1.4960  0.6140 -2.8762
 2612SOL    HW219470   4.403   3.251   7.221 -1.1342  0.2691 -0.9962
 2613SOL     OW19471   2.904   4.275  16.657 -0.1310  0.1466 -0.6260
 2613SOL    HW119472   2.813   4.263  16.631  0.2350 -1.8164 -1.0219
 2613SOL    HW219473   2.936   4.185  16.665  3.5578  1.4819 -0.3297
 2614SOL     OW19474   1.049   3.612   3.129 -0.5497  0.2211  0.0545
 2614SOL    HW119475   1.097   3.545   3.177 -0.6005 -0.1631 -0.4344
 2614SOL    HW219476   0.978   3.565   3.086 -1.1074  1.1426 -0.0451
 2615SOL     OW19477   3.248   1.622   8.236 -0.4934 -0.2926 -0.5425
 2615SOL    HW119478   3.285   1.550   8.184  1.0684  0.2203 -0.1437
 2615SOL    HW219479   3.282   1.605   8.324  3.2761  0.4253 -1.8343
 2616SOL     OW19480   1.214   3.718   6.050 -0.0738  0.3959 -0.0781
 2616SOL    HW119481   1.246   3.651   5.990  0.0507 -1.5210  2.1254
 2616SOL    HW219482   1.118   3.710   6.054 -0.1801  1.9637  0.4011
 2617SOL     OW19483   1.321   2.851   7.077  0.4270  0.0289 -0.2771
 2617SOL    HW119484   1.312   2.915   7.007 -2.3690 -0.1897 -0.1369
 2617SOL    HW219485   1.390   2.891   7.130 -0.0796  1.3551 -0.6357
 2618SOL     OW19486   0.918   3.271   5.125 -0.7769  0.2749  0.0840
 2618SOL    HW119487   0.947   3.234   5.208  1.0265  1.3343 -0.0775
 2618SOL    HW219488   0.832   3.227   5.123 -0.5434 -0.1976  0.3127
 2619SOL     OW19489   3.480   1.377   8.083 -0.2860 -0.5466 -0.9815
 2619SOL    HW119490   3.539   1.411   8.150  0.4854  0.2761 -2.0605
 2619SOL    HW219491   3.446   1.301   8.129 -1.6294 -0.7668 -2.3227
 2620SOL     OW19492   3.599   1.058   0.294 -0.4816  0.1406  0.0166
 2620SOL    HW119493   3.664   1.042   0.225  0.3604  0.9028  0.6395
 2620SOL    HW219494   3.532   0.992   0.274 -0.5046  0.5736 -1.3568
 2621SOL     OW19495   3.200   2.521   6.664  0.1962 -0.1412  0.6667
 2621SOL    HW119496   3.140   2.586   6.627 -1.3447  0.3278  4.0035
 2621SOL    HW219497   3.275   2.516   6.605 -0.3860  1.4433 -0.2124
 2622SOL     OW19498   4.315   4.445  14.304 -0.3513  0.6350  0.2139
 2622SOL    HW119499   4.314   4.351  14.322  1.7394  0.6285  0.3087
 2622SOL    HW219500   4.381   4.482  14.363  1.6168 -0.5046 -1.2895
 2623SOL     OW19501   0.431   3.261   7.431  0.1519  0.3981 -0.0690
 2623SOL    HW119502   0.418   3.213   7.350  2.8195 -0.9906  0.3184
 2623SOL    HW219503   0.339   3.279   7.450 -0.0758 -1.6356  0.7301
 2624SOL     OW19504   0.282   4.330  17.436  0.0605  0.4286  0.0385
 2624SOL    HW119505   0.357   4.315  17.493  0.9439 -1.0802 -1.5330
 2624SOL    HW219506   0.298   4.417  17.399  0.7115 -0.4176 -1.6895
 2625SOL     OW19507   0.751   2.385   2.622  0.5401  0.4108  0.0694
 2625SOL    HW119508   0.657   2.370   2.622  0.8736 -1.7020  1.1117
 2625SOL    HW219509   0.776   2.310   2.569 -0.7892 -0.9700  1.4335
 2626SOL     OW19510   1.677   1.957   3.980 -0.4268 -0.3990  0.6666
 2626SOL    HW119511   1.644   1.884   4.031 -0.5683  0.3266  1.6193
 2626SOL    HW219512   1.678   1.930   3.888 -1.7103  4.4762 -0.7791
 2627SOL     OW19513   1.904   4.436   6.057  0.2910  0.8399 -0.6374
 2627SOL    HW119514   1.884   4.522   6.095 -1.2705  0.1231  0.1748
 2627SOL    HW219515   1.982   4.461   6.008  0.7451 -1.8675 -1.2690
 2628SOL     OW19516   0.990   1.951  17.511  0.6664  0.0895  0.7346
 2628SOL    HW119517   1.025   1.999  17.436 -0.9595 -1.4093 -1.0005
 2628SOL    HW219518   0.908   1.999  17.525  2.6150  3.4197  0.7133
 2629SOL     OW19519   3.552   4.721   7.041  0.3886 -0.4142 -0.3631
 2629SOL    HW119520   3.534   4.649   6.981 -1.3465 -2.1927  2.3356
 2629SOL    HW219521   3.577   0.057   6.987  0.4996  0.8864  1.5160
 2630SOL     OW19522   1.393   4.692  11.730  0.6241  0.2869 -0.3068
 2630SOL    HW119523   1.329   4.728  11.792 -1.0717 -2.0057 -0.7267
 2630SOL    HW219524   1.368   0.009  11.657  2.6526  1.2930 -0.2064
 2631SOL     OW19525   3.527   2.216   8.613 -0.0540 -0.0533 -0.4493
 2631SOL    HW119526   3.514   2.273   8.689  1.6379 -1.3948  0.8293
 2631SOL    HW219527   3.621   2.217   8.594 -0.5129  2.5961 -2.6620
 2632SOL     OW19528   1.284   0.801  15.877  0.0204 -0.4090 -0.0202
 2632SOL    HW119529   1.265   0.727  15.935 -1.5169 -0.8621 -1.0788
 2632SOL    HW219530   1.237   0.765  15.801 -0.9675  1.5962 -0.3567
 2633SOL     OW19531   1.455   0.467  15.433 -0.1829  0.7023  0.0124
 2633SOL    HW119532   1.389   0.463  15.503 -0.2967 -1.0846 -0.1993
 2633SOL    HW219533   1.432   0.384  15.391  0.0826  0.0352  1.1981
 2634SOL     OW19534   2.038   3.505   9.756  0.0045  0.0916 -0.3718
 2634SOL    HW119535   2.109   3.474   9.701  0.4746  1.2499 -0.4179
 2634SOL    HW219536   1.965   3.521   9.696  0.5516  1.2669 -0.7271
 2635SOL     OW19537   1.744   3.064  12.006  0.2438 -0.2793 -0.3527
 2635SOL    HW119538   1.814   3.004  12.033  2.1298  2.4605  0.8370
 2635SOL    HW219539   1.707   3.015  11.933 -1.6715 -1.2396  1.2585
 2636SOL     OW19540   4.634   4.552   0.378 -0.2200  0.5824  0.3391
 2636SOL    HW119541   4.728   4.557   0.361  0.0832  0.9899  2.1520
 2636SOL    HW219542   4.600   4.544   0.289  3.7631  1.2821 -1.2250
 2637SOL     OW19543   0.882   4.698  17.116 -0.1257  0.0393 -0.0557
 2637SOL    HW119544   0.796   4.657  17.130 -0.1077  0.7386  2.1853
 2637SOL    HW219545   0.879   0.017  17.193  0.2945 -0.4787  0.3497
 2638SOL     OW19546   1.608   4.737   4.399  0.1640  0.2942  0.1781
 2638SOL    HW119547   1.704   4.739   4.396  0.1490  0.4522 -0.1910
 2638SOL    HW219548   1.581   0.078   4.442 -1.5392 -0.3816  0.3530
 2639SOL     OW19549   1.707   4.517   6.732 -0.9179  0.0156  0.0774
 2639SOL    HW119550   1.784   4.520   6.675 -0.0965  0.0590  1.1884
 2639SOL    HW219551   1.719   4.438   6.784  1.0211  1.2197  1.4285
 2640SOL     OW19552   3.493   3.775  13.699  0.6939  0.4741 -0.3100
 2640SOL    HW119553   3.485   3.681  13.685  3.0396  0.4805 -1.8011
 2640SOL    HW219554   3.483   3.783  13.794 -1.3999 -1.7630 -0.3551
 2641SOL     OW19555   2.949   3.181  17.262 -0.2663  0.3292  0.2589
 2641SOL    HW119556   2.990   3.110  17.214 -0.1823 -0.9549  2.2489
 2641SOL    HW219557   3.024   3.216  17.311 -1.1304  0.8284  1.2288
 2642SOL     OW19558   2.855   2.822  15.896  0.1034  0.0264 -0.3876
 2642SOL    HW119559   2.905   2.753  15.852 -2.4075 -1.8776 -0.2544
 2642SOL    HW219560   2.879   2.812  15.988  2.6621  1.3199 -0.9348
 2643SOL     OW19561   3.833   2.957   1.959  0.4337 -0.4312 -0.0718
 2643SOL    HW119562   3.765   2.993   2.015 -0.9989  0.7758 -2.6175
 2643SOL    HW219563   3.825   2.863   1.977 -2.2345 -0.3333 -0.8749
 2644SOL     OW19564   2.623   1.245  10.919  0.2928  0.2634 -0.2167
 2644SOL    HW119565   2.643   1.315  10.980 -1.5732  0.5135  0.1043
 2644SOL    HW219566   2.686   1.179  10.949 -0.4278 -1.0822 -1.6606
 2645SOL     OW19567   1.520   0.937   7.318 -0.6570 -0.4830  0.5884
 2645SOL    HW119568   1.586   0.937   7.387  0.8578  0.1918 -0.8734
 2645SOL    HW219569   1.487   1.026   7.307  2.2690  0.2172 -2.5120
 2646SOL     OW19570   3.388   2.292   4.219 -0.6032  0.6272 -0.3271
 2646SOL    HW119571   3.338   2.321   4.142 -1.5529  0.8935  0.3826
 2646SOL    HW219572   3.442   2.370   4.228  2.4106 -1.4068 -0.6893
 2647SOL     OW19573   0.878   4.567   4.538 -0.7512  0.5860  0.0680
 2647SOL    HW119574   0.914   4.564   4.627  1.6840 -1.6792 -0.9927
 2647SOL    HW219575   0.915   4.483   4.510  1.3869  1.2191  0.9834
 2648SOL     OW19576   3.632   3.286  13.666  0.0190  0.2088 -0.2967
 2648SOL    HW119577   3.559   3.247  13.713  1.9918 -0.6287  2.1183
 2648SOL    HW219578   3.644   3.219  13.599 -1.6816 -1.6360  1.2495
 2649SOL     OW19579   2.700   1.222   0.104  0.6792  0.0140  0.1970
 2649SOL    HW119580   2.790   1.216   0.072  0.6627  0.6829  0.0278
 2649SOL    HW219581   2.708   1.139   0.152 -1.2588  0.2960  0.9815
 2650SOL     OW19582   3.158   0.846  15.580 -0.3931  0.0367 -0.5591
 2650SOL    HW119583   3.127   0.928  15.618  0.6914 -0.3539  1.1613
 2650SOL    HW219584   3.079   0.792  15.573 -0.9107  0.6517  0.4508
 2651SOL     OW19585   1.115   4.331  13.132 -0.4296 -0.1160  0.1546
 2651SOL    HW119586   1.130   4.379  13.051 -1.4027 -2.6643 -1.5237
 2651SOL    HW219587   1.071   4.400  13.181 -1.0776 -0.3150 -0.1538
 2652SOL     OW19588   1.781   4.565   7.997  0.1400  0.0387 -1.0164
 2652SOL    HW119589   1.745   4.477   8.004  0.1602  0.2183  1.3421
 2652SOL    HW219590   1.703   4.620   8.004  0.5004  0.2830  0.9577
 2653SOL     OW19591   3.379   2.258   5.706 -0.5058  0.4520  0.4823
 2653SOL    HW119592   3.427   2.337   5.730 -0.8015  1.0351 -0.8557
 2653SOL    HW219593   3.434   2.237   5.631 -2.2068 -0.1616 -0.5890
 2654SOL     OW19594   3.199   0.771   3.264  0.5237 -0.4372 -0.1563
 2654SOL    HW119595   3.293   0.782   3.252  0.5052 -1.1854 -1.0065
 2654SOL    HW219596   3.188   0.756   3.358  0.6223 -0.1074 -0.0918
 2655SOL     OW19597   0.483   2.298   5.708 -0.2441  0.1881 -0.5213
 2655SOL    HW119598   0.526   2.375   5.670 -1.2710  1.4230  0.8578
 2655SOL    HW219599   0.394   2.301   5.672 -0.1693  0.1181 -0.7156
 2656SOL     OW19600   2.458   0.171   5.569 -0.8049 -1.0962 -0.0570
 2656SOL    HW119601   2.457   0.110   5.495  0.5616 -0.3665 -0.6695
 2656SOL    HW219602   2.369   0.155   5.600 -0.3143  0.1667  2.0516
 2657SOL     OW19603   1.898   0.741  17.359 -0.0693  0.2853  0.0621
 2657SOL    HW119604   1.918   0.715  17.269 -1.9252 -0.0317 -0.2650
 2657SOL    HW219605   1.804   0.746  17.339 -0.0174 -0.2548 -0.3098
 2658SOL     OW19606   1.151   4.418   6.617  0.2186 -0.1850  0.4515
 2658SOL    HW119607   1.166   4.342   6.673 -0.1457 -0.7234 -0.1876
 2658SOL    HW219608   1.200   4.488   6.660  1.0074 -0.2138 -0.3927
 2659SOL     OW19609   3.939   2.069  11.882  0.4766  0.0758 -0.1890
 2659SOL    HW119610   3.860   2.065  11.936 -2.0732 -0.6848 -4.0194
 2659SOL    HW219611   4.010   2.034  11.935  1.5149  0.4768 -1.3169
 2660SOL     OW19612   2.445   4.623  11.782  0.1863  0.1598  0.0746
 2660SOL    HW119613   2.416   4.562  11.714  2.1713  0.6899 -1.2491
 2660SOL    HW219614   2.365   4.669  11.808  0.9022  1.0692  0.6786
 2661SOL     OW19615   4.040   0.753   4.703  0.2754  0.1227 -0.2463
 2661SOL    HW119616   4.011   0.662   4.696 -1.9443  0.7216  1.1756
 2661SOL    HW219617   3.972   0.787   4.644 -0.3674 -2.6305 -1.1359
 2662SOL     OW19618   4.498   1.179  13.585 -0.1283 -0.0440  0.0207
 2662SOL    HW119619   4.531   1.111  13.643 -2.0791 -1.3273 -0.3775
 2662SOL    HW219620   4.473   1.129  13.507  1.9168 -0.4167 -0.4055
 2663SOL     OW19621   2.591   2.324   8.156  0.5082 -0.0054 -0.1895
 2663SOL    HW119622   2.533   2.361   8.223  2.1302  0.9648  0.6856
 2663SOL    HW219623   2.649   2.270   8.209 -1.5226 -0.8407  1.1762
 2664SOL     OW19624   4.199   0.532  15.466  0.1317  0.5514 -0.2634
 2664SOL    HW119625   4.216   0.563  15.377 -0.6698  1.2714 -0.1655
 2664SOL    HW219626   4.288   0.536  15.502  0.1093  2.0365 -0.3580
 2665SOL     OW19627   1.463   0.038   7.344  0.2021  0.0446 -0.6698
 2665SOL    HW119628   1.452   4.721   7.267 -3.5155  0.5587 -0.5144
 2665SOL    HW219629   1.462   0.123   7.300 -0.9151 -0.1436 -0.9917
 2666SOL     OW19630   1.852   4.030   5.459  0.4955  0.2151  0.3224
 2666SOL    HW119631   1.815   4.102   5.410  1.6762  0.9870  0.5642
 2666SOL    HW219632   1.844   3.952   5.404 -0.4868  0.4719  0.1108
 2667SOL     OW19633   4.415   0.933   1.314  0.4047 -0.0526  0.1010
 2667SOL    HW119634   4.399   0.841   1.293 -1.0983  0.3121 -0.3538
 2667SOL    HW219635   4.479   0.952   1.245  2.0891 -0.4943  1.5434
 2668SOL     OW19636   2.398   2.874   2.337  0.4266 -0.1842  0.5323
 2668SOL    HW119637   2.450   2.875   2.418 -2.0429  0.1831  2.1284
 2668SOL    HW219638   2.310   2.883   2.375 -0.1271  0.4648 -0.9017
 2669SOL     OW19639   1.059   2.690   3.407  0.1652  0.3397 -0.1679
 2669SOL    HW119640   1.130   2.753   3.422 -0.7987  1.3748  0.0587
 2669SOL    HW219641   0.988   2.743   3.370  1.0498  1.9617  0.4537
 2670SOL     OW19642   1.817   0.182  12.196  0.0685  0.4242 -0.1086
 2670SOL    HW119643   1.868   0.109  12.230 -3.0892 -1.1357  1.3044
 2670SOL    HW219644   1.882   0.219  12.136 -1.0006  2.4153 -0.0400
 2671SOL     OW19645   2.625   4.349   2.121 -0.2733 -0.3012  0.6719
 2671SOL    HW119646   2.677   4.422   2.086  2.2819 -1.9898  0.9075
 2671SOL    HW219647   2.605   4.398   2.200  0.7988 -2.1920  2.1191
 2672SOL     OW19648   1.169   1.551  14.525 -0.0109 -0.0612  0.5163
 2672SOL    HW119649   1.231   1.480  14.541  0.2557 -0.6734 -3.1522
 2672SOL    HW219650   1.132   1.568  14.612 -0.4409 -0.4218  0.4012
 2673SOL     OW19651   1.517   0.502  17.194 -0.2525  0.3702 -0.2175
 2673SOL    HW119652   1.530   0.593  17.220 -0.9776  0.2353  0.6122
 2673SOL    HW219653   1.590   0.485  17.135 -0.9841  1.3510 -1.4038
 2674SOL     OW19654   0.852   4.246   3.852  0.1487  0.6488  0.0436
 2674SOL    HW119655   0.886   4.204   3.932  1.4408  1.9833  0.1987
 2674SOL    HW219656   0.818   4.166   3.813 -0.2964  0.4276  0.8868
 2675SOL     OW19657   1.275   3.264   4.396  0.4253  0.6877  0.2735
 2675SOL    HW119658   1.363   3.243   4.365  0.0560 -0.6393  0.1268
 2675SOL    HW219659   1.239   3.294   4.312 -1.4821  1.9914  1.5601
 2676SOL     OW19660   2.589   1.089   7.959 -0.4982 -0.1488  0.8433
 2676SOL    HW119661   2.554   1.169   7.918  1.2000 -0.0454 -0.4034
 2676SOL    HW219662   2.664   1.124   8.007  0.1780  0.4690 -0.6698
 2677SOL     OW19663   1.166   3.456   2.403  0.5230  0.3858  0.6328
 2677SOL    HW119664   1.140   3.382   2.457  1.6328 -1.1243 -0.9073
 2677SOL    HW219665   1.112   3.530   2.433 -0.7700 -0.4595  0.4090
 2678SOL     OW19666   2.559   3.389   7.956  0.0348  0.6095  0.2248
 2678SOL    HW119667   2.538   3.298   7.938  2.4153 -0.1792  1.4418
 2678SOL    HW219668   2.600   3.388   8.043  0.4865 -0.1066 -0.0002
 2679SOL     OW19669   1.031   1.321   5.027  0.1251  0.3297 -0.1621
 2679SOL    HW119670   1.061   1.235   4.997 -4.1117 -1.3161  0.3140
 2679SOL    HW219671   1.009   1.365   4.945 -2.0306  2.1999  1.3827
 2680SOL     OW19672   2.611   2.518   5.361 -0.1591 -0.9852 -0.0785
 2680SOL    HW119673   2.590   2.607   5.389 -2.1971 -0.9547 -1.7680
 2680SOL    HW219674   2.685   2.499   5.418  0.2856  0.2551 -0.2497
 2681SOL     OW19675   2.506   1.259   8.206  0.0814 -0.1668  0.1632
 2681SOL    HW119676   2.447   1.287   8.136 -1.1751  0.3152  1.4092
 2681SOL    HW219677   2.587   1.267   8.157 -0.7722 -0.7091 -1.3446
 2682SOL     OW19678   4.676   3.813   5.450  0.0638 -0.3243 -0.8004
 2682SOL    HW119679   4.676   3.728   5.406  1.6082 -0.4376 -0.6070
 2682SOL    HW219680   0.023   3.829   5.490  0.5292 -0.5255 -1.7139
 2683SOL     OW19681   0.473   4.580   8.913 -0.0793 -0.6678  0.1000
 2683SOL    HW119682   0.414   4.572   8.989 -2.7752 -0.2784 -1.9651
 2683SOL    HW219683   0.486   4.490   8.883  1.0933 -0.6168  0.4520
 2684SOL     OW19684   4.003   0.678  14.874 -0.2397  0.4112 -0.2868
 2684SOL    HW119685   3.994   0.683  14.969  1.0042 -1.6057 -0.0623
 2684SOL    HW219686   4.036   0.767  14.858 -1.7397  1.1897  0.8969
 2685SOL     OW19687   1.115   2.767   2.459  0.7258  0.4893  0.7116
 2685SOL    HW119688   1.039   2.742   2.512 -0.2483 -1.7661 -1.7355
 2685SOL    HW219689   1.189   2.778   2.518 -0.5252  0.6075  2.2682
 2686SOL     OW19690   1.109   1.906   3.218 -0.3052 -0.5211 -0.5077
 2686SOL    HW119691   1.096   1.908   3.312 -0.4450 -2.3923 -0.4929
 2686SOL    HW219692   1.063   1.824   3.205 -0.4016 -0.5306 -0.0815
 2687SOL     OW19693   1.851   1.644  13.263  0.0816  0.2969 -0.0589
 2687SOL    HW119694   1.903   1.717  13.228  1.1108 -0.0620  0.7479
 2687SOL    HW219695   1.830   1.692  13.343  0.5412  1.8671 -0.8749
 2688SOL     OW19696   1.954   3.534   7.636  0.0290  0.2174 -0.6423
 2688SOL    HW119697   1.894   3.461   7.650  1.5076 -1.0683 -1.0037
 2688SOL    HW219698   1.907   3.613   7.661 -2.0603 -1.1180 -0.3810
 2689SOL     OW19699   4.627   2.645   5.360  0.0761  0.6606 -0.2863
 2689SOL    HW119700   4.698   2.595   5.321  0.4565  2.1766 -1.4979
 2689SOL    HW219701   4.651   2.652   5.453 -0.1532  0.0935 -0.1813
 2690SOL     OW19702   2.280   2.160  10.800 -0.0316  0.0512 -0.0303
 2690SOL    HW119703   2.260   2.250  10.778 -0.1592 -0.3511 -1.5438
 2690SOL    HW219704   2.214   2.106  10.756 -0.0106  1.0365 -1.2647
 2691SOL     OW19705   3.455   3.964   4.087  0.3827 -0.1319 -0.2271
 2691SOL    HW119706   3.480   4.056   4.092 -2.4517  0.6467 -0.5309
 2691SOL    HW219707   3.431   3.959   3.995 -0.9932  0.1807  0.1053
 2692SOL     OW19708   1.804   2.964   5.458  0.2736 -0.0644  0.0976
 2692SOL    HW119709   1.846   2.880   5.479  1.3774  0.7141  1.0784
 2692SOL    HW219710   1.720   2.932   5.425  0.7372  0.4478 -1.5687
 2693SOL     OW19711   1.157   3.783   9.553 -0.1226 -0.1085 -0.5088
 2693SOL    HW119712   1.100   3.848   9.511  1.3294  2.9594  2.2842
 2693SOL    HW219713   1.245   3.809   9.525  0.0463 -2.3667 -2.0236
 2694SOL     OW19714   4.718   4.553  11.210  0.0384 -0.4560 -0.4726
 2694SOL    HW119715   4.678   4.527  11.127 -0.6042  1.7690 -0.8436
 2694SOL    HW219716   4.633   4.561  11.253 -0.3631 -0.9738 -1.1594
 2695SOL     OW19717   0.174   0.692   3.216  0.1656  0.2032 -0.3203
 2695SOL    HW119718   0.269   0.683   3.225  0.1572  0.3683 -0.0479
 2695SOL    HW219719   0.170   0.788   3.219 -0.4683  0.1087  1.6884
 2696SOL     OW19720   0.333   2.815   0.063 -0.4136 -0.0532  0.1020
 2696SOL    HW119721   0.308   2.723   0.054  0.3446 -0.6304  3.7654
 2696SOL    HW219722   0.363   2.814   0.154 -0.9009  1.4640  0.2841
 2697SOL     OW19723   0.126   0.350  14.382  0.5469 -0.0738  0.0896
 2697SOL    HW119724   0.097   0.259  14.374 -0.2418  0.0046  2.1809
 2697SOL    HW219725   0.048   0.381  14.337  0.4973 -1.5806 -0.8655
 2698SOL     OW19726   3.059   3.716   2.180  0.5004  0.7076 -0.2828
 2698SOL    HW119727   3.128   3.712   2.113 -0.0259 -2.9192 -0.6213
 2698SOL    HW219728   3.068   3.808   2.207  1.3736 -0.1269  2.2566
 2699SOL     OW19729   1.436   1.791   1.714  0.0036  0.3209 -0.2867
 2699SOL    HW119730   1.462   1.843   1.638 -0.5231  3.0475  1.3635
 2699SOL    HW219731   1.340   1.795   1.707 -0.2584 -2.2310  1.8998
 2700SOL     OW19732   1.420   3.221   8.191  0.7427 -0.1436  0.3449
 2700SOL    HW119733   1.343   3.276   8.180 -0.0732 -2.0798 -3.6035
 2700SOL    HW219734   1.441   3.247   8.280 -0.4645 -0.5138  0.7370
 2701SOL     OW19735   1.434   4.368   4.217  0.5315  0.1516  0.1152
 2701SOL    HW119736   1.453   4.302   4.284  0.1414  0.4901  0.5622
 2701SOL    HW219737   1.421   4.447   4.271 -0.5376 -1.2493  1.9146
 2702SOL     OW19738   1.675   4.448   7.587 -0.2735 -0.2451  0.2903
 2702SOL    HW119739   1.769   4.461   7.595 -0.3131 -0.9056  1.8448
 2702SOL    HW219740   1.645   4.508   7.518 -0.3761  1.1531  1.5715
 2703SOL     OW19741   4.553   0.135   0.508 -0.0821 -0.3368 -0.1926
 2703SOL    HW119742   4.459   0.117   0.508 -0.2742  0.5720  1.6195
 2703SOL    HW219743   4.575   0.162   0.598  0.1689  1.0908 -0.6796
 2704SOL     OW19744   4.574   2.578  12.273 -0.1988  0.3457  0.3919
 2704SOL    HW119745   4.488   2.615  12.250 -0.2266 -0.5552 -0.9584
 2704SOL    HW219746   4.632   2.641  12.230  0.2901 -0.2924  0.1273
 2705SOL     OW19747   0.644   1.766   5.785  0.0392  0.4580 -0.0621
 2705SOL    HW119748   0.616   1.712   5.859  0.3780  1.4978  0.8155
 2705SOL    HW219749   0.656   1.845   5.837  0.0663  1.7634 -2.0646
 2706SOL     OW19750   2.328   4.023   8.494  0.8205 -0.1335 -0.3541
 2706SOL    HW119751   2.347   4.022   8.401  1.6006 -3.3697 -0.1583
 2706SOL    HW219752   2.382   4.101   8.512  0.7188 -0.9751  3.7823
 2707SOL     OW19753   0.775   3.001   8.162  0.3476  0.0555  0.1215
 2707SOL    HW119754   0.785   3.095   8.145  2.4534 -0.4104 -1.2736
 2707SOL    HW219755   0.866   2.984   8.137  1.1632  1.7759  1.8359
 2708SOL     OW19756   1.068   3.594   4.614 -0.5758  0.4462  0.0182
 2708SOL    HW119757   1.161   3.569   4.608 -1.2812 -1.8140 -1.4864
 2708SOL    HW219758   1.066   3.624   4.704  0.7502  0.6369 -0.0156
 2709SOL     OW19759   0.217   2.359   4.940 -0.0570 -0.5914  0.3319
 2709SOL    HW119760   0.131   2.317   4.928 -0.7767  0.6096  1.3638
 2709SOL    HW219761   0.256   2.307   5.010  0.0516  1.0000  1.4566
 2710SOL     OW19762   3.278   2.106   0.179 -0.3333 -0.4735 -0.0644
 2710SOL    HW119763   3.222   2.104   0.257 -1.4014 -2.5412 -0.8654
 2710SOL    HW219764   3.328   2.186   0.187 -2.3743  1.0077 -2.0529
 2711SOL     OW19765   1.794   3.466  10.186  0.2548  0.7864 -0.4521
 2711SOL    HW119766   1.864   3.466  10.121  1.1828  3.7131  0.5766
 2711SOL    HW219767   1.760   3.376  10.191  0.2261  0.9226  1.9119
 2712SOL     OW19768   0.134   3.975   2.005  0.6067  0.4170  0.1251
 2712SOL    HW119769   0.211   4.030   1.994  0.6474  0.3163 -0.0886
 2712SOL    HW219770   0.158   3.900   1.951  0.7133 -0.3599  1.2767
 2713SOL     OW19771   1.828   3.806   1.625  0.4511  0.0008  0.6772
 2713SOL    HW119772   1.861   3.832   1.711 -0.5019  0.8201  0.7890
 2713SOL    HW219773   1.854   3.878   1.568 -2.2283  0.1502 -0.3734
 2714SOL     OW19774   1.292   1.485   0.827 -0.0815 -0.1619  0.6290
 2714SOL    HW119775   1.251   1.475   0.741 -0.0125  2.0543  0.3221
 2714SOL    HW219776   1.262   1.572   0.855  1.3604  0.3486  0.6155
 2715SOL     OW19777   0.037   3.337   5.381 -0.1555 -0.6534 -0.1205
 2715SOL    HW119778   0.008   3.262   5.433 -0.3366  0.2761  1.1403
 2715SOL    HW219779   0.131   3.335   5.403 -0.1658 -0.8342 -0.0985
 2716SOL     OW19780   0.250   3.135   2.336  0.1407  0.1715 -0.1753
 2716SOL    HW119781   0.160   3.102   2.346 -0.1555  0.8702 -0.5698
 2716SOL    HW219782   0.281   3.089   2.258 -0.1418 -1.7175  0.8182
 2717SOL     OW19783   0.759   0.231  14.571  0.1603 -0.0537 -0.1634
 2717SOL    HW119784   0.789   0.320  14.588 -0.4203  0.4737 -1.8889
 2717SOL    HW219785   0.711   0.207  14.650  2.2188  1.0154  1.4041
 2718SOL     OW19786   1.016   0.745   8.394 -0.3332 -0.0549  0.1457
 2718SOL    HW119787   1.045   0.705   8.477 -2.3546 -0.9516  0.4194
 2718SOL    HW219788   0.936   0.693   8.389  0.3662 -0.9804 -1.4978
 2719SOL     OW19789   4.205   0.797   7.679 -0.7202 -0.1269 -0.2447
 2719SOL    HW119790   4.288   0.768   7.642 -0.2142 -0.6930  1.3355
 2719SOL    HW219791   4.227   0.888   7.702 -0.8870  0.1119 -1.0110
 2720SOL     OW19792   1.056   4.190  13.791  0.1977  0.2986 -0.4625
 2720SOL    HW119793   1.117   4.146  13.731  2.5564  0.7736  1.6029
 2720SOL    HW219794   1.100   4.274  13.805 -0.1453  0.4390 -0.2466
 2721SOL     OW19795   1.411   0.594   7.703 -0.5076  0.2812  0.9739
 2721SOL    HW119796   1.425   0.526   7.638  0.0837 -0.0180  1.4085
 2721SOL    HW219797   1.489   0.643   7.678  0.1139  0.3384  2.9712
 2722SOL     OW19798   2.964   0.567   8.031  0.0852 -0.4821  0.6396
 2722SOL    HW119799   2.944   0.573   7.938 -2.1101  0.9976  1.1938
 2722SOL    HW219800   2.985   0.474   8.038  1.6180 -0.0929  1.2250
 2723SOL     OW19801   2.803   0.363  12.622  0.6136 -0.3030 -0.1279
 2723SOL    HW119802   2.712   0.359  12.649  0.2980 -0.6134 -1.2646
 2723SOL    HW219803   2.837   0.277  12.648  2.2974  0.3411 -0.1831
 2724SOL     OW19804   2.824   4.688   9.740  0.0311 -0.1897 -0.3486
 2724SOL    HW119805   2.757   4.659   9.802 -0.4131  1.4119 -0.0685
 2724SOL    HW219806   2.881   4.726   9.807  1.1101  0.4819 -1.6478
 2725SOL     OW19807   1.336   2.079   0.351 -0.0930 -0.1067 -0.3808
 2725SOL    HW119808   1.369   1.997   0.314  0.8511  0.0185  0.1813
 2725SOL    HW219809   1.262   2.043   0.400 -0.7861 -0.3491 -1.6143
 2726SOL     OW19810   2.482   2.780  15.491  0.0903 -0.4561  0.0621
 2726SOL    HW119811   2.519   2.834  15.421  2.4643  2.4251  3.5131
 2726SOL    HW219812   2.392   2.774  15.462  0.9553  0.1277 -2.7167
 2727SOL     OW19813   3.980   4.208   4.953  0.3453 -0.3516 -0.3967
 2727SOL    HW119814   3.898   4.173   4.988  0.4666 -0.9718 -0.7441
 2727SOL    HW219815   4.031   4.129   4.938 -1.4550 -1.5163 -0.3968
 2728SOL     OW19816   0.139   3.343   8.949  0.2629 -0.3025 -0.1335
 2728SOL    HW119817   0.108   3.392   8.873  1.4745 -0.3606 -0.6781
 2728SOL    HW219818   0.183   3.271   8.905 -0.7865  0.2516 -2.0727
 2729SOL     OW19819   3.374   0.489   1.426 -0.7124 -0.6003 -0.7389
 2729SOL    HW119820   3.440   0.523   1.366  0.4511 -3.6666 -1.2390
 2729SOL    HW219821   3.306   0.457   1.366 -0.9570  0.3635 -0.9669
 2730SOL     OW19822   2.441   2.536  15.630 -0.4544  0.0266 -0.3157
 2730SOL    HW119823   2.416   2.458  15.580  0.9219 -0.9860  0.6083
 2730SOL    HW219824   2.470   2.599  15.564  0.8170 -0.5160 -0.2667
 2731SOL     OW19825   1.774   1.943  12.153  0.0203  0.1524  0.0363
 2731SOL    HW119826   1.717   2.013  12.121 -0.1070  0.2903  0.5617
 2731SOL    HW219827   1.816   1.991  12.224  0.6620  1.6381 -1.3635
 2732SOL     OW19828   0.400   2.132   7.835  0.0120 -0.5108  0.0968
 2732SOL    HW119829   0.465   2.094   7.775  0.8719 -1.3197  1.5451
 2732SOL    HW219830   0.325   2.141   7.776 -0.5789 -1.2306  0.7514
 2733SOL     OW19831   3.420   1.206  17.392  0.5641  0.0552 -0.3858
 2733SOL    HW119832   3.386   1.279  17.341 -0.1668  0.9589  1.3994
 2733SOL    HW219833   3.463   1.263  17.456 -1.8165  2.3046 -0.7932
 2734SOL     OW19834   2.830   0.944   5.494  0.5403 -0.3683 -0.1431
 2734SOL    HW119835   2.787   0.915   5.574 -0.2640 -0.4537 -0.6061
 2734SOL    HW219836   2.762   0.931   5.428  0.1014  2.5686 -0.2459
 2735SOL     OW19837   4.258   3.885   7.904 -0.0237  0.6211  0.1847
 2735SOL    HW119838   4.171   3.855   7.875  1.0942 -0.7244 -1.7809
 2735SOL    HW219839   4.264   3.979   7.890  0.3522  0.5744  0.0515
 2736SOL     OW19840   1.695   0.470  10.949 -0.0936  0.2478 -0.2212
 2736SOL    HW119841   1.752   0.443  10.876  1.0335 -0.1208  0.8041
 2736SOL    HW219842   1.749   0.469  11.028  0.5171 -1.4215 -0.6508
 2737SOL     OW19843   3.674   1.024   2.591  0.1529  0.3874 -0.1261
 2737SOL    HW119844   3.759   1.054   2.625  0.3621 -2.1276  1.6210
 2737SOL    HW219845   3.649   0.973   2.668 -0.1793  0.6587 -0.0544
 2738SOL     OW19846   1.924   0.849  10.292  0.7305 -0.2671  0.2849
 2738SOL    HW119847   1.855   0.910  10.318  1.4597  1.0589 -0.8672
 2738SOL    HW219848   2.005   0.899  10.287  0.6467 -0.1747 -0.1687
 2739SOL     OW19849   0.319   4.035   8.946 -0.2388 -0.1440 -0.6449
 2739SOL    HW119850   0.243   3.983   8.919 -0.8964 -0.2316  1.3740
 2739SOL    HW219851   0.292   4.122   8.916  0.6117  0.8193  1.4143
 2740SOL     OW19852   1.116   3.056   2.113 -0.5043 -0.6318 -0.1050
 2740SOL    HW119853   1.056   3.114   2.160 -3.2479 -3.9369  0.4832
 2740SOL    HW219854   1.077   2.973   2.140 -0.0398 -1.6201 -2.4767
 2741SOL     OW19855   2.855   0.198   0.000  0.0366 -0.6167  0.5893
 2741SOL    HW119856   2.796   0.125   0.018 -0.0821 -0.0152  2.7528
 2741SOL    HW219857   2.912   0.164  17.687  0.1696  0.4666  0.1507
 2742SOL     OW19858   2.743   2.375   1.230  0.0150 -0.2563  0.9045
 2742SOL    HW119859   2.816   2.437   1.235 -0.1642 -0.2537  3.4276
 2742SOL    HW219860   2.693   2.428   1.168 -0.3733  0.3110  1.7020
 2743SOL     OW19861   3.767   3.803   6.254  0.4276  0.2165 -0.5508
 2743SOL    HW119862   3.773   3.773   6.163  0.7817  1.3228 -0.8918
 2743SOL    HW219863   3.752   3.898   6.251  1.1646  0.3422 -0.1717
 2744SOL     OW19864   2.806   4.380   2.534 -0.4143 -0.0532  0.3403
 2744SOL    HW119865   2.735   4.444   2.539 -2.2749 -2.0448 -0.7152
 2744SOL    HW219866   2.842   4.393   2.622  2.5426 -2.2142 -0.5730
 2745SOL     OW19867   3.752   1.453   6.426 -0.2887 -0.4718 -0.0054
 2745SOL    HW119868   3.690   1.503   6.479  0.4719 -0.2536  0.6700
 2745SOL    HW219869   3.754   1.380   6.488 -0.5412 -1.4947 -1.1928
 2746SOL     OW19870   0.975   1.273  16.028 -0.5249  0.0632 -0.4411
 2746SOL    HW119871   0.994   1.342  16.091 -1.6230  1.1026 -1.2275
 2746SOL    HW219872   0.891   1.245  16.065 -0.4459 -2.2551 -2.0459
 2747SOL     OW19873   1.959   3.603   2.782 -0.3212  0.1614  0.3107
 2747SOL    HW119874   1.994   3.690   2.801  0.1188  0.4704 -1.8972
 2747SOL    HW219875   2.021   3.571   2.716 -0.7450  1.3715 -0.6676
 2748SOL     OW19876   1.831   3.812  16.611 -0.3386  0.3332 -0.2168
 2748SOL    HW119877   1.740   3.824  16.635  0.2735  1.8349  1.2935
 2748SOL    HW219878   1.830   3.717  16.600  2.6877  0.3973 -1.2509
 2749SOL     OW19879   0.768   4.350   3.416 -0.1049  0.5142  0.0773
 2749SOL    HW119880   0.718   4.346   3.334  0.0848 -0.5841  0.0188
 2749SOL    HW219881   0.849   4.304   3.391 -0.6746 -0.1366 -0.5637
 2750SOL     OW19882   0.945   0.378  11.385  0.0647 -0.3709 -0.0727
 2750SOL    HW119883   1.023   0.367  11.440  0.7771 -0.3873 -1.0956
 2750SOL    HW219884   0.921   0.470  11.398  0.5366 -0.4206  1.1740
 2751SOL     OW19885   3.130   1.549   0.625  0.0228 -0.3272 -0.4262
 2751SOL    HW119886   3.061   1.563   0.559  0.4011  2.0637 -0.3185
 2751SOL    HW219887   3.169   1.471   0.586  0.4386  0.6750 -2.0134
 2752SOL     OW19888   4.513   1.581   7.281  0.2313  0.0532  0.1834
 2752SOL    HW119889   4.512   1.656   7.340 -0.4670  0.8272 -0.8148
 2752SOL    HW219890   4.593   1.596   7.231 -0.7919 -0.1063 -1.4981
 2753SOL     OW19891   2.408   0.883  10.261  0.4577  0.1045  0.0225
 2753SOL    HW119892   2.497   0.907  10.288  1.0677 -1.6979 -0.3747
 2753SOL    HW219893   2.427   0.850  10.174 -1.1576  2.1760 -1.1320
 2754SOL     OW19894   1.665   2.013   8.057 -0.0663 -0.1631  1.0534
 2754SOL    HW119895   1.668   2.096   8.009  0.5790  0.2632  1.8207
 2754SOL    HW219896   1.575   1.985   8.042 -0.8377  2.6121  0.3868
 2755SOL     OW19897   0.589   2.440   9.020  0.2116 -0.0253 -0.3624
 2755SOL    HW119898   0.609   2.520   9.070  1.7585  0.3508 -1.5674
 2755SOL    HW219899   0.655   2.378   9.052 -1.7769 -2.8203 -1.6832
 2756SOL     OW19900   2.635   3.830   5.635  0.4842  0.2732  0.3289
 2756SOL    HW119901   2.634   3.810   5.541 -0.6631  2.1448 -0.0632
 2756SOL    HW219902   2.706   3.893   5.641  0.1824  0.6699 -0.1989
 2757SOL     OW19903   2.688   3.806   6.399 -0.2097  0.0286  0.2344
 2757SOL    HW119904   2.628   3.733   6.411 -0.9253  0.6157  0.2574
 2757SOL    HW219905   2.752   3.770   6.338  1.8158  1.0543  1.7486
 2758SOL     OW19906   0.358   1.536   6.653 -0.6359  0.1420  0.3144
 2758SOL    HW119907   0.428   1.601   6.661 -1.1231  0.6668  0.3211
 2758SOL    HW219908   0.356   1.543   6.557  0.5650  0.4767  0.3170
 2759SOL     OW19909   0.317   3.132  16.640  0.2296  0.1529  0.3638
 2759SOL    HW119910   0.248   3.071  16.613  1.1944 -1.0725  0.6620
 2759SOL    HW219911   0.331   3.165  16.551 -2.8748 -0.0246 -0.2167
 2760SOL     OW19912   2.424   2.529  12.453 -0.3341 -0.0810 -0.0858
 2760SOL    HW119913   2.446   2.597  12.516 -0.0093  0.2275 -0.5288
 2760SOL    HW219914   2.507   2.485  12.438 -1.2991 -2.0836  0.4909
 2761SOL     OW19915   4.728   3.036   4.209 -0.0566 -0.3015  1.0906
 2761SOL    HW119916   4.736   2.995   4.123 -0.5234  1.0447  0.4009
 2761SOL    HW219917   4.636   3.062   4.212 -0.4018 -1.4375  0.1577
 2762SOL     OW19918   4.590   1.884   8.167  0.6507 -0.0124  0.1576
 2762SOL    HW119919   4.569   1.924   8.251 -2.5655 -2.5746  0.5461
 2762SOL    HW219920   4.508   1.857   8.126  0.2632  0.9198  0.3100
 2763SOL     OW19921   0.526   0.046   6.097  0.0205 -0.2081 -0.4136
 2763SOL    HW119922   0.549   0.100   6.021  0.8646 -0.1666 -0.1335
 2763SOL    HW219923   0.583   4.709   6.096  1.6999  1.0252  0.3257
 2764SOL     OW19924   0.045   2.536   4.078  0.1408  0.1050 -0.6277
 2764SOL    HW119925   4.725   2.498   4.144  2.1081  0.3580  1.2972
 2764SOL    HW219926   0.070   2.613   4.129  0.0846 -0.7126  0.6399
 2765SOL     OW19927   2.008   1.575   8.203 -0.4906  0.3364 -0.1139
 2765SOL    HW119928   1.978   1.488   8.175  0.1913  0.1995 -0.4248
 2765SOL    HW219929   1.916   1.599   8.216 -1.0403 -0.7591 -1.9153
 2766SOL     OW19930   0.784   2.595   6.409  0.0264  0.2409  0.3136
 2766SOL    HW119931   0.809   2.587   6.317  1.2940 -1.6127  0.8160
 2766SOL    HW219932   0.842   2.530   6.448  0.5442  0.4358 -0.1307
 2767SOL     OW19933   1.915   0.005  10.146  0.4945 -0.0541 -0.9322
 2767SOL    HW119934   1.967   0.019  10.066  1.6894 -0.9449 -0.3087
 2767SOL    HW219935   1.958   0.072  10.200  0.0834 -0.9677  0.5025
 2768SOL     OW19936   2.713   0.549   5.380  0.1180  0.2358  0.1922
 2768SOL    HW119937   2.775   0.566   5.309  1.7385  0.8579  1.7526
 2768SOL    HW219938   2.699   0.627   5.433 -2.0446 -0.5186  0.7589
 2769SOL     OW19939   2.280   3.992   6.493 -0.3401  0.2730  0.4623
 2769SOL    HW119940   2.269   3.999   6.399 -0.9907  1.6396  0.6372
 2769SOL    HW219941   2.264   3.898   6.503  1.9820 -0.3446 -1.8262
 2770SOL     OW19942   3.060   2.798   7.890 -0.2897  0.0235 -0.1114
 2770SOL    HW119943   3.098   2.795   7.802 -1.5463  1.3061 -0.6829
 2770SOL    HW219944   3.087   2.709   7.914 -1.2469 -0.1902  0.1564
 2771SOL     OW19945   1.840   1.748  13.641  0.2020 -0.3046  0.6269
 2771SOL    HW119946   1.882   1.714  13.720  0.1207  0.8409  1.1609
 2771SOL    HW219947   1.801   1.666  13.612 -1.8530 -0.0939  2.7607
 2772SOL     OW19948   2.683   0.713   5.602 -0.4422 -0.7186 -0.0101
 2772SOL    HW119949   2.591   0.687   5.594 -1.0459  2.0616 -2.1446
 2772SOL    HW219950   2.682   0.795   5.652  0.7657  0.0048 -1.1900
 2773SOL     OW19951   0.781   0.325   7.962 -0.2149  0.0530  0.3670
 2773SOL    HW119952   0.770   0.419   7.946  2.6635  0.3029  0.0026
 2773SOL    HW219953   0.763   0.282   7.878  0.2030 -1.7494  1.2151
 2774SOL     OW19954   3.929   3.747   4.996  0.1039  0.2766 -0.1460
 2774SOL    HW119955   3.845   3.718   4.961  1.6573 -2.4620 -1.6327
 2774SOL    HW219956   3.899   3.782   5.079 -0.3903  1.9689 -1.0476
 2775SOL     OW19957   1.779   3.906   8.801  0.0165  0.3891 -0.2201
 2775SOL    HW119958   1.710   3.843   8.820 -0.1162  0.6434  0.1353
 2775SOL    HW219959   1.810   3.926   8.889 -1.9749  0.5549  0.4372
 2776SOL     OW19960   2.522   0.377   9.120  0.1259  0.5201 -0.2529
 2776SOL    HW119961   2.533   0.430   9.199  1.6329 -0.4973  0.2062
 2776SOL    HW219962   2.600   0.403   9.071 -0.0122 -0.8045 -1.1673
 2777SOL     OW19963   2.562   1.807  12.430  0.0625  0.3752  0.3082
 2777SOL    HW119964   2.470   1.830  12.434 -0.2705 -0.8505 -0.5319
 2777SOL    HW219965   2.572   1.778  12.340 -2.2888 -1.8961  0.7895
 2778SOL     OW19966   1.345   0.781   9.262 -0.3081 -0.0768 -0.1850
 2778SOL    HW119967   1.322   0.688   9.270  0.0803 -0.1578 -0.0125
 2778SOL    HW219968   1.414   0.791   9.327 -0.3583  0.5348 -0.2298
 2779SOL     OW19969   3.597   4.196   2.428 -0.0365 -0.7499  0.2993
 2779SOL    HW119970   3.553   4.132   2.373  3.5270  0.0079 -3.4093
 2779SOL    HW219971   3.535   4.223   2.496  1.5043  2.9418  0.2446
 2780SOL     OW19972   0.073   2.560   2.468  0.3991 -0.0062  0.5980
 2780SOL    HW119973   0.082   2.546   2.373  0.6313  1.2056  0.4481
 2780SOL    HW219974   0.051   2.470   2.493  2.0685 -0.2819  1.1262
 2781SOL     OW19975   4.640   3.083   3.147 -0.2655 -0.0386 -0.7266
 2781SOL    HW119976   4.675   2.995   3.128  0.7845  0.0766  0.7353
 2781SOL    HW219977   4.568   3.063   3.207 -1.0458  2.1228 -0.9433
 2782SOL     OW19978   4.147   1.087   4.549  0.2633  0.2400 -0.1714
 2782SOL    HW119979   4.059   1.080   4.587  0.1722 -0.1384 -0.4455
 2782SOL    HW219980   4.126   1.039   4.469  0.4180 -0.5061  0.2360
 2783SOL     OW19981   2.662   0.993   5.994  0.5013 -0.3193 -0.7493
 2783SOL    HW119982   2.696   1.082   5.995  2.8256 -1.1858 -1.5475
 2783SOL    HW219983   2.713   0.958   6.067 -1.2638  0.5079  0.8703
 2784SOL     OW19984   1.812   0.181   6.595  0.0509  0.3068 -0.3751
 2784SOL    HW119985   1.731   0.186   6.646 -0.7867  0.1408 -1.6835
 2784SOL    HW219986   1.855   0.259   6.629  0.7327  0.7651 -2.2967
 2785SOL     OW19987   2.684   0.267   2.321 -0.6103 -0.3170 -0.2488
 2785SOL    HW119988   2.778   0.259   2.305 -0.8161  0.7943 -1.9600
 2785SOL    HW219989   2.677   0.362   2.315 -2.7940 -0.4049  0.7912
 2786SOL     OW19990   4.199   0.768   9.178  0.0205  0.4984 -0.2180
 2786SOL    HW119991   4.293   0.783   9.163  0.0234  1.4791  0.8015
 2786SOL    HW219992   4.174   0.778   9.086  0.2296  4.5963  0.1733
 2787SOL     OW19993   0.881   0.366   1.284  0.2094 -0.2860  0.2938
 2787SOL    HW119994   0.828   0.292   1.316 -0.8845 -0.0908 -1.0524
 2787SOL    HW219995   0.818   0.436   1.302 -0.2174 -0.9763  1.5260
 2788SOL     OW19996   0.449   4.089  14.884  0.1484 -0.3501  0.2885
 2788SOL    HW119997   0.450   4.161  14.947 -0.2746  1.7520 -2.1019
 2788SOL    HW219998   0.438   4.136  14.802 -1.4351 -0.1378  0.6320
 2789SOL     OW19999   1.115   2.260  15.081 -0.2072  0.1185  0.0597
 2789SOL    HW120000   1.121   2.173  15.120 -0.5495 -0.9521 -2.2908
 2789SOL    HW220001   1.021   2.270  15.069 -0.8130 -3.3516  2.0129
 2790SOL     OW20002   3.939   1.233   3.220  0.0965 -0.1109 -0.0205
 2790SOL    HW120003   3.880   1.222   3.295 -0.4413 -2.4135 -0.7900
 2790SOL    HW220004   3.965   1.143   3.203  0.6192  0.4314 -2.0355
 2791SOL     OW20005   1.140   1.727   2.550  0.4036  0.6413 -0.2339
 2791SOL    HW120006   1.146   1.781   2.471 -3.0883 -0.1633 -1.0519
 2791SOL    HW220007   1.048   1.730   2.575  1.2372  1.3555  2.7781
 2792SOL     OW20008   0.012   3.147   9.959 -0.1565  0.0577 -0.0671
 2792SOL    HW120009   0.084   3.091   9.988 -0.3736 -1.4955 -2.4757
 2792SOL    HW220010   0.044   3.179   9.874  1.0933 -1.9375 -0.3521
 2793SOL     OW20011   3.719   3.934  13.659  0.0240  0.6710  0.0062
 2793SOL    HW120012   3.757   3.898  13.739 -2.1555  0.0759  0.7662
 2793SOL    HW220013   3.637   3.885  13.661 -0.2625  1.0987 -1.8382
 2794SOL     OW20014   0.621   0.811   9.180 -0.3599 -0.3298 -0.0675
 2794SOL    HW120015   0.550   0.876   9.180 -3.0063 -3.2560 -0.1747
 2794SOL    HW220016   0.651   0.829   9.091 -0.1540  1.5586  0.3821
 2795SOL     OW20017   4.723   0.346   9.455  0.3472  0.2562 -0.1101
 2795SOL    HW120018   4.706   0.435   9.486 -0.3074 -0.7518  2.4628
 2795SOL    HW220019   0.025   0.353   9.369 -1.2523 -1.1712 -1.0028
 2796SOL     OW20020   1.844   3.802   6.831 -0.2950  0.1915 -0.0040
 2796SOL    HW120021   1.919   3.756   6.871  0.8096  1.6326 -0.4214
 2796SOL    HW220022   1.875   3.846   6.752 -0.4438  1.5289  0.6852
 2797SOL     OW20023   1.316   0.248   6.897 -0.0864 -0.1158  0.1116
 2797SOL    HW120024   1.274   0.198   6.827 -0.9668 -0.5323  0.9366
 2797SOL    HW220025   1.387   0.278   6.840  0.3226 -2.3076 -0.5048
 2798SOL     OW20026   4.561   2.247   1.915  0.3917  0.4028  0.0178
 2798SOL    HW120027   4.546   2.156   1.889 -1.1653  1.0669 -1.4132
 2798SOL    HW220028   4.591   2.243   2.006  0.2485 -0.7643  0.0176
 2799SOL     OW20029   2.773   3.519   3.749 -0.0123 -0.2531  0.1800
 2799SOL    HW120030   2.746   3.516   3.841  0.5817 -2.1907  0.3044
 2799SOL    HW220031   2.838   3.448   3.741 -0.5960 -0.8279  0.5090
 2800SOL     OW20032   0.635   1.297   6.824 -0.1400  0.9509  0.3242
 2800SOL    HW120033   0.663   1.277   6.913 -0.0387 -1.6943 -0.2934
 2800SOL    HW220034   0.572   1.368   6.840 -0.0932  1.0122  0.2313
 2801SOL     OW20035   4.538   1.922   5.475 -0.3223  0.6651 -0.2970
 2801SOL    HW120036   4.509   1.833   5.456  0.7615  0.0644  0.8970
 2801SOL    HW220037   4.502   1.930   5.564  0.0292 -0.3849 -0.0697
 2802SOL     OW20038   1.196   0.539   2.048  0.5080  0.5065  0.2446
 2802SOL    HW120039   1.119   0.551   1.993 -0.0841 -0.2666  0.9107
 2802SOL    HW220040   1.214   0.633   2.061  1.7683  0.5879 -2.1004
 2803SOL     OW20041   2.066   1.582  10.808 -0.1891  0.3388 -0.0604
 2803SOL    HW120042   2.021   1.498  10.807 -0.0819  0.3029 -1.7863
 2803SOL    HW220043   2.149   1.559  10.850 -1.0579 -0.7016  1.0911
 2804SOL     OW20044   3.706   3.654  17.577  0.2181 -0.0863 -0.1795
 2804SOL    HW120045   3.739   3.624  17.493 -0.7081  5.1530 -2.4061
 2804SOL    HW220046   3.774   3.716  17.605  1.3466 -0.4107 -2.1780
 2805SOL     OW20047   4.577   4.273  11.509 -0.0578 -0.4024 -0.1473
 2805SOL    HW120048   4.575   4.253  11.415 -1.0609 -1.5685  0.1143
 2805SOL    HW220049   4.661   4.249  11.548  0.6011  2.5557  0.2631
 2806SOL     OW20050   1.502   1.737   8.749 -0.3558 -0.0237 -1.0288
 2806SOL    HW120051   1.579   1.701   8.792 -0.3247  0.6684 -0.5008
 2806SOL    HW220052   1.455   1.746   8.832  3.1005 -0.8978  0.9942
 2807SOL     OW20053   0.762   4.670  13.411 -0.2413 -0.2413 -0.1699
 2807SOL    HW120054   0.721   4.622  13.483 -0.5648 -0.4295 -0.4774
 2807SOL    HW220055   0.728   0.020  13.422 -1.1146 -0.6051  0.0631
 2808SOL     OW20056   3.904   3.822  17.649 -0.4345 -0.4201 -0.1611
 2808SOL    HW120057   3.954   3.900  17.626  0.6895 -1.2799 -0.6195
 2808SOL    HW220058   3.971   3.770  17.692 -1.3265 -2.2262 -0.9693
 2809SOL     OW20059   0.898   3.843  13.850  0.1278 -0.1888  0.0724
 2809SOL    HW120060   0.907   3.831  13.944 -1.9054  1.9804  0.5448
 2809SOL    HW220061   0.833   3.778  13.823 -0.0755 -0.5504  1.4285
 2810SOL     OW20062   1.411   0.127   7.600 -0.1671 -0.1431 -0.5421
 2810SOL    HW120063   1.414   0.107   7.507  0.5239 -0.2496 -0.4946
 2810SOL    HW220064   1.324   0.165   7.615  0.3801  0.6085  0.7386
 2811SOL     OW20065   3.484   1.574   9.579  0.0625 -0.1601 -0.2669
 2811SOL    HW120066   3.554   1.515   9.550 -0.2796  0.5398 -2.4306
 2811SOL    HW220067   3.517   1.622   9.655 -0.6203 -1.9182  1.1537
 2812SOL     OW20068   0.685   0.305   0.822 -0.1906  0.5047 -0.0732
 2812SOL    HW120069   0.746   0.231   0.824 -1.8862 -0.9261 -0.7701
 2812SOL    HW220070   0.738   0.368   0.869 -0.9825  0.7700  0.4678
 2813SOL     OW20071   1.911   0.237  16.826  0.3605  0.1210  0.5963
 2813SOL    HW120072   1.870   0.161  16.867  1.5602 -0.7118  0.2569
 2813SOL    HW220073   1.904   0.221  16.732 -0.6923  0.1373  0.6651
 2814SOL     OW20074   2.685   4.250   5.828  0.1111 -0.2704 -0.0931
 2814SOL    HW120075   2.627   4.270   5.754 -0.1933  2.8653  0.9935
 2814SOL    HW220076   2.643   4.276   5.910 -1.0621 -0.4335 -0.6500
 2815SOL     OW20077   0.581   0.438   6.397 -0.1674 -0.2185  0.0002
 2815SOL    HW120078   0.530   0.508   6.438 -0.9700 -0.6413 -0.2634
 2815SOL    HW220079   0.515   0.369   6.405 -0.3483  0.3085  2.8026
 2816SOL     OW20080   3.636   1.735   8.129 -0.1835  0.5518 -0.2296
 2816SOL    HW120081   3.605   1.652   8.165  1.6551  0.1297  0.4164
 2816SOL    HW220082   3.551   1.778   8.125 -2.8990 -4.8036 -0.3513
 2817SOL     OW20083   4.347   1.395   7.395 -0.5944 -0.1176  0.1105
 2817SOL    HW120084   4.351   1.448   7.474  2.8537 -2.0851  1.2732
 2817SOL    HW220085   4.392   1.456   7.335 -1.0620 -0.9252 -1.0583
 2818SOL     OW20086   1.730   1.648   8.253 -0.1314 -0.1808  0.7006
 2818SOL    HW120087   1.725   1.720   8.315 -0.2335 -0.7862  1.3896
 2818SOL    HW220088   1.679   1.681   8.178 -0.5227  0.5078  1.2731
 2819SOL     OW20089   3.503   1.014   4.979  0.4576 -0.1582  0.0351
 2819SOL    HW120090   3.548   1.087   4.935 -2.3441  2.1943  1.0648
 2819SOL    HW220091   3.540   0.937   4.937  1.9033 -0.0547  1.1088
 2820SOL     OW20092   2.358   0.470   3.192 -0.1356 -0.2415 -0.8117
 2820SOL    HW120093   2.391   0.391   3.151  0.0807 -0.1360 -0.8412
 2820SOL    HW220094   2.435   0.525   3.206 -0.9812  1.2263 -1.9022
 2821SOL     OW20095   0.570   4.694   2.705  0.1734 -0.4255 -0.1220
 2821SOL    HW120096   0.570   0.039   2.752  2.1370 -0.0886 -0.7294
 2821SOL    HW220097   0.568   4.713   2.612  0.9778  1.9274  0.3426
 2822SOL     OW20098   2.386   4.618   4.393  0.0022  0.6182  0.2361
 2822SOL    HW120099   2.304   4.585   4.356 -0.6996 -0.9928  3.2905
 2822SOL    HW220100   2.370   4.713   4.395 -1.5068  0.4116 -1.0422
 2823SOL     OW20101   3.503   3.198   6.268  0.1058 -0.0007 -0.1232
 2823SOL    HW120102   3.413   3.178   6.243  0.5246 -0.7232 -1.0613
 2823SOL    HW220103   3.512   3.185   6.362 -1.0127  1.5340  0.1870
 2824SOL     OW20104   4.166   0.093  17.564 -0.5994  0.4998  0.2264
 2824SOL    HW120105   4.101   0.156  17.536 -2.1893 -1.1509  0.2372
 2824SOL    HW220106   4.224   0.142  17.623  0.2825 -0.4017  0.1150
 2825SOL     OW20107   0.945   1.942  11.737  0.0090  0.0042 -0.4249
 2825SOL    HW120108   1.010   1.896  11.685 -0.8370 -0.8798 -0.7008
 2825SOL    HW220109   0.864   1.913  11.693 -1.6445  2.6658  0.8073
 2826SOL     OW20110   0.753   3.029   5.555 -0.4583  0.2158  0.1659
 2826SOL    HW120111   0.677   3.086   5.572 -1.4093 -0.4287 -1.8342
 2826SOL    HW220112   0.806   3.089   5.503  0.5286 -1.4277 -0.7061
 2827SOL     OW20113   1.841   4.255   4.538  0.3238  1.1601 -0.5565
 2827SOL    HW120114   1.856   4.295   4.624  0.1567 -3.1513  1.5030
 2827SOL    HW220115   1.776   4.318   4.507 -0.6894 -0.1458 -1.1145
 2828SOL     OW20116   0.419   2.677   2.135  0.5096 -0.3047 -0.2444
 2828SOL    HW120117   0.389   2.701   2.048 -0.8224  0.4854  0.4323
 2828SOL    HW220118   0.344   2.633   2.173 -0.4573 -0.2933 -2.1593
 2829SOL     OW20119   4.633   3.967   1.363  0.1612  0.5218  0.1916
 2829SOL    HW120120   4.577   4.017   1.304  1.5315  1.5117 -0.2756
 2829SOL    HW220121   4.586   3.886   1.384 -1.7889  2.2402  2.3539
 2830SOL     OW20122   0.958   3.611   6.131 -0.5374 -0.0387 -0.6740
 2830SOL    HW120123   0.862   3.606   6.139 -0.4499 -0.8084 -0.1349
 2830SOL    HW220124   0.965   3.553   6.056 -0.6430 -0.1982 -0.5615
 2831SOL     OW20125   4.601   0.790   8.689  0.6748 -0.3255 -0.1537
 2831SOL    HW120126   4.687   0.826   8.667  1.0699 -0.5649  0.9697
 2831SOL    HW220127   4.582   0.769   8.598 -0.7156 -1.9321  0.5077
 2832SOL     OW20128   1.089   0.366   8.454 -0.2899  0.2665 -0.0024
 2832SOL    HW120129   0.998   0.394   8.466 -0.1690  1.3848 -1.8048
 2832SOL    HW220130   1.114   0.403   8.369  0.9478  0.6699  0.5370
 2833SOL     OW20131   3.207   4.193  15.227 -0.2794  0.2674  0.2800
 2833SOL    HW120132   3.138   4.129  15.211 -1.2282  1.2542  0.3792
 2833SOL    HW220133   3.278   4.165  15.170 -1.1922 -1.0614 -0.1976
 2834SOL     OW20134   0.216   0.953   4.402 -0.0308  0.6853  0.7145
 2834SOL    HW120135   0.193   0.905   4.322  1.0398  1.6216 -0.1561
 2834SOL    HW220136   0.267   1.024   4.364  2.7972 -1.4639  0.4159
 2835SOL     OW20137   2.621   2.715   3.884  0.3015  0.1079 -0.1535
 2835SOL    HW120138   2.627   2.745   3.974 -0.5063 -0.1576 -0.0097
 2835SOL    HW220139   2.683   2.769   3.834 -0.3908  0.0251 -1.1109
 2836SOL     OW20140   2.327   2.641   2.823 -0.6428 -0.1769  0.2230
 2836SOL    HW120141   2.354   2.614   2.735  1.8129 -0.7956  1.1592
 2836SOL    HW220142   2.319   2.555   2.865  0.3477 -0.4215 -0.0786
 2837SOL     OW20143   3.597   3.841   4.624 -0.1828  0.3820 -0.1405
 2837SOL    HW120144   3.597   3.848   4.719  0.0507  0.0765 -0.1177
 2837SOL    HW220145   3.513   3.881   4.600 -0.9588 -0.8940  0.4088
 2838SOL     OW20146   4.554   4.520   3.932  0.3363 -0.2004  0.2634
 2838SOL    HW120147   4.486   4.581   3.961  2.2422  1.9225  0.2852
 2838SOL    HW220148   4.609   4.589   3.895 -1.0773  1.1528  0.7176
 2839SOL     OW20149   0.635   2.378   5.177  0.3079  0.1226  0.4336
 2839SOL    HW120150   0.662   2.299   5.224 -0.5012  0.4979  1.5291
 2839SOL    HW220151   0.557   2.341   5.136  0.4803 -1.3730  1.4554
 2840SOL     OW20152   1.829   4.384   1.369 -0.0207 -0.0362 -0.4138
 2840SOL    HW120153   1.870   4.448   1.427 -0.3767  1.3897 -1.7375
 2840SOL    HW220154   1.741   4.419   1.354 -0.6279 -1.8229 -1.0578
 2841SOL     OW20155   3.760   3.122   6.481  0.0697  0.3131 -0.7223
 2841SOL    HW120156   3.687   3.060   6.479 -0.7319  1.0334  4.4524
 2841SOL    HW220157   3.826   3.069   6.435  0.0344  0.4742 -0.9583
 2842SOL     OW20158   1.825   0.935   1.384 -0.0757 -0.2393  0.3579
 2842SOL    HW120159   1.791   0.904   1.468  1.5952 -0.8869  0.7889
 2842SOL    HW220160   1.920   0.929   1.397  0.1045 -1.7530 -1.4921
 2843SOL     OW20161   1.325   3.749   5.292 -0.3142 -0.0898  0.0662
 2843SOL    HW120162   1.343   3.807   5.366  2.7644 -1.8501  0.6641
 2843SOL    HW220163   1.343   3.664   5.332  3.2594  1.8467  2.5089
 2844SOL     OW20164   4.419   0.543   5.720  0.2394 -0.4235 -0.6806
 2844SOL    HW120165   4.343   0.550   5.778  1.6616  2.0851  0.8577
 2844SOL    HW220166   4.454   0.630   5.739 -2.5730  0.3868  0.8443
 2845SOL     OW20167   3.446   0.628  10.054 -0.5079  0.0732  0.2654
 2845SOL    HW120168   3.379   0.686  10.018 -0.0545 -0.3689 -1.3169
 2845SOL    HW220169   3.524   0.658  10.006 -0.5049  0.6603  0.6347
 2846SOL     OW20170   1.055   2.373   9.755  0.8659  0.2460 -0.0463
 2846SOL    HW120171   1.049   2.468   9.741  0.9773  0.1992 -0.4098
 2846SOL    HW220172   1.030   2.372   9.847 -2.0901  0.7990 -0.8278
 2847SOL     OW20173   4.454   4.506  15.561  0.5453 -0.2523 -0.0798
 2847SOL    HW120174   4.365   4.504  15.595  1.2406 -0.9955  1.7450
 2847SOL    HW220175   4.492   4.501  15.649  0.4791  1.0068  0.0189
 2848SOL     OW20176   3.201   3.808  13.837 -0.2191 -0.2991  0.4106
 2848SOL    HW120177   3.192   3.793  13.743 -1.9637  2.3287  0.1581
 2848SOL    HW220178   3.108   3.802  13.858  0.0438  0.1386  1.7129
 2849SOL     OW20179   1.973   4.302   4.967  0.5193 -0.3099 -0.2866
 2849SOL    HW120180   2.023   4.311   4.886  1.0182 -0.5632 -0.0055
 2849SOL    HW220181   1.917   4.232   4.935  0.0559 -0.1213  0.0943
 2850SOL     OW20182   3.967   3.582   3.501  0.3128  0.3436  0.1265
 2850SOL    HW120183   3.901   3.650   3.491  0.6004  0.4517 -1.0330
 2850SOL    HW220184   4.027   3.606   3.430 -0.9605 -1.1908 -1.4693
 2851SOL     OW20185   1.417   3.260   3.084  0.0276 -0.2475  0.6296
 2851SOL    HW120186   1.410   3.333   3.146 -3.5711 -0.1510  0.1083
 2851SOL    HW220187   1.383   3.187   3.136  0.5076 -2.8323 -2.6459
 2852SOL     OW20188   1.221   2.537   7.706  0.2347  0.4510 -0.2230
 2852SOL    HW120189   1.315   2.516   7.709  0.5898  1.8067 -1.3751
 2852SOL    HW220190   1.201   2.495   7.622 -0.9297  2.0380 -0.7461
 2853SOL     OW20191   2.919   4.498   2.338 -0.0693 -0.5884  0.1637
 2853SOL    HW120192   2.843   4.536   2.294  1.2820  1.3990 -0.4679
 2853SOL    HW220193   2.878   4.447   2.408 -0.4806  0.7372  0.8901
 2854SOL     OW20194   1.827   2.636  12.069  0.3511 -0.1321  0.2079
 2854SOL    HW120195   1.916   2.660  12.043  0.6878  1.8386  3.2452
 2854SOL    HW220196   1.781   2.689  12.003 -1.3061 -1.3093  0.4262
 2855SOL     OW20197   0.068   4.454   8.966  0.0881  0.1701 -0.1584
 2855SOL    HW120198   4.738   4.400   9.005 -0.4890 -1.5192 -3.4748
 2855SOL    HW220199   0.021   4.514   8.908  1.2810 -0.1325 -1.4506
 2856SOL     OW20200   2.493   2.301   4.356  0.3397 -0.4759  0.6725
 2856SOL    HW120201   2.482   2.248   4.435 -0.1402 -1.2974  0.0558
 2856SOL    HW220202   2.488   2.387   4.398  0.5335  0.1142 -0.5166
 2857SOL     OW20203   0.266   1.831  17.551  0.0193 -0.4643  0.0826
 2857SOL    HW120204   0.228   1.858  17.468 -0.4276 -0.0059  0.4363
 2857SOL    HW220205   0.230   1.743  17.562 -1.6974  0.1427 -0.7776
 2858SOL     OW20206   2.458   4.581   3.463  0.2137 -0.2562  0.6623
 2858SOL    HW120207   2.538   4.584   3.515 -1.2143  2.1051  2.7389
 2858SOL    HW220208   2.479   4.651   3.401  2.9050  0.1254  2.0108
 2859SOL     OW20209   4.525   2.227   8.046 -0.5273  0.0483 -0.4300
 2859SOL    HW120210   4.470   2.151   8.027  1.9985 -1.4592 -1.6510
 2859SOL    HW220211   4.532   2.272   7.962 -0.6290 -0.4738 -0.7148
 2860SOL     OW20212   3.342   0.015   4.979  0.6436 -0.5054  0.0696
 2860SOL    HW120213   3.357   4.676   5.032 -4.8023 -1.5851  0.0238
 2860SOL    HW220214   3.282   4.720   4.913  1.4088  3.4035 -2.6711
 2861SOL     OW20215   3.856   1.826   6.373 -0.5158 -0.2158  0.9554
 2861SOL    HW120216   3.926   1.819   6.309 -1.6184  1.0898 -0.3840
 2861SOL    HW220217   3.786   1.854   6.314  2.6831  1.5680 -1.9508
 2862SOL     OW20218   1.392   0.863   7.071  0.3331  0.3365 -0.1208
 2862SOL    HW120219   1.430   0.877   7.157 -0.9334 -0.2365  0.5306
 2862SOL    HW220220   1.301   0.851   7.099 -0.1386 -1.6420 -2.4927
 2863SOL     OW20221   2.014   4.377   7.018 -0.0202  0.1128 -0.1040
 2863SOL    HW120222   2.075   4.366   7.091 -1.6886  3.1409  1.7604
 2863SOL    HW220223   2.070   4.366   6.940 -0.2335  0.5566 -0.3206
 2864SOL     OW20224   3.172   2.222  16.790  0.5106  0.6171 -0.4571
 2864SOL    HW120225   3.255   2.250  16.751  1.2444  0.5471  1.0655
 2864SOL    HW220226   3.152   2.305  16.831  0.7016  0.6260 -0.3816
 2865SOL     OW20227   3.100   3.703   8.807 -0.1367  0.3794 -0.2939
 2865SOL    HW120228   3.053   3.785   8.820  0.2874  0.6855 -0.7025
 2865SOL    HW220229   3.097   3.692   8.712  2.2102  2.1687 -0.5691
 2866SOL     OW20230   3.075   1.646   7.704  0.1424  0.4775 -0.6534
 2866SOL    HW120231   3.166   1.674   7.715 -0.5451  1.9121  1.3682
 2866SOL    HW220232   3.034   1.729   7.728 -2.0047 -1.0163  0.7318
 2867SOL     OW20233   0.123   0.447   4.710 -0.0823 -0.1212  0.5037
 2867SOL    HW120234   0.129   0.479   4.800 -0.9991  1.0567  0.1493
 2867SOL    HW220235   0.097   0.528   4.666  1.3282 -0.4170 -0.8682
 2868SOL     OW20236   1.105   0.582   8.000 -0.0300 -0.5556 -0.1336
 2868SOL    HW120237   1.132   0.629   7.921 -1.6059 -1.6832 -1.3501
 2868SOL    HW220238   1.106   0.489   7.975 -0.2934 -0.2572 -1.2613
 2869SOL     OW20239   3.898   4.363   7.706 -0.3556  0.4994 -0.3244
 2869SOL    HW120240   3.914   4.272   7.731  0.0815  0.6352 -0.1109
 2869SOL    HW220241   3.984   4.382   7.670 -0.2913  0.1867 -0.3350
 2870SOL     OW20242   0.926   3.435   9.587  0.4754  0.2381  0.2371
 2870SOL    HW120243   0.885   3.471   9.665 -1.1433 -1.4428  0.1624
 2870SOL    HW220244   0.851   3.399   9.539  0.4767 -1.1041  1.2287
 2871SOL     OW20245   2.790   3.357   4.532  0.5793 -0.3371 -0.3347
 2871SOL    HW120246   2.752   3.365   4.620 -0.6625 -2.1417 -0.7010
 2871SOL    HW220247   2.705   3.363   4.488 -0.6842  2.6146  2.4936
 2872SOL     OW20248   3.801   3.417   4.348 -0.2962 -0.0209 -0.6872
 2872SOL    HW120249   3.782   3.508   4.373 -1.6340 -0.6201  0.4097
 2872SOL    HW220250   3.800   3.425   4.252  3.6388  1.1644 -0.6536
 2873SOL     OW20251   1.366   2.719   1.978  0.0939 -0.3024 -0.6878
 2873SOL    HW120252   1.386   2.659   2.049 -0.4653  0.1732 -0.1366
 2873SOL    HW220253   1.300   2.674   1.925  0.6101 -0.8272 -0.8906
 2874SOL     OW20254   1.037   0.694   3.869 -0.3773 -0.0702  0.4530
 2874SOL    HW120255   1.065   0.652   3.788  0.2816 -0.1431  0.7198
 2874SOL    HW220256   0.956   0.744   3.854 -1.9577 -2.9456 -0.7144
 2875SOL     OW20257   0.417   2.063  15.401  0.3317 -0.4413 -0.4196
 2875SOL    HW120258   0.394   2.137  15.345  0.2358 -1.1813 -1.3398
 2875SOL    HW220259   0.350   2.064  15.469  0.6216  0.8773 -0.1447
 2876SOL     OW20260   4.715   0.928   3.917  0.2492 -0.0610 -0.7078
 2876SOL    HW120261   4.628   0.967   3.928  0.7682  1.0063 -0.4460
 2876SOL    HW220262   4.694   0.835   3.909  0.1135 -0.1701  0.7700
 2877SOL     OW20263   0.596   1.639   7.456  0.3112 -0.1479 -0.4036
 2877SOL    HW120264   0.522   1.681   7.413  0.4456  1.2961  0.7801
 2877SOL    HW220265   0.556   1.558   7.488  0.6460 -0.2116 -0.1439
 2878SOL     OW20266   3.964   4.520  11.100 -0.5739  0.3524 -0.5513
 2878SOL    HW120267   4.049   4.545  11.064  1.2829 -2.6993  1.7351
 2878SOL    HW220268   3.919   4.480  11.026 -0.1523 -0.7369 -0.2181
 2879SOL     OW20269   3.468   1.159  11.559 -0.5975 -0.1388  0.1128
 2879SOL    HW120270   3.491   1.107  11.635  2.1651  0.9673  0.0523
 2879SOL    HW220271   3.470   1.250  11.590 -1.5670  0.6539 -2.1677
 2880SOL     OW20272   3.546   0.481   0.434  0.5286 -0.0113  0.1883
 2880SOL    HW120273   3.622   0.495   0.378  1.2860  1.2365  1.5279
 2880SOL    HW220274   3.516   0.392   0.418 -0.0643  0.3255 -0.5684
 2881SOL     OW20275   2.821   4.170   4.574 -0.3409  0.4577 -0.2217
 2881SOL    HW120276   2.847   4.213   4.493  0.8893 -0.9058 -0.5477
 2881SOL    HW220277   2.892   4.106   4.582 -0.7679  0.0427  0.2579
 2882SOL     OW20278   1.624   0.387  12.718  0.2251  0.7587  0.2306
 2882SOL    HW120279   1.673   0.403  12.799 -0.2156  0.1519  0.6096
 2882SOL    HW220280   1.609   0.294  12.736  4.1850 -0.0518 -0.6623
 2883SOL     OW20281   1.318   4.481   2.403 -0.3126 -0.2896 -0.3902
 2883SOL    HW120282   1.410   4.472   2.428 -0.4090  1.7859  0.7283
 2883SOL    HW220283   1.311   4.398   2.356  1.4052  0.0086 -1.1773
 2884SOL     OW20284   0.790   3.608   4.371 -0.3643 -0.1669 -0.0829
 2884SOL    HW120285   0.881   3.578   4.379  0.6712  2.4697 -2.0510
 2884SOL    HW220286   0.758   3.616   4.461  0.4612  0.6898  0.1323
 2885SOL     OW20287   4.487   4.040   3.849 -0.0665  0.4261  0.4146
 2885SOL    HW120288   4.447   4.110   3.901  0.8824  0.3869  1.1753
 2885SOL    HW220289   4.547   4.000   3.911  1.6623  1.7494 -0.4129
 2886SOL     OW20290   0.948   1.735   0.356 -0.0883  0.2234  0.0211
 2886SOL    HW120291   0.976   1.645   0.345  0.2979  0.4820 -1.2293
 2886SOL    HW220292   0.946   1.763   0.264  4.3646 -0.6045 -0.3116
 2887SOL     OW20293   3.305   2.003   6.138 -0.1263  0.0994 -0.4738
 2887SOL    HW120294   3.364   2.072   6.169 -1.1138  0.0542  1.5309
 2887SOL    HW220295   3.287   2.038   6.050  0.7907  1.1066 -0.2605
 2888SOL     OW20296   3.075   0.370   7.879  0.1677 -0.3337  0.2521
 2888SOL    HW120297   3.123   0.292   7.909  0.0135  0.0529  1.5173
 2888SOL    HW220298   3.146   0.433   7.877  1.5104 -1.8388  0.0339
 2889SOL     OW20299   3.865   0.234   8.526  0.6740  0.8793  0.3545
 2889SOL    HW120300   3.948   0.187   8.530 -0.3477 -0.9114  0.8605
 2889SOL    HW220301   3.845   0.259   8.616 -2.8851  0.3128 -0.2538
 2890SOL     OW20302   0.985   3.332   8.412 -0.4935 -0.7989  0.0260
 2890SOL    HW120303   0.963   3.317   8.504 -0.8805  1.6317  0.3219
 2890SOL    HW220304   0.906   3.369   8.372 -0.8420  0.2569  1.7005
 2891SOL     OW20305   4.510   4.497  11.029  0.2571 -0.1874 -0.7643
 2891SOL    HW120306   4.459   4.435  10.977  0.7699 -1.4221  0.2162
 2891SOL    HW220307   4.499   4.580  10.982  1.8657  1.5807  2.0409
 2892SOL     OW20308   0.119   1.776   6.054 -0.6812  0.0884  0.2511
 2892SOL    HW120309   0.113   1.756   6.147 -1.9810  0.0130  0.1540
 2892SOL    HW220310   0.187   1.843   6.045 -0.4364 -0.2821 -0.6477
 2893SOL     OW20311   4.484   1.834  10.145  0.7493  0.2162  0.0179
 2893SOL    HW120312   4.477   1.786  10.228  2.0453  0.3143  0.1894
 2893SOL    HW220313   4.537   1.908  10.174 -0.3011  1.4689 -1.2552
 2894SOL     OW20314   0.279   2.208   5.363 -0.0886  0.7232 -0.3520
 2894SOL    HW120315   0.304   2.300   5.351  0.5489  0.5917 -0.0524
 2894SOL    HW220316   0.187   2.213   5.335 -0.4817 -2.7047  0.3907
 2895SOL     OW20317   0.046   2.362  13.346 -0.2394 -0.6123  0.4342
 2895SOL    HW120318   4.731   2.441  13.348  1.3342  0.4582  0.5664
 2895SOL    HW220319   0.125   2.405  13.315 -0.2731 -1.6988 -1.1395
 2896SOL     OW20320   3.171   4.618   4.833 -0.2549 -0.3101  0.0548
 2896SOL    HW120321   3.117   4.545   4.864 -1.2427  0.4176  0.0289
 2896SOL    HW220322   3.104   4.673   4.793 -1.9394 -2.1428  0.3544
 2897SOL     OW20323   1.755   1.426  10.723  1.2782  0.6438 -0.7332
 2897SOL    HW120324   1.814   1.372  10.775  0.9708 -0.6911 -1.7651
 2897SOL    HW220325   1.746   1.384  10.637 -2.3304  1.0813 -0.5738
 2898SOL     OW20326   3.879   0.420   1.229  0.1129  0.3867 -0.3814
 2898SOL    HW120327   3.815   0.395   1.162  0.7418 -0.4420 -0.6742
 2898SOL    HW220328   3.946   0.471   1.182  1.1664 -0.6650 -0.0316
 2899SOL     OW20329   2.985   0.997  11.926 -0.0727  0.2652 -0.0500
 2899SOL    HW120330   3.045   0.942  11.976 -1.4237 -0.9533  0.2108
 2899SOL    HW220331   2.991   0.963  11.837  0.2561 -0.9157  0.4205
 2900SOL     OW20332   0.572   1.568   3.036 -0.1818 -0.5853 -0.2472
 2900SOL    HW120333   0.569   1.480   2.998 -0.4487 -1.2447  1.2929
 2900SOL    HW220334   0.582   1.629   2.963 -0.3252  1.3306  1.3246
 2901SOL     OW20335   0.251   0.440   6.060  0.0741 -0.2711  0.6235
 2901SOL    HW120336   0.314   0.511   6.063  0.9838 -1.0624  0.1682
 2901SOL    HW220337   0.253   0.411   6.152  0.8836 -1.0642  0.3540
 2902SOL     OW20338   0.685   1.426   7.743 -0.0506 -0.2660 -0.3381
 2902SOL    HW120339   0.751   1.445   7.676  0.4409  1.3417  0.5988
 2902SOL    HW220340   0.646   1.340   7.728  1.5301 -1.1289  0.4326
 2903SOL     OW20341   2.975   2.098  17.199  0.2855  0.5352 -0.2776
 2903SOL    HW120342   2.969   2.004  17.216  1.3727  0.6333  0.7090
 2903SOL    HW220343   2.895   2.132  17.239  0.1023 -1.4575  1.0719
 2904SOL     OW20344   1.483   2.659  10.101 -0.2030 -0.4490  0.8272
 2904SOL    HW120345   1.495   2.577  10.053  0.9940 -0.5799  1.3263
 2904SOL    HW220346   1.467   2.625  10.189  1.3559  0.6075  1.5265
 2905SOL     OW20347   0.014   3.924   7.093 -0.5388  0.3547 -0.1096
 2905SOL    HW120348   4.726   4.001   7.044 -0.1349  0.3977 -0.2622
 2905SOL    HW220349   0.077   3.898   7.026 -0.4495 -0.2233  0.1960
 2906SOL     OW20350   4.343   1.131   2.480 -0.0632 -0.0863 -0.4540
 2906SOL    HW120351   4.408   1.110   2.547 -2.8173  1.4215  2.6479
 2906SOL    HW220352   4.386   1.167   2.403  0.7337 -1.0192 -0.4416
 2907SOL     OW20353   2.292   1.501  10.380  0.1328 -0.1272 -0.1728
 2907SOL    HW120354   2.287   1.407  10.361  0.3582 -0.0330 -0.7041
 2907SOL    HW220355   2.342   1.504  10.461 -1.0822 -1.0327  0.6195
 2908SOL     OW20356   3.258   4.335   3.516 -0.6067  0.2301  1.0195
 2908SOL    HW120357   3.314   4.400   3.559  1.0476  0.3137 -1.2951
 2908SOL    HW220358   3.317   4.263   3.539 -1.4376 -0.5191  0.7998
 2909SOL     OW20359   2.985   2.497   6.421 -0.2784 -0.1326  0.2103
 2909SOL    HW120360   2.989   2.588   6.392 -0.4231 -0.9313 -2.3115
 2909SOL    HW220361   2.969   2.447   6.341 -0.9500  0.6306 -0.1398
 2910SOL     OW20362   4.013   1.220   7.635  0.3056 -0.4213 -0.0975
 2910SOL    HW120363   3.981   1.301   7.674  1.2806 -0.5141  0.9103
 2910SOL    HW220364   4.039   1.261   7.553  0.1387 -1.1733 -0.5276
 2911SOL     OW20365   3.493   3.810   5.191  0.2671 -0.0328  0.3458
 2911SOL    HW120366   3.418   3.819   5.132 -0.3014 -1.5997  0.8459
 2911SOL    HW220367   3.451   3.768   5.266  0.5021  0.3516  0.6961
 2912SOL     OW20368   3.842   0.637   3.663 -0.0691 -0.2347 -0.3750
 2912SOL    HW120369   3.866   0.713   3.611 -1.2683 -0.7573 -1.6849
 2912SOL    HW220370   3.918   0.582   3.642  1.3797  1.5343  0.2317
 2913SOL     OW20371   3.730   1.246   5.913 -0.3482  0.7709  0.0194
 2913SOL    HW120372   3.743   1.231   6.006  1.8151 -3.9414 -1.0601
 2913SOL    HW220373   3.692   1.161   5.890  0.1639  0.7459 -0.7336
 2914SOL     OW20374   1.446   0.558   7.155  0.1548 -0.1428 -0.1617
 2914SOL    HW120375   1.466   0.486   7.214 -0.3093 -0.9532 -0.9924
 2914SOL    HW220376   1.504   0.624   7.191  0.2456  0.4389 -1.3677
 2915SOL     OW20377   2.430   3.641   0.862 -0.2991 -0.0368 -0.3301
 2915SOL    HW120378   2.486   3.566   0.840 -1.0934  0.1161 -2.9323
 2915SOL    HW220379   2.453   3.648   0.954 -1.3973  0.8315 -0.1182
 2916SOL     OW20380   1.358   3.416   5.326 -0.0792  0.5000  0.0934
 2916SOL    HW120381   1.381   3.341   5.271 -1.1727  0.2474 -0.0274
 2916SOL    HW220382   1.276   3.439   5.282  0.6209  2.3365 -0.2552
 2917SOL     OW20383   2.503   1.987   7.942  0.0479 -0.5929  0.6367
 2917SOL    HW120384   2.587   1.941   7.952  0.4129 -0.1079 -0.2474
 2917SOL    HW220385   2.477   1.990   8.034 -2.3232 -1.6914 -0.0040
 2918SOL     OW20386   3.461   3.991   2.672 -0.0265  0.1640 -0.0966
 2918SOL    HW120387   3.526   3.961   2.608 -1.4182  0.1386 -1.5026
 2918SOL    HW220388   3.417   4.054   2.616  0.5372 -0.4403 -1.2100
 2919SOL     OW20389   2.909   2.478  12.036 -0.5331 -0.1830 -0.5270
 2919SOL    HW120390   2.919   2.569  12.008  0.9829  0.0816  0.8619
 2919SOL    HW220391   2.975   2.437  11.980  0.5314  2.0907 -0.9036
 2920SOL     OW20392   3.202   0.083   8.355  0.5439 -0.5654 -0.2664
 2920SOL    HW120393   3.179   0.083   8.448 -0.9121 -3.6029 -0.6321
 2920SOL    HW220394   3.124   0.117   8.312 -0.0098  0.3654  1.5049
 2921SOL     OW20395   0.961   4.610   2.505  0.1006 -0.2241  0.0416
 2921SOL    HW120396   1.020   4.593   2.578 -0.2941 -0.0967  0.3951
 2921SOL    HW220397   1.024   4.627   2.435  0.0338 -1.5707 -0.3330
 2922SOL     OW20398   0.810   2.513   5.625 -0.5028  0.3845 -0.6434
 2922SOL    HW120399   0.815   2.430   5.578  1.9014  1.1741 -1.8452
 2922SOL    HW220400   0.878   2.564   5.580  0.3447 -0.0148  0.1931
 2923SOL     OW20401   3.114   1.380   7.045 -0.2001 -0.5355 -0.1112
 2923SOL    HW120402   3.114   1.357   7.138 -2.8909  1.5124  0.3887
 2923SOL    HW220403   3.102   1.292   7.010 -0.1389 -1.7519  2.8597
 2924SOL     OW20404   3.416   2.149   8.260  0.0116  0.4073  0.8254
 2924SOL    HW120405   3.397   2.057   8.281  0.1623  0.5792  1.7335
 2924SOL    HW220406   3.490   2.135   8.201 -1.0547  0.5556 -0.5441
 2925SOL     OW20407   4.711   4.206  16.837 -0.1278 -0.2744  0.2999
 2925SOL    HW120408   4.648   4.138  16.860 -0.8801  0.0206 -0.8956
 2925SOL    HW220409   0.045   4.173  16.889 -0.7966 -0.7707  0.9415
 2926SOL     OW20410   2.382   3.337   6.032 -0.3276 -0.7619  0.9747
 2926SOL    HW120411   2.454   3.356   5.972 -1.4167 -0.1144 -0.1371
 2926SOL    HW220412   2.335   3.420   6.031  0.6590 -0.2049  0.9474
 2927SOL     OW20413   1.781   1.198  13.702  0.4023 -0.1462  0.2873
 2927SOL    HW120414   1.810   1.172  13.614  0.6567 -1.2813  0.7082
 2927SOL    HW220415   1.862   1.192  13.752  1.1161  1.1949 -0.7116
 2928SOL     OW20416   1.453   3.034   9.510  0.0659 -0.1068 -0.1806
 2928SOL    HW120417   1.482   3.101   9.572 -1.2931  0.1740  0.1503
 2928SOL    HW220418   1.391   3.088   9.462  0.1822 -0.5816 -0.8584
 2929SOL     OW20419   0.853   2.643   2.519 -0.0210 -0.7557 -0.5347
 2929SOL    HW120420   0.833   2.553   2.544 -0.9953 -0.5714 -0.6608
 2929SOL    HW220421   0.806   2.652   2.436 -1.0601  0.7154  0.2121
 2930SOL     OW20422   3.163   2.999  16.621  0.5249 -0.0908 -0.0728
 2930SOL    HW120423   3.195   3.089  16.619  2.2604 -0.7166 -0.5138
 2930SOL    HW220424   3.098   3.010  16.691 -0.5063 -0.5125 -0.9791
 2931SOL     OW20425   0.197   1.002   2.609 -1.0347  0.5450 -0.2492
 2931SOL    HW120426   0.208   1.096   2.616  1.3366  0.0011  3.4858
 2931SOL    HW220427   0.173   0.993   2.701 -0.4561 -1.7882 -0.3127
 2932SOL     OW20428   3.490   0.658  11.552  0.0990  0.0001 -0.7968
 2932SOL    HW120429   3.487   0.565  11.575 -0.0423  0.0033 -0.8010
 2932SOL    HW220430   3.476   0.662  11.457 -0.4780  0.2289 -0.6993
 2933SOL     OW20431   2.679   0.341   3.147 -0.4500  0.4125 -0.8449
 2933SOL    HW120432   2.763   0.329   3.191 -2.8079  0.4769  3.7126
 2933SOL    HW220433   2.639   0.255   3.155 -0.8067  0.5057 -1.6637
 2934SOL     OW20434   0.501   3.157   6.802  0.1395  0.2737 -0.4358
 2934SOL    HW120435   0.475   3.234   6.750  0.1429  2.0427  2.1535
 2934SOL    HW220436   0.559   3.189   6.871 -1.1316  2.3566 -0.3319
 2935SOL     OW20437   4.548   1.326   2.800  0.3371  0.3431  0.4618
 2935SOL    HW120438   4.498   1.401   2.768  1.0907 -0.0009 -1.5498
 2935SOL    HW220439   4.507   1.330   2.886  2.1465  3.5055  1.1751
 2936SOL     OW20440   2.289   4.713   3.635  0.0721  0.1399 -0.5173
 2936SOL    HW120441   2.340   4.730   3.714 -2.4144 -0.5250  1.2232
 2936SOL    HW220442   2.348   4.656   3.584  2.0143 -0.0988  1.9945
 2937SOL     OW20443   2.189   0.019   1.310  0.0750 -0.0521  0.2615
 2937SOL    HW120444   2.191   0.071   1.390  4.2052  0.9450 -0.4664
 2937SOL    HW220445   2.094   0.008   1.316  0.3538 -1.0221  2.6904
 2938SOL     OW20446   0.153   0.096   3.897  0.0363  0.1625 -0.6983
 2938SOL    HW120447   0.208   0.134   3.966  0.2648  1.3362 -1.5047
 2938SOL    HW220448   0.209   0.102   3.819  3.1109  1.0841  1.5649
 2939SOL     OW20449   4.311   1.836  17.488  0.6214 -0.2339  0.3474
 2939SOL    HW120450   4.334   1.892  17.414 -0.4966  0.7876  0.7629
 2939SOL    HW220451   4.218   1.857  17.497  0.8487  0.9482 -0.0218
 2940SOL     OW20452   4.357   2.413   1.872  0.5207 -0.0632 -0.0412
 2940SOL    HW120453   4.441   2.369   1.878 -0.2824 -1.7257 -1.0736
 2940SOL    HW220454   4.360   2.421   1.776  0.8209  0.9135  0.0442
 2941SOL     OW20455   4.427   3.745   1.299 -0.2276 -0.4258  0.4248
 2941SOL    HW120456   4.457   3.753   1.389  0.2578  2.2396  0.0189
 2941SOL    HW220457   4.335   3.770   1.295 -0.6734 -1.9230  1.2286
 2942SOL     OW20458   4.025   0.331   2.122 -0.0852  0.2209  0.0412
 2942SOL    HW120459   4.044   0.377   2.041 -0.4898 -2.3194 -1.5030
 2942SOL    HW220460   4.111   0.332   2.165 -0.3063 -1.0816  0.5147
 2943SOL     OW20461   3.159   2.532   7.947 -0.0708 -0.1243  0.3812
 2943SOL    HW120462   3.193   2.498   7.864  0.0961 -1.1459  0.8668
 2943SOL    HW220463   3.216   2.479   8.002  1.9585  1.0893 -0.5252
 2944SOL     OW20464   1.062   2.333   1.389 -0.4247 -0.3795 -0.0020
 2944SOL    HW120465   1.143   2.368   1.350 -1.0312  0.7094 -0.3065
 2944SOL    HW220466   1.022   2.304   1.307  0.6926 -0.3243 -0.5730
 2945SOL     OW20467   0.497   3.110   8.828  0.1725 -0.2543  0.0709
 2945SOL    HW120468   0.472   3.090   8.918 -2.4678 -1.5281 -0.9226
 2945SOL    HW220469   0.588   3.137   8.825  0.0013  0.3315  0.1515
 2946SOL     OW20470   3.703   2.320   1.294  0.3086 -0.7326  0.4236
 2946SOL    HW120471   3.638   2.257   1.326 -0.0721 -1.5174 -1.8680
 2946SOL    HW220472   3.782   2.271   1.270  0.1514 -0.8903  0.2184
 2947SOL     OW20473   0.666   4.040   5.331 -0.5772  0.1135  0.1394
 2947SOL    HW120474   0.698   3.954   5.360 -0.0343  1.1636  2.6645
 2947SOL    HW220475   0.707   4.091   5.401 -0.5247  4.2081 -2.8854
 2948SOL     OW20476   3.528   0.741   7.200  0.2181 -0.0744  0.6691
 2948SOL    HW120477   3.559   0.712   7.114  1.3657  1.3940  0.5931
 2948SOL    HW220478   3.470   0.673   7.235  0.0746 -0.2207  0.1492
 2949SOL     OW20479   0.680   2.570   1.602 -0.1318 -0.0792 -0.5984
 2949SOL    HW120480   0.674   2.632   1.529  1.0974  2.1863  1.2370
 2949SOL    HW220481   0.747   2.607   1.659 -0.9137 -1.1142  0.9889
 2950SOL     OW20482   1.049   0.753  13.523  0.2219 -0.2074  0.9426
 2950SOL    HW120483   1.028   0.846  13.515 -1.6074 -0.6226  1.0182
 2950SOL    HW220484   1.144   0.762  13.513  0.2519 -0.5792  0.9083
 2951SOL     OW20485   1.344   4.162   9.912 -0.4263 -0.7917 -0.2604
 2951SOL    HW120486   1.416   4.225   9.903 -0.3207 -0.5859  2.0279
 2951SOL    HW220487   1.346   4.144  10.006  0.7520 -0.9584 -0.3160
 2952SOL     OW20488   1.106   4.176   7.753 -0.0864 -0.2421 -0.5496
 2952SOL    HW120489   1.054   4.166   7.833  2.4196 -0.8922  1.0023
 2952SOL    HW220490   1.164   4.100   7.759 -0.2507 -0.2913  0.3545
 2953SOL     OW20491   0.101   2.819  13.186  0.0695 -0.6262 -0.6327
 2953SOL    HW120492   0.033   2.770  13.233 -0.0241 -0.6448 -0.7859
 2953SOL    HW220493   0.161   2.747  13.166  0.4900 -0.9465  1.8574
 2954SOL     OW20494   2.961   3.920   8.884 -0.2863  0.0669  0.0551
 2954SOL    HW120495   2.990   4.001   8.926 -0.2040  0.9777 -1.7554
 2954SOL    HW220496   2.914   3.945   8.805 -2.0216 -2.1346  0.4011
 2955SOL     OW20497   0.839   0.140  10.734 -0.0828 -0.1276  0.0153
 2955SOL    HW120498   0.820   0.076  10.665  0.5217 -0.8042  0.4684
 2955SOL    HW220499   0.924   0.102  10.757  0.1096  0.2112 -0.1330
 2956SOL     OW20500   2.301   3.398   1.661  0.6310  0.5778 -0.5190
 2956SOL    HW120501   2.274   3.370   1.574 -0.6712 -0.0216  0.0889
 2956SOL    HW220502   2.239   3.351   1.717 -0.5126  1.1412 -1.3230
 2957SOL     OW20503   4.041   1.169   6.059  0.0987  0.0766  0.1360
 2957SOL    HW120504   4.104   1.140   6.125 -0.0073 -0.8134 -0.1567
 2957SOL    HW220505   3.985   1.092   6.064  1.5719 -1.0982 -1.1459
 2958SOL     OW20506   3.909   4.468   7.294  0.1191  0.2100 -0.3225
 2958SOL    HW120507   3.849   4.467   7.369  0.2962 -0.3218 -0.1861
 2958SOL    HW220508   3.850   4.489   7.221  0.3245  0.9212 -0.2844
 2959SOL     OW20509   4.606   0.979   9.713 -0.4243  0.1228  0.2658
 2959SOL    HW120510   4.546   1.044   9.748 -0.0134  0.5891  0.1047
 2959SOL    HW220511   4.545   0.933   9.655 -1.4869 -0.2001  1.6471
 2960SOL     OW20512   3.408   3.891   1.825  0.3000 -0.7300  0.3971
 2960SOL    HW120513   3.484   3.895   1.885 -1.1398 -2.2577  2.3403
 2960SOL    HW220514   3.382   3.981   1.810 -0.8109 -0.8150  1.7976
 2961SOL     OW20515   0.147   1.289  10.928  0.3314  0.0892 -0.2004
 2961SOL    HW120516   0.089   1.308  10.854  1.7192  1.5938 -0.9132
 2961SOL    HW220517   0.231   1.322  10.894  0.8555 -1.0193  0.0370
 2962SOL     OW20518   1.793   3.161  12.943  0.0248  0.3419 -0.1354
 2962SOL    HW120519   1.796   3.073  12.982 -3.3686 -1.1868 -3.4161
 2962SOL    HW220520   1.831   3.154  12.856 -1.4760 -0.8427 -0.6961
 2963SOL     OW20521   0.694   4.574   6.107  0.8757 -0.1062  0.3797
 2963SOL    HW120522   0.764   4.556   6.044  0.3013 -0.8945 -0.0320
 2963SOL    HW220523   0.747   4.595   6.184  1.0335  1.2077 -0.0850
 2964SOL     OW20524   4.369   2.503   4.048 -0.3348  0.0924 -0.4898
 2964SOL    HW120525   4.364   2.589   4.091 -0.6670  0.3678 -1.0720
 2964SOL    HW220526   4.306   2.529   3.981  3.0242  3.1690 -2.4982
 2965SOL     OW20527   0.040   1.961   8.005  0.0619 -0.2720 -0.4738
 2965SOL    HW120528   4.718   1.959   8.079 -0.7628  2.8756 -1.0351
 2965SOL    HW220529   0.059   2.055   8.007 -2.5346  0.2269  0.6935
 2966SOL     OW20530   0.982   3.961   3.199 -0.1874 -0.0573  0.4448
 2966SOL    HW120531   0.996   3.879   3.247 -0.4397 -0.1359  0.3857
 2966SOL    HW220532   0.932   3.922   3.128 -2.8748  1.5174  1.4639
 2967SOL     OW20533   4.389   4.537   1.466  0.1701  0.5770 -0.1818
 2967SOL    HW120534   4.359   4.597   1.535 -1.0111  0.5412 -0.6685
 2967SOL    HW220535   4.469   4.505   1.508 -0.4085  0.1997  0.6374
 2968SOL     OW20536   0.751   0.015   8.167 -0.5005 -0.2668 -0.6751
 2968SOL    HW120537   0.798   4.710   8.096  1.1571  0.5483 -0.0902
 2968SOL    HW220538   0.713   4.683   8.218  2.6454 -0.4231  1.4397
 2969SOL     OW20539   3.812   4.595   4.270 -0.1663  0.1732 -0.3620
 2969SOL    HW120540   3.775   4.595   4.358 -2.5037 -0.8197 -1.3510
 2969SOL    HW220541   3.825   4.688   4.249  2.3189 -0.2453 -0.7623
 2970SOL     OW20542   4.395   0.776   4.910  0.2039 -0.6633 -0.2084
 2970SOL    HW120543   4.490   0.775   4.904  0.3070 -1.2090  1.7410
 2970SOL    HW220544   4.366   0.824   4.832 -3.3738 -1.5712  0.5649
 2971SOL     OW20545   0.445   3.180   3.105  0.7628  0.1474  0.2963
 2971SOL    HW120546   0.457   3.132   3.023 -0.6911  1.0289 -0.4100
 2971SOL    HW220547   0.356   3.215   3.102  0.0118 -1.6721  1.2631
 2972SOL     OW20548   2.569   1.074  10.053 -0.6571 -0.0011 -0.4717
 2972SOL    HW120549   2.573   1.085   9.958 -1.9421  0.2116 -0.4981
 2972SOL    HW220550   2.620   0.994  10.064  1.9575  1.4719 -1.8027
 2973SOL     OW20551   0.084   4.046  15.125 -0.3227 -0.0436  0.2760
 2973SOL    HW120552   0.043   4.067  15.209  0.5022  2.3165  0.0833
 2973SOL    HW220553   0.106   4.136  15.102 -0.9008  0.0489  0.0710
 2974SOL     OW20554   0.781   0.281   0.365  0.5305 -0.1111 -0.2171
 2974SOL    HW120555   0.838   0.284   0.442  0.2020  1.0324 -0.0232
 2974SOL    HW220556   0.746   0.194   0.383 -0.2381  0.7393  2.3544
 2975SOL     OW20557   0.240   1.030   0.525  0.1992  0.1974 -0.2844
 2975SOL    HW120558   0.255   0.956   0.466  1.1381  1.4270 -1.5953
 2975SOL    HW220559   0.303   1.016   0.596  0.5733  0.9544 -0.4645
 2976SOL     OW20560   0.024   3.010   2.388 -0.4199 -0.2273 -0.4358
 2976SOL    HW120561   4.717   2.926   2.388 -0.3534 -0.2639 -0.0782
 2976SOL    HW220562   0.010   3.035   2.479 -1.9851 -2.6860  0.0110
 2977SOL     OW20563   1.451   3.508   8.885 -0.2633  0.9112 -0.1775
 2977SOL    HW120564   1.470   3.531   8.976 -0.5235  0.4148  0.0024
 2977SOL    HW220565   1.364   3.468   8.886 -0.6227  1.7138  1.0125
 2978SOL     OW20566   1.238   1.164   9.578  0.1607 -0.2139  0.3074
 2978SOL    HW120567   1.235   1.212   9.495  1.8511  0.0349  0.4011
 2978SOL    HW220568   1.225   1.073   9.553 -1.6212  0.1822 -0.2679
 2979SOL     OW20569   4.595   4.494   0.100  0.2345  0.5692 -0.7316
 2979SOL    HW120570   4.669   4.511   0.042 -0.0823  1.2325 -0.9411
 2979SOL    HW220571   4.573   4.408   0.065 -1.8585  1.8530 -2.6001
 2980SOL     OW20572   1.315   3.543  15.292  0.2421 -0.2900  0.1963
 2980SOL    HW120573   1.400   3.578  15.318  0.9606  0.0503 -2.6385
 2980SOL    HW220574   1.265   3.566  15.370 -2.4464 -0.7835 -1.3714
 2981SOL     OW20575   1.012   3.194   6.391  0.0880  0.0091 -0.6849
 2981SOL    HW120576   0.971   3.152   6.315 -0.2177 -2.2668  0.7319
 2981SOL    HW220577   0.968   3.152   6.465 -0.7457 -0.1774 -1.2790
 2982SOL     OW20578   3.073   4.671  13.142  0.9534 -0.2236  0.0114
 2982SOL    HW120579   3.154   4.619  13.140  2.5884  2.3439 -0.4910
 2982SOL    HW220580   3.080   4.690  13.236 -0.2347  1.0599 -0.1591
 2983SOL     OW20581   0.278   4.562   9.933 -0.9911 -0.4432  0.3606
 2983SOL    HW120582   0.313   4.640   9.976 -0.2247 -1.6732  1.9566
 2983SOL    HW220583   0.193   4.595   9.905 -1.4827 -1.6890  0.4397
 2984SOL     OW20584   0.602   2.649   2.346 -0.0111 -0.4580  0.0202
 2984SOL    HW120585   0.570   2.683   2.430  0.5833  0.8699 -0.2814
 2984SOL    HW220586   0.529   2.669   2.288  0.4759  0.6532 -0.2263
 2985SOL     OW20587   3.926   4.202   7.311 -0.1187 -0.1039  0.3700
 2985SOL    HW120588   3.908   4.291   7.282  1.1556 -0.0110 -0.1372
 2985SOL    HW220589   4.017   4.198   7.341 -0.5505 -0.0489  1.6787
 2986SOL     OW20590   4.303   0.688   6.094  0.6770  0.1025  0.4182
 2986SOL    HW120591   4.315   0.613   6.152  1.0967  0.6894  1.0878
 2986SOL    HW220592   4.385   0.709   6.050  1.0502 -2.2677 -0.0100
 2987SOL     OW20593   2.714   1.405   9.733 -0.0777 -0.2249 -0.0311
 2987SOL    HW120594   2.670   1.489   9.721 -2.5067 -1.3722  0.8615
 2987SOL    HW220595   2.803   1.427   9.760  0.2452  0.2288 -1.4971
 2988SOL     OW20596   3.037   3.784  12.425  0.3552  0.2186  0.6668
 2988SOL    HW120597   3.093   3.818  12.355  1.8871  2.0965  2.8377
 2988SOL    HW220598   2.954   3.781  12.376  0.6113  3.3736 -0.0037
 2989SOL     OW20599   0.770   0.978   5.950  0.2705  0.2466  0.2230
 2989SOL    HW120600   0.751   1.037   6.023 -2.1508 -1.2929  0.8579
 2989SOL    HW220601   0.734   1.029   5.877 -0.3729 -0.2256  0.2122
 2990SOL     OW20602   0.943   2.959   4.584  0.1546 -0.3914  0.1700
 2990SOL    HW120603   0.905   2.997   4.505  0.8250 -0.5090 -0.2086
 2990SOL    HW220604   0.869   2.950   4.645  1.6543  2.2283  2.3721
 2991SOL     OW20605   3.820   1.570   5.196  0.0352  0.3117 -0.1100
 2991SOL    HW120606   3.763   1.639   5.228  1.9980  1.5127  0.7512
 2991SOL    HW220607   3.785   1.489   5.235 -0.9274  0.7708 -0.0103
 2992SOL     OW20608   3.921   3.134   4.746  0.0148  0.2458  0.8131
 2992SOL    HW120609   3.853   3.123   4.679  0.3594  0.8648  0.3614
 2992SOL    HW220610   3.872   3.127   4.829 -0.2736 -1.3204  0.5129
 2993SOL     OW20611   3.597   3.010   3.457 -0.2686  0.7708  0.3074
 2993SOL    HW120612   3.632   2.932   3.500 -1.7583 -0.2701 -0.3781
 2993SOL    HW220613   3.660   3.030   3.387  0.1738 -2.0879 -0.1023
 2994SOL     OW20614   1.103   0.893   9.736 -0.0561 -0.0929 -0.1526
 2994SOL    HW120615   1.198   0.888   9.740  0.0573  1.8000 -0.7016
 2994SOL    HW220616   1.086   0.884   9.642  2.3505 -2.3887 -0.3772
 2995SOL     OW20617   0.756   4.012   9.106 -0.0304 -0.1344  0.5113
 2995SOL    HW120618   0.846   4.018   9.073 -0.6628  0.0732 -1.1739
 2995SOL    HW220619   0.772   4.069   9.181 -0.2170  2.7539 -1.6326
 2996SOL     OW20620   2.165   4.290  17.449  0.4100  0.3640 -0.0536
 2996SOL    HW120621   2.120   4.219  17.494  0.3488  0.3424 -0.1501
 2996SOL    HW220622   2.096   4.353  17.426  0.1542  0.7916  1.8430
 2997SOL     OW20623   0.819   2.907  10.142  0.0483 -0.0077  0.0216
 2997SOL    HW120624   0.769   2.826  10.141  1.5280 -0.9358  1.8830
 2997SOL    HW220625   0.877   2.895  10.217 -1.0864  2.1416  1.2464
 2998SOL     OW20626   3.147   2.691   2.443 -0.3853  0.5471 -0.3122
 2998SOL    HW120627   3.066   2.677   2.492  0.5631 -0.9189  0.8155
 2998SOL    HW220628   3.118   2.749   2.372  0.8446  0.4091 -0.9175
 2999SOL     OW20629   3.189   3.011   4.683  0.2277 -0.6575  0.2231
 2999SOL    HW120630   3.234   3.038   4.603 -0.4547 -1.6946 -0.5081
 2999SOL    HW220631   3.259   2.970   4.733 -0.5005 -1.1518  0.8446
 3000SOL     OW20632   4.703   3.079   5.508  0.1732 -0.5940 -0.0837
 3000SOL    HW120633   4.697   2.992   5.469 -0.6699 -0.1781 -0.8907
 3000SOL    HW220634   4.610   3.102   5.509  0.0376 -1.1659  0.4888
 3001SOL     OW20635   3.121   3.170   7.107 -0.0194 -0.6530  0.0869
 3001SOL    HW120636   3.106   3.164   7.201  1.8709 -0.4367  0.3978
 3001SOL    HW220637   3.048   3.121   7.071 -0.1333  0.9452 -1.8724
 3002SOL     OW20638   3.374   0.418  14.800  0.3737 -0.6207 -0.0845
 3002SOL    HW120639   3.415   0.450  14.880 -0.2944 -1.6123  0.6426
 3002SOL    HW220640   3.437   0.351  14.772 -1.4518 -1.3909 -2.3659
 3003SOL     OW20641   0.416   0.944   7.339  0.2440 -0.1497 -0.5122
 3003SOL    HW120642   0.330   0.901   7.342 -0.5837  1.5719  0.5672
 3003SOL    HW220643   0.419   0.997   7.418  1.9107 -1.3658  0.2430
 3004SOL     OW20644   0.226   1.581   9.483 -0.3990  0.1482  0.8450
 3004SOL    HW120645   0.158   1.597   9.417  2.1513 -0.8027 -2.0051
 3004SOL    HW220646   0.293   1.623   9.429 -1.2104  1.1167  0.5958
 3005SOL     OW20647   3.451   0.988   7.210  0.1886 -0.1737 -0.2160
 3005SOL    HW120648   3.484   0.898   7.220 -1.1862 -0.7787 -1.0259
 3005SOL    HW220649   3.535   1.032   7.210  0.3622 -0.4883 -2.8695
 3006SOL     OW20650   2.269   3.486   9.012  0.2318  0.5388 -0.5925
 3006SOL    HW120651   2.355   3.515   8.980  0.5528 -0.7712 -0.9222
 3006SOL    HW220652   2.222   3.484   8.929  3.6609  0.3865 -2.5111
 3007SOL     OW20653   3.389   0.148  13.410 -0.1164  0.4119 -0.4727
 3007SOL    HW120654   3.357   0.065  13.444 -2.2570  1.5445  0.2326
 3007SOL    HW220655   3.364   0.151  13.318  0.2003  1.3719 -0.5331
 3008SOL     OW20656   4.652   1.468   0.153  0.1460 -0.0643  0.2619
 3008SOL    HW120657   4.622   1.475   0.062 -3.8233  1.6132  1.7245
 3008SOL    HW220658   4.582   1.422   0.198 -0.0342 -0.8482 -0.8137
 3009SOL     OW20659   4.521   4.559   1.900  0.0468 -0.0372  0.3339
 3009SOL    HW120660   4.481   4.579   1.985  1.1078  1.5980  0.4514
 3009SOL    HW220661   4.498   4.467   1.891  1.9605 -0.6683  1.8349
 3010SOL     OW20662   2.657   2.025  11.334 -0.8221 -0.0702  0.7238
 3010SOL    HW120663   2.585   2.041  11.273  0.1808 -1.0873 -0.7462
 3010SOL    HW220664   2.626   2.049  11.422 -2.3577  1.2461 -0.1819
 3011SOL     OW20665   1.987   0.504  17.533  0.2449  0.0029  0.0126
 3011SOL    HW120666   1.988   0.593  17.497  1.3044 -0.5396 -1.3131
 3011SOL    HW220667   1.903   0.471  17.503 -0.2573  2.8381 -1.7525
 3012SOL     OW20668   1.358   1.864  12.206 -0.1578 -0.3374 -0.0989
 3012SOL    HW120669   1.435   1.807  12.210 -0.1449 -0.2085  1.6505
 3012SOL    HW220670   1.296   1.799  12.173  0.0765 -0.6770  0.1240
 3013SOL     OW20671   1.875   3.407   5.260 -0.7423  0.3758  0.4090
 3013SOL    HW120672   1.900   3.441   5.346  0.8533 -1.9825  0.8962
 3013SOL    HW220673   1.894   3.315   5.283 -0.5498 -0.2872 -2.4034
 3014SOL     OW20674   2.156   0.976   1.890 -0.0826  0.1473  0.2073
 3014SOL    HW120675   2.097   0.929   1.831  1.7989 -1.1929 -0.5939
 3014SOL    HW220676   2.119   0.948   1.974  1.0288 -1.7103  0.0670
 3015SOL     OW20677   3.694   3.955   1.499  0.3587  0.0041  0.4880
 3015SOL    HW120678   3.605   3.973   1.469  0.3269 -1.2408 -0.1582
 3015SOL    HW220679   3.669   3.883   1.558  2.3135  0.5877  2.0251
 3016SOL     OW20680   4.190   0.104  15.061  0.0287 -0.1886 -0.0798
 3016SOL    HW120681   4.240   0.136  15.136 -1.7826  2.1160  0.1533
 3016SOL    HW220682   4.237   0.023  15.043 -1.4308 -1.3164  1.1580
 3017SOL     OW20683   4.364   1.326   5.804  0.0970  0.1427  0.2219
 3017SOL    HW120684   4.391   1.341   5.713 -1.2377 -1.6483 -0.4797
 3017SOL    HW220685   4.436   1.273   5.836  1.8015  2.0879 -0.3846
 3018SOL     OW20686   1.336   0.540   5.153 -0.0276 -0.1846 -0.3620
 3018SOL    HW120687   1.273   0.553   5.082  0.0150  0.4072 -0.2898
 3018SOL    HW220688   1.383   0.623   5.156 -2.6004  1.2213  0.5464
 3019SOL     OW20689   0.121   1.089   1.946  0.2409  0.5304  0.3059
 3019SOL    HW120690   0.131   1.136   1.864 -2.8652 -1.1377 -1.0047
 3019SOL    HW220691   0.211   1.063   1.966  0.0264 -1.1668 -0.9355
 3020SOL     OW20692   0.230   2.150   9.643 -0.2088 -0.4198 -0.1435
 3020SOL    HW120693   0.176   2.214   9.690 -0.7954 -1.1780  0.2048
 3020SOL    HW220694   0.300   2.138   9.707 -0.2123 -1.2522 -0.3052
 3021SOL     OW20695   0.093   3.561   4.976  0.1913  0.0724  0.6633
 3021SOL    HW120696   0.093   3.479   5.025 -0.3590  0.3386  1.1060
 3021SOL    HW220697   0.033   3.534   4.906  1.1229 -0.7651  0.1801
 3022SOL     OW20698   3.542   1.868  15.653  0.3137  1.1839 -0.0923
 3022SOL    HW120699   3.544   1.881  15.558  1.0844 -0.9872 -0.3819
 3022SOL    HW220700   3.563   1.775  15.661 -3.2184  0.4251  0.2408
 3023SOL     OW20701   1.147   1.313  14.351 -0.8494 -0.5677 -0.6056
 3023SOL    HW120702   1.145   1.398  14.394  1.9800 -2.0084  2.3867
 3023SOL    HW220703   1.086   1.254  14.395 -1.6036 -0.3298 -1.3413
 3024SOL     OW20704   0.313   0.551  16.794  0.3255 -0.0246 -0.5707
 3024SOL    HW120705   0.306   0.513  16.706  0.4720  0.6919 -0.8941
 3024SOL    HW220706   0.267   0.484  16.845  1.3357 -0.4622 -0.2387
 3025SOL     OW20707   1.682   0.978   1.681 -0.6613 -0.3400  0.3880
 3025SOL    HW120708   1.637   1.063   1.682  0.6350  0.3834 -2.7640
 3025SOL    HW220709   1.669   0.951   1.772 -1.3523 -1.4411 -0.0367
 3026SOL     OW20710   3.697   2.130   3.644  0.3654 -0.1263 -0.4801
 3026SOL    HW120711   3.759   2.141   3.572  0.8588 -0.2441 -0.0647
 3026SOL    HW220712   3.749   2.154   3.720 -1.4746  4.6073 -0.6667
 3027SOL     OW20713   2.431   3.631   1.342 -0.7341  0.5566  0.1181
 3027SOL    HW120714   2.463   3.646   1.253  1.5529  2.2403  1.2038
 3027SOL    HW220715   2.458   3.713   1.384  0.1177  0.1978  0.2725
 3028SOL     OW20716   0.898   3.287   7.864 -0.1833 -0.6454 -0.0672
 3028SOL    HW120717   0.981   3.244   7.885  0.7050  0.6610 -0.8846
 3028SOL    HW220718   0.852   3.226   7.806  0.5588 -0.1012 -1.2357
 3029SOL     OW20719   0.489   4.036   7.256 -0.5551  0.1817  0.0829
 3029SOL    HW120720   0.521   4.009   7.342 -1.0284 -0.1820  0.1446
 3029SOL    HW220721   0.454   3.955   7.218  2.9159 -1.8573  1.2160
 3030SOL     OW20722   2.383   0.645   7.074 -0.0082  0.1592 -0.4176
 3030SOL    HW120723   2.356   0.603   7.155 -2.0066 -0.4360 -1.4048
 3030SOL    HW220724   2.298   0.672   7.040 -0.3456  0.6859  0.8623
 3031SOL     OW20725   3.298   0.698   7.986 -0.0335 -0.1090 -0.6846
 3031SOL    HW120726   3.276   0.671   8.075 -0.7219 -0.4877 -0.9754
 3031SOL    HW220727   3.390   0.718   8.003 -0.2439 -1.4897  2.1153
 3032SOL     OW20728   2.337   1.265  13.878 -0.1051  0.4688 -0.4501
 3032SOL    HW120729   2.362   1.314  13.956 -1.6066  0.1073  0.2558
 3032SOL    HW220730   2.293   1.338  13.833 -0.4089  1.7727  1.9660
 3033SOL     OW20731   4.654   4.347   4.973  0.0962  0.4820  0.1918
 3033SOL    HW120732   4.665   4.440   4.995  1.3873  0.2496  0.4956
 3033SOL    HW220733   4.603   4.356   4.892  0.0925 -2.1087 -0.0838
 3034SOL     OW20734   4.407   2.604   3.561 -0.0971 -0.3405 -0.2402
 3034SOL    HW120735   4.357   2.573   3.486 -0.5534 -0.1623 -0.0063
 3034SOL    HW220736   4.384   2.696   3.558 -0.8486 -0.5313 -0.2183
 3035SOL     OW20737   4.617   0.172   0.753  0.2151  0.2385  0.5805
 3035SOL    HW120738   4.670   0.251   0.742 -0.4547  0.5744 -0.2151
 3035SOL    HW220739   4.642   0.146   0.842  1.2425  2.7072  1.0066
 3036SOL     OW20740   3.088   4.729   3.128 -0.0340  0.1044 -0.2187
 3036SOL    HW120741   3.162   0.044   3.101  1.2029 -1.2473  0.4330
 3036SOL    HW220742   3.055   0.031   3.208 -0.2342 -1.8384  0.7227
 3037SOL     OW20743   4.104   2.306   9.300  0.2013  0.2419  0.4313
 3037SOL    HW120744   4.158   2.282   9.375  0.3591 -0.8374 -0.0211
 3037SOL    HW220745   4.085   2.397   9.324 -0.0487  0.9704 -2.5736
 3038SOL     OW20746   1.632   0.219   2.469 -0.3577 -0.1437 -0.2068
 3038SOL    HW120747   1.669   0.210   2.556  0.1073  1.7895 -0.1941
 3038SOL    HW220748   1.701   0.184   2.413 -0.3849 -0.9284  0.2594
 3039SOL     OW20749   3.007   3.306   4.062  0.1328 -0.1962  0.0872
 3039SOL    HW120750   2.943   3.236   4.047 -3.0164  2.7673 -0.5289
 3039SOL    HW220751   2.999   3.359   3.983  2.7915 -0.3810 -0.2943
 3040SOL     OW20752   3.933   4.461   7.959 -0.0986  0.7853 -0.1135
 3040SOL    HW120753   3.920   4.416   7.876  0.8694  1.0618 -0.4156
 3040SOL    HW220754   3.935   4.548   7.919  0.4549  1.6307  1.7411
 3041SOL     OW20755   1.557   1.746   6.990 -0.2682  0.5385 -0.0838
 3041SOL    HW120756   1.638   1.746   7.042 -0.4245 -2.2183  0.1711
 3041SOL    HW220757   1.494   1.722   7.058  1.4495  0.3245  1.4461
 3042SOL     OW20758   0.154   1.735   8.359 -0.1108  0.0647 -0.1014
 3042SOL    HW120759   0.125   1.791   8.430  0.5855 -0.9689  1.0047
 3042SOL    HW220760   0.226   1.787   8.324 -0.1353 -1.5374 -2.5481
 3043SOL     OW20761   1.950   0.895   1.691 -0.0701  0.5216 -0.0998
 3043SOL    HW120762   1.856   0.913   1.679  0.1522  0.9528 -1.2035
 3043SOL    HW220763   1.986   0.947   1.619 -0.5443  1.7965  0.5764
 3044SOL     OW20764   0.785   1.367  12.534 -0.2906 -0.3350 -0.0626
 3044SOL    HW120765   0.724   1.295  12.551  2.4904 -1.9647  2.9365
 3044SOL    HW220766   0.853   1.347  12.599 -1.1394  0.5642  1.1059
 3045SOL     OW20767   1.603   2.299   5.044 -0.2575 -0.5364  0.5512
 3045SOL    HW120768   1.693   2.303   5.014 -0.0497 -0.0573  1.2335
 3045SOL    HW220769   1.551   2.300   4.963  2.2922 -3.4581 -1.1053
 3046SOL     OW20770   2.721   4.369  15.210  0.3369 -0.1326  0.1669
 3046SOL    HW120771   2.664   4.320  15.151 -1.3344  1.0998  0.7612
 3046SOL    HW220772   2.659   4.423  15.259  0.1356  1.1550 -1.5161
 3047SOL     OW20773   2.000   3.776   9.869  0.2689  0.0280  0.1560
 3047SOL    HW120774   1.938   3.704   9.867  1.0275 -0.6263  0.2223
 3047SOL    HW220775   2.082   3.726   9.867  0.3044  0.0341  1.2049
 3048SOL     OW20776   0.526   4.576  12.624  0.1714 -0.0498  0.2200
 3048SOL    HW120777   0.531   4.546  12.714 -0.4594  2.0736  0.9500
 3048SOL    HW220778   0.616   4.606  12.618  0.2276 -0.1722  0.4789
 3049SOL     OW20779   0.839   2.851   3.387  0.4353  0.4997  0.2307
 3049SOL    HW120780   0.820   2.941   3.412 -1.4148  0.2852 -0.4009
 3049SOL    HW220781   0.805   2.863   3.298 -1.5708 -0.0775  0.9154
 3050SOL     OW20782   0.184   1.271   2.390  0.4023 -0.6122  0.8303
 3050SOL    HW120783   0.181   1.179   2.363 -0.3965 -0.1943 -0.4681
 3050SOL    HW220784   0.097   1.279   2.429 -1.5059 -1.9784 -3.1445
 3051SOL     OW20785   2.614   2.458   4.156 -0.1571 -0.0583 -0.5863
 3051SOL    HW120786   2.550   2.508   4.106 -1.6618 -0.2033  1.1958
 3051SOL    HW220787   2.571   2.387   4.205 -0.8100  0.3227 -0.6050
 3052SOL     OW20788   0.616   1.971   4.060 -0.0563 -0.4664  0.9842
 3052SOL    HW120789   0.642   1.886   4.097  0.9747 -0.5230  0.1423
 3052SOL    HW220790   0.641   2.027   4.133 -1.1206  1.8376 -0.4557
 3053SOL     OW20791   4.373   1.340   6.305 -0.5463  0.3022  0.2712
 3053SOL    HW120792   4.306   1.380   6.250  0.0708 -1.8188 -2.0327
 3053SOL    HW220793   4.446   1.323   6.246 -0.6046 -1.2428  0.6352
 3054SOL     OW20794   0.304   3.255  16.387 -0.0179 -0.1845 -0.3145
 3054SOL    HW120795   0.316   3.161  16.376 -0.3024 -0.4321  1.4339
 3054SOL    HW220796   0.259   3.273  16.305  4.9511  0.5940 -2.8539
 3055SOL     OW20797   4.273   2.557   3.791  0.0016  0.1446 -0.2401
 3055SOL    HW120798   4.255   2.478   3.739  0.2195  0.5147 -0.8707
 3055SOL    HW220799   4.333   2.591   3.725  0.4831 -3.1632 -1.5252
 3056SOL     OW20800   1.420   4.572  17.511  0.0203  0.1459 -0.7069
 3056SOL    HW120801   1.337   4.524  17.505 -1.0376  1.7166  1.2522
 3056SOL    HW220802   1.466   4.533  17.585  0.3189  1.4485 -0.1975
 3057SOL     OW20803   1.481   4.356   5.696  0.1196  0.1837  0.6585
 3057SOL    HW120804   1.515   4.274   5.659 -1.3512 -0.8511  1.5819
 3057SOL    HW220805   1.516   4.354   5.785 -0.7831 -1.6705  0.9794
 3058SOL     OW20806   1.090   0.461   7.685 -0.0365  0.5839  0.1886
 3058SOL    HW120807   1.119   0.469   7.594  0.2871  4.4731  0.6144
 3058SOL    HW220808   1.125   0.546   7.713  1.5118 -0.4085  1.3032
 3059SOL     OW20809   3.659   4.069   7.715 -0.2012 -0.6624 -0.7333
 3059SOL    HW120810   3.666   4.090   7.622  1.3137 -1.4776 -0.8029
 3059SOL    HW220811   3.594   4.130   7.749  0.0964 -1.7414  1.7816
 3060SOL     OW20812   0.836   2.417  17.559  0.0496  0.0739  0.0779
 3060SOL    HW120813   0.776   2.410  17.485  2.7009 -1.5303 -1.9204
 3060SOL    HW220814   0.794   2.360  17.624 -0.3573 -0.2321 -0.4579
 3061SOL     OW20815   2.871   0.784   2.192 -0.1310 -0.4326 -0.1350
 3061SOL    HW120816   2.817   0.826   2.125 -1.1346 -1.7722 -0.1541
 3061SOL    HW220817   2.803   0.728   2.231  0.3967 -1.4451 -0.6584
 3062SOL     OW20818   4.350   3.483   5.265 -0.2741  0.1439 -0.0494
 3062SOL    HW120819   4.350   3.576   5.243  0.5639  0.2952  0.5979
 3062SOL    HW220820   4.257   3.460   5.274  0.3546 -1.8771  1.0595
 3063SOL     OW20821   0.617   1.329  14.911 -0.2000 -0.0918 -0.2312
 3063SOL    HW120822   0.530   1.335  14.952 -0.0449 -0.0176  0.0863
 3063SOL    HW220823   0.603   1.278  14.831  0.3717 -0.9107  0.1828
 3064SOL     OW20824   2.943   3.767   9.103 -0.1663 -0.5397  0.1263
 3064SOL    HW120825   2.936   3.811   9.019  0.0765  2.0984  1.4995
 3064SOL    HW220826   2.983   3.683   9.079  3.4052  1.0820  0.4384
 3065SOL     OW20827   0.682   3.362  12.965 -0.1170  0.1949 -0.1418
 3065SOL    HW120828   0.753   3.305  12.933 -0.2771  1.2872 -2.4866
 3065SOL    HW220829   0.735   3.428  13.009  1.5499 -0.6942 -0.7831
 3066SOL     OW20830   3.761   0.226  12.328 -0.1309  0.1277  0.7236
 3066SOL    HW120831   3.673   0.262  12.321  0.8858  2.0413 -2.0828
 3066SOL    HW220832   3.787   0.257  12.415  0.5602  1.2014  0.1307
 3067SOL     OW20833   4.599   1.462  11.713 -0.6468 -0.4894  0.8483
 3067SOL    HW120834   4.614   1.367  11.715  3.0459  0.0567 -1.0851
 3067SOL    HW220835   4.511   1.467  11.674 -0.2437  0.1601  0.0394
 3068SOL     OW20836   1.679   3.948   1.270 -0.1800  0.4542 -0.1283
 3068SOL    HW120837   1.695   4.002   1.193  1.0974  0.1773 -0.0412
 3068SOL    HW220838   1.710   4.012   1.335 -1.7308  0.5722  0.5040
 3069SOL     OW20839   0.618   3.405   2.244  0.2642 -0.1666  0.2027
 3069SOL    HW120840   0.548   3.369   2.190  1.1579  1.1870 -1.8505
 3069SOL    HW220841   0.667   3.458   2.181 -1.5890 -0.1885 -1.2502
 3070SOL     OW20842   2.412   0.758   8.469 -0.0647  0.0304 -0.1340
 3070SOL    HW120843   2.335   0.803   8.503  2.2275  2.1121  2.2881
 3070SOL    HW220844   2.454   0.820   8.409 -0.0735  0.0042 -0.1667
 3071SOL     OW20845   3.215   2.625   7.339  0.2466 -0.2902  0.4808
 3071SOL    HW120846   3.229   2.563   7.267  0.4130 -0.5059  0.6968
 3071SOL    HW220847   3.304   2.652   7.360 -0.2379  1.4797  0.2372
 3072SOL     OW20848   0.969   1.832   1.585 -0.4106  0.4030 -0.0831
 3072SOL    HW120849   0.989   1.744   1.552 -1.5287  0.5783 -1.2333
 3072SOL    HW220850   0.876   1.819   1.603 -0.2533  1.0455  1.1962
 3073SOL     OW20851   3.420   4.629   6.362  0.2354 -0.2341 -0.6933
 3073SOL    HW120852   3.368   4.553   6.338  0.9365 -0.9124 -0.0587
 3073SOL    HW220853   3.377   4.692   6.304 -0.7927  1.2721  1.7356
 3074SOL     OW20854   1.823   1.545   2.833  0.2144 -0.4269 -0.4412
 3074SOL    HW120855   1.776   1.526   2.751  0.3013  0.6830 -0.7529
 3074SOL    HW220856   1.794   1.476   2.892  1.3933 -0.0307  0.6105
 3075SOL     OW20857   4.662   0.470  15.206  0.7695  0.5090  0.4549
 3075SOL    HW120858   4.651   0.403  15.273 -1.2625 -0.9686 -1.3376
 3075SOL    HW220859   4.625   0.546  15.250  0.1972  0.8700 -0.6511
 3076SOL     OW20860   1.100   4.133   4.093  0.5437  0.2232 -0.0599
 3076SOL    HW120861   1.033   4.087   4.042  0.1582  1.5054 -0.7381
 3076SOL    HW220862   1.177   4.094   4.052 -1.2634 -3.5745  0.1963
 3077SOL     OW20863   4.107   4.356   4.321 -0.1213  0.7333 -0.1540
 3077SOL    HW120864   4.096   4.366   4.226 -0.1717  1.3379 -0.0879
 3077SOL    HW220865   4.028   4.309   4.347  0.9393 -1.0285 -0.1649
 3078SOL     OW20866   1.620   4.109   4.486  0.4542  0.3673  0.4969
 3078SOL    HW120867   1.631   4.039   4.550 -0.8880  0.4373  0.8064
 3078SOL    HW220868   1.707   4.150   4.491  1.9648 -2.8937  1.0206
 3079SOL     OW20869   3.910   1.348  10.781 -0.1793  0.1546 -0.2991
 3079SOL    HW120870   3.906   1.279  10.715  0.0827 -1.2141  1.1319
 3079SOL    HW220871   3.854   1.310  10.848  0.7812 -0.0648  0.3907
 3080SOL     OW20872   1.273   0.486   4.680  0.3738 -0.3180  0.5801
 3080SOL    HW120873   1.333   0.459   4.611  1.5748  0.8684  1.1655
 3080SOL    HW220874   1.307   0.575   4.688  1.2108 -0.6274  0.4977
 3081SOL     OW20875   1.034   1.217   1.814  0.1181  0.2065  1.1431
 3081SOL    HW120876   0.944   1.185   1.826 -0.3258 -0.0369 -2.9216
 3081SOL    HW220877   1.078   1.155   1.872 -0.1907 -0.7045  0.4082
 3082SOL     OW20878   1.380   4.149  17.117  0.6330  0.5715  0.4271
 3082SOL    HW120879   1.466   4.130  17.078  0.7463  1.3474  0.3095
 3082SOL    HW220880   1.339   4.204  17.051  1.9618 -0.5187 -1.3193
 3083SOL     OW20881   0.942   4.703   6.518 -0.7980 -0.8347 -0.4407
 3083SOL    HW120882   0.899   4.711   6.433  0.3008  1.9833 -0.7458
 3083SOL    HW220883   0.986   0.048   6.516 -0.0648 -1.1824  1.3758
 3084SOL     OW20884   3.312   2.411   3.054 -0.2278  0.2858  0.1237
 3084SOL    HW120885   3.401   2.407   3.021 -1.5784 -1.5145 -3.2137
 3084SOL    HW220886   3.304   2.345   3.124 -1.5004 -0.5044 -0.7647
 3085SOL     OW20887   1.449   1.303   7.669  0.1869  0.0839 -0.3665
 3085SOL    HW120888   1.448   1.398   7.668 -0.1398  0.0743 -0.7471
 3085SOL    HW220889   1.427   1.286   7.761 -1.9924 -0.1870 -0.9273
 3086SOL     OW20890   2.840   1.212   5.868 -0.5819  0.0204 -0.5695
 3086SOL    HW120891   2.848   1.258   5.785 -0.7292 -0.6048 -0.9292
 3086SOL    HW220892   2.869   1.286   5.921  0.2876 -0.2968 -0.6029
 3087SOL     OW20893   0.763   1.335   5.123  0.0881  0.0861  0.2133
 3087SOL    HW120894   0.852   1.370   5.116  0.4398 -0.8604 -0.1278
 3087SOL    HW220895   0.722   1.341   5.037  3.7542 -1.6864 -1.6900
 3088SOL     OW20896   2.198   2.143   1.854  0.1382  0.3759 -0.4505
 3088SOL    HW120897   2.148   2.130   1.774 -1.1491  2.8941 -0.0749
 3088SOL    HW220898   2.137   2.205   1.893  1.8087  0.5697  1.8636
 3089SOL     OW20899   2.902   1.402   3.969 -0.4031 -0.3470 -0.5533
 3089SOL    HW120900   2.851   1.326   3.942 -2.4862  1.9414 -3.0214
 3089SOL    HW220901   2.914   1.454   3.889 -0.0454 -1.5103 -1.2466
 3090SOL     OW20902   1.937   2.482   5.391  0.1950 -0.2541  0.0802
 3090SOL    HW120903   1.894   2.497   5.307 -1.2465 -1.6364  0.5776
 3090SOL    HW220904   1.956   2.389   5.398  0.0274 -0.2414  0.7196
 3091SOL     OW20905   2.402   1.238   9.401 -0.1792  0.2284 -1.0097
 3091SOL    HW120906   2.480   1.220   9.454 -1.0042 -0.3406  0.0043
 3091SOL    HW220907   2.423   1.230   9.308 -0.8511 -0.3011 -1.1158
 3092SOL     OW20908   3.984   4.263   8.131 -0.3780  0.7787  0.4065
 3092SOL    HW120909   4.021   4.351   8.128 -1.1188  1.0770 -0.0315
 3092SOL    HW220910   3.907   4.288   8.080  0.6765  0.9714 -1.1032
 3093SOL     OW20911   2.366   0.984   3.674 -0.7451 -0.2427 -0.0381
 3093SOL    HW120912   2.274   1.007   3.689  0.0600  2.8029  0.1688
 3093SOL    HW220913   2.366   0.896   3.637 -0.6663 -0.0584 -0.4783
 3094SOL     OW20914   0.928   4.554   6.803  0.0828  0.1284  0.4728
 3094SOL    HW120915   0.994   4.614   6.836 -0.1752 -0.2546  1.6860
 3094SOL    HW220916   0.919   4.586   6.713  0.3791 -1.9345 -0.2913
 3095SOL     OW20917   0.454   1.453   8.044  0.0565  0.0373 -0.1324
 3095SOL    HW120918   0.477   1.492   8.128 -3.3416 -0.7671  1.1846
 3095SOL    HW220919   0.532   1.410   8.009  1.0965  1.5627  0.2913
 3096SOL     OW20920   4.289   0.167   7.822 -0.0439 -0.1080  0.0374
 3096SOL    HW120921   4.202   0.205   7.809 -0.6336 -0.2170  3.6371
 3096SOL    HW220922   4.338   0.231   7.873 -0.3644  0.2708 -0.1348
 3097SOL     OW20923   4.195   0.081  12.232 -0.4182 -0.0941  0.1569
 3097SOL    HW120924   4.132   0.015  12.202  3.2521 -3.6703  0.3565
 3097SOL    HW220925   4.231   0.039  12.310 -1.2896  1.4513  1.3950
 3098SOL     OW20926   1.739   3.708   1.139 -0.3476 -0.3811  0.3624
 3098SOL    HW120927   1.708   3.774   1.202  2.9249  3.0754 -1.7192
 3098SOL    HW220928   1.804   3.756   1.088  0.8264 -0.2396  1.9975
 3099SOL     OW20929   1.183   3.331   2.840  0.5487  0.5179  0.0689
 3099SOL    HW120930   1.185   3.426   2.847  2.7643  0.4418  0.3008
 3099SOL    HW220931   1.271   3.304   2.865 -0.4475 -0.4624  2.5659
 3100SOL     OW20932   2.270   2.903   2.762  0.1295 -0.1358  0.2946
 3100SOL    HW120933   2.319   2.821   2.775  0.1089  0.4506  3.9263
 3100SOL    HW220934   2.327   2.974   2.791 -2.4868  2.5935 -1.2919
 3101SOL     OW20935   1.167   0.180   4.239 -0.0525  0.0748  0.0548
 3101SOL    HW120936   1.114   0.160   4.162  1.6404 -0.6613 -0.9020
 3101SOL    HW220937   1.141   0.271   4.253  2.5073  1.1566 -2.4892
 3102SOL     OW20938   1.515   1.642   6.733  0.2750 -0.2460  0.7162
 3102SOL    HW120939   1.451   1.578   6.764  1.1580 -0.6270  1.7499
 3102SOL    HW220940   1.533   1.682   6.818  0.0070  2.1821 -0.3725
 3103SOL     OW20941   1.628   3.022  14.077 -0.3890  0.0341 -0.8832
 3103SOL    HW120942   1.634   3.040  13.983  0.8695  0.8555 -0.6325
 3103SOL    HW220943   1.597   2.931  14.076 -1.3558  0.3722 -1.6896
 3104SOL     OW20944   0.413   4.593   1.973 -0.0498 -0.1338 -0.4567
 3104SOL    HW120945   0.324   4.560   1.968 -0.4464  1.1081 -1.4410
 3104SOL    HW220946   0.441   4.573   1.883  1.7006  0.8726 -0.1415
 3105SOL     OW20947   3.676   4.435  17.174  0.1725  0.3745  0.3340
 3105SOL    HW120948   3.665   4.435  17.269 -0.0782  2.0731  0.3054
 3105SOL    HW220949   3.772   4.432  17.169  0.1061 -0.4124 -0.3867
 3106SOL     OW20950   4.005   3.883   7.056  0.7968  0.0223 -0.0916
 3106SOL    HW120951   4.010   3.972   7.023 -3.3521 -0.0961 -1.1267
 3106SOL    HW220952   4.068   3.838   7.000  0.7524 -0.4106  0.2056
 3107SOL     OW20953   2.285   0.595   7.325 -0.9325  0.0524  0.3245
 3107SOL    HW120954   2.191   0.612   7.336 -1.1732 -1.1299  0.1124
 3107SOL    HW220955   2.303   0.573   7.417 -2.2300 -0.9688  0.3369
 3108SOL     OW20956   1.783   1.905   9.212 -0.0581 -0.0756  0.0056
 3108SOL    HW120957   1.779   1.824   9.263 -0.1712  0.7213  1.2343
 3108SOL    HW220958   1.745   1.971   9.269 -0.0751  0.1941 -0.3194
 3109SOL     OW20959   1.635   3.016   6.793 -0.0745  0.2524 -0.0906
 3109SOL    HW120960   1.564   3.056   6.843 -2.8225 -2.4679 -1.8981
 3109SOL    HW220961   1.664   3.085   6.733  0.0547 -0.7096 -1.1364
 3110SOL     OW20962   0.804   1.092   8.154  0.3844 -0.2853  0.2690
 3110SOL    HW120963   0.875   1.042   8.195  0.8365 -0.1591 -0.3497
 3110SOL    HW220964   0.727   1.039   8.172 -0.3602  0.6082 -0.2668
 3111SOL     OW20965   2.441   4.452   6.546 -0.0929  0.1569 -0.0854
 3111SOL    HW120966   2.363   4.456   6.491  0.9030  1.1023 -1.4129
 3111SOL    HW220967   2.462   4.359   6.543 -0.0855  0.0834  1.9516
 3112SOL     OW20968   3.380   3.064   3.592  0.0390  0.6436 -0.0809
 3112SOL    HW120969   3.466   3.073   3.551  0.0638  3.1417  0.5261
 3112SOL    HW220970   3.353   2.982   3.551  0.3089  0.5469 -0.0628
 3113SOL     OW20971   2.085   0.879   2.714 -0.2063 -0.4169 -0.1356
 3113SOL    HW120972   2.067   0.967   2.748  0.5590  0.8099 -2.9016
 3113SOL    HW220973   2.066   0.887   2.620  0.1311 -1.6079 -0.3048
 3114SOL     OW20974   0.556   1.695  12.502 -0.3609  0.3786  0.9428
 3114SOL    HW120975   0.510   1.764  12.454  1.5309  2.0498  1.5331
 3114SOL    HW220976   0.526   1.707  12.592 -0.7138  1.3542  0.6944
 3115SOL     OW20977   2.616   2.075   6.898 -0.1956 -0.3188 -0.0144
 3115SOL    HW120978   2.681   2.136   6.932 -1.3541 -0.3342  2.2099
 3115SOL    HW220979   2.667   2.038   6.826 -0.2641 -0.0097 -0.2215
 3116SOL     OW20980   4.183   0.607  17.352 -0.1872  0.2051 -0.5345
 3116SOL    HW120981   4.162   0.676  17.415  1.2169  0.6953 -0.5961
 3116SOL    HW220982   4.261   0.563  17.387  0.9186  2.8019  0.2762
 3117SOL     OW20983   1.332   2.750   7.828  0.1314  0.5884  0.0875
 3117SOL    HW120984   1.259   2.811   7.830  0.4060  0.9618 -1.4609
 3117SOL    HW220985   1.291   2.670   7.796  0.4063  0.3216  0.3963
 3118SOL     OW20986   4.193   3.066   5.956  0.3238 -0.2148 -0.1099
 3118SOL    HW120987   4.150   3.044   6.039  0.3560  1.4000  0.3194
 3118SOL    HW220988   4.232   3.151   5.971  0.3295 -0.0760 -0.8859
 3119SOL     OW20989   1.346   1.095  11.732 -0.2684 -0.3682 -0.3085
 3119SOL    HW120990   1.359   1.082  11.638 -0.5935  1.6489 -0.6350
 3119SOL    HW220991   1.260   1.138  11.735  0.9302  2.0504 -0.8825
 3120SOL     OW20992   2.754   4.727  15.169  0.2071 -0.1307 -0.0769
 3120SOL    HW120993   2.693   4.654  15.154 -0.6515  0.7976 -1.0797
 3120SOL    HW220994   2.836   4.679  15.161 -0.5548 -1.4612 -0.0082
 3121SOL     OW20995   0.678   0.581   5.049  0.1300  0.0371  0.5188
 3121SOL    HW120996   0.720   0.572   4.964  1.3607  3.0295  0.7803
 3121SOL    HW220997   0.614   0.510   5.045 -0.7130  0.7535  1.3062
 3122SOL     OW20998   4.292   4.672   7.272  0.4537 -0.9947 -0.4270
 3122SOL    HW120999   4.204   4.699   7.245  0.3536 -1.0753 -0.1796
 3122SOL    HW221000   4.340   4.679   7.190 -0.5625  2.5494 -0.7082
 3123SOL     OW21001   1.848   3.070   9.793 -0.4592 -0.6434  0.0279
 3123SOL    HW121002   1.923   3.022   9.759 -0.9909 -0.7347 -1.0114
 3123SOL    HW221003   1.782   3.002   9.808 -0.4545 -0.3667  1.2541
 3124SOL     OW21004   4.507   4.299   1.969  0.2270 -0.2328 -0.0198
 3124SOL    HW121005   4.525   4.208   1.944 -1.7613 -0.3605 -0.9469
 3124SOL    HW221006   4.485   4.287   2.061  0.9559 -0.8033  0.0857
 3125SOL     OW21007   3.630   1.208   0.970 -0.0954  0.2564 -0.4283
 3125SOL    HW121008   3.653   1.257   0.891  0.4702  0.1291 -0.3402
 3125SOL    HW221009   3.710   1.194   1.020 -2.5999  0.6704  3.7188
 3126SOL     OW21010   4.490   1.883   3.459  0.2962 -0.4721 -0.0316
 3126SOL    HW121011   4.569   1.928   3.489  0.1208  0.0427 -0.3599
 3126SOL    HW221012   4.531   1.797   3.442  0.1817 -0.8397  1.5430
 3127SOL     OW21013   2.438   2.744   6.794 -0.4442 -0.0844 -0.6809
 3127SOL    HW121014   2.400   2.792   6.721 -0.9154 -0.6996 -0.8392
 3127SOL    HW221015   2.502   2.687   6.750 -2.2400 -2.6719  0.0767
 3128SOL     OW21016   0.556   2.846   3.117 -0.0054  0.3048 -0.4258
 3128SOL    HW121017   0.610   2.925   3.107 -0.3611  1.0174  3.0038
 3128SOL    HW221018   0.485   2.872   3.175  0.1350  0.2513 -0.2261
 3129SOL     OW21019   4.206   3.588   5.649 -0.4009  0.0819 -0.0259
 3129SOL    HW121020   4.126   3.621   5.689  0.2179  0.4103  0.9273
 3129SOL    HW221021   4.263   3.609   5.723 -0.6441 -1.6511  0.6451
 3130SOL     OW21022   1.128   2.558  16.908  0.4033 -0.3454 -0.2376
 3130SOL    HW121023   1.062   2.599  16.852  0.5346  0.1825 -0.0130
 3130SOL    HW221024   1.080   2.505  16.971 -0.8519 -1.0072 -1.7658
 3131SOL     OW21025   0.437   4.504   6.412  0.4834  0.4715 -0.4979
 3131SOL    HW121026   0.501   4.575   6.404  1.9747 -0.8223 -0.1322
 3131SOL    HW221027   0.481   4.443   6.352  0.1189 -1.0341  0.7552
 3132SOL     OW21028   2.512   3.594   6.449 -0.4485 -0.5409 -0.0003
 3132SOL    HW121029   2.506   3.507   6.489 -1.6767 -0.9701 -1.1483
 3132SOL    HW221030   2.513   3.571   6.356 -0.1039  0.3037 -0.2037
 3133SOL     OW21031   2.501   2.680   7.462 -0.5073  0.3201  0.1251
 3133SOL    HW121032   2.509   2.592   7.499 -1.5586 -1.2045 -3.3283
 3133SOL    HW221033   2.443   2.671   7.387  0.2177 -0.9888 -0.2740
 3134SOL     OW21034   2.772   2.047   3.891  0.3466 -0.5425  0.4078
 3134SOL    HW121035   2.702   2.007   3.839  1.4695  0.4183 -1.8225
 3134SOL    HW221036   2.808   2.112   3.831  0.3107 -0.9204 -0.0220
 3135SOL     OW21037   2.261   2.546   5.175  0.1245  0.6835  0.6293
 3135SOL    HW121038   2.292   2.564   5.264 -1.1129  1.6619  0.8563
 3135SOL    HW221039   2.288   2.457   5.151  0.2393  0.8929 -0.0108
 3136SOL     OW21040   1.138   2.621   5.005 -0.1143 -0.8111  0.1064
 3136SOL    HW121041   1.071   2.639   4.939  1.2990  0.1311 -1.0656
 3136SOL    HW221042   1.089   2.602   5.085 -0.9194 -1.3396 -0.5138
 3137SOL     OW21043   4.734   0.258   8.428 -0.0024 -0.5407  0.4683
 3137SOL    HW121044   4.668   0.198   8.461  0.8949 -1.6983  0.1341
 3137SOL    HW221045   0.010   0.318   8.500  1.5013  0.1610 -0.4301
 3138SOL     OW21046   1.105   1.625   8.902  0.3278  0.0935 -0.7028
 3138SOL    HW121047   1.020   1.615   8.858 -0.0921 -2.0679  0.6151
 3138SOL    HW221048   1.101   1.717   8.928 -0.3960 -0.8285  2.4603
 3139SOL     OW21049   4.307   3.909  16.726 -0.5981 -0.2644  0.7307
 3139SOL    HW121050   4.297   3.814  16.739  1.6930 -0.4318  1.2603
 3139SOL    HW221051   4.314   3.902  16.630  2.7391  1.8901  0.8252
 3140SOL     OW21052   0.457   2.151   9.793 -0.0398  0.5446  0.5577
 3140SOL    HW121053   0.503   2.099   9.859 -2.8554 -0.7994  1.4646
 3140SOL    HW221054   0.430   2.234   9.831 -0.5024  0.8018 -0.3273
 3141SOL     OW21055   0.893   0.183   6.042 -0.5481  0.0970 -0.1748
 3141SOL    HW121056   0.898   0.126   5.966 -2.1270 -0.2125 -0.0425
 3141SOL    HW221057   0.899   0.267   5.996  0.2523  0.9209  1.4447
 3142SOL     OW21058   0.742   1.267   6.400 -0.0806  0.0052 -0.6827
 3142SOL    HW121059   0.762   1.307   6.484  2.4221 -0.8419 -0.8719
 3142SOL    HW221060   0.765   1.175   6.413  0.1797  0.4019  1.5933
 3143SOL     OW21061   2.559   1.229   5.347  0.2432  0.4529 -0.3067
 3143SOL    HW121062   2.488   1.264   5.293  1.5145  1.7602 -1.1054
 3143SOL    HW221063   2.528   1.233   5.438 -0.2382 -0.4703 -0.4280
 3144SOL     OW21064   1.658   0.353   6.452 -0.2813  0.2381  0.4607
 3144SOL    HW121065   1.724   0.296   6.491 -0.7008 -1.1547 -0.8342
 3144SOL    HW221066   1.702   0.436   6.468  1.4672 -0.4640 -0.6504
 3145SOL     OW21067   0.865   1.278   3.037  0.0548  0.3440  0.3769
 3145SOL    HW121068   0.824   1.253   3.120 -0.2894  3.5329  1.1787
 3145SOL    HW221069   0.790   1.326   3.002 -0.3959 -0.7393 -0.1401
 3146SOL     OW21070   2.776   0.708  16.574  0.5421 -0.3503  0.6520
 3146SOL    HW121071   2.707   0.644  16.555  1.7077 -1.5044  0.3541
 3146SOL    HW221072   2.787   0.745  16.487  0.3110  0.2797  0.8970
 3147SOL     OW21073   3.103   1.025   5.746  0.4778 -0.0205  0.1400
 3147SOL    HW121074   3.088   1.070   5.663 -3.4696 -0.0899  0.8014
 3147SOL    HW221075   3.191   1.057   5.763  0.2172  0.8727 -0.1966
 3148SOL     OW21076   3.102   0.989   8.018 -0.6802  0.1200  0.2240
 3148SOL    HW121077   3.145   0.920   7.968 -0.5234  0.7506 -0.5172
 3148SOL    HW221078   3.112   1.060   7.954 -0.0951  0.1388  0.3368
 3149SOL     OW21079   2.915   3.572   4.813  0.0935  0.1727  0.1711
 3149SOL    HW121080   2.945   3.611   4.895  1.0068  1.2488 -0.6650
 3149SOL    HW221081   2.824   3.559   4.838  1.0192 -3.7629  1.4522
 3150SOL     OW21082   4.485   0.152  13.824  0.3726  0.1543  0.1290
 3150SOL    HW121083   4.544   0.198  13.765  0.0626  1.2796  0.6985
 3150SOL    HW221084   4.479   0.060  13.796 -1.0769  0.8525 -1.7907
 3151SOL     OW21085   1.408   2.164   3.829  0.2340 -0.1382  0.8880
 3151SOL    HW121086   1.339   2.159   3.762  0.5534 -2.9795  0.7842
 3151SOL    HW221087   1.451   2.082   3.806 -1.1693 -1.0889  1.6453
 3152SOL     OW21088   2.190   2.653   7.888  0.2065 -0.1634  0.5027
 3152SOL    HW121089   2.210   2.571   7.933  0.4556 -1.6169 -2.2846
 3152SOL    HW221090   2.276   2.666   7.847 -0.0154 -0.6582 -0.1324
 3153SOL     OW21091   3.933   0.633   4.401  0.3046 -0.1598  0.4493
 3153SOL    HW121092   3.846   0.621   4.440 -0.8292  0.8683 -1.7846
 3153SOL    HW221093   3.902   0.699   4.340 -0.3994 -2.3246 -1.5365
 3154SOL     OW21094   0.586   2.072   6.790 -0.1261 -0.0453  0.4659
 3154SOL    HW121095   0.522   2.053   6.722 -1.1509 -0.0187  1.4301
 3154SOL    HW221096   0.549   2.031   6.868  0.1370 -1.0321  0.0766
 3155SOL     OW21097   2.603   2.675   8.043 -0.4931 -0.5391 -0.1157
 3155SOL    HW121098   2.586   2.768   8.052  2.2786  0.1732 -2.4192
 3155SOL    HW221099   2.600   2.646   8.134  0.7662 -0.1512  0.0469
 3156SOL     OW21100   1.946   0.421   3.591  0.0323 -0.1852  0.7141
 3156SOL    HW121101   1.897   0.448   3.668  1.7025  1.9624  1.0013
 3156SOL    HW221102   2.023   0.376   3.626  0.9727 -0.8626 -2.2167
 3157SOL     OW21103   1.591   1.036  10.787 -0.4987 -0.2006 -0.3045
 3157SOL    HW121104   1.573   1.056  10.879 -0.8280 -0.0085 -0.4101
 3157SOL    HW221105   1.509   1.077  10.759  0.1668  1.5174  0.2720
 3158SOL     OW21106   3.925   4.051   5.925 -0.1127 -0.0732  0.4817
 3158SOL    HW121107   3.878   4.126   5.961 -0.9059 -0.1399 -0.4157
 3158SOL    HW221108   4.010   4.058   5.969  0.1270 -0.2537  0.0542
 3159SOL     OW21109   4.026   4.106   3.973 -0.3055  0.0067 -0.1628
 3159SOL    HW121110   3.934   4.111   3.946 -0.6344 -1.7210  0.6591
 3159SOL    HW221111   4.057   4.174   3.913  2.1919  0.4234  1.5603
 3160SOL     OW21112   0.419   4.045  10.192 -0.1912 -0.0300 -0.2619
 3160SOL    HW121113   0.404   4.137  10.211  1.1162  0.8079 -3.3475
 3160SOL    HW221114   0.476   4.050  10.115 -1.4247  0.0881 -1.1558
 3161SOL     OW21115   2.804   4.450   7.089 -0.2590 -0.4051  0.3758
 3161SOL    HW121116   2.855   4.504   7.029  0.3805 -1.9152 -0.4200
 3161SOL    HW221117   2.759   4.514   7.144 -1.1327 -1.3920  0.8046
 3162SOL     OW21118   0.180   3.143   7.275 -0.7244  0.1568 -0.8540
 3162SOL    HW121119   0.113   3.095   7.226  1.7607 -1.6080 -2.4788
 3162SOL    HW221120   0.186   3.090   7.354 -0.1250  2.6233  0.7607
 3163SOL     OW21121   3.004   4.509   8.297 -0.1073 -0.4301  0.5511
 3163SOL    HW121122   2.995   4.534   8.205 -0.4219 -3.0964 -0.1604
 3163SOL    HW221123   2.943   4.435   8.304  0.2009 -0.8916 -1.4182
 3164SOL     OW21124   4.343   3.710   0.692  0.5098  0.4695  0.1145
 3164SOL    HW121125   4.257   3.673   0.675  0.5842  1.0562 -1.5129
 3164SOL    HW221126   4.341   3.721   0.787  1.4736  0.8692  0.0944
 3165SOL     OW21127   1.756   3.013  16.651  0.2479 -0.1951  0.0068
 3165SOL    HW121128   1.790   3.092  16.693  0.2488  1.0053 -2.2268
 3165SOL    HW221129   1.685   3.001  16.714 -1.3932  0.6952 -1.6782
 3166SOL     OW21130   3.447   0.809  11.054 -0.0853  0.6840 -0.0123
 3166SOL    HW121131   3.459   0.802  11.149  2.3410  1.4065 -0.2699
 3166SOL    HW221132   3.525   0.757  11.033 -0.6212  1.0957 -2.9612
 3167SOL     OW21133   4.420   1.777   1.537 -0.4536  0.5382  0.0150
 3167SOL    HW121134   4.459   1.821   1.613 -1.2245  0.2289  0.5927
 3167SOL    HW221135   4.331   1.811   1.544 -1.0875 -0.5124 -3.2520
 3168SOL     OW21136   4.183   3.514   4.797  0.2087  0.7053 -0.3083
 3168SOL    HW121137   4.092   3.520   4.768 -0.3548 -0.0124  1.3115
 3168SOL    HW221138   4.198   3.423   4.821 -0.7402  0.5569 -0.2923
 3169SOL     OW21139   1.627   4.452   4.463 -0.2375 -0.2417  0.0436
 3169SOL    HW121140   1.615   4.542   4.433 -0.4230  0.2548  1.6134
 3169SOL    HW221141   1.630   4.472   4.557  0.8005 -0.4910  0.0675
 3170SOL     OW21142   4.602   0.647   5.181  0.1320 -0.0895 -0.3051
 3170SOL    HW121143   4.520   0.613   5.143 -1.5439  2.4605  1.0299
 3170SOL    HW221144   4.599   0.612   5.270  0.5987 -1.5506 -0.8617
 3171SOL     OW21145   4.145   0.317  12.412 -0.3957 -0.0442 -0.4958
 3171SOL    HW121146   4.075   0.363  12.366  1.2832  0.5721 -2.4442
 3171SOL    HW221147   4.193   0.277  12.339 -3.4150 -1.9602 -1.4030
 3172SOL     OW21148   1.801   4.235   5.245 -0.0744  0.2151  0.5617
 3172SOL    HW121149   1.827   4.265   5.158 -0.4133 -0.4882  0.2247
 3172SOL    HW221150   1.712   4.202   5.231  0.5112 -1.4081  0.6716
 3173SOL     OW21151   4.338   1.349  14.523  0.3116 -0.1682 -0.5752
 3173SOL    HW121152   4.300   1.426  14.481 -0.1153  0.0715  0.2400
 3173SOL    HW221153   4.395   1.323  14.451  1.2293 -3.1305  1.1872
 3174SOL     OW21154   3.529   0.782   6.221 -0.1841 -0.1731 -0.0582
 3174SOL    HW121155   3.510   0.693   6.251 -1.1718 -0.0525 -0.3415
 3174SOL    HW221156   3.453   0.811   6.171  0.2299  2.0249  0.5795
 3175SOL     OW21157   1.363   4.274  15.981 -0.4920 -0.1915 -0.3048
 3175SOL    HW121158   1.421   4.310  15.913  1.5792  1.2820  2.2307
 3175SOL    HW221159   1.387   4.316  16.064  0.7050 -0.8421 -0.3223
 3176SOL     OW21160   2.594   3.999   1.200  0.3271  0.4178 -0.2900
 3176SOL    HW121161   2.502   4.011   1.174  0.4615  0.5734 -0.6945
 3176SOL    HW221162   2.635   4.070   1.151  1.6401  0.8419  1.4066
 3177SOL     OW21163   3.763   3.832   3.831 -0.4411  0.3963  0.2130
 3177SOL    HW121164   3.854   3.818   3.806 -0.1533 -0.6790  1.8345
 3177SOL    HW221165   3.723   3.748   3.808 -0.2265  0.0367  1.1510
 3178SOL     OW21166   4.048   3.741   6.268  0.3259  0.5183  0.3483
 3178SOL    HW121167   4.083   3.816   6.220  0.5791  0.7397  0.8818
 3178SOL    HW221168   3.953   3.758   6.267 -0.3176 -3.2861 -2.4022
 3179SOL     OW21169   0.203   3.575  12.495 -0.3661 -0.1046  0.1994
 3179SOL    HW121170   0.206   3.479  12.502  0.6454 -0.0402  0.6692
 3179SOL    HW221171   0.265   3.608  12.560  0.3112  2.1459 -1.6181
 3180SOL     OW21172   2.367   4.187   0.849 -0.4876  0.5576 -0.2968
 3180SOL    HW121173   2.291   4.183   0.907  1.0850 -0.4822  1.6941
 3180SOL    HW221174   2.369   4.093   0.827  0.3949  0.7611 -1.0926
 3181SOL     OW21175   2.579   4.368  16.096  0.3186  0.3059  0.2477
 3181SOL    HW121176   2.625   4.356  16.013 -0.0972 -1.2832  0.2472
 3181SOL    HW221177   2.488   4.369  16.066  0.9835 -0.7499 -1.7646
 3182SOL     OW21178   0.456   0.841   0.784  1.0226 -0.2600 -0.1740
 3182SOL    HW121179   0.538   0.818   0.741  0.9189  0.7176 -0.8880
 3182SOL    HW221180   0.399   0.778   0.741  0.5063 -0.2945  0.5590
 3183SOL     OW21181   2.232   3.766  15.648 -0.6839  0.0966  0.0642
 3183SOL    HW121182   2.262   3.676  15.633  0.9281  0.3950  1.4084
 3183SOL    HW221183   2.262   3.781  15.737  1.0449  2.0573 -0.8449
 3184SOL     OW21184   0.185   4.223   0.378 -0.0331 -0.1015  0.0613
 3184SOL    HW121185   0.168   4.196   0.287  0.0519  1.9297 -0.5616
 3184SOL    HW221186   0.188   4.317   0.365  2.2547  0.1000  2.1080
 3185SOL     OW21187   1.063   0.081   8.588 -0.3153 -0.1407  0.0589
 3185SOL    HW121188   1.065   0.174   8.563 -0.3958 -0.0156  0.5030
 3185SOL    HW221189   0.991   0.043   8.539 -1.2542  0.7149  0.7561
 3186SOL     OW21190   1.743   4.060   8.527 -0.4834  0.1704  0.8773
 3186SOL    HW121191   1.746   4.081   8.621 -0.9100  0.9565  0.7168
 3186SOL    HW221192   1.802   3.985   8.529 -0.8239 -0.1329 -0.5689
 3187SOL     OW21193   0.377   1.147   8.470  0.1675 -0.2889 -0.5376
 3187SOL    HW121194   0.360   1.151   8.376  0.9652 -1.1995 -0.7150
 3187SOL    HW221195   0.427   1.229   8.474  0.6467 -0.5949 -0.4204
 3188SOL     OW21196   0.584   2.719  15.615 -0.6546 -0.1586  0.6002
 3188SOL    HW121197   0.604   2.802  15.659  0.5051  0.1451 -0.5347
 3188SOL    HW221198   0.489   2.723  15.605 -0.2035  0.4482 -3.2476
 3189SOL     OW21199   3.771   4.641   2.734  0.0927 -0.3658  0.0061
 3189SOL    HW121200   3.790   4.547   2.729 -0.5795 -0.4579 -0.8542
 3189SOL    HW221201   3.705   4.652   2.665 -0.1064 -0.5849  0.1607
 3190SOL     OW21202   4.192   3.093   1.180 -0.1981  0.0360 -0.3565
 3190SOL    HW121203   4.203   3.047   1.263 -0.6902  0.3518 -0.1145
 3190SOL    HW221204   4.246   3.171   1.195 -1.0292  0.5574 -0.0889
 3191SOL     OW21205   1.024   4.726   3.513 -0.0227 -0.1539  0.3413
 3191SOL    HW121206   1.089   4.669   3.471 -1.3697  0.1283 -2.1616
 3191SOL    HW221207   1.064   0.073   3.505 -0.3353 -0.1167 -0.9460
 3192SOL     OW21208   0.267   1.295   1.271 -0.3169 -0.4922  0.0513
 3192SOL    HW121209   0.254   1.383   1.237 -2.6294 -0.8944 -0.1183
 3192SOL    HW221210   0.179   1.258   1.269  0.2967 -2.1137  3.1078
 3193SOL     OW21211   3.089   2.854   7.226  0.0850  0.0536  0.1958
 3193SOL    HW121212   3.087   2.928   7.287  1.9573  0.2492  0.0212
 3193SOL    HW221213   3.092   2.784   7.291  3.7689 -2.3369 -2.5547
 3194SOL     OW21214   0.517   2.451   5.493 -0.2467 -0.5141 -0.4137
 3194SOL    HW121215   0.492   2.498   5.413  4.7836  0.4906 -1.4078
 3194SOL    HW221216   0.602   2.416   5.468  0.0846  2.1641 -3.0727
 3195SOL     OW21217   0.790   0.314   5.676 -0.4582 -0.0919  0.6305
 3195SOL    HW121218   0.772   0.408   5.682 -3.0673 -0.5563  0.1469
 3195SOL    HW221219   0.858   0.320   5.609 -1.1969 -1.5527 -0.2651
 3196SOL     OW21220   4.475   2.571   2.250 -0.1353  0.3625 -0.0374
 3196SOL    HW121221   4.487   2.655   2.205  1.0849  0.6200  0.7544
 3196SOL    HW221222   4.398   2.542   2.202 -1.5080  0.3257  2.2112
 3197SOL     OW21223   1.594   1.527   3.434  0.0159 -0.5437  0.3780
 3197SOL    HW121224   1.516   1.555   3.386 -1.1312  0.9150  3.1086
 3197SOL    HW221225   1.652   1.494   3.365  0.5507  0.9780  0.1211
 3198SOL     OW21226   0.830   1.900   4.310  0.1271 -0.6396 -0.0552
 3198SOL    HW121227   0.756   1.960   4.322 -1.1381 -1.8807 -1.6069
 3198SOL    HW221228   0.781   1.821   4.286 -0.6300 -0.3317  0.4521
 3199SOL     OW21229   2.004   0.579   3.047 -0.0704  0.2657 -0.5119
 3199SOL    HW121230   2.083   0.632   3.051 -0.9910  1.7617 -1.9463
 3199SOL    HW221231   1.992   0.546   3.136  1.2749 -0.8100 -0.7377
 3200SOL     OW21232   2.255   2.160   3.080 -0.1733  0.6141 -0.1105
 3200SOL    HW121233   2.331   2.108   3.106  0.3385  1.1178 -0.6165
 3200SOL    HW221234   2.196   2.140   3.153 -1.1483 -0.5686 -1.2067
 3201SOL     OW21235   1.726   0.310   3.492 -0.0404  0.2344  0.4655
 3201SOL    HW121236   1.802   0.358   3.526 -0.1446 -0.2228  1.3397
 3201SOL    HW221237   1.720   0.355   3.407 -1.2074 -0.3588  0.2379
 3202SOL     OW21238   1.144   0.320   1.426 -0.4806 -0.1267  0.0941
 3202SOL    HW121239   1.072   0.366   1.382 -0.2022 -1.3580 -1.6699
 3202SOL    HW221240   1.090   0.297   1.501 -1.2214  2.4559  0.3739
 3203SOL     OW21241   3.688   4.735   3.232 -0.6425  0.3596 -0.0037
 3203SOL    HW121242   3.660   4.690   3.153  2.2677 -1.5440  0.0630
 3203SOL    HW221243   3.767   0.044   3.206 -0.3663  0.7631  1.5819
 3204SOL     OW21244   1.420   1.542   8.098  0.0694  0.5924 -0.2282
 3204SOL    HW121245   1.354   1.611   8.090  1.7828  2.3064  0.7122
 3204SOL    HW221246   1.381   1.482   8.162 -0.2043  0.6282 -0.3601
 3205SOL     OW21247   2.721   3.639   4.302 -0.2616 -0.1484 -0.1619
 3205SOL    HW121248   2.644   3.595   4.338 -0.7473  1.3047  0.5948
 3205SOL    HW221249   2.790   3.581   4.334 -0.6120  0.4403  1.6701
 3206SOL     OW21250   2.529   3.026  10.727 -0.7771 -0.2294 -0.3101
 3206SOL    HW121251   2.562   3.103  10.774 -0.6770  0.6640 -1.8527
 3206SOL    HW221252   2.595   2.958  10.739 -0.5408 -0.1941 -1.4186
 3207SOL     OW21253   0.122   1.521   0.302 -0.3235  0.0375  0.0499
 3207SOL    HW121254   0.051   1.486   0.248 -1.3460  0.0794  1.3564
 3207SOL    HW221255   0.076   1.595   0.342 -0.6647 -0.1049 -0.0704
 3208SOL     OW21256   2.012   1.529  10.425  0.6913  0.0913  0.0078
 3208SOL    HW121257   2.104   1.542  10.402  0.9168 -1.8278 -0.1431
 3208SOL    HW221258   1.993   1.437  10.408 -1.0974  0.1119  1.9261
 3209SOL     OW21259   4.471   0.064   4.087  0.3813 -1.0490 -0.3665
 3209SOL    HW121260   4.413   0.139   4.079  0.5885 -0.9252 -0.6697
 3209SOL    HW221261   4.549   0.104   4.048 -0.0192 -0.7074 -0.8116
 3210SOL     OW21262   2.145   2.598   0.981  0.2382 -0.1996  0.2146
 3210SOL    HW121263   2.201   2.663   1.023  0.2882 -0.1501  0.0688
 3210SOL    HW221264   2.188   2.573   0.899  0.5942 -1.4791  0.7843
 3211SOL     OW21265   2.162   3.276   4.667  0.6665 -0.1708 -0.1005
 3211SOL    HW121266   2.195   3.344   4.726  0.8553  0.4701 -0.9546
 3211SOL    HW221267   2.168   3.322   4.584 -0.6626  2.1608  1.1004
 3212SOL     OW21268   1.698   3.337   3.010 -0.0901  0.0034 -0.0343
 3212SOL    HW121269   1.623   3.336   2.949 -1.3358  1.6834  1.4668
 3212SOL    HW221270   1.705   3.248   3.045 -0.2018 -0.1672 -0.4434
 3213SOL     OW21271   4.295   2.850   1.498 -0.5267 -0.0135 -0.1379
 3213SOL    HW121272   4.283   2.763   1.537 -0.2807 -0.4152 -0.9743
 3213SOL    HW221273   4.321   2.819   1.412  0.6880  0.6142  0.0090
 3214SOL     OW21274   2.816   1.675   7.009 -0.3534  0.0263 -0.1916
 3214SOL    HW121275   2.826   1.637   6.922  2.3705  0.5638 -0.1071
 3214SOL    HW221276   2.787   1.764   6.992 -1.9993 -0.2430  1.2499
 3215SOL     OW21277   0.312   3.733   9.002 -0.1293 -0.0267 -0.2740
 3215SOL    HW121278   0.350   3.780   9.077  0.2423  1.0545 -1.1447
 3215SOL    HW221279   0.281   3.811   8.956 -1.5474 -2.0711 -2.7513
 3216SOL     OW21280   4.072   1.245  17.109  0.3390 -0.1865  0.2097
 3216SOL    HW121281   4.076   1.241  17.205 -0.5743  2.0792  0.3290
 3216SOL    HW221282   4.079   1.154  17.080 -0.9659 -0.0149 -0.6116
 3217SOL     OW21283   3.040   2.064   6.871 -0.1257  0.2272 -0.2755
 3217SOL    HW121284   2.990   2.140   6.840  0.0457 -0.0636 -1.2572
 3217SOL    HW221285   2.976   2.015   6.924 -0.2007  1.2307  0.5601
 3218SOL     OW21286   0.111   2.092  15.860 -0.3569 -0.3798 -0.0923
 3218SOL    HW121287   0.035   2.112  15.916 -1.1200 -0.8970 -0.9402
 3218SOL    HW221288   0.175   2.079  15.930 -1.2911 -1.7890  0.4999
 3219SOL     OW21289   2.966   1.694  13.514  0.5917  0.3951 -0.8473
 3219SOL    HW121290   3.041   1.662  13.465 -1.7132 -2.8689 -2.2881
 3219SOL    HW221291   2.935   1.769  13.464 -0.4082  0.8273  0.4175
 3220SOL     OW21292   2.117   1.524   6.335 -0.1993 -0.5225 -0.1889
 3220SOL    HW121293   2.047   1.583   6.364  0.4539  0.2191 -0.1162
 3220SOL    HW221294   2.085   1.494   6.250 -0.0217 -0.8557 -0.1361
 3221SOL     OW21295   3.069   2.831   2.231 -0.0873 -0.2665 -0.0922
 3221SOL    HW121296   3.030   2.918   2.230  2.0070  0.6674  1.2190
 3221SOL    HW221297   3.040   2.792   2.148 -2.2671  0.5190  0.3016
 3222SOL     OW21298   2.009   0.336   4.223  0.2900 -0.3280  0.4691
 3222SOL    HW121299   2.091   0.347   4.174  0.0761 -0.4616  0.0849
 3222SOL    HW221300   2.025   0.422   4.262 -3.3488  1.2398 -1.5621
 3223SOL     OW21301   2.015   2.647  10.162 -0.3675  0.1228  0.2613
 3223SOL    HW121302   2.068   2.568  10.163  0.4493  0.6724  0.0544
 3223SOL    HW221303   2.019   2.680  10.072 -0.2946 -0.3764  0.0845
 3224SOL     OW21304   2.422   1.450   5.732 -0.2062  0.1589 -0.4355
 3224SOL    HW121305   2.496   1.403   5.692 -0.3049  0.2820 -0.7665
 3224SOL    HW221306   2.451   1.475   5.819 -0.4690  0.5078 -0.4536
 3225SOL     OW21307   1.274   3.058   3.647  0.6095 -0.4621 -0.3362
 3225SOL    HW121308   1.241   3.133   3.697  1.2430 -1.6944  1.9435
 3225SOL    HW221309   1.369   3.063   3.660  0.3779 -0.5451  1.3968
 3226SOL     OW21310   2.826   2.945  10.460 -0.3279  0.4027 -0.2763
 3226SOL    HW121311   2.800   2.903  10.542  0.8088  0.8574  0.3061
 3226SOL    HW221312   2.864   3.019  10.506  1.6068 -0.4385 -0.5126
 3227SOL     OW21313   4.311   4.159   1.767  0.4126  0.5026  0.3525
 3227SOL    HW121314   4.370   4.135   1.695 -0.5094 -1.2809  0.2011
 3227SOL    HW221315   4.383   4.180   1.827 -0.8809  2.1776  1.3168
 3228SOL     OW21316   1.589   3.525   5.861 -0.1340 -0.8432  0.2779
 3228SOL    HW121317   1.642   3.543   5.939 -0.5486  1.8248 -0.0403
 3228SOL    HW221318   1.577   3.613   5.824  0.9614 -0.7213  0.2120
 3229SOL     OW21319   1.418   1.823   2.357 -0.2910  0.6874  0.5492
 3229SOL    HW121320   1.339   1.871   2.330 -0.7757 -1.6162 -2.0289
 3229SOL    HW221321   1.441   1.882   2.429 -1.4584  2.2355 -0.3412
 3230SOL     OW21322   1.498   3.182  14.282 -0.2044  0.0284 -0.4063
 3230SOL    HW121323   1.555   3.140  14.217 -0.4925  0.9691 -1.2632
 3230SOL    HW221324   1.476   3.110  14.342  0.0765 -0.1296 -0.4908
 3231SOL     OW21325   1.624   4.618   5.180  0.4351  0.0996  0.6996
 3231SOL    HW121326   1.697   4.680   5.175 -2.2836  3.4241  1.5254
 3231SOL    HW221327   1.647   4.557   5.249 -0.5920  0.0577  1.0093
 3232SOL     OW21328   2.765   2.103   9.325  0.2671  0.1642  0.4733
 3232SOL    HW121329   2.792   2.129   9.413 -2.0494  0.5188  1.0841
 3232SOL    HW221330   2.772   2.009   9.345 -1.2521 -0.6285 -2.7973
 3233SOL     OW21331   3.712   0.304   3.472  0.0338  0.1333 -0.0452
 3233SOL    HW121332   3.799   0.269   3.453 -0.7358 -1.9450  0.2716
 3233SOL    HW221333   3.713   0.353   3.390  3.2466 -0.9202 -0.6178
 3234SOL     OW21334   1.754   2.224  16.746  0.5714  0.4956  0.0586
 3234SOL    HW121335   1.743   2.243  16.653  1.3126 -0.9543 -0.3379
 3234SOL    HW221336   1.775   2.131  16.741 -1.4261  0.0480  0.0617
 3235SOL     OW21337   1.465   4.265   9.381 -0.1623  0.7949  0.3502
 3235SOL    HW121338   1.400   4.306   9.438  0.6868  1.7825  0.6174
 3235SOL    HW221339   1.430   4.275   9.292 -0.1698  1.4515  0.4239
 3236SOL     OW21340   3.148   1.208  11.052 -0.2546  0.2847 -0.4797
 3236SOL    HW121341   3.116   1.119  11.042 -0.9271  0.6134 -1.3526
 3236SOL    HW221342   3.220   1.197  11.113 -2.0690  0.2535  1.6676
 3237SOL     OW21343   3.625   1.857   6.192  0.0185 -0.1391 -0.1670
 3237SOL    HW121344   3.644   1.765   6.210 -1.2416 -0.2389  0.6277
 3237SOL    HW221345   3.555   1.843   6.128 -0.3797  0.2265  0.1955
 3238SOL     OW21346   0.400   1.582   6.392  0.2811 -0.0245  0.2132
 3238SOL    HW121347   0.425   1.657   6.339  1.5865 -0.8624 -0.3658
 3238SOL    HW221348   0.471   1.521   6.371 -0.9324 -1.2508 -0.2692
 3239SOL     OW21349   2.083   4.103   0.964 -0.0622 -0.2605 -0.5464
 3239SOL    HW121350   2.034   4.177   1.000  0.5802 -0.7338  1.2936
 3239SOL    HW221351   2.091   4.047   1.040 -0.8610  0.5962  0.1718
 3240SOL     OW21352   4.628   1.186   7.869 -0.2144 -0.2945 -1.0686
 3240SOL    HW121353   4.593   1.130   7.938  2.9509 -1.1536 -0.1330
 3240SOL    HW221354   4.583   1.269   7.886  1.0638  0.3540 -0.8096
 3241SOL     OW21355   1.201   1.283  15.873 -0.7999 -0.8833 -0.8755
 3241SOL    HW121356   1.256   1.205  15.878 -0.5779 -0.5300  2.4010
 3241SOL    HW221357   1.138   1.269  15.943  0.3547 -1.5694  0.0337
 3242SOL     OW21358   1.148   2.433  13.300 -0.0941  0.3791  0.2674
 3242SOL    HW121359   1.237   2.443  13.264 -0.2299  0.4370 -0.0522
 3242SOL    HW221360   1.101   2.512  13.275  0.4376  0.1802 -1.3945
 3243SOL     OW21361   2.276   2.789   8.861 -0.2190 -0.3652 -0.4247
 3243SOL    HW121362   2.258   2.708   8.813  0.3168 -0.9541  0.3855
 3243SOL    HW221363   2.222   2.848   8.808  0.1516 -0.3520 -0.7905
 3244SOL     OW21364   0.990   2.531  15.962  0.2983 -0.2703 -0.0201
 3244SOL    HW121365   1.049   2.599  15.928  0.7824  0.3206  1.9974
 3244SOL    HW221366   0.911   2.570  15.925 -0.3238 -0.8863  0.6545
 3245SOL     OW21367   0.577   1.638   1.739  0.2401 -0.0102 -0.0252
 3245SOL    HW121368   0.616   1.719   1.707 -0.5322  0.2016 -0.4287
 3245SOL    HW221369   0.642   1.572   1.713  0.7464  0.2055  0.6722
 3246SOL     OW21370   1.292   0.185  15.467 -0.4899  0.0622 -0.2024
 3246SOL    HW121371   1.270   0.115  15.528 -0.8346 -0.6313 -1.1074
 3246SOL    HW221372   1.263   0.264  15.512  1.6441 -0.8249  2.7037
 3247SOL     OW21373   4.238   3.535  17.557 -0.0162  0.2618  0.4357
 3247SOL    HW121374   4.261   3.446  17.584 -0.1206 -0.4036 -1.6978
 3247SOL    HW221375   4.146   3.514  17.541  0.6035 -1.5246 -0.7576
 3248SOL     OW21376   3.205   3.722   7.987  0.4157  0.4594 -0.6700
 3248SOL    HW121377   3.118   3.684   8.004  0.2169 -0.6258 -4.2266
 3248SOL    HW221378   3.238   3.680   7.908  1.2239  1.3326 -0.8001
 3249SOL     OW21379   3.818   0.091   7.178 -0.0095 -0.0967 -0.9043
 3249SOL    HW121380   3.750   0.033   7.213  0.2974 -0.3047 -0.6505
 3249SOL    HW221381   3.775   0.153   7.120  2.3474  0.6563 -1.8575
 3250SOL     OW21382   3.722   3.211   4.918 -0.1522 -0.3722  0.2912
 3250SOL    HW121383   3.740   3.158   4.996  2.7325  0.5629  0.2708
 3250SOL    HW221384   3.667   3.281   4.953  1.4284  0.1485  1.7355
 3251SOL     OW21385   0.559   3.861  10.852 -0.1617  0.1092  0.3498
 3251SOL    HW121386   0.600   3.933  10.899 -1.8025  0.7694  0.7773
 3251SOL    HW221387   0.479   3.863  10.906  0.8149 -1.5468  1.8669
 3252SOL     OW21388   0.816   2.969   9.296 -0.1552 -0.1037  0.0247
 3252SOL    HW121389   0.903   2.986   9.333 -0.7049 -0.0022  1.2952
 3252SOL    HW221390   0.843   2.986   9.206 -0.6724  1.0702  0.0857
 3253SOL     OW21391   3.902   2.624   5.703 -0.0270  0.0286  0.3022
 3253SOL    HW121392   3.910   2.579   5.619  1.7974 -0.6208  0.8083
 3253SOL    HW221393   3.977   2.683   5.704  0.1535 -0.1638 -1.0219
 3254SOL     OW21394   0.460   0.907   8.591 -0.0911 -0.0050 -0.1155
 3254SOL    HW121395   0.446   0.996   8.559 -1.6996 -1.6471 -3.9733
 3254SOL    HW221396   0.384   0.863   8.555 -2.3669  3.1943  0.8359
 3255SOL     OW21397   0.219   3.094   6.697 -0.2689 -0.4260 -0.7430
 3255SOL    HW121398   0.309   3.066   6.714 -0.3267  0.1158  0.4808
 3255SOL    HW221399   0.221   3.190   6.704 -1.1362 -0.6320  2.3257
 3256SOL     OW21400   2.425   0.398   4.887  0.0426  0.0576  0.1568
 3256SOL    HW121401   2.362   0.394   4.959  2.5162  1.7759  2.4366
 3256SOL    HW221402   2.375   0.361   4.814 -2.0240  0.3069  1.4374
 3257SOL     OW21403   4.727   4.506   5.311 -0.0971  0.2562  0.2148
 3257SOL    HW121404   4.707   4.543   5.225 -1.1116 -2.4211 -0.7037
 3257SOL    HW221405   0.078   4.477   5.295 -1.0429 -2.6764  0.2422
 3258SOL     OW21406   2.793   3.978   9.222  0.2416  0.5178 -0.1523
 3258SOL    HW121407   2.716   3.955   9.172  0.3652  0.7922 -0.4675
 3258SOL    HW221408   2.859   3.914   9.194  0.7368  0.1147  1.9050
 3259SOL     OW21409   3.061   1.371  14.235 -0.0389 -0.3035  0.2007
 3259SOL    HW121410   3.101   1.428  14.170  1.5716  0.4023  1.8011
 3259SOL    HW221411   3.042   1.303  14.170  1.4007  0.3629 -0.9125
 3260SOL     OW21412   1.070   4.381   5.504 -0.3127  0.8200 -0.2059
 3260SOL    HW121413   0.979   4.383   5.534  0.1876  0.1390  1.3917
 3260SOL    HW221414   1.050   4.367   5.412 -0.3213 -1.8763  0.2007
 3261SOL     OW21415   3.157   3.861   6.382 -0.1612  0.0135 -0.2899
 3261SOL    HW121416   3.098   3.806   6.434 -0.3422 -0.4006 -0.9250
 3261SOL    HW221417   3.248   3.829   6.380  0.2236  1.1023 -0.1799
 3262SOL     OW21418   3.596   0.644   8.927  0.5194  0.4450  0.4482
 3262SOL    HW121419   3.534   0.653   9.000  1.2594 -0.2126  1.1635
 3262SOL    HW221420   3.673   0.608   8.972 -0.0293  2.0662  2.7073
 3263SOL     OW21421   1.568   1.215   1.756  0.1026  0.3690 -0.7457
 3263SOL    HW121422   1.646   1.243   1.804  0.7843 -0.8164 -1.1703
 3263SOL    HW221423   1.510   1.273   1.805  0.9503  1.6072 -1.2066
 3264SOL     OW21424   0.786   3.599  14.781 -0.3300  0.4243  0.4488
 3264SOL    HW121425   0.809   3.603  14.874 -2.4304 -0.7115  1.0089
 3264SOL    HW221426   0.693   3.620  14.781  0.0101  1.9533  1.2770
 3265SOL     OW21427   1.221   3.713   7.280  0.1663 -0.2977 -0.5988
 3265SOL    HW121428   1.285   3.711   7.351 -0.0110  1.5016 -0.3829
 3265SOL    HW221429   1.272   3.738   7.202 -0.8205  0.4766 -0.9995
 3266SOL     OW21430   1.267   3.974   7.413 -0.2977 -0.3994 -0.2193
 3266SOL    HW121431   1.229   3.911   7.352 -1.5987 -1.0184  1.2356
 3266SOL    HW221432   1.349   3.991   7.367 -0.1074 -0.3619  0.1359
 3267SOL     OW21433   3.359   1.991   4.043  0.2177  0.1580 -0.0358
 3267SOL    HW121434   3.289   1.942   4.086 -0.9237 -1.2904 -3.5480
 3267SOL    HW221435   3.302   2.048   3.991 -0.8199 -1.3896 -0.6291
 3268SOL     OW21436   0.459   2.614   2.986  0.0420 -0.4890 -0.4699
 3268SOL    HW121437   0.547   2.582   2.968  0.4401  1.1573 -1.5149
 3268SOL    HW221438   0.486   2.687   3.042 -0.3229 -1.2813  0.7181
 3269SOL     OW21439   3.537   2.115   2.120 -0.1613  0.1331  0.0192
 3269SOL    HW121440   3.504   2.050   2.182 -3.0056  2.5946  1.1211
 3269SOL    HW221441   3.576   2.182   2.176 -2.8692  1.7523 -0.0321
 3270SOL     OW21442   4.409   0.956  14.234  0.1364 -0.0544  0.3118
 3270SOL    HW121443   4.495   0.987  14.264  0.4327 -0.0253 -0.5660
 3270SOL    HW221444   4.364   0.932  14.315  1.8570 -0.2233  1.2342
 3271SOL     OW21445   1.927   0.234   7.992  0.1630 -0.4874 -0.1556
 3271SOL    HW121446   1.860   0.257   7.928  0.1264 -2.1280 -0.7021
 3271SOL    HW221447   1.984   0.178   7.940 -0.6920 -0.3998 -1.2019
 3272SOL     OW21448   4.440   1.374   0.312 -0.5274 -0.0101  0.0627
 3272SOL    HW121449   4.349   1.401   0.322 -0.4280 -0.1752  1.4146
 3272SOL    HW221450   4.457   1.357   0.405 -0.3622  0.1366  0.0609
 3273SOL     OW21451   4.739   1.228   4.312 -0.0786  0.3598 -0.1865
 3273SOL    HW121452   4.688   1.305   4.286  1.4555  1.3143 -0.3758
 3273SOL    HW221453   0.088   1.244   4.278 -0.2455 -0.0614 -0.8315
 3274SOL     OW21454   4.277   4.159   2.779 -0.0558 -0.0973 -0.4520
 3274SOL    HW121455   4.360   4.125   2.745 -0.1545  0.0475 -0.8336
 3274SOL    HW221456   4.302   4.164   2.872 -2.4073  0.8132  0.1183
 3275SOL     OW21457   2.303   2.963  12.599 -0.0656 -0.6993 -0.6694
 3275SOL    HW121458   2.337   2.877  12.625 -1.9783 -0.3700  2.9270
 3275SOL    HW221459   2.377   3.023  12.595  0.1036 -0.9386 -1.1322
 3276SOL     OW21460   3.802   0.683   4.851  0.5251  0.4582 -0.2486
 3276SOL    HW121461   3.734   0.730   4.803 -2.2856 -2.5076  0.8072
 3276SOL    HW221462   3.885   0.723   4.825  0.2328 -0.6700 -2.8762
 3277SOL     OW21463   0.778   4.423   5.537 -0.0842  0.2733  0.1630
 3277SOL    HW121464   0.740   4.448   5.453 -2.9670 -1.5404  0.9257
 3277SOL    HW221465   0.796   4.329   5.533  0.9409  0.4933 -0.3268
 3278SOL     OW21466   4.559   4.353   3.236 -0.3743 -0.0879  0.9438
 3278SOL    HW121467   4.594   4.290   3.299 -3.1651 -0.7409  1.8710
 3278SOL    HW221468   4.525   4.417   3.300 -3.0455  1.0775 -1.6313
 3279SOL     OW21469   1.158   2.295   7.142 -0.0620 -0.5427  0.3607
 3279SOL    HW121470   1.225   2.268   7.205  1.3775  1.2226 -0.4159
 3279SOL    HW221471   1.211   2.279   7.064 -0.1256 -1.0282  0.4144
 3280SOL     OW21472   3.102   3.742   3.016 -0.0953 -0.4471 -0.2366
 3280SOL    HW121473   3.158   3.746   3.093  1.5346  1.3277 -1.5180
 3280SOL    HW221474   3.161   3.765   2.945 -0.0317  0.5209  0.1270
 3281SOL     OW21475   0.890   1.351  13.204 -0.2407 -0.0700 -0.2476
 3281SOL    HW121476   0.969   1.405  13.202  0.3649 -1.0060 -1.1345
 3281SOL    HW221477   0.838   1.366  13.125  0.8397 -1.7645 -1.2787
 3282SOL     OW21478   0.777   2.963  12.985 -0.2685  0.3705 -0.0979
 3282SOL    HW121479   0.851   2.923  13.030  0.6870 -0.9780 -2.8234
 3282SOL    HW221480   0.823   3.034  12.940  0.5790  0.3324  0.7163
 3283SOL     OW21481   3.625   4.669  14.775 -0.6295  0.4151 -0.4285
 3283SOL    HW121482   3.577   0.004  14.812 -1.2053  0.6056 -1.5629
 3283SOL    HW221483   3.550   4.609  14.771 -0.4736  0.1860  0.1413
 3284SOL     OW21484   2.573   0.743   2.150  0.4590  0.0068  0.2493
 3284SOL    HW121485   2.620   0.675   2.101 -0.6734  0.6152 -1.6855
 3284SOL    HW221486   2.513   0.766   2.079  1.3469 -1.6822 -1.0656
 3285SOL     OW21487   2.913   0.221  14.374 -0.0668  0.0455 -0.2950
 3285SOL    HW121488   2.870   0.301  14.342 -1.0887 -0.7718 -0.9582
 3285SOL    HW221489   3.007   0.237  14.361  0.4341 -0.8237  2.2599
 3286SOL     OW21490   0.027   0.279   1.188  0.3006  0.4685 -0.2170
 3286SOL    HW121491   0.120   0.298   1.181  0.3566  0.0285 -0.7200
 3286SOL    HW221492   4.726   0.357   1.151 -0.1199 -0.3403 -1.4893
 3287SOL     OW21493   1.144   3.837   8.233  0.0938  0.3087 -0.3712
 3287SOL    HW121494   1.127   3.766   8.295  1.0204  0.9033  0.5601
 3287SOL    HW221495   1.135   3.907   8.298  1.1233 -0.3655  0.4865
 3288SOL     OW21496   2.547   3.109   5.426 -0.0068 -0.1536  0.5511
 3288SOL    HW121497   2.607   3.176   5.396 -2.1701  0.9769 -1.2494
 3288SOL    HW221498   2.464   3.156   5.437 -0.8476 -1.8008  1.2344
 3289SOL     OW21499   4.132   0.070   1.511  0.6024 -0.2041 -0.4031
 3289SOL    HW121500   4.156   0.118   1.431  2.4707 -1.5744 -0.6841
 3289SOL    HW221501   4.214   0.030   1.541  0.6211  0.8858  1.0198
 3290SOL     OW21502   4.631   0.176  15.984  0.1861  0.0106  0.0657
 3290SOL    HW121503   4.667   0.129  15.909  0.5238 -0.0811  0.2864
 3290SOL    HW221504   4.631   0.265  15.947  2.4751 -0.2370 -0.4657
 3291SOL     OW21505   3.910   3.528   3.912 -0.0275 -0.1743  0.4521
 3291SOL    HW121506   3.924   3.603   3.855  0.3179 -1.3400 -1.0141
 3291SOL    HW221507   3.901   3.572   3.997  0.1141  1.8227 -0.5781
 3292SOL     OW21508   4.016   1.051  15.086 -0.2845 -0.0128 -0.4650
 3292SOL    HW121509   3.964   1.132  15.087  2.8255  1.9883  1.1449
 3292SOL    HW221510   4.098   1.093  15.111  0.2122  0.3475 -2.6836
 3293SOL     OW21511   0.260   4.118   8.552  0.0766  0.1106 -0.2666
 3293SOL    HW121512   0.263   4.059   8.477 -1.9207  1.9328 -1.7878
 3293SOL    HW221513   0.338   4.104   8.605  1.0910 -1.6170 -2.2185
 3294SOL     OW21514   3.903   2.835   5.041 -0.6564  0.0910 -0.3086
 3294SOL    HW121515   3.858   2.794   4.967 -1.0683  1.6173 -0.8930
 3294SOL    HW221516   3.947   2.762   5.086 -0.9419  0.6119  0.8253
 3295SOL     OW21517   0.441   1.391   7.527 -0.3093  0.1235  0.6827
 3295SOL    HW121518   0.368   1.364   7.471  0.0870 -2.1776  1.2854
 3295SOL    HW221519   0.403   1.363   7.610  1.0205  0.8691  1.5472
 3296SOL     OW21520   4.425   2.962  16.993 -0.6912 -0.0751  0.0167
 3296SOL    HW121521   4.460   2.873  16.997  1.5284  0.9283  2.7778
 3296SOL    HW221522   4.367   2.964  17.070  0.2892 -1.0123  0.7834
 3297SOL     OW21523   1.885   4.692   5.196 -0.3399  0.2021  0.1812
 3297SOL    HW121524   1.893   4.656   5.285 -2.6207 -2.1469 -0.5639
 3297SOL    HW221525   1.923   0.041   5.196 -2.4873  1.1307  0.7759
 3298SOL     OW21526   1.712   4.490  15.400 -0.0851 -0.0653 -0.0800
 3298SOL    HW121527   1.690   4.490  15.307  1.1452 -0.9835 -0.3674
 3298SOL    HW221528   1.799   4.529  15.393  0.0660 -0.0749  1.7947
 3299SOL     OW21529   0.556   1.372   3.725  0.1113  0.1826 -0.1416
 3299SOL    HW121530   0.543   1.278   3.728  1.2641  0.0488  0.4823
 3299SOL    HW221531   0.478   1.412   3.766 -1.8102 -2.2533 -1.4574
 3300SOL     OW21532   3.449   2.568   4.141 -0.2839 -0.5973 -0.1143
 3300SOL    HW121533   3.525   2.621   4.168  1.3376 -2.8761 -0.2320
 3300SOL    HW221534   3.384   2.639   4.140 -1.1059 -1.3732 -1.3927
 3301SOL     OW21535   0.442   1.974   3.834 -0.1707 -0.3320  0.7941
 3301SOL    HW121536   0.494   1.908   3.788 -0.3719 -0.0642  0.1771
 3301SOL    HW221537   0.485   1.984   3.919  0.1521  1.2264  0.4528
 3302SOL     OW21538   1.013   0.935   6.381  0.4604  0.4075 -0.0973
 3302SOL    HW121539   0.951   0.944   6.453 -0.0187 -1.7715 -0.2323
 3302SOL    HW221540   0.966   0.872   6.326 -2.0891 -0.8020  3.5028
 3303SOL     OW21541   2.420   2.239   9.507  0.2245 -0.1364 -0.5202
 3303SOL    HW121542   2.344   2.276   9.462 -0.8756  0.9216  2.2285
 3303SOL    HW221543   2.410   2.287   9.589  1.6853  0.8589 -0.9187
 3304SOL     OW21544   0.689   2.456   1.982 -0.4974  0.7580  0.3500
 3304SOL    HW121545   0.751   2.527   1.966 -0.8062  0.8903 -0.2342
 3304SOL    HW221546   0.694   2.409   1.899 -1.5002 -0.8816  1.2031
 3305SOL     OW21547   0.544   1.809  16.482 -0.4252  0.3740 -0.2463
 3305SOL    HW121548   0.594   1.879  16.524 -1.6503  1.2903 -0.2816
 3305SOL    HW221549   0.559   1.820  16.388  0.0997  3.5912  0.2075
 3306SOL     OW21550   0.825   3.541   5.672  0.4605  0.5677 -0.7176
 3306SOL    HW121551   0.877   3.462   5.679 -0.0079  0.4488  1.5593
 3306SOL    HW221552   0.751   3.513   5.618 -0.1198 -0.1235  0.4507
 3307SOL     OW21553   0.809   4.232   6.302 -0.2591 -0.3276 -0.4452
 3307SOL    HW121554   0.872   4.303   6.313 -2.4690  1.4941  0.2434
 3307SOL    HW221555   0.779   4.213   6.391  1.6380  2.8298  0.8716
 3308SOL     OW21556   4.478   1.722   6.125  0.0596 -0.0697  0.3673
 3308SOL    HW121557   4.413   1.768   6.178  1.8951 -0.5447  3.0015
 3308SOL    HW221558   4.414   1.668   6.078  1.8303 -0.9642 -0.9845
 3309SOL     OW21559   2.425   3.899   2.249 -0.1878  0.5367 -0.2432
 3309SOL    HW121560   2.507   3.886   2.297  0.1081  1.8526 -0.3922
 3309SOL    HW221561   2.457   3.979   2.208  1.9194  1.7549  3.7353
 3310SOL     OW21562   1.028   0.723  14.746 -0.1830  0.1714  0.7331
 3310SOL    HW121563   1.113   0.766  14.738 -0.5254  0.9306  1.1961
 3310SOL    HW221564   1.004   0.723  14.653  1.8778  0.0435  0.1929
 3311SOL     OW21565   4.025   4.270  13.867  0.1710 -0.2556 -0.5580
 3311SOL    HW121566   3.991   4.329  13.799  0.7761  0.0001 -0.6377
 3311SOL    HW221567   4.024   4.324  13.946  1.1289  0.0796 -0.7724
 3312SOL     OW21568   2.817   0.809   7.402  0.6326  0.5209 -0.2628
 3312SOL    HW121569   2.896   0.757   7.419 -0.9155 -1.5024  0.6582
 3312SOL    HW221570   2.776   0.805   7.489  0.3706 -2.4982 -0.5461
 3313SOL     OW21571   2.119   1.379   7.850 -0.2399  0.4935 -0.1435
 3313SOL    HW121572   2.026   1.363   7.866  0.4183 -1.6076  1.6235
 3313SOL    HW221573   2.144   1.303   7.798  1.2682  1.0889 -0.2929
 3314SOL     OW21574   4.483   2.299   7.454 -0.4714  0.1844  0.2633
 3314SOL    HW121575   4.528   2.324   7.373 -2.4698  1.7771 -0.3506
 3314SOL    HW221576   4.402   2.350   7.448  0.3044  1.7402  3.0587
 3315SOL     OW21577   0.696   3.076   3.170 -0.5439 -0.5298  0.0932
 3315SOL    HW121578   0.736   3.092   3.256  0.5073 -0.2531 -0.4586
 3315SOL    HW221579   0.613   3.125   3.176  0.2014  0.7304  0.0307
 3316SOL     OW21580   0.280   2.501  13.272  0.0016 -0.0945  0.4355
 3316SOL    HW121581   0.277   2.553  13.191  0.1505 -0.7915 -0.0180
 3316SOL    HW221582   0.324   2.420  13.248 -0.1540  0.3930 -1.5414
 3317SOL     OW21583   2.291   1.805   4.387 -0.0289  0.4394  0.5309
 3317SOL    HW121584   2.339   1.740   4.438  0.7347 -1.3219 -2.4333
 3317SOL    HW221585   2.222   1.822   4.452 -0.2297 -0.7816  0.6492
 3318SOL     OW21586   1.674   1.034   3.966  0.3012  0.9136  0.0500
 3318SOL    HW121587   1.686   0.939   3.967 -0.1026  0.8598 -0.2981
 3318SOL    HW221588   1.591   1.045   4.012  0.9143  0.6247  1.2081
 3319SOL     OW21589   1.655   0.613   8.174 -0.2106 -0.9222  0.4470
 3319SOL    HW121590   1.708   0.533   8.180  0.4301 -0.4804  0.6609
 3319SOL    HW221591   1.625   0.603   8.265  1.3317 -3.1116  0.7190
 3320SOL     OW21592   0.027   0.615   2.156 -0.3854 -0.4628 -0.5467
 3320SOL    HW121593   4.684   0.658   2.176  0.6503  0.2839  1.9917
 3320SOL    HW221594   0.058   0.671   2.085  0.6002  0.9717  1.0223
 3321SOL     OW21595   4.323   2.927   3.014  0.3446  0.2718 -0.5095
 3321SOL    HW121596   4.329   3.021   3.027  3.3523  0.2920 -2.0069
 3321SOL    HW221597   4.338   2.898   3.104 -0.2943  0.5295 -0.3234
 3322SOL     OW21598   4.213   2.178  15.093 -0.1344 -0.0593 -0.6024
 3322SOL    HW121599   4.305   2.202  15.085  0.4442 -0.5855  4.3718
 3322SOL    HW221600   4.167   2.261  15.104 -0.2804 -0.1212 -0.7433
 3323SOL     OW21601   3.632   4.039   2.893  0.3326  0.0311  0.0763
 3323SOL    HW121602   3.579   4.062   2.816 -0.2539 -0.4499  0.3312
 3323SOL    HW221603   3.654   3.951   2.861  1.7373  1.0758 -1.7945
 3324SOL     OW21604   2.904   3.747  11.603 -0.3791  0.4162  0.0561
 3324SOL    HW121605   2.943   3.754  11.516 -1.5472 -1.2311 -0.6016
 3324SOL    HW221606   2.870   3.658  11.598 -0.8292  0.5180  1.5700
 3325SOL     OW21607   2.485   1.714   3.653  0.3921 -0.2257  0.1251
 3325SOL    HW121608   2.401   1.685   3.618  0.2278  1.0656 -0.5418
 3325SOL    HW221609   2.539   1.637   3.633 -1.9852 -2.1292  1.0033
 3326SOL     OW21610   0.091   0.312   4.219  0.6690  0.2706  0.1279
 3326SOL    HW121611   0.156   0.382   4.212  1.0605  0.0493  1.5419
 3326SOL    HW221612   0.142   0.231   4.213  0.9135  0.6844 -3.3980
 3327SOL     OW21613   1.908   3.563   6.389 -0.2649 -0.1224 -0.2981
 3327SOL    HW121614   1.899   3.468   6.397 -1.7728  0.1528  1.4251
 3327SOL    HW221615   1.819   3.587   6.414 -0.0626 -1.4859  1.7280
 3328SOL     OW21616   4.624   4.268  15.213  0.2193  0.3519  0.0471
 3328SOL    HW121617   4.668   4.298  15.134  1.1798 -0.5680  0.2380
 3328SOL    HW221618   4.679   4.311  15.278 -1.4472  0.4594  1.3800
 3329SOL     OW21619   1.508   1.409   2.302  0.3749  0.0587 -0.5603
 3329SOL    HW121620   1.471   1.452   2.379  1.7554 -0.4278  0.3788
 3329SOL    HW221621   1.436   1.357   2.266  1.4346 -2.0547  0.4092
 3330SOL     OW21622   4.125   0.329   0.067  0.1316 -0.2570 -0.0391
 3330SOL    HW121623   4.216   0.301   0.058  0.0010 -1.1138  1.3514
 3330SOL    HW221624   4.074   0.248   0.068 -2.1694  1.1606 -1.9637
 3331SOL     OW21625   0.870   3.426   4.648  0.3276 -0.2866  0.0157
 3331SOL    HW121626   0.922   3.346   4.634  2.8359  1.3570 -0.1184
 3331SOL    HW221627   0.940   3.490   4.660  0.1296  0.0466 -0.6330
 3332SOL     OW21628   3.961   0.286   6.553  0.2186 -0.0757 -1.0237
 3332SOL    HW121629   3.894   0.221   6.534  0.3415 -0.7040  0.7065
 3332SOL    HW221630   4.001   0.255   6.634 -1.3769 -0.8755 -0.5456
 3333SOL     OW21631   1.833   3.512   3.304  0.3684  0.6738  0.2046
 3333SOL    HW121632   1.750   3.539   3.344 -0.2416 -0.8661 -0.0111
 3333SOL    HW221633   1.842   3.425   3.343 -1.4424  0.0281 -0.8036
 3334SOL     OW21634   4.701   1.895  12.839  0.0141 -0.5915 -0.6066
 3334SOL    HW121635   0.035   1.846  12.802  1.7605  0.1232  1.9085
 3334SOL    HW221636   4.708   1.869  12.931  0.4695  0.7802 -0.2580
 3335SOL     OW21637   2.290   3.985   7.697  0.0211  0.1656  0.9476
 3335SOL    HW121638   2.382   3.996   7.720  0.9554 -2.1282 -1.6633
 3335SOL    HW221639   2.249   3.970   7.782 -1.0452 -0.0475  0.3885
 3336SOL     OW21640   1.196   3.297   4.826  0.1782  0.3055 -0.4090
 3336SOL    HW121641   1.130   3.276   4.760  0.6465  1.7806 -1.3302
 3336SOL    HW221642   1.226   3.381   4.793  2.0185 -0.0604  0.3279
 3337SOL     OW21643   0.869   1.951   5.104 -0.0401  0.6618 -0.2666
 3337SOL    HW121644   0.775   1.941   5.090 -0.0158  0.1034 -0.0345
 3337SOL    HW221645   0.879   1.871   5.156 -2.7821 -0.6850 -1.7889
 3338SOL     OW21646   1.648   4.177   7.280  0.3443  0.4437 -0.2902
 3338SOL    HW121647   1.698   4.213   7.206 -0.4715  2.7427  0.2705
 3338SOL    HW221648   1.722   4.160   7.338  0.0037 -2.2721 -0.6449
 3339SOL     OW21649   0.668   2.287   1.035  0.6135 -0.0199 -0.3765
 3339SOL    HW121650   0.584   2.270   0.991  0.6156 -0.2736 -0.2820
 3339SOL    HW221651   0.696   2.373   1.002 -0.7246  0.3227 -0.6603
 3340SOL     OW21652   2.029   1.666   5.174 -0.7398 -0.2043 -0.3492
 3340SOL    HW121653   2.067   1.578   5.167  0.1713  0.3161 -1.7883
 3340SOL    HW221654   1.968   1.651   5.247 -0.3493 -0.4727 -0.0722
 3341SOL     OW21655   1.041   1.671   6.548 -0.0895 -0.7527 -0.1578
 3341SOL    HW121656   1.126   1.627   6.557  0.5799  0.3931 -0.8420
 3341SOL    HW221657   1.074   1.757   6.524 -1.9971 -0.5321 -1.9839
 3342SOL     OW21658   3.366   2.531   2.369 -0.3463  0.8458 -0.4707
 3342SOL    HW121659   3.325   2.609   2.405 -0.8605  0.0811  0.6047
 3342SOL    HW221660   3.285   2.488   2.341  0.1760 -0.9242  0.7413
 3343SOL     OW21661   0.509   4.665   2.208 -0.0502  0.1617  0.0958
 3343SOL    HW121662   0.462   4.640   2.129  2.7492  1.7576 -2.0923
 3343SOL    HW221663   0.599   4.639   2.185 -0.3950 -0.3439 -0.6909
 3344SOL     OW21664   4.717   1.979   2.914 -0.7812 -0.3147  0.2882
 3344SOL    HW121665   4.709   1.921   2.989  0.6396  1.1375  1.5723
 3344SOL    HW221666   0.023   2.051   2.958  1.6917 -1.1273 -0.9260
 3345SOL     OW21667   4.176   0.025   1.931  0.1799 -0.1085 -0.3764
 3345SOL    HW121668   4.200   4.687   1.982 -0.1204 -0.1744 -0.3338
 3345SOL    HW221669   4.082   0.006   1.926 -0.1092  1.4694 -1.0930
 3346SOL     OW21670   1.920   0.996   6.781  0.0331  0.0825  0.3345
 3346SOL    HW121671   1.877   0.921   6.820 -2.6839  1.2926 -0.2690
 3346SOL    HW221672   1.961   1.027   6.861  1.5890 -0.5392 -0.2229
 3347SOL     OW21673   1.698   1.331   1.016 -0.0824 -0.1391  0.1144
 3347SOL    HW121674   1.726   1.268   1.082 -0.7799 -1.7817 -1.1661
 3347SOL    HW221675   1.775   1.342   0.960 -0.8629 -0.5805 -1.0553
 3348SOL     OW21676   2.422   2.748   0.753  0.1792 -0.0057  0.3239
 3348SOL    HW121677   2.394   2.823   0.701 -3.2024 -2.0339 -0.7527
 3348SOL    HW221678   2.473   2.797   0.818  1.5478  1.7808 -2.0856
 3349SOL     OW21679   3.614   2.551   5.449  0.1181 -0.3315 -0.6140
 3349SOL    HW121680   3.682   2.510   5.503 -1.3214  0.4304  1.7700
 3349SOL    HW221681   3.648   2.537   5.361  1.2147 -0.2793 -0.2063
 3350SOL     OW21682   4.324   1.466   7.062 -0.0983  0.5256  0.2944
 3350SOL    HW121683   4.400   1.516   7.090 -1.9798  2.4609  1.9613
 3350SOL    HW221684   4.356   1.379   7.035  1.5591  1.5519 -1.0522
 3351SOL     OW21685   4.676   2.631   9.918 -0.8762  0.0094 -0.2767
 3351SOL    HW121686   4.653   2.723   9.931 -0.3378 -0.1096  1.5048
 3351SOL    HW221687   0.009   2.630   9.855  0.6622  2.9253  1.4366
 3352SOL     OW21688   0.550   1.022   2.906  0.4991 -0.5423 -0.8003
 3352SOL    HW121689   0.487   0.955   2.932 -0.2953  0.0261 -1.2296
 3352SOL    HW221690   0.615   0.975   2.855  2.2549  0.8922  0.1085
 3353SOL     OW21691   0.105   2.644   3.672  0.3009  0.1438 -0.7427
 3353SOL    HW121692   0.130   2.708   3.739  1.7324 -0.8818 -0.3137
 3353SOL    HW221693   0.161   2.576   3.708  0.0704  0.2597 -0.1686
 3354SOL     OW21694   4.666   0.738  12.198 -0.3359  0.2571 -0.5372
 3354SOL    HW121695   0.016   0.767  12.220 -0.8246  0.2804  1.3501
 3354SOL    HW221696   4.636   0.708  12.283  2.7552 -0.7675  0.2175
 3355SOL     OW21697   1.141   0.491   6.980  0.1177 -0.0343 -0.1265
 3355SOL    HW121698   1.078   0.432   7.022  1.6782 -0.2659  1.8746
 3355SOL    HW221699   1.223   0.459   7.015 -0.1693  0.8652  1.3814
 3356SOL     OW21700   0.306   3.246   1.803  0.3972  0.8812  0.6367
 3356SOL    HW121701   0.366   3.171   1.808 -2.5432 -1.3966  1.8413
 3356SOL    HW221702   0.231   3.205   1.761  1.0471  0.9108 -0.5508
 3357SOL     OW21703   1.507   2.914   8.458  0.4970  0.3311 -0.3561
 3357SOL    HW121704   1.601   2.934   8.450  0.8635 -1.2384  0.0310
 3357SOL    HW221705   1.484   2.942   8.547 -1.5529 -0.6347 -0.5959
 3358SOL     OW21706   4.394   4.609  13.790  0.3398  0.5957 -0.0548
 3358SOL    HW121707   4.352   4.560  13.719  1.1841  0.9978 -0.8334
 3358SOL    HW221708   4.482   4.570  13.791  0.5581  1.0818 -0.0874
 3359SOL     OW21709   3.229   4.282   6.464  0.1430 -0.8781 -0.3116
 3359SOL    HW121710   3.218   4.318   6.376  1.7068  0.1114 -0.0874
 3359SOL    HW221711   3.206   4.366   6.504  2.3573 -0.2268 -0.4396
 3360SOL     OW21712   0.434   1.878   1.414  0.0459  0.1126  0.0614
 3360SOL    HW121713   0.390   1.921   1.340 -2.1437 -0.0004  1.2980
 3360SOL    HW221714   0.389   1.794   1.403  1.0439 -0.5904  1.3781
 3361SOL     OW21715   0.996   3.154  17.323  0.7638 -0.3548  0.1283
 3361SOL    HW121716   1.042   3.098  17.260 -2.0247 -1.2115 -1.1189
 3361SOL    HW221717   1.068   3.185  17.378  0.8153 -0.1985 -0.0293
 3362SOL     OW21718   0.399   0.392   4.760 -0.7358 -0.2592  0.2145
 3362SOL    HW121719   0.423   0.482   4.783  2.0316 -1.2074  1.0451
 3362SOL    HW221720   0.322   0.410   4.706 -0.4409 -1.6773 -0.6573
 3363SOL     OW21721   1.549   0.884   5.305  0.4501 -0.6263  0.0098
 3363SOL    HW121722   1.540   0.871   5.399 -0.1388 -0.0792  0.0293
 3363SOL    HW221723   1.615   0.953   5.311 -0.0406 -0.2331  0.8768
 3364SOL     OW21724   2.334   4.719   2.735 -0.6844 -0.0755 -0.3651
 3364SOL    HW121725   2.351   0.073   2.752  0.2807 -0.4542  0.8362
 3364SOL    HW221726   2.334   4.689   2.826 -0.8941  1.3805  0.1160
 3365SOL     OW21727   2.009   1.591  12.101 -0.1024 -0.3657  0.3405
 3365SOL    HW121728   2.078   1.545  12.053 -0.2687  1.2653 -1.4131
 3365SOL    HW221729   2.019   1.679  12.065 -0.1677 -0.6550 -0.3804
 3366SOL     OW21730   3.573   0.361   9.287 -0.5763  0.5693  0.2347
 3366SOL    HW121731   3.491   0.377   9.240  0.0600  1.4790 -0.5578
 3366SOL    HW221732   3.544   0.302   9.357 -0.2906 -0.3985 -0.4658
 3367SOL     OW21733   3.265   2.781   4.185 -0.4921 -0.2010  0.1744
 3367SOL    HW121734   3.221   2.863   4.160 -2.0917 -1.2893 -0.5809
 3367SOL    HW221735   3.298   2.809   4.270  0.5084  1.0452 -0.6137
 3368SOL     OW21736   3.239   2.112   5.884 -0.0648  0.3844 -0.0793
 3368SOL    HW121737   3.307   2.166   5.844 -1.0643  0.6386 -1.4112
 3368SOL    HW221738   3.206   2.056   5.814  0.0841 -2.0169  1.7457
 3369SOL     OW21739   2.027   0.180   2.783  0.1294  0.4607 -0.1129
 3369SOL    HW121740   2.013   0.272   2.802 -1.3577  0.0566  0.7505
 3369SOL    HW221741   2.074   0.181   2.700  4.7307 -1.8514  2.4755
 3370SOL     OW21742   2.818   2.555   1.683  0.2233  0.2276  0.0286
 3370SOL    HW121743   2.731   2.580   1.715  0.4993  0.1600  0.8307
 3370SOL    HW221744   2.841   2.631   1.630  0.0409  1.1670  1.2994
 3371SOL     OW21745   3.533   3.529   3.161 -0.1946  0.3269  0.5389
 3371SOL    HW121746   3.612   3.506   3.210 -0.0766  0.0336  0.2131
 3371SOL    HW221747   3.464   3.474   3.197 -1.2144  0.5756 -1.0384
 3372SOL     OW21748   4.513   0.350   7.936 -0.2823  0.2331 -0.2315
 3372SOL    HW121749   4.607   0.364   7.922  0.1616 -2.0012  0.5702
 3372SOL    HW221750   4.510   0.331   8.030 -0.7642  0.9300 -0.1065
 3373SOL     OW21751   2.740   2.075  12.497 -0.6940  0.5963  0.4009
 3373SOL    HW121752   2.759   1.984  12.474  0.4111  0.9127  0.0276
 3373SOL    HW221753   2.740   2.066  12.592 -0.2377  0.5235  0.3950
 3374SOL     OW21754   4.296   2.837   7.761 -0.0391 -0.7033 -0.1322
 3374SOL    HW121755   4.254   2.859   7.678 -0.5039  1.6165  0.7366
 3374SOL    HW221756   4.388   2.850   7.740 -0.4694  1.2331 -0.8286
 3375SOL     OW21757   0.217   0.551   6.545 -0.5969  0.1469 -0.0421
 3375SOL    HW121758   0.223   0.484   6.476  1.2655 -1.1876  1.3942
 3375SOL    HW221759   0.143   0.601   6.511  0.2491  1.9415  0.7471
 3376SOL     OW21760   3.238   2.983   2.931  0.4997 -0.2403  0.1821
 3376SOL    HW121761   3.154   3.026   2.911  1.0451  0.3274 -0.8967
 3376SOL    HW221762   3.290   3.054   2.969  0.6462 -0.5879  0.6309
 3377SOL     OW21763   4.323   1.270   4.379 -0.7291 -0.1805  0.6463
 3377SOL    HW121764   4.266   1.342   4.351  1.4220  1.2978  0.0555
 3377SOL    HW221765   4.275   1.249   4.459 -2.0998  1.4051  0.2465
 3378SOL     OW21766   4.306   3.351   1.209 -0.1165 -0.0739 -0.5498
 3378SOL    HW121767   4.221   3.395   1.206 -0.1298 -0.1526 -1.5371
 3378SOL    HW221768   4.355   3.427   1.179 -0.8157  0.5436 -0.1237
 3379SOL     OW21769   3.683   2.760   3.553 -0.2725 -0.4763 -0.4294
 3379SOL    HW121770   3.731   2.717   3.624 -1.9342  1.0535  1.6279
 3379SOL    HW221771   3.666   2.684   3.498 -1.9780 -0.4827  0.1060
 3380SOL     OW21772   1.103   1.846   5.367  0.3577 -0.0824  0.0514
 3380SOL    HW121773   1.181   1.791   5.362  0.4070  0.1038 -1.3289
 3380SOL    HW221774   1.073   1.803   5.286  0.7106  0.3821 -0.3268
 3381SOL     OW21775   3.006   1.356   8.606 -0.5496  0.0294 -0.8906
 3381SOL    HW121776   2.942   1.397   8.664 -0.5552 -1.3436  0.0905
 3381SOL    HW221777   3.030   1.272   8.646  2.6837  1.0340 -0.7813
 3382SOL     OW21778   1.747   2.015   2.581  0.4583  0.1227 -0.1569
 3382SOL    HW121779   1.801   1.996   2.658  0.1964 -1.3523 -0.3307
 3382SOL    HW221780   1.781   1.952   2.517 -0.5772  0.6928 -1.2723
 3383SOL     OW21781   4.499   1.881   6.962  0.4739  0.0103 -0.3044
 3383SOL    HW121782   4.481   1.939   6.887 -1.4391 -3.6917 -2.7112
 3383SOL    HW221783   4.477   1.938   7.036  1.2023 -1.6357  1.1741
 3384SOL     OW21784   0.039   3.936   6.478 -0.1711  0.1096 -0.1596
 3384SOL    HW121785   4.710   3.976   6.531 -2.3283 -0.7167 -2.2980
 3384SOL    HW221786   0.110   3.924   6.540 -1.7788  0.2452  1.6967
 3385SOL     OW21787   3.723   0.004  16.830  0.0932 -0.2337  0.5106
 3385SOL    HW121788   3.708   4.693  16.750 -0.9464  0.6574  0.1409
 3385SOL    HW221789   3.662   0.077  16.815  1.1560  0.0531 -2.4615
 3386SOL     OW21790   0.687   3.058  16.500  0.0160 -0.1437  0.1098
 3386SOL    HW121791   0.773   3.092  16.478 -0.6498  0.9978 -0.7329
 3386SOL    HW221792   0.679   3.094  16.588 -0.1081  0.4384 -0.1373
 3387SOL     OW21793   0.045   3.874   6.028 -0.1557 -0.1767 -0.2317
 3387SOL    HW121794   0.067   3.804   6.090  1.6530 -1.1801 -2.0127
 3387SOL    HW221795   0.029   3.943   6.093  2.3076  0.2082 -0.0588
 3388SOL     OW21796   2.954   3.300   9.149 -0.2018  0.2937  0.0879
 3388SOL    HW121797   3.030   3.357   9.138 -0.2571  0.6067  1.3504
 3388SOL    HW221798   2.922   3.330   9.233  0.3458  0.4486  0.2417
 3389SOL     OW21799   1.285   3.512   5.898  0.2746 -0.5998  0.2181
 3389SOL    HW121800   1.295   3.476   5.810  3.2295  1.6608 -0.3658
 3389SOL    HW221801   1.380   3.525   5.910  0.2623 -0.7016  0.4199
 3390SOL     OW21802   1.721   3.754   7.484  0.1267  0.5551 -0.0277
 3390SOL    HW121803   1.766   3.819   7.430 -0.2227  1.1953  0.4516
 3390SOL    HW221804   1.762   3.778   7.567  2.1033 -1.3303 -0.4744
 3391SOL     OW21805   4.161   0.697   1.354 -0.3469  0.1454  0.3261
 3391SOL    HW121806   4.175   0.637   1.281 -0.6953  0.1994  0.2148
 3391SOL    HW221807   4.100   0.763   1.321 -1.7967 -1.2403  0.2218
 3392SOL     OW21808   4.251   2.106   7.377 -0.1817  0.5328 -0.8429
 3392SOL    HW121809   4.222   2.196   7.390  0.4757  0.7437 -0.8120
 3392SOL    HW221810   4.166   2.063   7.373 -0.9060  1.8446  0.3199
 3393SOL     OW21811   1.915   2.209   7.138 -0.3539  0.6232  0.5410
 3393SOL    HW121812   1.865   2.127   7.137 -0.6515  0.8090 -3.2614
 3393SOL    HW221813   2.003   2.174   7.122 -0.8548 -0.6075  0.4902
 3394SOL     OW21814   3.594   2.283   7.908 -0.0799 -0.0528 -0.6577
 3394SOL    HW121815   3.512   2.234   7.900  0.4024 -1.0695  0.6747
 3394SOL    HW221816   3.627   2.255   7.993 -2.2763 -2.4160 -0.5827
 3395SOL     OW21817   0.525   3.624  16.871 -0.5920  0.3405  0.0476
 3395SOL    HW121818   0.484   3.538  16.882  0.2901  0.0421  1.0223
 3395SOL    HW221819   0.495   3.640  16.782 -1.1656 -1.8569 -0.1523
 3396SOL     OW21820   0.521   2.520   4.229 -0.3606 -0.7133 -0.1915
 3396SOL    HW121821   0.488   2.561   4.309  0.9055 -1.9873  0.9912
 3396SOL    HW221822   0.602   2.565   4.207  0.2553 -0.5370  2.4439
 3397SOL     OW21823   4.227   3.433   2.339 -0.6633  0.0648 -0.0533
 3397SOL    HW121824   4.179   3.435   2.257  0.1427 -0.5944 -0.5416
 3397SOL    HW221825   4.312   3.471   2.316 -0.3805 -0.2849  0.3899
 3398SOL     OW21826   3.402   2.419   6.027  0.6704 -0.3619  0.4093
 3398SOL    HW121827   3.363   2.505   6.014  1.5093 -0.5830 -3.5121
 3398SOL    HW221828   3.454   2.408   5.948 -0.6746 -0.3392 -0.4758
 3399SOL     OW21829   3.711   2.755  10.279  0.2934  0.5394  0.0322
 3399SOL    HW121830   3.780   2.725  10.339  0.2878 -1.3030 -0.8643
 3399SOL    HW221831   3.639   2.781  10.337  0.1129 -0.0582  0.0832
 3400SOL     OW21832   1.142   2.694   5.903 -0.0702 -0.0910 -0.1234
 3400SOL    HW121833   1.155   2.602   5.878  0.4484 -0.1590  0.3879
 3400SOL    HW221834   1.142   2.690   5.999  0.8843  0.9154 -0.0769
 3401SOL     OW21835   3.061   2.229  14.920  0.0449 -0.5992 -0.4795
 3401SOL    HW121836   2.985   2.201  14.870 -1.3388  0.2292  1.1760
 3401SOL    HW221837   3.109   2.146  14.914 -1.4624 -1.7594  3.5203
 3402SOL     OW21838   0.208   2.722   4.296 -0.3039  0.0693 -0.1839
 3402SOL    HW121839   0.270   2.713   4.224 -0.0987 -0.2062  0.0253
 3402SOL    HW221840   0.203   2.814   4.323  1.6031 -0.5907  2.4602
 3403SOL     OW21841   3.046   3.145   2.802  0.1574  0.2401 -0.5490
 3403SOL    HW121842   3.116   3.203   2.773  0.3959  0.8907  1.3466
 3403SOL    HW221843   3.002   3.189   2.875  0.4760 -1.1743  0.5030
 3404SOL     OW21844   0.445   1.032   5.301 -0.0185 -0.5927  0.3293
 3404SOL    HW121845   0.517   1.026   5.364  0.1905  1.0785  0.2570
 3404SOL    HW221846   0.389   1.102   5.335  0.3763 -0.5141  0.8142
 3405SOL     OW21847   0.282   2.055   4.649 -0.0782 -0.0401 -0.8583
 3405SOL    HW121848   0.310   2.033   4.737 -3.2679 -1.0755 -0.0808
 3405SOL    HW221849   0.317   1.985   4.593 -0.4312 -1.4564  0.6857
 3406SOL     OW21850   1.877   0.905   6.413 -0.2725  0.4594 -0.3095
 3406SOL    HW121851   1.915   0.820   6.390 -0.3679 -0.1626  1.8004
 3406SOL    HW221852   1.834   0.877   6.494  1.9928  1.4781  1.2354
 3407SOL     OW21853   0.608   3.879  14.919  0.2345 -0.0276 -0.4145
 3407SOL    HW121854   0.548   3.952  14.907  1.5792  1.4204  1.7181
 3407SOL    HW221855   0.639   3.869  14.829  1.6142  0.7122 -0.0304
 3408SOL     OW21856   3.582   2.906   6.470 -0.1622 -0.2143 -0.1436
 3408SOL    HW121857   3.614   2.823   6.506 -1.4295 -1.8730 -2.8286
 3408SOL    HW221858   3.502   2.919   6.521 -0.3609  0.4617 -0.6326
 3409SOL     OW21859   0.100   4.526   1.716 -0.2238  0.4032 -0.1500
 3409SOL    HW121860   0.054   4.601   1.756  0.8886  0.3125  1.3147
 3409SOL    HW221861   0.190   4.542   1.745  0.0116 -1.1308 -0.0345
 3410SOL     OW21862   3.814   0.651  16.734 -0.1021 -0.8702  0.3850
 3410SOL    HW121863   3.862   0.724  16.774 -0.6714  1.1932 -2.7204
 3410SOL    HW221864   3.883   0.591  16.708  0.1052  0.4497 -2.0850
 3411SOL     OW21865   3.576   1.866   3.635  0.5881 -0.3302 -0.1124
 3411SOL    HW121866   3.611   1.954   3.643  0.6927 -0.5735  2.0599
 3411SOL    HW221867   3.502   1.878   3.695  2.0595 -1.4282  1.9201
 3412SOL     OW21868   2.981   1.006  10.750 -0.1803 -0.7013 -0.1288
 3412SOL    HW121869   3.051   0.946  10.777  0.8318  0.9301  0.8649
 3412SOL    HW221870   2.960   0.973  10.663  2.8328 -0.9817 -0.7381
 3413SOL     OW21871   1.805   4.595  16.698 -0.5077 -0.1031  0.0143
 3413SOL    HW121872   1.852   4.597  16.614  0.2987 -1.6857  0.4319
 3413SOL    HW221873   1.779   4.503  16.689  3.6297 -1.1622 -1.1765
 3414SOL     OW21874   2.011   1.106   7.037  0.3929  0.9519  0.0120
 3414SOL    HW121875   1.925   1.130   7.072 -0.8351  0.1936 -2.5323
 3414SOL    HW221876   2.036   1.192   7.003  0.9267  1.9565  2.9394
 3415SOL     OW21877   3.092   0.246   2.764  0.3745 -0.8324 -0.1098
 3415SOL    HW121878   3.037   0.309   2.717 -1.0198 -0.0389  2.5995
 3415SOL    HW221879   3.031   0.172   2.762 -0.8212  0.1109  1.6545
 3416SOL     OW21880   4.632   4.610   6.155  0.2268  0.3466 -0.4485
 3416SOL    HW121881   4.589   4.696   6.160 -0.8857 -0.3336  1.5260
 3416SOL    HW221882   4.566   4.561   6.107  0.4405  0.5353 -0.9380
 3417SOL     OW21883   0.802   0.600   2.434  0.4082 -0.1027  0.6847
 3417SOL    HW121884   0.761   0.571   2.353  1.6871 -1.6286  0.5905
 3417SOL    HW221885   0.875   0.651   2.399  0.6644  0.2475  1.7356
 3418SOL     OW21886   4.493   0.091   2.080 -0.1648  0.2173 -0.2991
 3418SOL    HW121887   4.576   0.113   2.122 -1.2452 -1.6247  2.7474
 3418SOL    HW221888   4.442   0.057   2.153  0.0154  0.0188 -0.2648
 3419SOL     OW21889   0.829   0.803   6.231  0.2698  0.4471  0.1018
 3419SOL    HW121890   0.817   0.804   6.136 -1.8383 -1.7213  0.3287
 3419SOL    HW221891   0.762   0.865   6.259  0.6314  1.4382 -1.2060
 3420SOL     OW21892   3.494   2.086  15.790 -0.1562  0.2242  0.0556
 3420SOL    HW121893   3.408   2.053  15.817  0.0961  1.0103  1.8206
 3420SOL    HW221894   3.523   2.009  15.742 -0.4249  1.7460 -2.5785
 3421SOL     OW21895   4.521   4.081   3.590 -0.5729 -0.4059 -0.5363
 3421SOL    HW121896   4.515   4.057   3.682  0.9928 -1.2771 -0.6647
 3421SOL    HW221897   4.485   4.169   3.600  0.7609 -0.0732  1.1943
 3422SOL     OW21898   4.293   0.632   7.217 -0.4543 -0.0328  0.3542
 3422SOL    HW121899   4.246   0.706   7.256 -1.2092  0.0605 -0.7261
 3422SOL    HW221900   4.285   0.568   7.287 -1.7784 -0.6725 -0.3867
 3423SOL     OW21901   1.355   1.795   0.593 -0.0890 -0.5406  0.0615
 3423SOL    HW121902   1.267   1.801   0.555  0.1593 -1.1684 -0.6086
 3423SOL    HW221903   1.391   1.738   0.525  0.0918 -0.5187  0.1375
 3424SOL     OW21904   2.446   3.799   8.642 -0.0028  0.5684 -0.1486
 3424SOL    HW121905   2.514   3.775   8.579 -0.1888  1.2013 -0.6026
 3424SOL    HW221906   2.392   3.865   8.597  0.3428  0.3677 -0.8494
 3425SOL     OW21907   0.071   2.101   9.028  0.3372 -0.1901 -0.1936
 3425SOL    HW121908   4.722   2.137   9.019  2.3096  4.4624 -0.7489
 3425SOL    HW221909   0.080   2.073   9.119  0.9953 -0.4323 -0.3344
 3426SOL     OW21910   4.387   2.498  14.371 -0.7415 -0.1104  0.2414
 3426SOL    HW121911   4.470   2.484  14.417 -0.5111  3.6038  0.9185
 3426SOL    HW221912   4.413   2.535  14.286 -0.0641  2.2844  1.4893
 3427SOL     OW21913   0.409   4.302   2.619 -0.5868 -0.1472  0.1487
 3427SOL    HW121914   0.449   4.223   2.585 -2.4080 -0.5598 -1.0549
 3427SOL    HW221915   0.406   4.361   2.543  2.6868  2.4793  2.0420
 3428SOL     OW21916   3.854   3.712   4.671  0.0359 -0.2509 -0.0034
 3428SOL    HW121917   3.765   3.742   4.651  1.1789  1.9457 -1.8476
 3428SOL    HW221918   3.881   3.799   4.701 -1.4350 -0.1526  1.0680
 3429SOL     OW21919   2.931   3.871   3.973 -0.8483 -0.4010 -0.1482
 3429SOL    HW121920   2.983   3.889   3.895 -1.2037  0.6227 -0.1466
 3429SOL    HW221921   2.856   3.929   3.960  0.5499  0.8819 -2.4568
 3430SOL     OW21922   0.512   1.751   7.726 -0.2246 -0.1707  0.4247
 3430SOL    HW121923   0.554   1.698   7.658  0.1934 -0.5188  0.9502
 3430SOL    HW221924   0.430   1.704   7.742 -0.3395 -0.4760 -1.0593
 3431SOL     OW21925   0.756   2.667  17.113  0.0847  0.2562  0.5638
 3431SOL    HW121926   0.741   2.709  17.028  3.3748  0.2705  0.0225
 3431SOL    HW221927   0.820   2.598  17.098  0.6815  0.3333  2.7251
 3432SOL     OW21928   2.284   3.295   9.339 -0.1779 -0.4826 -0.4840
 3432SOL    HW121929   2.209   3.349   9.367 -0.1425 -0.0074 -1.2950
 3432SOL    HW221930   2.349   3.365   9.338  2.0684 -2.5687  0.2904
 3433SOL     OW21931   2.184   4.005   6.240  0.5647  0.3741 -0.0168
 3433SOL    HW121932   2.101   4.005   6.289 -0.3872 -1.8322 -1.6136
 3433SOL    HW221933   2.184   4.094   6.207  0.8883  0.5389  0.4388
 3434SOL     OW21934   2.510   0.812   3.136 -0.0787 -0.3943  0.3166
 3434SOL    HW121935   2.535   0.737   3.190  1.5188 -0.3098 -0.3175
 3434SOL    HW221936   2.590   0.831   3.087  0.3596  0.8789  1.5368
 3435SOL     OW21937   4.733   3.956   8.288  0.0405 -0.0301  0.8447
 3435SOL    HW121938   0.088   3.957   8.309  0.5549 -1.0293 -1.4256
 3435SOL    HW221939   4.728   3.864   8.262  0.1520 -0.0501  0.8930
 3436SOL     OW21940   4.103   4.523   1.313  0.0866  0.1512  0.3784
 3436SOL    HW121941   4.190   4.529   1.351  0.2511 -0.8172  0.1588
 3436SOL    HW221942   4.044   4.489   1.380  0.6253 -1.1990  0.1710
 3437SOL     OW21943   1.457   2.106  10.797  0.5062 -0.6052 -0.3095
 3437SOL    HW121944   1.500   2.032  10.754  1.3644  0.8336 -1.9410
 3437SOL    HW221945   1.452   2.165  10.721  0.0999 -0.8138 -0.4437
 3438SOL     OW21946   1.533   0.387   7.569  0.1578 -0.2490 -0.5383
 3438SOL    HW121947   1.517   0.293   7.563  1.4572 -0.5557  0.6345
 3438SOL    HW221948   1.606   0.387   7.507  0.7979 -2.5092  0.2049
 3439SOL     OW21949   2.976   0.599   8.368 -0.3784 -0.3950  0.1061
 3439SOL    HW121950   2.922   0.629   8.295  1.0465  1.2550 -0.2783
 3439SOL    HW221951   2.912   0.575   8.435  1.1466 -2.7124  0.7140
 3440SOL     OW21952   3.879   4.595   4.949  0.3272  0.3996  0.6209
 3440SOL    HW121953   3.957   4.647   4.929  0.8681 -0.2193  1.1326
 3440SOL    HW221954   3.922   4.527   5.001 -0.3602 -0.3974  0.1406
 3441SOL     OW21955   3.221   3.663   3.265 -0.2280 -0.1282 -0.1605
 3441SOL    HW121956   3.190   3.752   3.284  0.5902  0.2875 -0.7574
 3441SOL    HW221957   3.257   3.646   3.352 -1.9125 -1.5982  0.2439
 3442SOL     OW21958   4.111   3.090  16.719  0.3804  0.3841 -0.6097
 3442SOL    HW121959   4.046   3.042  16.667 -0.6463  0.1151  0.9523
 3442SOL    HW221960   4.080   3.180  16.723 -1.0707 -0.1394 -0.4261
 3443SOL     OW21961   1.972   0.143  16.547  0.6156 -0.4049  0.4431
 3443SOL    HW121962   1.956   0.108  16.459  0.0249 -1.3792  0.9334
 3443SOL    HW221963   2.067   0.151  16.546  0.7646 -2.3533 -0.6123
 3444SOL     OW21964   2.668   1.222   8.692  0.0034  0.3610  0.0257
 3444SOL    HW121965   2.588   1.268   8.666 -1.1525 -0.8203  1.4716
 3444SOL    HW221966   2.690   1.262   8.776 -1.2880  0.2655  0.4156
 3445SOL     OW21967   3.771   0.744  11.513 -0.0022  0.7209  0.4007
 3445SOL    HW121968   3.677   0.754  11.525 -0.1131 -1.1051  0.9823
 3445SOL    HW221969   3.804   0.722  11.600  1.5888 -0.8455 -0.5999
 3446SOL     OW21970   0.724   1.122   8.902 -0.1286  0.5483 -0.0520
 3446SOL    HW121971   0.643   1.077   8.922  0.5914 -0.5086  0.4616
 3446SOL    HW221972   0.776   1.050   8.865 -1.0389  0.6543 -1.5526
 3447SOL     OW21973   3.961   0.916   4.061  0.4441  0.6379 -0.3461
 3447SOL    HW121974   3.868   0.928   4.042  0.5620  0.9597 -0.7214
 3447SOL    HW221975   3.984   0.853   3.992  2.1006 -0.8781  1.5739
 3448SOL     OW21976   3.016   3.657   0.338  0.2961 -0.3761 -0.4879
 3448SOL    HW121977   2.979   3.737   0.301 -0.2432  1.1654  3.4071
 3448SOL    HW221978   2.980   3.649   0.426 -0.7931 -4.7741 -1.3302
 3449SOL     OW21979   0.808   2.495   3.224 -0.2875  0.8683 -0.1414
 3449SOL    HW121980   0.884   2.472   3.278 -1.0317  1.7463  1.2658
 3449SOL    HW221981   0.738   2.463   3.281 -0.2105  1.3115  0.2022
 3450SOL     OW21982   1.750   0.025  16.181 -0.3553 -0.2009 -0.3284
 3450SOL    HW121983   1.660   4.735  16.197 -0.6630 -0.0773 -1.7922
 3450SOL    HW221984   1.786   4.676  16.170  1.7719  0.9159 -2.5048
 3451SOL     OW21985   2.354   2.739   6.137 -0.3220  0.3990  0.3786
 3451SOL    HW121986   2.293   2.795   6.185  1.6531  1.0885  2.0342
 3451SOL    HW221987   2.302   2.660   6.120  0.4640  0.0570 -0.4338
 3452SOL     OW21988   4.406   4.546  14.721 -0.1524  0.3292  0.0303
 3452SOL    HW121989   4.397   4.550  14.816  3.2446 -1.6817  0.4184
 3452SOL    HW221990   4.331   4.488  14.703  0.5595 -0.4563 -0.3988
 3453SOL     OW21991   3.271   1.288   8.537  0.3995  0.4361 -0.1230
 3453SOL    HW121992   3.183   1.320   8.551  0.6175  0.7470  0.5387
 3453SOL    HW221993   3.267   1.195   8.560  2.0257  0.3808 -0.0490
 3454SOL     OW21994   3.013   0.602   5.457 -0.0017 -0.0870  0.2095
 3454SOL    HW121995   3.083   0.630   5.398 -2.0944  1.9715 -1.2861
 3454SOL    HW221996   2.972   0.684   5.484 -3.2294 -0.6740 -2.9403
 3455SOL     OW21997   0.898   4.196  11.290 -0.6288 -0.2894  0.4848
 3455SOL    HW121998   0.944   4.277  11.312  0.9606 -1.3529  1.1596
 3455SOL    HW221999   0.883   4.165  11.380  0.8824  0.4169  0.9879
 3456SOL     OW22000   1.377   1.824   8.273 -0.1857  0.0919  0.4945
 3456SOL    HW122001   1.396   1.771   8.351  1.8529  0.2350  0.0907
 3456SOL    HW222002   1.295   1.862   8.302 -1.0583 -0.4621 -1.2441
 3457SOL     OW22003   2.112   1.929   2.517 -0.5056 -0.0100  0.1757
 3457SOL    HW122004   2.020   1.924   2.542 -1.2837  0.3109 -2.5695
 3457SOL    HW222005   2.165   1.928   2.597 -0.9732  1.1373  0.4983
 3458SOL     OW22006   0.761   3.845   9.567 -0.3158 -0.6515  0.2877
 3458SOL    HW122007   0.750   3.940   9.562 -1.9981 -0.8262  0.4947
 3458SOL    HW222008   0.843   3.838   9.519 -0.1964 -0.8992  0.5282
 3459SOL     OW22009   4.657   2.136   7.622 -0.2135  0.3571 -0.0280
 3459SOL    HW122010   4.578   2.138   7.567 -1.1391 -2.4084  1.1628
 3459SOL    HW222011   4.633   2.215   7.670 -2.4301 -0.0479 -0.4407
 3460SOL     OW22012   2.052   1.061  15.095  0.0278 -0.3819  0.3631
 3460SOL    HW122013   1.989   1.133  15.105 -1.3541 -1.6096  0.3643
 3460SOL    HW222014   2.084   1.062  15.185 -0.6507  0.0168  0.5979
 3461SOL     OW22015   3.895   2.584   8.684 -0.5609 -0.1708  0.0060
 3461SOL    HW122016   3.926   2.512   8.739  1.4656  0.5091 -0.2445
 3461SOL    HW222017   3.964   2.592   8.619 -1.3855  2.1206 -0.5692
 3462SOL     OW22018   0.553   0.407  12.131 -0.1511 -0.4755  0.3163
 3462SOL    HW122019   0.641   0.370  12.126  0.9204  2.0887 -0.1306
 3462SOL    HW222020   0.513   0.337  12.080  1.0469  0.9807 -2.6473
 3463SOL     OW22021   1.335   2.817   2.638 -0.0150 -0.5192  0.0367
 3463SOL    HW122022   1.340   2.855   2.726  1.8525  0.6193 -0.5635
 3463SOL    HW222023   1.404   2.752   2.649  2.7627  2.3176 -0.9296
 3464SOL     OW22024   2.037   3.162   4.008 -0.2008  0.5414  0.6471
 3464SOL    HW122025   2.047   3.228   3.940 -2.6881  0.6480  0.4086
 3464SOL    HW222026   2.124   3.122   4.016 -0.5477 -0.2409  0.4763
 3465SOL     OW22027   0.447   3.337   2.057 -0.3021 -0.8032  1.1414
 3465SOL    HW122028   0.363   3.342   2.011 -1.2101 -0.3847  2.8264
 3465SOL    HW222029   0.500   3.328   1.978 -0.2452 -2.0885  1.3321
 3466SOL     OW22030   0.579   2.194  10.363  0.2839  0.5052  0.1584
 3466SOL    HW122031   0.656   2.174  10.310 -0.5043 -1.9172 -0.0617
 3466SOL    HW222032   0.621   2.225  10.443 -0.8555  0.9512  0.5813
 3467SOL     OW22033   2.396   0.864   7.664 -0.5098  0.2483 -0.2622
 3467SOL    HW122034   2.418   0.957   7.663 -0.6963  0.2742 -1.4785
 3467SOL    HW222035   2.397   0.840   7.757  0.7570 -1.2484 -0.6612
 3468SOL     OW22036   4.587   0.980   5.634  0.3145 -0.1504  0.1016
 3468SOL    HW122037   4.623   0.909   5.580 -1.7972 -1.0063 -0.1819
 3468SOL    HW222038   4.660   1.041   5.634  0.6875 -0.5864 -2.2637
 3469SOL     OW22039   2.146   2.311   3.845  0.1885 -0.1110  0.8434
 3469SOL    HW122040   2.105   2.298   3.759 -1.9477  1.7699  1.5785
 3469SOL    HW222041   2.103   2.239   3.892 -2.3980  0.1305 -1.1410
 3470SOL     OW22042   0.429   4.209  17.640 -0.2608 -0.4966  0.7241
 3470SOL    HW122043   0.501   4.146  17.636  0.2652  0.1343  0.2528
 3470SOL    HW222044   0.362   4.142  17.656 -0.3509 -0.1415  1.8025
 3471SOL     OW22045   3.887   3.855   5.722 -0.4331 -0.6225  0.0217
 3471SOL    HW122046   3.886   3.923   5.789  0.6168 -1.2517  0.6847
 3471SOL    HW222047   3.968   3.878   5.677 -0.8827 -0.3927 -0.6698
 3472SOL     OW22048   1.139   3.430   5.146 -0.0882  0.2339  0.2145
 3472SOL    HW122049   1.089   3.353   5.116  1.5361  0.1734 -2.3598
 3472SOL    HW222050   1.178   3.453   5.062  2.1591  0.2075  1.2671
 3473SOL     OW22051   2.866   3.698   5.723 -0.1801 -0.1482  0.1665
 3473SOL    HW122052   2.824   3.748   5.653  2.5100 -0.0687 -1.3417
 3473SOL    HW222053   2.922   3.764   5.763 -1.0780 -0.4323  1.9313
 3474SOL     OW22054   1.456   1.420  14.297 -0.3395  0.3247 -0.3120
 3474SOL    HW122055   1.412   1.407  14.381 -0.5882 -0.8356 -0.6308
 3474SOL    HW222056   1.458   1.515  14.286  0.1462 -0.0395 -3.2577
 3475SOL     OW22057   2.752   3.555  13.648 -0.2279 -0.3350  0.1566
 3475SOL    HW122058   2.731   3.571  13.556  2.5291  0.5582 -0.3336
 3475SOL    HW222059   2.692   3.614  13.695  0.4964  0.9779 -0.5483
 3476SOL     OW22060   4.236   2.592   6.053  0.3816 -0.1158  0.4862
 3476SOL    HW122061   4.253   2.555   6.140  0.2695 -2.5082 -0.4892
 3476SOL    HW222062   4.210   2.513   6.005  2.5745  0.6894 -1.9900
 3477SOL     OW22063   0.159   2.324  17.313 -0.2078 -0.1345 -0.0161
 3477SOL    HW122064   0.178   2.413  17.343 -0.3568 -0.1977  0.2653
 3477SOL    HW222065   0.120   2.334  17.226 -1.0885  1.0230  0.5241
 3478SOL     OW22066   1.824   2.049   5.422  0.2593  0.4183 -0.6914
 3478SOL    HW122067   1.740   2.095   5.417 -0.8389 -1.4622  0.5104
 3478SOL    HW222068   1.800   1.973   5.476  1.2641  1.1860  0.8409
 3479SOL     OW22069   3.497   1.447   4.075 -0.0514 -0.1173  0.3798
 3479SOL    HW122070   3.456   1.530   4.099 -0.8512 -0.6380  0.7895
 3479SOL    HW222071   3.538   1.471   3.992  1.3625 -1.7054  0.6200
 3480SOL     OW22072   1.533   4.714   2.216  0.6528 -0.3260 -0.6310
 3480SOL    HW122073   1.559   4.625   2.240  0.7643  0.3271  1.6225
 3480SOL    HW222074   1.613   0.023   2.236 -0.7707  2.2024 -1.0492
 3481SOL     OW22075   1.406   1.294  12.096 -0.7510  0.4049 -0.3195
 3481SOL    HW122076   1.446   1.221  12.145 -1.3097 -0.5655 -1.3294
 3481SOL    HW222077   1.321   1.257  12.073 -1.6117  2.3923 -0.2907
 3482SOL     OW22078   2.733   3.910  10.331 -0.6081  0.1415  0.0182
 3482SOL    HW122079   2.738   3.994  10.286  1.5032 -0.0734 -0.1329
 3482SOL    HW222080   2.814   3.912  10.382 -1.2619  2.3868  0.9929
 3483SOL     OW22081   2.353   2.695   5.465  0.1863 -0.7808  0.3055
 3483SOL    HW122082   2.443   2.726   5.460 -0.7899  1.5972 -3.5364
 3483SOL    HW222083   2.307   2.777   5.443  0.3954 -0.2322  1.8987
 3484SOL     OW22084   2.173   3.130   9.174  0.2693 -0.4695 -0.3983
 3484SOL    HW122085   2.222   3.198   9.220  1.1082 -0.2683 -1.6065
 3484SOL    HW222086   2.237   3.072   9.134  1.2432  0.3214  0.0013
 3485SOL     OW22087   0.098   4.244   7.556 -0.6334 -0.2541 -0.6904
 3485SOL    HW122088   0.104   4.340   7.554 -0.8836 -0.2379 -0.6196
 3485SOL    HW222089   0.118   4.217   7.467  2.6998 -0.0746 -0.0068
 3486SOL     OW22090   1.900   4.661   8.905 -0.2091  0.7985  0.4006
 3486SOL    HW122091   1.947   4.716   8.843 -0.2622  1.7479  1.2157
 3486SOL    HW222092   1.977   4.633   8.954  0.1262  2.1403  0.6212
 3487SOL     OW22093   1.983   2.568   6.326  0.5778 -0.2434 -0.2156
 3487SOL    HW122094   1.915   2.522   6.376  0.0986  0.9852  0.2870
 3487SOL    HW222095   1.967   2.543   6.235  2.2528  0.2478 -0.6337
 3488SOL     OW22096   4.278   4.673   0.444  0.4950  0.0233  0.0948
 3488SOL    HW122097   4.316   4.587   0.461 -0.6512 -0.3333  0.7794
 3488SOL    HW222098   4.290   4.680   0.349  1.5345  0.8312  0.2762
 3489SOL     OW22099   3.411   4.151   7.822 -0.4210 -0.0472 -0.0119
 3489SOL    HW122100   3.379   4.084   7.882 -1.0391  1.0940  0.9371
 3489SOL    HW222101   3.417   4.219   7.889 -1.3611 -0.8727  0.9097
 3490SOL     OW22102   2.863   0.582  11.491 -0.0783  0.3302  0.4241
 3490SOL    HW122103   2.927   0.620  11.550 -1.8071  1.5789  1.5013
 3490SOL    HW222104   2.828   0.508  11.541  0.8773 -1.6793 -1.9037
 3491SOL     OW22105   0.709   2.884   6.711  0.0914 -0.1575 -0.0893
 3491SOL    HW122106   0.674   2.815   6.655 -1.6381  1.6545 -1.2564
 3491SOL    HW222107   0.673   2.858   6.796  4.1296 -0.6606  1.4677
 3492SOL     OW22108   2.144   3.786   4.487 -0.1138  0.2497  0.2254
 3492SOL    HW122109   2.227   3.744   4.510  1.6427  2.7794 -1.5246
 3492SOL    HW222110   2.169   3.829   4.405  1.4547 -1.1186 -0.0200
 3493SOL     OW22111   1.542   0.052   4.905  0.6825  0.2337 -0.2032
 3493SOL    HW122112   1.523   0.084   4.993  0.1463  2.2932 -1.0730
 3493SOL    HW222113   1.634   0.076   4.899  1.2912 -1.7755  1.2821
 3494SOL     OW22114   0.399   0.085  16.746 -0.1617  0.6409 -0.3284
 3494SOL    HW122115   0.409   0.092  16.651  3.0283  1.0042  0.0456
 3494SOL    HW222116   0.343   0.007  16.752  1.5927 -0.5562  0.3316
 3495SOL     OW22117   1.965   3.311   6.534  0.1725  0.6535 -0.1269
 3495SOL    HW122118   2.055   3.327   6.508 -0.0074  0.9130 -0.5883
 3495SOL    HW222119   1.949   3.343   6.622 -3.1903  2.0700 -1.2337
 3496SOL     OW22120   3.854   1.471   9.014 -0.1681 -0.4005  0.6494
 3496SOL    HW122121   3.857   1.393   8.959  1.0132  2.2058 -2.9862
 3496SOL    HW222122   3.865   1.538   8.946 -2.6121 -2.2163 -1.5198
 3497SOL     OW22123   3.834   2.375   1.549  0.0890  0.1991 -0.0743
 3497SOL    HW122124   3.757   2.371   1.605 -1.0273  0.4998 -1.6221
 3497SOL    HW222125   3.801   2.364   1.461  0.3935 -0.2878 -0.1325
 3498SOL     OW22126   2.374   4.587   1.334  0.4829 -0.8298 -0.0923
 3498SOL    HW122127   2.308   4.547   1.391  1.3273  0.2430  1.6424
 3498SOL    HW222128   2.323   4.666   1.316  0.0660 -1.2700 -0.8528
 3499SOL     OW22129   4.158   3.654   3.314  0.0164 -0.1249 -0.0673
 3499SOL    HW122130   4.196   3.742   3.309 -1.1006  0.3635  0.1159
 3499SOL    HW222131   4.106   3.660   3.233  2.3530 -0.5468 -1.6066
 3500SOL     OW22132   1.314   1.006   3.615  0.1148  0.0274 -0.0644
 3500SOL    HW122133   1.314   0.946   3.690 -1.3688 -0.4177 -0.4303
 3500SOL    HW222134   1.238   0.965   3.573 -0.3244  0.4412  0.3211
 3501SOL     OW22135   0.764   1.418   5.894 -0.1949 -0.2844  0.1369
 3501SOL    HW122136   0.680   1.412   5.848 -0.3343  0.5496  0.2829
 3501SOL    HW222137   0.744   1.495   5.947  1.7892  1.2625 -1.3605
 3502SOL     OW22138   2.123   2.882   3.592  0.0296  0.2978  0.0249
 3502SOL    HW122139   2.195   2.826   3.622  0.1076 -0.2068 -1.0676
 3502SOL    HW222140   2.055   2.846   3.649  0.7909  1.7305  1.8306
 3503SOL     OW22141   1.312   3.738   8.031  0.5055  0.2107  0.1279
 3503SOL    HW122142   1.355   3.663   8.072 -2.7552 -1.1862  1.0318
 3503SOL    HW222143   1.256   3.772   8.100  0.0723  0.0991 -0.1681
 3504SOL     OW22144   2.389   3.439  14.789 -0.7152  1.0459 -0.1389
 3504SOL    HW122145   2.417   3.527  14.764  0.1001  1.0276  0.7533
 3504SOL    HW222146   2.347   3.417  14.706  0.4127 -0.8191 -0.2098
 3505SOL     OW22147   2.239   0.208   8.574  0.0296 -0.1787 -0.0968
 3505SOL    HW122148   2.216   0.116   8.556 -0.2124 -0.0224 -0.5790
 3505SOL    HW222149   2.312   0.222   8.514  0.9871  2.0863  1.5815
 3506SOL     OW22150   3.082   0.713   7.810  0.3912  0.1586 -0.6060
 3506SOL    HW122151   3.164   0.720   7.859 -0.1159 -0.5782  0.3476
 3506SOL    HW222152   3.109   0.751   7.727  1.3331 -0.7857 -0.7422
 3507SOL     OW22153   0.863   1.934   5.609 -0.2207 -0.0320 -0.4507
 3507SOL    HW122154   0.900   1.987   5.538  0.2700 -1.0975 -0.9764
 3507SOL    HW222155   0.789   1.990   5.632 -0.9190 -1.3375  0.4581
 3508SOL     OW22156   2.779   0.170   1.686  0.1836  0.5756  0.2378
 3508SOL    HW122157   2.808   0.231   1.618  1.7918 -0.2647  0.1795
 3508SOL    HW222158   2.755   0.093   1.635  0.8905 -0.6775  1.7763
 3509SOL     OW22159   2.191   1.377   7.187 -0.3052 -0.0296 -0.5100
 3509SOL    HW122160   2.226   1.464   7.209  3.2042 -1.8814  1.2597
 3509SOL    HW222161   2.262   1.318   7.213  0.1020  1.7489  2.4629
 3510SOL     OW22162   1.736   1.859   3.189  0.4398 -0.1471  0.0885
 3510SOL    HW122163   1.641   1.864   3.177  0.5616 -1.7419 -1.4822
 3510SOL    HW222164   1.770   1.868   3.100 -2.1617  3.3928 -0.5388
 3511SOL     OW22165   2.327   2.601   7.247 -0.0409  0.3557 -0.0912
 3511SOL    HW122166   2.270   2.562   7.180  0.3228 -0.4815  0.0892
 3511SOL    HW222167   2.381   2.527   7.274  0.0551 -0.6011 -2.8586
 3512SOL     OW22168   4.013   2.622   5.203  0.1334 -0.0959 -0.6076
 3512SOL    HW122169   4.031   2.697   5.259  0.1465 -1.2342  0.9204
 3512SOL    HW222170   4.104   2.598   5.182  0.4505 -1.2677  2.0660
 3513SOL     OW22171   0.969   3.879   6.256 -0.6156 -0.0918 -0.1505
 3513SOL    HW122172   0.973   3.922   6.341 -3.2490 -1.8989  0.8639
 3513SOL    HW222173   0.930   3.799   6.290 -0.8795  0.6436  1.2759
 3514SOL     OW22174   1.866   4.199   6.151  0.0602  0.1837  0.3101
 3514SOL    HW122175   1.798   4.217   6.216 -1.3879 -2.8103 -0.3751
 3514SOL    HW222176   1.893   4.283   6.115 -1.0457  0.5699  0.3851
 3515SOL     OW22177   3.201   3.142   3.395 -0.1024  0.1213 -0.2726
 3515SOL    HW122178   3.264   3.207   3.364 -2.0470  1.1685 -2.0679
 3515SOL    HW222179   3.244   3.116   3.477  0.1376  1.3719  0.0014
 3516SOL     OW22180   2.044   2.469   2.151  0.2868 -0.5861  0.1310
 3516SOL    HW122181   2.099   2.402   2.192 -0.4914 -0.3970  1.4973
 3516SOL    HW222182   2.014   2.417   2.077 -0.8523  0.1008  0.1021
 3517SOL     OW22183   1.134   2.114  11.085  0.4469 -0.0523 -0.4045
 3517SOL    HW122184   1.202   2.181  11.083  2.2607 -1.9110 -0.5831
 3517SOL    HW222185   1.175   2.061  11.017 -0.4028 -1.9814  0.5697
 3518SOL     OW22186   1.830   3.580   1.347  0.0455  0.3530  0.0777
 3518SOL    HW122187   1.812   3.663   1.391 -0.8262  0.1549  0.1055
 3518SOL    HW222188   1.814   3.609   1.257  1.6441 -2.8199 -1.2254
 3519SOL     OW22189   4.515   1.041   8.067  0.1466 -0.3411  0.0201
 3519SOL    HW122190   4.446   0.996   8.017 -0.5600 -0.7081  1.3309
 3519SOL    HW222191   4.474   1.059   8.152  2.0622  0.9953  0.6662
 3520SOL     OW22192   4.264   4.138   7.864  0.4039  0.0036 -0.2925
 3520SOL    HW122193   4.267   4.226   7.826 -1.7087  0.0006 -0.4823
 3520SOL    HW222194   4.317   4.154   7.942  2.0652 -0.0376 -1.4153
 3521SOL     OW22195   2.395   4.069   5.699 -0.0779 -0.7179  0.4451
 3521SOL    HW122196   2.458   4.141   5.690 -0.7700 -0.0974  0.6173
 3521SOL    HW222197   2.399   4.040   5.608  1.0859 -0.3451  0.3692
 3522SOL     OW22198   0.917   1.112   0.097 -0.2406  0.1315 -0.2602
 3522SOL    HW122199   0.843   1.154   0.140  0.4510  1.8874 -0.7633
 3522SOL    HW222200   0.892   1.020   0.087  3.4620 -0.9661  0.5756
 3523SOL     OW22201   4.548   1.438  17.659 -0.2023 -0.3499  0.2774
 3523SOL    HW122202   4.609   1.449  17.585  0.0363 -1.0021  0.3772
 3523SOL    HW222203   4.542   1.342  17.658  1.5361 -0.4617 -0.1915
 3524SOL     OW22204   0.261   3.526   3.894 -0.0095 -0.0418 -0.4258
 3524SOL    HW122205   0.246   3.602   3.952 -1.1112  0.2838 -1.1529
 3524SOL    HW222206   0.225   3.568   3.816  0.4587  0.8288 -0.1832
 3525SOL     OW22207   3.498   3.817   8.019 -0.0643  0.4411 -0.6953
 3525SOL    HW122208   3.408   3.787   8.010 -0.5706  1.2528  1.6386
 3525SOL    HW222209   3.526   3.750   8.082 -0.0861  1.8201  0.7771
 3526SOL     OW22210   4.391   0.199  16.318 -0.4937 -0.1537  0.0774
 3526SOL    HW122211   4.447   0.276  16.317 -0.4123 -0.2133  0.0525
 3526SOL    HW222212   4.351   0.193  16.405  1.2991 -3.8806  0.6728
 3527SOL     OW22213   2.377   0.476   6.036  0.0209 -0.4416 -0.3295
 3527SOL    HW122214   2.456   0.529   6.026 -0.8158  0.3887 -2.4457
 3527SOL    HW222215   2.416   0.394   6.068  1.0419 -1.3239 -3.7317
 3528SOL     OW22216   1.149   0.505   5.766  0.1757 -0.2944  0.0491
 3528SOL    HW122217   1.084   0.486   5.699 -0.1467  0.8104  0.0459
 3528SOL    HW222218   1.196   0.575   5.721  0.7353 -0.4951  0.3099
 3529SOL     OW22219   1.816   2.617   0.249 -0.1722  0.6938  0.6032
 3529SOL    HW122220   1.828   2.523   0.242 -1.6007  0.5332  0.4056
 3529SOL    HW222221   1.799   2.631   0.342 -0.6097  0.3367  0.5704
 3530SOL     OW22222   4.095   1.872  10.043  0.1489  0.1220 -0.4518
 3530SOL    HW122223   4.135   1.926   9.975 -0.5944  0.8186 -0.3279
 3530SOL    HW222224   4.014   1.918  10.063 -0.3697 -0.4635 -1.1808
 3531SOL     OW22225   0.043   1.637   9.023  0.0528 -0.4849 -0.2537
 3531SOL    HW122226   0.095   1.690   9.084 -1.1051  0.9911 -0.5531
 3531SOL    HW222227   0.008   1.566   9.077  0.1478  0.6148  1.2717
 3532SOL     OW22228   1.602   2.294  15.504  0.4225 -0.5548 -0.0115
 3532SOL    HW122229   1.547   2.367  15.530  0.0846 -0.6222 -0.5480
 3532SOL    HW222230   1.672   2.334  15.453  1.9493 -2.4351  0.5849
 3533SOL     OW22231   3.913   4.598  17.475  0.1245  0.1968 -0.3932
 3533SOL    HW122232   3.818   4.601  17.465 -0.0887 -2.8624  0.7078
 3533SOL    HW222233   3.923   4.650  17.555 -1.0894  3.2552 -2.2650
 3534SOL     OW22234   2.746   1.471  14.796 -0.7986 -0.1521 -0.3665
 3534SOL    HW122235   2.715   1.542  14.851 -2.2496 -0.5801 -0.6208
 3534SOL    HW222236   2.839   1.463  14.818 -0.5925  0.5098 -0.9939
 3535SOL     OW22237   2.504   3.124   4.645  0.3335  0.6466  0.0019
 3535SOL    HW122238   2.522   3.090   4.558 -1.1965 -0.7245  0.2038
 3535SOL    HW222239   2.409   3.114   4.653  0.4799 -1.5654 -1.0759
 3536SOL     OW22240   2.668   1.708   9.603 -0.5784 -0.3439 -0.1551
 3536SOL    HW122241   2.644   1.769   9.672  1.2351  1.9333 -1.5437
 3536SOL    HW222242   2.725   1.770   9.557 -0.1157  1.1895  2.5144
 3537SOL     OW22243   0.729   3.009  10.939 -0.2549  0.4057  0.5120
 3537SOL    HW122244   0.811   3.040  10.976  0.8805 -3.2822  1.1262
 3537SOL    HW222245   0.729   3.074  10.869  0.7303  0.6198  0.7106
 3538SOL     OW22246   2.312   4.504  12.945  0.5258 -0.3760  0.1541
 3538SOL    HW122247   2.223   4.478  12.971 -0.0368  0.7984 -0.6066
 3538SOL    HW222248   2.356   4.509  13.029  1.3489 -1.3650 -0.2140
 3539SOL     OW22249   0.975   2.397   6.781  0.1009  0.0604 -0.2623
 3539SOL    HW122250   1.024   2.345   6.716 -0.6828 -0.1256 -0.7020
 3539SOL    HW222251   0.927   2.452   6.719 -0.8351  0.3268  0.7013
 3540SOL     OW22252   2.177   0.108   9.363  0.0383  0.3739  0.1134
 3540SOL    HW122253   2.244   0.129   9.298  0.4958 -0.5427  0.2814
 3540SOL    HW222254   2.139   0.195   9.361 -0.9789 -0.0807 -0.4079
 3541SOL     OW22255   2.859   1.656   9.203 -0.0391  0.3046 -0.1677
 3541SOL    HW122256   2.922   1.669   9.132 -0.0126 -1.9732 -0.5767
 3541SOL    HW222257   2.886   1.577   9.250 -2.0294 -0.3241 -0.0549
 3542SOL     OW22258   3.489   3.249   5.556 -0.2921  0.0072 -0.5280
 3542SOL    HW122259   3.476   3.344   5.558  0.0349  0.0217  0.7300
 3542SOL    HW222260   3.561   3.232   5.618 -1.5696  5.4561  2.4695
 3543SOL     OW22261   0.094   0.692   0.900  0.5613 -0.4337  0.8109
 3543SOL    HW122262   0.092   0.732   0.987 -1.7019  0.4935  0.3132
 3543SOL    HW222263   0.186   0.663   0.898  0.2079 -1.4308 -0.3531
 3544SOL     OW22264   0.404   3.700   2.226  0.0800 -0.4730  0.1028
 3544SOL    HW122265   0.337   3.739   2.282  0.5639 -0.1141  0.4310
 3544SOL    HW222266   0.386   3.607   2.235 -0.0958 -0.6492 -2.0259
 3545SOL     OW22267   2.788   0.297  11.551  0.1205 -0.3636  0.4255
 3545SOL    HW122268   2.804   0.213  11.508 -0.2265 -1.5413  2.6520
 3545SOL    HW222269   2.733   0.349  11.491 -0.6162 -1.1205  0.4483
 3546SOL     OW22270   1.200   4.366   0.854 -0.7355 -0.0058  0.4149
 3546SOL    HW122271   1.168   4.413   0.776  2.1780 -2.0477 -1.9966
 3546SOL    HW222272   1.264   4.428   0.890 -1.3615  0.8572  0.0568
 3547SOL     OW22273   1.054   3.236   4.598 -0.6182  0.7487  0.2239
 3547SOL    HW122274   0.996   3.179   4.547  0.0971 -2.8192  3.4178
 3547SOL    HW222275   1.112   3.253   4.524 -0.4589 -2.4977 -0.4121
 3548SOL     OW22276   3.397   2.408   4.514  0.0111  0.3825 -0.0955
 3548SOL    HW122277   3.322   2.465   4.495  0.3422  0.8830  0.1160
 3548SOL    HW222278   3.403   2.357   4.434 -0.9114  1.3621 -0.7794
 3549SOL     OW22279   0.640   0.240   2.739 -0.0957 -0.0096 -0.2628
 3549SOL    HW122280   0.734   0.240   2.758  0.0262  1.3028 -0.9258
 3549SOL    HW222281   0.642   0.298   2.663  1.7072  0.5323  0.1866
 3550SOL     OW22282   0.106   1.144   3.708 -0.1643  0.0127  0.5434
 3550SOL    HW122283   0.016   1.148   3.677 -0.2220 -0.8759  0.5877
 3550SOL    HW222284   0.152   1.095   3.639  0.9899  0.0182  1.3026
 3551SOL     OW22285   4.121   4.584  17.740  0.0239  0.2553 -0.1578
 3551SOL    HW122286   4.163   4.521  17.681 -2.4810  0.3287 -1.9776
 3551SOL    HW222287   4.134   4.659  17.682 -0.6930 -0.3663 -1.1308
 3552SOL     OW22288   3.251   1.032   7.410  0.1649 -1.1657  0.3099
 3552SOL    HW122289   3.316   1.010   7.344 -0.6615 -0.0369 -0.8744
 3552SOL    HW222290   3.296   1.105   7.452 -1.7404 -0.4325  1.0910
 3553SOL     OW22291   4.058   0.740  11.189 -0.1373  0.1829  0.1411
 3553SOL    HW122292   3.968   0.771  11.187  0.1508  0.9654 -0.6313
 3553SOL    HW222293   4.047   0.654  11.147 -0.8731 -0.7747  2.2854
 3554SOL     OW22294   0.428   2.000   3.350 -0.2472 -0.4162  0.2552
 3554SOL    HW122295   0.449   2.092   3.334 -1.1102 -0.2763 -0.0637
 3554SOL    HW222296   0.458   1.968   3.265 -0.8028  0.4004 -0.2531
 3555SOL     OW22297   1.382   3.306   7.493 -0.5919 -0.4023  0.2472
 3555SOL    HW122298   1.411   3.216   7.479  2.4948  1.0222 -2.2533
 3555SOL    HW222299   1.461   3.359   7.483 -2.1913  1.8233 -0.5044
 3556SOL     OW22300   3.896   0.835   5.732  0.9217 -0.1633  0.3773
 3556SOL    HW122301   3.965   0.825   5.798  2.7834  1.6206 -1.2996
 3556SOL    HW222302   3.826   0.870   5.786  0.7275  0.3157 -0.1800
 3557SOL     OW22303   1.619   4.365   3.319  0.0077 -0.6643  0.8303
 3557SOL    HW122304   1.549   4.310   3.353 -2.6053  0.2197 -3.1447
 3557SOL    HW222305   1.684   4.308   3.277 -0.9378 -0.5917 -0.7242
 3558SOL     OW22306   0.399   4.098   2.239 -0.1782  0.4669  0.2399
 3558SOL    HW122307   0.458   4.082   2.165  0.7033  0.4693  0.9371
 3558SOL    HW222308   0.424   4.190   2.247  3.3581 -0.6165  1.6779
 3559SOL     OW22309   4.010   0.777   2.050 -0.5144 -0.3645  0.3912
 3559SOL    HW122310   3.966   0.746   2.129  0.4299 -1.8004  0.3613
 3559SOL    HW222311   3.930   0.799   2.002  0.7970 -0.0971 -1.6713
 3560SOL     OW22312   1.246   3.001  16.067 -0.1940 -0.0663  0.1543
 3560SOL    HW122313   1.207   2.937  16.008 -0.1385  0.6438 -0.6526
 3560SOL    HW222314   1.211   3.080  16.026  0.6053  1.0088  1.5209
 3561SOL     OW22315   1.765   1.516   9.603  0.5386  0.1420 -0.0955
 3561SOL    HW122316   1.689   1.483   9.650  1.0658  0.3906  0.9183
 3561SOL    HW222317   1.794   1.435   9.560  0.3173 -0.0064  0.0383
 3562SOL     OW22318   1.220   4.138  13.378 -0.1481  0.0888  0.2213
 3562SOL    HW122319   1.183   4.195  13.311  0.4303 -1.1825 -1.1739
 3562SOL    HW222320   1.265   4.209  13.424 -1.0195  1.5409 -1.1574
 3563SOL     OW22321   0.303   4.667  14.843  0.1263 -0.2962 -0.2675
 3563SOL    HW122322   0.219   4.659  14.799  1.0528  0.4454 -2.1902
 3563SOL    HW222323   0.324   0.017  14.815 -1.4946 -0.0308 -0.6341
 3564SOL     OW22324   0.232   0.387   5.610  0.2441  0.2221 -0.7788
 3564SOL    HW122325   0.195   0.427   5.689 -2.2750 -1.1766 -1.2720
 3564SOL    HW222326   0.325   0.407   5.616  0.0972  0.9353 -0.8688
 3565SOL     OW22327   1.304   4.537   8.252 -0.4681  0.4726  0.8013
 3565SOL    HW122328   1.358   4.483   8.193 -0.5433  0.4547  0.7485
 3565SOL    HW222329   1.274   4.472   8.315  3.0276  0.0310  1.9913
 3566SOL     OW22330   0.948   0.821   6.835 -0.3211  0.4107 -0.7625
 3566SOL    HW122331   0.907   0.797   6.918  1.6976 -2.1167 -0.4892
 3566SOL    HW222332   1.000   0.743   6.814  1.4083  1.1617  0.6891
 3567SOL     OW22333   4.037   3.287   3.906 -0.1637  0.5190  0.2301
 3567SOL    HW122334   4.119   3.315   3.865 -0.9468  0.2283 -1.5416
 3567SOL    HW222335   4.001   3.375   3.911  1.2258  0.9426  2.5049
 3568SOL     OW22336   4.626   0.547   2.461  0.9309 -0.3765  0.5718
 3568SOL    HW122337   4.648   0.637   2.438 -1.5370  0.2650  0.6532
 3568SOL    HW222338   4.708   0.498   2.455  0.1878 -1.9077  2.8351
 3569SOL     OW22339   2.966   1.226   0.007 -0.2040  0.3608  0.2072
 3569SOL    HW122340   3.019   1.272   0.072  0.2650 -0.4992  0.4354
 3569SOL    HW222341   3.015   1.251  17.683  1.0967  1.5010  1.3700
 3570SOL     OW22342   3.352   2.935   4.938 -0.2706  0.0045 -0.0475
 3570SOL    HW122343   3.444   2.933   4.964  0.5519  0.3467 -2.9111
 3570SOL    HW222344   3.345   2.839   4.943  2.4155 -0.1087  1.0564
 3571SOL     OW22345   3.435   4.271  10.115  0.7769  0.2992 -0.3913
 3571SOL    HW122346   3.509   4.229  10.072  1.1356 -0.5833  1.0796
 3571SOL    HW222347   3.393   4.316  10.042 -0.4324  2.2615  1.5108
 3572SOL     OW22348   1.775   1.696   9.391 -0.1948  0.6761  0.0595
 3572SOL    HW122349   1.846   1.752   9.424  1.4541 -0.9772 -0.7056
 3572SOL    HW222350   1.765   1.634   9.464  1.4635  0.0587 -0.2374
 3573SOL     OW22351   2.810   1.182   4.773  0.3542  0.0430  0.5251
 3573SOL    HW122352   2.778   1.258   4.725 -1.4138 -0.8650  0.2723
 3573SOL    HW222353   2.789   1.121   4.702 -0.8321  0.7215  0.3012
 3574SOL     OW22354   0.357   1.447   2.521  0.6409 -0.5462  0.2867
 3574SOL    HW122355   0.396   1.402   2.595  1.3815 -1.2623 -0.5379
 3574SOL    HW222356   0.308   1.376   2.478  0.2331  0.6554 -1.2424
 3575SOL     OW22357   2.921   1.363  11.147  0.3363  0.4380  0.1699
 3575SOL    HW122358   2.980   1.301  11.103 -1.8707 -0.4154 -1.5756
 3575SOL    HW222359   2.951   1.444  11.104 -1.4631  2.1570  2.1403
 3576SOL     OW22360   2.982   0.501  11.198 -0.0729 -1.6594  0.0333
 3576SOL    HW122361   2.928   0.537  11.268  3.5152  1.4379  1.2714
 3576SOL    HW222362   2.938   0.418  11.184  0.0947 -1.9542  1.2389
 3577SOL     OW22363   4.600   4.381  11.826 -0.0796  0.4107  0.4466
 3577SOL    HW122364   4.637   4.448  11.885  0.3149 -1.4908  2.3611
 3577SOL    HW222365   4.680   4.334  11.802 -0.2642 -0.2656  1.1400
 3578SOL     OW22366   2.325   2.334   1.991  0.5306  1.2944 -0.3117
 3578SOL    HW122367   2.271   2.266   1.950  1.3785 -0.5979  1.6662
 3578SOL    HW222368   2.413   2.303   1.967 -0.0262 -0.1245 -0.5091
 3579SOL     OW22369   1.283   2.168   2.534  0.2044 -0.2193  0.3171
 3579SOL    HW122370   1.212   2.108   2.558 -0.2240  0.0292 -0.3522
 3579SOL    HW222371   1.357   2.108   2.543  0.4435 -0.0998 -0.8782
 3580SOL     OW22372   2.151   4.418  14.864  0.1819 -0.0509  0.2815
 3580SOL    HW122373   2.086   4.350  14.849 -0.3157  0.2411  1.1459
 3580SOL    HW222374   2.223   4.390  14.808  0.3690 -1.6035  1.3085
 3581SOL     OW22375   4.115   1.793   1.771 -0.4833 -0.1979  0.0762
 3581SOL    HW122376   4.136   1.752   1.687  3.7219 -0.2666  1.1641
 3581SOL    HW222377   4.139   1.723   1.832 -0.3079  1.3318  1.7282
 3582SOL     OW22378   4.267   3.383  10.227 -0.4790  0.4184 -0.2703
 3582SOL    HW122379   4.213   3.305  10.230 -0.9905  0.8299  1.2393
 3582SOL    HW222380   4.354   3.347  10.207  0.3435  2.5257 -0.5421
 3583SOL     OW22381   4.006   3.425  17.490 -0.3510 -0.3572 -0.5473
 3583SOL    HW122382   3.952   3.499  17.460 -0.5595 -0.7205 -1.0627
 3583SOL    HW222383   3.981   3.419  17.583  1.8717 -0.2930  0.0471
 3584SOL     OW22384   2.277   3.738   2.641 -0.3792 -0.2767 -0.4590
 3584SOL    HW122385   2.256   3.696   2.558 -1.6158 -2.0008  0.7022
 3584SOL    HW222386   2.365   3.708   2.665  0.8608  2.7976 -1.1637
 3585SOL     OW22387   0.961   3.575   7.227 -0.0213  0.0235  0.1245
 3585SOL    HW122388   1.022   3.613   7.290  0.7082 -0.8627 -0.0582
 3585SOL    HW222389   0.920   3.504   7.277 -1.4237  1.1105  0.5315
 3586SOL     OW22390   3.075   1.441   4.921 -0.1486  0.1925  0.2207
 3586SOL    HW122391   3.160   1.411   4.951  0.6609 -0.4702 -2.6923
 3586SOL    HW222392   3.084   1.475   4.831  1.0985 -1.0150 -0.0912
 3587SOL     OW22393   0.940   1.783   9.403  0.3024 -0.0409  0.6115
 3587SOL    HW122394   0.914   1.836   9.327 -0.1715 -0.8669  0.2042
 3587SOL    HW222395   0.868   1.810   9.460 -0.3066  0.9985 -0.6507
 3588SOL     OW22396   3.449   0.187   1.923  0.1417  0.5761 -0.1642
 3588SOL    HW122397   3.449   0.161   2.015  0.3303 -0.9077 -0.5771
 3588SOL    HW222398   3.468   0.280   1.927 -2.0970  1.0401 -0.0287
 3589SOL     OW22399   3.274   1.267  15.244  0.2586  0.3647  0.7530
 3589SOL    HW122400   3.334   1.327  15.286  0.7764  0.2579  0.1673
 3589SOL    HW222401   3.288   1.277  15.150 -2.5790 -4.1263 -0.1897
 3590SOL     OW22402   2.796   3.694   6.875 -0.0192  0.1910  0.2937
 3590SOL    HW122403   2.708   3.727   6.858 -0.3315 -1.4259 -1.2775
 3590SOL    HW222404   2.814   3.629   6.806 -1.4671  1.9376 -1.7402
 3591SOL     OW22405   0.455   3.799   8.214  0.0504 -0.3128 -0.2976
 3591SOL    HW122406   0.436   3.759   8.129 -0.1900  1.0250 -0.8801
 3591SOL    HW222407   0.408   3.742   8.274 -3.2659  1.1985 -1.4565
 3592SOL     OW22408   1.538   3.567  10.093  0.3412  0.3193  0.0096
 3592SOL    HW122409   1.531   3.659  10.070  0.5953  0.2637 -0.2879
 3592SOL    HW222410   1.617   3.558  10.146  1.5150  1.1395 -1.6307
 3593SOL     OW22411   1.144   1.184  12.047 -0.1282 -0.2950 -0.3014
 3593SOL    HW122412   1.062   1.188  12.095 -0.0707 -0.7892 -0.1594
 3593SOL    HW222413   1.114   1.169  11.957 -0.9488  1.1381 -0.2582
 3594SOL     OW22414   0.134   1.657   2.433  0.4119 -0.0949  0.1640
 3594SOL    HW122415   0.194   1.590   2.467  1.0564  1.1171  1.3860
 3594SOL    HW222416   0.096   1.609   2.359  1.1021 -2.1705  1.1272
 3595SOL     OW22417   0.928   0.506  14.905 -0.3824  0.5242  0.3116
 3595SOL    HW122418   0.948   0.588  14.860 -0.1860  0.7061  0.7290
 3595SOL    HW222419   0.944   0.434  14.844  0.3071  1.0780 -0.1583
 3596SOL     OW22420   2.701   1.576   1.153 -0.2263  0.0948 -0.3009
 3596SOL    HW122421   2.753   1.652   1.177  1.4063 -1.4265  1.0875
 3596SOL    HW222422   2.655   1.551   1.234  1.3091  0.4646  0.6945
 3597SOL     OW22423   3.221   4.006   7.994 -0.0011 -0.2031  0.0662
 3597SOL    HW122424   3.203   3.913   7.981 -1.4555 -0.1247  1.4891
 3597SOL    HW222425   3.261   4.014   8.081  0.0579  0.7038 -0.0403
 3598SOL     OW22426   2.207   0.544   9.745  0.4444 -0.0928  0.0105
 3598SOL    HW122427   2.282   0.603   9.757  1.5269 -0.9481 -2.5836
 3598SOL    HW222428   2.251   0.459   9.751  0.5274 -0.0521 -0.0265
 3599SOL     OW22429   3.243   0.058  10.798 -0.1033  0.4830 -0.1967
 3599SOL    HW122430   3.254   0.059  10.703 -1.2413 -0.4299 -0.3342
 3599SOL    HW222431   3.154   0.022  10.801 -0.0496  0.2579 -1.2419
 3600SOL     OW22432   0.159   1.841   7.202 -0.2876 -0.2212  0.3944
 3600SOL    HW122433   0.087   1.902   7.217 -1.8305 -1.6400 -1.2611
 3600SOL    HW222434   0.210   1.893   7.139  0.1747 -0.7313  0.3448
 3601SOL     OW22435   2.915   0.147  17.100  0.6258 -0.3017  0.0051
 3601SOL    HW122436   2.839   0.090  17.095 -0.0403  0.4944  0.9357
 3601SOL    HW222437   2.889   0.217  17.040  4.6180 -0.9107 -2.4397
 3602SOL     OW22438   0.463   1.693  12.766  0.3861 -0.4195  0.1833
 3602SOL    HW122439   0.471   1.613  12.818  2.2063  0.5119  1.3301
 3602SOL    HW222440   0.373   1.715  12.793  0.2813 -0.2867 -0.2796
 3603SOL     OW22441   2.857   0.330   1.937  0.4776  0.6000 -0.3009
 3603SOL    HW122442   2.812   0.253   1.902  0.1224 -0.1495  1.7954
 3603SOL    HW222443   2.943   0.307   1.901 -0.3608 -1.7566 -0.7957
 3604SOL     OW22444   3.457   3.827  15.822 -0.3399  0.5210  0.6606
 3604SOL    HW122445   3.490   3.773  15.750 -1.6039 -1.2686  1.4430
 3604SOL    HW222446   3.378   3.780  15.845  0.6368 -1.3751  0.0961
 3605SOL     OW22447   1.851   4.445  10.500  0.2160 -0.1890  0.8564
 3605SOL    HW122448   1.943   4.428  10.517 -0.1371 -1.0521  1.9011
 3605SOL    HW222449   1.839   4.536  10.526  2.5717 -0.1699  1.7951
 3606SOL     OW22450   1.499   2.736   9.044  0.0081 -0.0956  1.0623
 3606SOL    HW122451   1.590   2.716   9.019 -0.4960 -0.4950 -0.4176
 3606SOL    HW222452   1.452   2.698   8.970 -0.2264  0.3718  0.9712
 3607SOL     OW22453   1.469   3.714   7.795 -0.0554 -0.6098 -0.7762
 3607SOL    HW122454   1.418   3.714   7.876  1.7975  1.5078  0.4321
 3607SOL    HW222455   1.472   3.805   7.766  1.6069 -1.0499 -1.9688
 3608SOL     OW22456   1.384   0.595  17.727 -0.5154 -0.0823 -0.0288
 3608SOL    HW122457   1.411   0.630  17.642 -1.8516  0.6278 -0.1488
 3608SOL    HW222458   1.362   0.673   0.021  1.0755  0.3258  0.0447
 3609SOL     OW22459   4.053   4.605  14.335 -0.4790  0.1089 -0.4074
 3609SOL    HW122460   4.135   4.560  14.356 -1.4212 -1.8903 -1.1034
 3609SOL    HW222461   4.074   4.691  14.298  0.9686 -0.2329 -0.3700
 3610SOL     OW22462   3.177   2.403   6.934  0.1278 -0.5863 -0.1301
 3610SOL    HW122463   3.206   2.421   6.844  1.1312  0.5357  0.4154
 3610SOL    HW222464   3.224   2.320   6.939 -0.5842 -0.9011  1.1600
 3611SOL     OW22465   0.600   2.748  13.137 -0.0333  0.0766 -0.5715
 3611SOL    HW122466   0.602   2.821  13.199  2.4979  0.5214 -1.2124
 3611SOL    HW222467   0.651   2.775  13.062  1.0923  1.6935  0.7751
 3612SOL     OW22468   0.534   4.492   8.602 -0.1155 -0.3896 -0.6275
 3612SOL    HW122469   0.457   4.548   8.600 -0.0688 -0.2665  1.6776
 3612SOL    HW222470   0.568   4.493   8.512 -2.0043  1.1638 -1.3145
 3613SOL     OW22471   0.743   1.181   1.824  0.6358  0.3140 -0.2013
 3613SOL    HW122472   0.727   1.155   1.734  3.9913 -0.9338 -0.4501
 3613SOL    HW222473   0.682   1.252   1.845 -1.1557 -0.3039 -3.3813
 3614SOL     OW22474   2.172   2.239   6.058  0.0975  0.0002  0.1151
 3614SOL    HW122475   2.249   2.207   6.010  0.2231  0.4826 -0.0143
 3614SOL    HW222476   2.095   2.190   6.029  0.3219  0.0374 -0.5413
 3615SOL     OW22477   4.489   3.564   2.960  0.7884 -0.1428  0.5132
 3615SOL    HW122478   4.521   3.485   3.002  0.4289  0.0671  1.1802
 3615SOL    HW222479   4.399   3.537   2.938  1.4894  0.2500 -2.8611
 3616SOL     OW22480   2.095   3.113   0.004  0.2888 -0.4489 -0.5007
 3616SOL    HW122481   2.162   3.084  17.697  1.8023  0.3171  0.7755
 3616SOL    HW222482   2.044   3.167  17.699 -2.1129 -0.1800  1.7911
 3617SOL     OW22483   0.292   0.558  12.373  0.6397  0.7853  0.3913
 3617SOL    HW122484   0.218   0.518  12.326  0.6354 -0.0302  1.0853
 3617SOL    HW222485   0.352   0.571  12.300 -0.0232  0.7702 -0.1608
 3618SOL     OW22486   0.542   4.350   6.180 -0.1532  0.0433 -0.2874
 3618SOL    HW122487   0.612   4.292   6.211  0.1608 -0.6881 -2.3371
 3618SOL    HW222488   0.589   4.423   6.140  0.5844  0.4234  1.2963
 3619SOL     OW22489   4.383   4.680   1.000 -0.0608 -0.5091  0.0326
 3619SOL    HW122490   4.457   4.739   0.986  0.9594 -1.0425  3.3762
 3619SOL    HW222491   4.422   4.617   1.060  2.0344  2.2239  1.5408
 3620SOL     OW22492   1.341   2.543   6.653  0.5138  0.1330  0.0827
 3620SOL    HW122493   1.402   2.604   6.613  0.4578  0.6870  0.8436
 3620SOL    HW222494   1.358   2.561   6.745  0.7441  1.2370 -0.1729
 3621SOL     OW22495   0.572   2.536   0.029  0.5244 -0.0486  0.3555
 3621SOL    HW122496   0.543   2.534  17.694 -1.8954  0.1779  1.1442
 3621SOL    HW222497   0.503   2.478   0.061  1.1192 -0.6249  0.6024
 3622SOL     OW22498   1.654   4.691  10.182  0.2573  0.0848  0.9818
 3622SOL    HW122499   1.745   4.721  10.184 -0.7170  3.1898 -0.1259
 3622SOL    HW222500   1.665   4.597  10.192  1.0628  0.1106  0.3094
 3623SOL     OW22501   1.169   2.133   6.233  0.6393 -0.0125 -0.1039
 3623SOL    HW122502   1.143   2.101   6.147  2.3886 -1.9179  0.0546
 3623SOL    HW222503   1.263   2.112   6.236  0.5301 -0.3152  1.5740
 3624SOL     OW22504   0.847   2.752   3.121  0.0191  0.2149 -0.0792
 3624SOL    HW122505   0.759   2.779   3.096 -0.8794 -0.6950  2.1280
 3624SOL    HW222506   0.823   2.669   3.163 -0.2813 -0.4288 -1.5124
 3625SOL     OW22507   0.673   4.013   1.597  0.2155 -0.4295 -0.0829
 3625SOL    HW122508   0.661   3.919   1.602 -0.6172 -0.2721  0.7363
 3625SOL    HW222509   0.614   4.042   1.527 -1.0751 -2.2801  0.2496
 3626SOL     OW22510   3.156   3.901   7.121  0.2601  0.2971  0.2648
 3626SOL    HW122511   3.134   3.808   7.119  0.7981  0.1257  2.0069
 3626SOL    HW222512   3.227   3.917   7.184  1.5567 -1.9363 -0.6199
 3627SOL     OW22513   3.044   3.334   8.355 -0.3285  0.5706  0.0964
 3627SOL    HW122514   2.985   3.266   8.386  0.5289  0.4338  1.4075
 3627SOL    HW222515   3.044   3.317   8.260 -0.4072 -0.7217  0.3324
 3628SOL     OW22516   4.124   1.287   8.776 -0.1898 -0.3680 -0.4463
 3628SOL    HW122517   4.047   1.339   8.751 -1.5540 -3.7361 -3.1243
 3628SOL    HW222518   4.121   1.220   8.709  2.8770 -0.2248 -0.7403
 3629SOL     OW22519   4.074   1.206   0.505  0.5382 -0.1897  0.0992
 3629SOL    HW122520   4.119   1.178   0.585  1.0567 -0.0131 -0.1335
 3629SOL    HW222521   3.999   1.255   0.538  0.5711  0.7518 -1.2387
 3630SOL     OW22522   0.958   0.142   2.478  0.2774 -0.2115 -0.4790
 3630SOL    HW122523   0.924   0.141   2.388 -2.8674 -0.4239  0.7099
 3630SOL    HW222524   0.954   0.049   2.503  0.9280 -0.1061 -0.0057
 3631SOL     OW22525   1.817   1.084   5.796  0.3349  0.1825  0.3203
 3631SOL    HW122526   1.865   1.039   5.866  0.1545  0.4829  0.6380
 3631SOL    HW222527   1.873   1.063   5.721  0.2784 -0.0329  0.3390
 3632SOL     OW22528   0.885   0.450   6.211  0.3010 -0.2319  0.2033
 3632SOL    HW122529   0.906   0.460   6.118  1.5740  2.5197  0.7741
 3632SOL    HW222530   0.791   0.434   6.200  0.1766 -1.1450  2.7093
 3633SOL     OW22531   3.173   2.474   8.679  0.3605  0.6077  0.0848
 3633SOL    HW122532   3.227   2.464   8.601  1.6764  1.7949  0.8381
 3633SOL    HW222533   3.144   2.383   8.689 -0.3841  1.0234  1.8315
 3634SOL     OW22534   0.377   1.899   4.386 -0.1498 -0.0938 -0.0650
 3634SOL    HW122535   0.381   1.869   4.295  0.4793 -2.5029  0.7400
 3634SOL    HW222536   0.378   1.993   4.371 -0.3759  0.1719  1.5728
 3635SOL     OW22537   3.903   1.649  13.902  0.4251 -0.2339 -0.6445
 3635SOL    HW122538   3.876   1.725  13.851 -3.0483  0.7531  2.6395
 3635SOL    HW222539   3.905   1.582  13.834 -0.9524  0.3205 -1.2315
 3636SOL     OW22540   3.265   1.203   2.877  0.0425 -0.1835  0.4305
 3636SOL    HW122541   3.202   1.187   2.807 -1.1648  0.5217  1.3721
 3636SOL    HW222542   3.295   1.292   2.857  0.8314 -0.7239 -0.8828
 3637SOL     OW22543   1.080   4.715   9.193  0.0853 -0.5093  0.5001
 3637SOL    HW122544   1.150   4.728   9.129 -0.5549  0.1573 -0.0727
 3637SOL    HW222545   1.044   4.628   9.173  2.5400 -1.4468  0.1914
 3638SOL     OW22546   0.019   1.153   1.309 -0.2951  0.0302 -0.8769
 3638SOL    HW122547   4.706   1.110   1.241 -0.6046  1.0874 -1.2995
 3638SOL    HW222548   4.695   1.203   1.359 -0.3093  0.4801 -1.3512
 3639SOL     OW22549   3.969   4.518  15.049  0.7657  0.2554 -0.7977
 3639SOL    HW122550   3.975   4.480  15.137 -0.8785 -0.1733 -0.8802
 3639SOL    HW222551   3.925   4.451  14.997  1.0052  0.4640 -1.2688
 3640SOL     OW22552   0.211   1.936   4.957 -0.4437  0.5818 -0.0851
 3640SOL    HW122553   0.278   1.911   4.894 -1.6039  1.1251 -1.5292
 3640SOL    HW222554   0.145   1.966   4.895 -1.0610  1.1126  0.8203
 3641SOL     OW22555   1.315   4.690   4.302  0.0341 -1.1222 -0.1704
 3641SOL    HW122556   1.259   0.026   4.285  0.2848 -0.5508  1.5528
 3641SOL    HW222557   1.363   4.724   4.377 -0.4642 -2.6892  0.8682
 3642SOL     OW22558   3.766   1.345   9.226  0.3645 -0.7569  0.2111
 3642SOL    HW122559   3.786   1.391   9.144 -2.4789 -1.2664 -0.7461
 3642SOL    HW222560   3.795   1.259   9.194  1.5119 -0.7774  1.2887
 3643SOL     OW22561   1.508   2.430   9.683  0.2179  0.0824 -0.1530
 3643SOL    HW122562   1.597   2.464   9.674 -0.4298  0.7267 -3.9602
 3643SOL    HW222563   1.462   2.514   9.673  2.3950  1.3326  0.3730
 3644SOL     OW22564   2.433   2.278  12.252 -0.2516 -0.2933 -0.0665
 3644SOL    HW122565   2.405   2.351  12.196  0.3699  0.1496  0.2075
 3644SOL    HW222566   2.520   2.303  12.283 -0.1072  0.9380 -1.4357
 3645SOL     OW22567   2.204   2.045   6.478  0.6480  0.0827 -0.2374
 3645SOL    HW122568   2.191   2.133   6.442  0.2348  0.3036  0.4557
 3645SOL    HW222569   2.238   2.068   6.564 -1.0148  0.9180  0.1936
 3646SOL     OW22570   2.913   3.986   3.150 -0.0567  0.0511 -0.2136
 3646SOL    HW122571   2.859   3.922   3.103 -0.4300  0.3971 -0.2547
 3646SOL    HW222572   2.916   3.938   3.233  0.5603 -0.6113 -0.6131
 3647SOL     OW22573   2.137   2.882   8.079  0.5390  1.0430 -0.7192
 3647SOL    HW122574   2.143   2.794   8.041 -1.3886  1.4711 -1.9892
 3647SOL    HW222575   2.224   2.885   8.120 -0.7852 -1.2084  2.2928
 3648SOL     OW22576   1.784   1.569   2.304  0.6131  0.2354 -0.5052
 3648SOL    HW122577   1.700   1.573   2.259 -0.3380 -2.0073  1.0546
 3648SOL    HW222578   1.827   1.494   2.262 -0.6547 -1.5001  1.2937
 3649SOL     OW22579   3.910   1.948   5.832 -0.0537 -0.2167 -0.3447
 3649SOL    HW122580   4.002   1.963   5.813  0.0285  0.7462  0.8412
 3649SOL    HW222581   3.885   1.886   5.763 -1.2692 -0.4993  0.3313
 3650SOL     OW22582   3.173   1.420   5.946  0.1393 -0.2290  0.3681
 3650SOL    HW122583   3.196   1.366   6.022  1.1552  2.7440  2.1578
 3650SOL    HW222584   3.246   1.481   5.939  1.2804 -1.5276  0.9519
 3651SOL     OW22585   2.556   2.203   2.541 -0.0792  0.2451 -0.1150
 3651SOL    HW122586   2.471   2.236   2.514  0.7494  3.9229  1.8126
 3651SOL    HW222587   2.612   2.234   2.469  0.9915 -0.2045  0.5174
 3652SOL     OW22588   4.409   2.062   6.734  0.1649  0.1983 -0.3655
 3652SOL    HW122589   4.481   2.073   6.671 -0.9038  0.6292 -1.5071
 3652SOL    HW222590   4.375   2.150   6.745 -1.4017 -0.3961 -0.4945
 3653SOL     OW22591   2.455   1.472  10.594  0.1804  0.2185  0.0065
 3653SOL    HW122592   2.538   1.499  10.633  1.1294 -1.2098 -1.0173
 3653SOL    HW222593   2.466   1.377  10.591  0.4548  0.1257  4.0948
 3654SOL     OW22594   2.502   0.523  13.714  0.0228 -0.7267 -0.4885
 3654SOL    HW122595   2.448   0.504  13.790  1.5752  0.1648  0.8274
 3654SOL    HW222596   2.431   0.569  13.669  1.1389 -0.9286 -2.4595
 3655SOL     OW22597   3.725   1.986   2.337  0.1476 -0.5352  0.0545
 3655SOL    HW122598   3.745   1.955   2.425  2.3157  0.5565 -0.0495
 3655SOL    HW222599   3.703   2.077   2.358 -0.1373  0.0816 -2.8274
 3656SOL     OW22600   0.369   2.238   8.656 -0.3187 -0.0376 -0.3050
 3656SOL    HW122601   0.326   2.308   8.607  0.4549  1.1484  0.7041
 3656SOL    HW222602   0.375   2.286   8.739 -0.2332  0.8429 -0.8226
 3657SOL     OW22603   2.120   1.977  10.698  0.4347  0.1559 -0.5922
 3657SOL    HW122604   2.031   1.962  10.730  0.7427  0.8402  0.5861
 3657SOL    HW222605   2.109   1.903  10.638  1.6397 -0.8690  0.4527
 3658SOL     OW22606   1.905   2.785   7.257  0.1010  0.4700  0.1031
 3658SOL    HW122607   1.870   2.770   7.345  0.8425  0.7539  0.4446
 3658SOL    HW222608   1.936   2.696   7.241  1.2655  0.6057  1.5895
 3659SOL     OW22609   0.418   0.739   3.635  0.5814  0.4759 -0.5199
 3659SOL    HW122610   0.464   0.657   3.621 -0.3856 -0.3679  1.2029
 3659SOL    HW222611   0.363   0.715   3.710 -0.2048  0.4025 -1.1216
 3660SOL     OW22612   2.677   3.161   6.329  0.5976  0.1297 -0.1559
 3660SOL    HW122613   2.752   3.181   6.385  0.0063 -2.6641  1.5725
 3660SOL    HW222614   2.654   3.252   6.309  0.9941  0.0935 -0.7947
 3661SOL     OW22615   4.255   1.835   6.667  0.2958  0.2866 -0.3123
 3661SOL    HW122616   4.318   1.811   6.599  1.4114  1.1514  0.4005
 3661SOL    HW222617   4.288   1.924   6.683 -0.6052  0.3864  0.9841
 3662SOL     OW22618   2.024   3.971   1.502 -0.3504  0.1621  0.3222
 3662SOL    HW122619   2.085   3.898   1.503  1.7428  1.9324  1.9362
 3662SOL    HW222620   2.070   4.036   1.555 -0.6828  0.6244  0.0440
 3663SOL     OW22621   2.918   1.090  11.008  0.0225  0.0802 -0.3163
 3663SOL    HW122622   2.938   1.072  10.916  1.8528 -1.0709  0.3134
 3663SOL    HW222623   2.829   1.061  11.029  0.3043 -0.2171  0.4695
 3664SOL     OW22624   3.061   4.062   4.601 -0.5617  0.0340 -0.2596
 3664SOL    HW122625   3.121   3.989   4.585 -0.9732 -0.2986 -0.2882
 3664SOL    HW222626   3.067   4.103   4.515 -1.3606 -1.2112 -0.9029
 3665SOL     OW22627   2.219   0.710   6.046  0.6956  0.2335  0.4220
 3665SOL    HW122628   2.226   0.732   6.139 -0.5603  1.6216  0.1839
 3665SOL    HW222629   2.263   0.626   6.053 -0.4930 -0.3460  0.8824
 3666SOL     OW22630   3.104   3.803   8.257  0.3593 -0.3633  0.3296
 3666SOL    HW122631   3.195   3.806   8.285 -0.2152  1.3853  2.0216
 3666SOL    HW222632   3.100   3.878   8.197 -1.2577 -2.5356 -2.2857
 3667SOL     OW22633   2.545   3.949  17.222  0.3314  0.1366 -0.2875
 3667SOL    HW122634   2.629   3.958  17.268  0.3142  1.2776 -0.4825
 3667SOL    HW222635   2.559   3.862  17.186 -2.4506 -0.1719 -0.6148
 3668SOL     OW22636   2.014   4.149   6.465 -0.2532 -0.3555 -0.1909
 3668SOL    HW122637   2.057   4.092   6.528 -4.2388  0.2015  3.0817
 3668SOL    HW222638   1.926   4.111   6.465 -0.3610 -0.0883  3.7105
 3669SOL     OW22639   0.742   2.035   7.960 -0.1649  0.4635  0.4053
 3669SOL    HW122640   0.706   2.099   8.022 -2.6657 -1.2135  0.6951
 3669SOL    HW222641   0.815   2.088   7.929 -0.6868  1.8428  1.5406
 3670SOL     OW22642   1.950   4.717   5.821 -0.2412 -0.1443 -0.2966
 3670SOL    HW122643   1.993   4.721   5.907 -0.7223 -1.6750  0.0060
 3670SOL    HW222644   1.916   0.067   5.822 -1.4717 -0.6209  0.2302
 3671SOL     OW22645   2.553   4.420   2.811  0.9641  0.2108 -0.3781
 3671SOL    HW122646   2.631   4.451   2.856  0.3555  0.8067  0.2712
 3671SOL    HW222647   2.497   4.377   2.876  0.0622  0.8635 -0.7278
 3672SOL     OW22648   0.673   1.182  15.547  0.1590 -0.2151  0.4833
 3672SOL    HW122649   0.744   1.127  15.578  1.3200  0.6510 -0.6434
 3672SOL    HW222650   0.708   1.192  15.459 -0.8203 -2.1298 -0.1253
 3673SOL     OW22651   3.471   4.516  16.187 -0.0136 -0.5578 -0.0567
 3673SOL    HW122652   3.460   4.434  16.139  0.5531 -0.3705 -0.5034
 3673SOL    HW222653   3.402   4.576  16.161  0.9299  0.7477  0.4848
 3674SOL     OW22654   4.031   4.316  14.207  0.1999 -0.2430 -0.3493
 3674SOL    HW122655   3.941   4.316  14.241 -0.9740 -1.9270 -3.4505
 3674SOL    HW222656   4.075   4.384  14.258 -0.9207  0.2202  0.0026
 3675SOL     OW22657   0.328   4.684   8.095 -0.1325 -0.3230 -0.8756
 3675SOL    HW122658   0.305   4.630   8.171  1.9206 -0.8653 -0.6494
 3675SOL    HW222659   0.243   4.700   8.053 -0.7673 -1.1653  0.0879
 3676SOL     OW22660   3.696   3.312  15.342 -0.2522 -0.1715  0.7148
 3676SOL    HW122661   3.663   3.231  15.304  0.0858 -0.4172  0.9506
 3676SOL    HW222662   3.651   3.374  15.285  0.8481  1.3278  1.4680
 3677SOL     OW22663   0.649   1.559   3.550 -0.1174 -0.1068 -0.3959
 3677SOL    HW122664   0.621   1.494   3.614 -1.2563  1.4056  0.6513
 3677SOL    HW222665   0.612   1.520   3.470 -1.3227 -2.9116  1.5102
 3678SOL     OW22666   0.538   2.953   8.289 -0.8168  0.0810 -0.6879
 3678SOL    HW122667   0.509   3.030   8.338 -0.9758 -2.0014  2.5467
 3678SOL    HW222668   0.626   2.974   8.258 -0.4783 -0.8236 -0.3762
 3679SOL     OW22669   0.371   4.484   7.817  0.0809  0.4758 -0.3145
 3679SOL    HW122670   0.395   4.392   7.827  1.8317  1.1494  1.5597
 3679SOL    HW222671   0.435   4.521   7.878 -1.1409 -0.3771  1.4555
 3680SOL     OW22672   3.792   4.080   6.209 -0.1935 -0.4507  0.5081
 3680SOL    HW122673   3.875   4.080   6.258  0.0407  2.9823  0.1086
 3680SOL    HW222674   3.752   4.162   6.237  0.0429 -0.9136  2.2178
 3681SOL     OW22675   0.000   3.489   2.211  0.5196 -0.4085  0.2743
 3681SOL    HW122676   0.071   3.465   2.271  1.3074 -0.5824 -0.7164
 3681SOL    HW222677   0.028   3.432   2.139 -2.0519 -1.9167  0.4591
 3682SOL     OW22678   0.062   2.971   8.607 -0.0121  0.3319  0.7328
 3682SOL    HW122679   0.139   2.921   8.580 -1.1200 -2.5758  3.0084
 3682SOL    HW222680   0.020   2.913   8.670 -0.6956 -0.9477 -0.9087
 3683SOL     OW22681   3.516   3.369   4.991 -0.3990  0.1879 -0.2194
 3683SOL    HW122682   3.422   3.357   4.983 -0.4782  0.7204 -0.1273
 3683SOL    HW222683   3.519   3.414   5.076  1.9965  2.5917 -1.5857
 3684SOL     OW22684   3.296   1.247   6.148  0.0704  0.0554 -0.2959
 3684SOL    HW122685   3.312   1.154   6.133  1.8361 -0.0863  2.4605
 3684SOL    HW222686   3.334   1.257   6.235  1.3521  1.8631 -1.0633
 3685SOL     OW22687   0.757   1.569   9.447  0.1232  0.3769  0.4999
 3685SOL    HW122688   0.831   1.605   9.399 -0.8272  1.3853 -0.2209
 3685SOL    HW222689   0.761   1.603   9.536  1.5162  0.5903  0.3553
 3686SOL     OW22690   1.482   1.401   9.420  0.0030 -0.0326 -0.3563
 3686SOL    HW122691   1.487   1.353   9.338 -0.0161  0.3497 -0.5817
 3686SOL    HW222692   1.387   1.391   9.426 -0.2748  3.3467  1.1738
 3687SOL     OW22693   2.416   3.709   4.845 -0.4001 -0.0288  0.8894
 3687SOL    HW122694   2.375   3.781   4.893  0.0660 -0.1841  1.5100
 3687SOL    HW222695   2.501   3.715   4.886 -0.6403  1.7329  1.1059
 3688SOL     OW22696   4.093   1.174  17.679  0.2998 -0.1175  0.0535
 3688SOL    HW122697   4.141   1.251  17.709  0.3272  0.7983 -2.2770
 3688SOL    HW222698   4.078   1.126   0.005  0.2492  0.8890  0.6462
 3689SOL     OW22699   2.251   2.225   5.155  0.6699  0.0543 -0.2440
 3689SOL    HW122700   2.306   2.231   5.233 -1.0915  1.4183  0.8795
 3689SOL    HW222701   2.179   2.174   5.193  0.1909  0.7341 -0.2440
 3690SOL     OW22702   1.932   0.144   9.182 -0.3356  0.5397  0.1710
 3690SOL    HW122703   1.944   0.138   9.277 -0.2395 -1.6693  0.0287
 3690SOL    HW222704   2.012   0.095   9.160 -1.6332 -1.1644 -0.7395
 3691SOL     OW22705   2.512   0.296  14.584  0.4727  0.4045  0.5570
 3691SOL    HW122706   2.529   0.218  14.531 -2.1278 -0.5366  1.1150
 3691SOL    HW222707   2.594   0.307  14.632  2.6912 -1.3427 -2.7587
 3692SOL     OW22708   0.624   0.787   7.188 -0.0140  0.3367  0.0314
 3692SOL    HW122709   0.563   0.834   7.244  0.9610 -0.7327  2.0063
 3692SOL    HW222710   0.587   0.699   7.180 -1.8536  1.2727 -1.6698
 3693SOL     OW22711   4.661   1.306  16.830  0.2442  0.1682 -0.4265
 3693SOL    HW122712   4.721   1.231  16.831 -0.7565 -0.6305  0.1546
 3693SOL    HW222713   4.715   1.378  16.800  0.1250  0.2675 -0.4009
 3694SOL     OW22714   0.673   1.304   7.432  0.2431  0.1477 -0.2875
 3694SOL    HW122715   0.594   1.331   7.479  0.2335 -0.0324 -0.2001
 3694SOL    HW222716   0.643   1.247   7.362  0.4978 -0.8028  0.3704
 3695SOL     OW22717   3.871   2.711  10.486  0.0564  0.1908 -0.2113
 3695SOL    HW122718   3.929   2.648  10.443  0.1178 -0.3984  0.7266
 3695SOL    HW222719   3.862   2.685  10.578  1.4784  0.5488  0.0341
 3696SOL     OW22720   1.682   2.204   8.368  0.2169 -0.2600 -0.7801
 3696SOL    HW122721   1.720   2.266   8.307  0.7610 -0.2111 -0.3969
 3696SOL    HW222722   1.593   2.198   8.335 -0.4326 -0.5005  1.0355
 3697SOL     OW22723   2.570   1.817  11.837 -0.3336 -0.2180 -0.3264
 3697SOL    HW122724   2.661   1.798  11.860 -0.6831 -1.6944 -0.1622
 3697SOL    HW222725   2.552   1.901  11.879 -0.0698  0.4236 -1.4853
 3698SOL     OW22726   1.465   2.989   8.734 -0.4669  0.0218 -0.2272
 3698SOL    HW122727   1.379   2.980   8.774  0.4701  0.7167  2.0000
 3698SOL    HW222728   1.486   3.077   8.767 -0.9003  0.8730 -2.2304
 3699SOL     OW22729   0.430   1.515   9.158  0.0575  1.1492 -0.2861
 3699SOL    HW122730   0.492   1.446   9.181 -1.7788 -1.0660 -2.0300
 3699SOL    HW222731   0.465   1.589   9.208 -2.0149  1.3798  0.8051
 3700SOL     OW22732   4.052   3.339   4.438  0.4067  0.1592  0.3126
 3700SOL    HW122733   4.027   3.387   4.517  1.5499 -2.1835  2.1304
 3700SOL    HW222734   3.966   3.330   4.397  0.9086  0.3603 -0.7800
 3701SOL     OW22735   2.629   2.025   6.443  0.0158 -0.4095 -0.0564
 3701SOL    HW122736   2.713   2.061   6.470 -0.9237  2.0672 -0.3402
 3701SOL    HW222737   2.580   2.043   6.524 -1.5346  0.8716 -1.2786
 3702SOL     OW22738   1.493   0.263   3.258  0.3443 -0.2386 -0.2748
 3702SOL    HW122739   1.482   0.216   3.341 -1.0024 -1.4160 -1.1234
 3702SOL    HW222740   1.411   0.233   3.219  1.3525 -0.9996 -1.7965
 3703SOL     OW22741   0.451   0.665   1.817  0.0787 -0.0277 -0.2626
 3703SOL    HW122742   0.512   0.615   1.871 -0.1287  0.1580  0.1466
 3703SOL    HW222743   0.406   0.715   1.885  1.4229 -0.0730  0.6470
 3704SOL     OW22744   1.868   1.108  10.808 -0.0676  0.0566  0.2664
 3704SOL    HW122745   1.776   1.084  10.795  0.5145 -0.6870 -2.4367
 3704SOL    HW222746   1.915   1.027  10.826 -0.7800 -0.3437  0.3203
 3705SOL     OW22747   3.890   4.564   5.299  0.0565 -0.4958 -0.4715
 3705SOL    HW122748   3.910   4.471   5.294  0.7446 -0.3976  0.4534
 3705SOL    HW222749   3.949   4.592   5.369  0.2010 -0.8838 -0.4404
 3706SOL     OW22750   4.343   2.820   3.895 -0.6681  0.7845 -0.1295
 3706SOL    HW122751   4.327   2.848   3.805 -1.1665  1.4291  0.1575
 3706SOL    HW222752   4.423   2.768   3.886 -1.3181  0.0004 -1.2704
 3707SOL     OW22753   4.104   3.971   4.835 -0.0144 -0.9072 -0.5604
 3707SOL    HW122754   4.140   3.884   4.852 -1.4451 -2.3061 -4.7185
 3707SOL    HW222755   4.189   4.012   4.823 -0.3726 -0.0136 -0.0625
 3708SOL     OW22756   2.063   1.453  13.815 -0.0496  0.4457 -0.6824
 3708SOL    HW122757   2.125   1.497  13.873 -0.3127  0.4752 -0.4245
 3708SOL    HW222758   2.116   1.439  13.736  1.8567 -1.5005  0.9388
 3709SOL     OW22759   3.959   4.243   5.655 -0.3824 -0.3391  0.3204
 3709SOL    HW122760   4.001   4.322   5.690  0.9543 -0.8600 -0.1466
 3709SOL    HW222761   3.987   4.176   5.717  3.1977  0.5619 -0.3499
 3710SOL     OW22762   4.126   4.452   4.028 -0.1232 -0.2553 -0.1888
 3710SOL    HW122763   4.212   4.471   4.067  0.0620  0.1471 -0.7810
 3710SOL    HW222764   4.098   4.542   4.016  0.9461  0.2077  0.7624
 3711SOL     OW22765   1.189   1.970   1.464 -0.2134  0.1477 -0.0604
 3711SOL    HW122766   1.120   1.944   1.525  1.0355  1.3168  1.8573
 3711SOL    HW222767   1.141   2.019   1.397  2.1023 -0.1210 -1.8953
 3712SOL     OW22768   1.774   3.823   9.158  0.2374  0.2462  0.0170
 3712SOL    HW122769   1.696   3.874   9.180  0.2492  0.0163  0.5870
 3712SOL    HW222770   1.837   3.893   9.139 -0.4637  1.0483  0.6787
 3713SOL     OW22771   1.507   2.147   5.272 -0.8371  0.3336 -0.2819
 3713SOL    HW122772   1.520   2.214   5.205 -1.3095  1.6213  0.9199
 3713SOL    HW222773   1.465   2.190   5.347  0.3212 -1.4395  1.3760
 3714SOL     OW22774   0.740   3.298  14.757 -0.0050 -0.0454  0.4200
 3714SOL    HW122775   0.755   3.392  14.761  0.8076 -0.1671  0.3282
 3714SOL    HW222776   0.799   3.278  14.683 -0.2399  1.6229 -0.2084
 3715SOL     OW22777   1.741   4.050   0.792 -0.2142 -0.4787 -0.0288
 3715SOL    HW122778   1.779   4.124   0.744  0.0562 -1.0664 -0.7059
 3715SOL    HW222779   1.733   3.985   0.722 -0.9940  0.5965 -0.9403
 3716SOL     OW22780   1.504   1.006   5.961 -0.1833 -0.1947 -0.2481
 3716SOL    HW122781   1.464   1.076   5.910 -1.5430 -1.6126 -1.1449
 3716SOL    HW222782   1.556   1.055   6.024  0.7900 -0.6547 -0.6986
 3717SOL     OW22783   3.940   0.387  12.160  0.6745  0.1662  0.1207
 3717SOL    HW122784   3.889   0.466  12.141 -0.8356 -0.5268  1.3312
 3717SOL    HW222785   3.868   0.329  12.184  0.3178  0.8843  0.7836
 3718SOL     OW22786   1.664   1.463   5.012 -0.0357  0.4453 -0.1721
 3718SOL    HW122787   1.635   1.411   4.938  1.9790 -0.0265 -0.6379
 3718SOL    HW222788   1.739   1.501   4.966  1.1124 -0.8039  0.6503
 3719SOL     OW22789   3.434   2.889   7.625 -0.3000  0.0218  0.0521
 3719SOL    HW122790   3.374   2.952   7.665 -2.0765 -1.8485  0.2901
 3719SOL    HW222791   3.517   2.935   7.635 -1.6011  2.5420 -0.6553
 3720SOL     OW22792   3.419   2.328   0.259  0.1021  0.3060  0.2928
 3720SOL    HW122793   3.437   2.346   0.167 -1.3474  0.5350  0.0444
 3720SOL    HW222794   3.507   2.337   0.296  0.0366  3.7528 -0.4635
 3721SOL     OW22795   3.965   2.308   8.809 -0.0039 -0.1787 -0.5573
 3721SOL    HW122796   4.049   2.275   8.776 -0.3133  0.2243 -1.7688
 3721SOL    HW222797   3.982   2.319   8.902 -2.1371  0.4628 -0.2557
 3722SOL     OW22798   4.561   0.067   6.457  0.0360 -0.3341  0.0667
 3722SOL    HW122799   4.582   0.159   6.467 -0.9507 -0.1157  0.1911
 3722SOL    HW222800   4.606   0.054   6.373 -0.0130  0.6631 -0.1086
 3723SOL     OW22801   2.665   0.134   2.670 -0.4789  0.4704  0.0630
 3723SOL    HW122802   2.759   0.118   2.678 -0.3125  0.9468 -0.9282
 3723SOL    HW222803   2.666   0.216   2.720  0.1096  0.3516  0.2487
 3724SOL     OW22804   1.981   2.528   7.228 -0.4509 -0.1175  0.4022
 3724SOL    HW122805   2.040   2.534   7.153  0.9017  0.1264  1.4901
 3724SOL    HW222806   2.020   2.456   7.277 -0.4833 -1.2915 -1.3186
 3725SOL     OW22807   4.394   0.770   2.819  0.2172 -0.4759 -0.4441
 3725SOL    HW122808   4.480   0.758   2.857 -0.1191 -0.3480  0.3512
 3725SOL    HW222809   4.423   0.752   2.729 -0.5343 -0.2608 -0.7336
 3726SOL     OW22810   4.384   1.690   2.129  0.2861  0.0128 -0.0775
 3726SOL    HW122811   4.315   1.755   2.141  0.5523  0.0509  1.2501
 3726SOL    HW222812   4.396   1.657   2.217  2.2053  0.3327 -0.2124
 3727SOL     OW22813   4.164   3.872   1.244 -0.0180 -0.7258  0.7872
 3727SOL    HW122814   4.101   3.805   1.217  0.6396 -1.1072  0.1881
 3727SOL    HW222815   4.119   3.917   1.316  1.9687  1.0919  0.8798
 3728SOL     OW22816   4.672   2.784   3.495  0.9549 -0.2212  0.3000
 3728SOL    HW122817   0.001   2.748   3.553 -0.2237 -0.6264  1.4415
 3728SOL    HW222818   4.597   2.792   3.554  0.8521  1.7039 -0.1005
 3729SOL     OW22819   2.965   4.190   2.073  0.0782  0.0726  0.3429
 3729SOL    HW122820   2.880   4.166   2.036 -1.0407  1.4274  2.0521
 3729SOL    HW222821   2.996   4.247   2.003  0.3256 -0.0958  0.3159
 3730SOL     OW22822   2.538   2.897   2.105  0.1173  0.1143  0.5187
 3730SOL    HW122823   2.598   2.968   2.083  0.6032 -1.0458 -1.8166
 3730SOL    HW222824   2.504   2.918   2.192 -2.2785  0.3749 -0.4954
 3731SOL     OW22825   0.130   0.478   8.657  0.1966  0.5661 -0.1613
 3731SOL    HW122826   0.196   0.450   8.593  2.0471  1.6422  1.2561
 3731SOL    HW222827   0.153   0.434   8.739  0.0785 -0.9224 -0.9312
 3732SOL     OW22828   4.118   3.943   5.627  0.6676  0.3772 -0.3323
 3732SOL    HW122829   4.183   3.953   5.696  0.8010  1.6504 -0.6278
 3732SOL    HW222830   4.168   3.899   5.558  0.9638 -1.9014  1.3336
 3733SOL     OW22831   0.111   0.401  12.724 -0.8974  0.1112  0.1936
 3733SOL    HW122832   0.106   0.311  12.758  0.9023  0.2774  0.8963
 3733SOL    HW222833   0.019   0.427  12.718 -0.5341  1.1574 -0.7958
 3734SOL     OW22834   3.699   3.272   7.869  0.0031  0.3551 -0.4269
 3734SOL    HW122835   3.636   3.307   7.806 -0.6124  0.1801  0.0933
 3734SOL    HW222836   3.676   3.179   7.870 -0.7771  0.5587  1.9466
 3735SOL     OW22837   4.177   0.133   0.599 -0.4048  0.6560 -0.0956
 3735SOL    HW122838   4.236   0.071   0.557  1.1965  0.8909  1.7683
 3735SOL    HW222839   4.117   0.064   0.626  0.4452 -0.0122  0.0797
 3736SOL     OW22840   4.739   1.127  11.974  0.1835 -0.2656 -0.3810
 3736SOL    HW122841   4.687   1.145  12.053 -0.5707 -1.7691 -0.5263
 3736SOL    HW222842   0.046   1.210  11.967  1.3133 -0.5613  3.4959
 3737SOL     OW22843   3.738   1.404  15.926 -0.5359 -0.2024  0.0629
 3737SOL    HW122844   3.822   1.414  15.881 -0.2384 -1.0579  0.4222
 3737SOL    HW222845   3.723   1.310  15.931  0.5735 -0.4203 -0.8050
 3738SOL     OW22846   3.306   3.815   6.858 -0.2357 -0.0269 -0.1523
 3738SOL    HW122847   3.335   3.765   6.934  0.7261  0.3955 -0.2271
 3738SOL    HW222848   3.212   3.803   6.865 -0.2064 -0.5912 -0.7264
 3739SOL     OW22849   3.864   4.042   5.340 -0.5872 -0.0850 -0.0649
 3739SOL    HW122850   3.821   3.963   5.307  0.2965 -1.4212  1.9974
 3739SOL    HW222851   3.955   4.017   5.331 -0.1420  1.5150 -0.0469
 3740SOL     OW22852   1.200   1.543   0.415  0.2785  0.2146 -0.2695
 3740SOL    HW122853   1.159   1.535   0.328 -2.5356  0.8352  1.0098
 3740SOL    HW222854   1.140   1.491   0.468 -2.6836  1.4545 -2.4424
 3741SOL     OW22855   0.991   3.638   8.907  0.3733  0.8153 -0.2040
 3741SOL    HW122856   1.037   3.554   8.910 -1.8950 -0.3694  1.1927
 3741SOL    HW222857   0.973   3.640   8.813 -0.8287 -0.0034  0.0168
 3742SOL     OW22858   4.192   0.802   3.020 -0.1563 -0.0180 -0.2581
 3742SOL    HW122859   4.277   0.815   2.977  0.0047 -1.0631 -0.2728
 3742SOL    HW222860   4.140   0.762   2.951 -0.8134  1.9925 -0.9115
 3743SOL     OW22861   2.672   4.580   7.935 -0.4493  0.1048 -0.0956
 3743SOL    HW122862   2.613   4.632   7.880 -0.5094  0.6560  0.4948
 3743SOL    HW222863   2.757   4.605   7.898  0.2868  1.8856  2.8225
 3744SOL     OW22864   4.486   0.319   6.084 -0.0466 -0.2883 -0.1454
 3744SOL    HW122865   4.532   0.387   6.034 -0.5891  0.1035 -0.1159
 3744SOL    HW222866   4.419   0.364   6.135  1.7427  1.5694  0.5750
 3745SOL     OW22867   0.795   3.842   8.582  0.3570  0.3089 -0.2460
 3745SOL    HW122868   0.770   3.878   8.667 -0.6911 -1.4313  0.1772
 3745SOL    HW222869   0.793   3.922   8.528 -0.4485 -1.1548 -2.3663
 3746SOL     OW22870   1.995   1.990   5.815 -0.6512 -0.1161 -0.1271
 3746SOL    HW122871   2.007   1.899   5.785 -1.4998 -0.6310  1.0929
 3746SOL    HW222872   2.009   1.983   5.909  1.4513  1.5395 -0.3265
 3747SOL     OW22873   2.564   0.084   6.721 -0.1592 -0.2240  0.3429
 3747SOL    HW122874   2.658   0.066   6.720 -0.7893 -3.3282 -1.6705
 3747SOL    HW222875   2.562   0.179   6.706  1.4572 -0.4511 -1.3510
 3748SOL     OW22876   4.507   1.638   5.669  0.0053  0.1527 -0.6290
 3748SOL    HW122877   4.447   1.674   5.604 -0.6524  0.7811  0.3355
 3748SOL    HW222878   4.494   1.544   5.661  1.9722 -0.4605  3.2294
 3749SOL     OW22879   4.222   2.858   5.169  0.0097  0.0208  0.1177
 3749SOL    HW122880   4.252   2.916   5.240 -0.2763  1.8576 -1.2739
 3749SOL    HW222881   4.174   2.918   5.112 -1.2030 -0.3103  0.7926
 3750SOL     OW22882   3.075   3.441  14.272  0.1996 -0.7108  0.0796
 3750SOL    HW122883   3.074   3.463  14.179 -0.0028  3.4919  1.0487
 3750SOL    HW222884   3.105   3.524  14.309  0.2731  0.0265 -1.6428
 3751SOL     OW22885   0.633   3.499   8.584  0.4372  0.2313 -0.1619
 3751SOL    HW122886   0.589   3.572   8.628 -0.9732  0.1354 -1.4232
 3751SOL    HW222887   0.602   3.426   8.636  1.7544 -0.3248 -0.1486
 3752SOL     OW22888   3.860   1.317   3.492  0.3522  0.0089  0.1437
 3752SOL    HW122889   3.807   1.386   3.453  1.1427  0.2290 -0.5380
 3752SOL    HW222890   3.919   1.367   3.549  0.9559 -2.2026  1.4500
 3753SOL     OW22891   1.180   4.020   2.944 -0.3647 -0.0599  0.1578
 3753SOL    HW122892   1.231   4.068   3.009 -2.1428  0.7588  0.9709
 3753SOL    HW222893   1.149   4.092   2.889  1.5955  0.7290  0.0832
 3754SOL     OW22894   4.009   3.163   6.202 -0.0760  0.5541 -0.5097
 3754SOL    HW122895   3.981   3.090   6.257  2.2838  2.1941  2.8023
 3754SOL    HW222896   3.931   3.194   6.156 -1.6963 -2.5470  0.0976
 3755SOL     OW22897   3.438   3.945   3.189  0.0240  0.0865 -0.5074
 3755SOL    HW122898   3.378   3.905   3.252  1.1063 -1.9880 -0.7682
 3755SOL    HW222899   3.480   4.015   3.239 -0.2298  1.2453 -1.9368
 3756SOL     OW22900   0.385   1.637   6.001  0.6573  0.6686 -0.3198
 3756SOL    HW122901   0.399   1.655   5.908 -2.2104  2.1417 -0.4714
 3756SOL    HW222902   0.359   1.723   6.035 -0.9894  0.5621 -1.3477
 3757SOL     OW22903   4.602   2.320   6.808 -1.0002  0.0900  0.0284
 3757SOL    HW122904   4.513   2.323   6.772 -1.8754 -1.6065  2.0435
 3757SOL    HW222905   4.606   2.404   6.854 -1.3512 -0.1429  0.4931
 3758SOL     OW22906   3.773   0.062  13.833  0.1401  0.4715  0.4487
 3758SOL    HW122907   3.865   0.050  13.856  0.6700 -0.3166 -2.1142
 3758SOL    HW222908   3.782   0.059  13.738  0.4728 -0.1432  0.4998
 3759SOL     OW22909   4.686   3.788  14.960  0.1328 -0.3713 -0.4273
 3759SOL    HW122910   0.016   3.835  15.007 -1.0704 -0.7117  1.6906
 3759SOL    HW222911   4.715   3.699  14.984  2.0139  0.3130 -0.1845
 3760SOL     OW22912   4.487   2.648   2.710 -0.3106  0.7698  0.3341
 3760SOL    HW122913   4.427   2.574   2.715  1.4395 -0.6712 -0.2337
 3760SOL    HW222914   4.428   2.711   2.667 -0.7436 -1.0233 -1.6922
 3761SOL     OW22915   0.852   4.255   2.785  0.0681  0.9705 -0.2287
 3761SOL    HW122916   0.785   4.320   2.807 -2.1624 -2.0222  1.8291
 3761SOL    HW222917   0.922   4.280   2.844 -0.9247 -1.8253  2.0775
 3762SOL     OW22918   2.505   0.551   0.777 -0.1569 -0.2634  0.4205
 3762SOL    HW122919   2.452   0.618   0.822 -0.9036 -1.3279  1.1128
 3762SOL    HW222920   2.558   0.611   0.724 -1.2759 -0.5571 -1.0103
 3763SOL     OW22921   0.679   1.660   6.033  0.0790  0.8463 -0.2713
 3763SOL    HW122922   0.620   1.634   6.104 -0.3686 -0.3522 -1.0836
 3763SOL    HW222923   0.757   1.691   6.081 -0.4677 -0.5395  1.5178
 3764SOL     OW22924   1.833   0.462  10.405 -0.2477 -0.2207 -0.3967
 3764SOL    HW122925   1.913   0.508  10.380  0.2217  0.4341  2.4053
 3764SOL    HW222926   1.793   0.526  10.464 -0.3659 -2.2016  1.6676
 3765SOL     OW22927   1.739   1.487   2.568 -0.0929 -0.5556  0.2632
 3765SOL    HW122928   1.674   1.416   2.565 -0.6324 -0.0771  0.5773
 3765SOL    HW222929   1.719   1.524   2.483 -2.3006  0.0593  1.0489
 3766SOL     OW22930   0.526   4.179   9.600  0.0881  0.2314  0.4974
 3766SOL    HW122931   0.535   4.251   9.663  0.2736  0.8659 -0.2530
 3766SOL    HW222932   0.436   4.186   9.569  0.6366  1.6606 -0.7397
 3767SOL     OW22933   2.323   0.378   6.910 -0.1664  0.4478 -0.0937
 3767SOL    HW122934   2.257   0.379   6.979 -0.7008  0.1117 -0.6101
 3767SOL    HW222935   2.277   0.323   6.847 -0.3409  0.2809  0.1777
 3768SOL     OW22936   0.124   4.674   6.287 -0.1756  0.1161  0.7157
 3768SOL    HW122937   0.123   0.025   6.255  1.1082 -0.8481 -2.0505
 3768SOL    HW222938   0.034   4.646   6.268  0.5470 -2.7276  1.4005
 3769SOL     OW22939   0.128   2.666   6.827 -0.5443  0.2912 -0.3867
 3769SOL    HW122940   0.059   2.620   6.874 -2.4118  2.6172 -0.8703
 3769SOL    HW222941   0.127   2.614   6.747  1.0818  2.1059 -1.6077
 3770SOL     OW22942   0.097   4.317   7.082 -0.3361  0.4929  0.0143
 3770SOL    HW122943   0.114   4.256   7.154 -2.2980  0.2747  0.2785
 3770SOL    HW222944   0.173   4.302   7.025  0.3572 -1.8799  1.5746
 3771SOL     OW22945   3.894   3.459   2.472 -0.1211 -0.2097 -0.4065
 3771SOL    HW122946   3.910   3.369   2.497  0.0130 -0.5212 -1.6087
 3771SOL    HW222947   3.812   3.456   2.422  0.7273 -2.6364 -1.6065
 3772SOL     OW22948   3.769   0.191   5.261  0.0330  0.4682  0.2301
 3772SOL    HW122949   3.743   0.148   5.342  1.6703  1.3731  1.2260
 3772SOL    HW222950   3.705   0.160   5.196  0.6366 -2.2165  0.9286
 3773SOL     OW22951   1.614   2.254   2.517  0.4533 -0.0090 -0.4629
 3773SOL    HW122952   1.655   2.294   2.594  1.4807 -0.9223 -0.5343
 3773SOL    HW222953   1.641   2.163   2.530  0.5686  0.1429  0.3815
 3774SOL     OW22954   0.145   3.244   4.510 -0.3103 -0.1775 -0.1800
 3774SOL    HW122955   0.054   3.214   4.522 -0.1329  0.3168  2.5164
 3774SOL    HW222956   0.132   3.269   4.419 -1.3976 -0.3841 -0.0896
 3775SOL     OW22957   0.291   1.466  12.555  0.1424  0.4469  0.0252
 3775SOL    HW122958   0.311   1.540  12.497  0.4836  0.0130 -0.4074
 3775SOL    HW222959   0.227   1.507  12.614  0.5354  1.3234 -0.1505
 3776SOL     OW22960   1.486   2.372   3.159 -0.1147 -0.5397  0.0138
 3776SOL    HW122961   1.392   2.363   3.176 -0.5186  1.5661 -1.1039
 3776SOL    HW222962   1.490   2.457   3.115 -0.3638 -0.2146  0.6124
 3777SOL     OW22963   3.543   0.975  11.280  0.2578 -0.9183  0.0369
 3777SOL    HW122964   3.498   0.995  11.361 -2.2377 -0.6844 -1.3914
 3777SOL    HW222965   3.588   1.057  11.262 -1.0336 -0.3867 -0.8234
 3778SOL     OW22966   0.782   0.816   8.934  0.2935 -0.7204  0.3419
 3778SOL    HW122967   0.708   0.818   8.874  0.6746 -1.7104 -0.1557
 3778SOL    HW222968   0.765   0.729   8.970 -2.0735 -2.1173 -4.1783
 3779SOL     OW22969   2.115   1.094   0.716 -0.0080 -0.1163  0.0852
 3779SOL    HW122970   2.207   1.122   0.716 -0.0672  0.0634 -3.5788
 3779SOL    HW222971   2.115   1.015   0.663 -2.5491 -0.0467 -0.0231
 3780SOL     OW22972   4.072   2.459   6.610  0.1017  0.0371  0.5775
 3780SOL    HW122973   4.011   2.530   6.593  1.3770  1.0869  0.3634
 3780SOL    HW222974   4.075   2.412   6.527  1.2319 -1.1714  1.2966
 3781SOL     OW22975   2.559   3.635   1.092 -0.1471  0.6009  0.3242
 3781SOL    HW122976   2.632   3.693   1.115  0.8945  0.5489 -2.9351
 3781SOL    HW222977   2.608   3.554   1.104 -1.8079 -0.3213  0.8969
 3782SOL     OW22978   2.884   2.194   4.961 -0.7844 -0.2153 -0.5414
 3782SOL    HW122979   2.892   2.287   4.941 -0.0814  0.0272  0.8858
 3782SOL    HW222980   2.907   2.158   4.875 -0.4175 -0.1119 -0.4889
 3783SOL     OW22981   0.733   0.739  16.244 -0.0056  0.0061 -0.4743
 3783SOL    HW122982   0.639   0.720  16.242  0.0118 -0.2267  0.6164
 3783SOL    HW222983   0.728   0.828  16.208  1.1351  0.0408 -0.5510
 3784SOL     OW22984   3.219   1.613   3.408 -0.5843  0.7584  0.2363
 3784SOL    HW122985   3.123   1.605   3.404 -0.2933 -2.0185 -1.2505
 3784SOL    HW222986   3.232   1.630   3.314  0.0246  0.9362  0.3555
 3785SOL     OW22987   0.871   2.838   5.725 -0.0160  0.3268  0.1564
 3785SOL    HW122988   0.830   2.896   5.660  1.0546  1.2323  0.2970
 3785SOL    HW222989   0.902   2.780   5.655  1.1579  1.8209 -0.5655
 3786SOL     OW22990   0.548   4.739  11.290  0.4769 -0.3572 -0.5461
 3786SOL    HW122991   0.529   0.050  11.211  0.1586  1.1539  0.4966
 3786SOL    HW222992   0.600   0.065  11.337  0.7636  0.1805 -1.6348
 3787SOL     OW22993   1.173   1.979   2.065 -0.0753 -0.0026 -0.2962
 3787SOL    HW122994   1.239   2.024   2.012  0.5778 -0.0237  0.4980
 3787SOL    HW222995   1.145   1.926   1.991  0.8207 -0.6512 -0.1640
 3788SOL     OW22996   1.348   2.477  15.528  0.5010 -0.3375 -0.1595
 3788SOL    HW122997   1.385   2.428  15.601 -0.1317 -0.4664  0.0727
 3788SOL    HW222998   1.272   2.420  15.515  0.5376 -0.1824 -1.0407
 3789SOL     OW22999   4.229   3.146   7.766 -0.0938 -0.4168  0.1993
 3789SOL    HW123000   4.257   3.054   7.766  1.4086  0.0442 -1.5553
 3789SOL    HW223001   4.202   3.156   7.857 -4.2924 -0.6658 -1.0432
 3790SOL     OW23002   4.628   1.753  17.642 -0.8480 -0.0532 -0.1014
 3790SOL    HW123003   4.632   1.845  17.614  1.1509 -0.6949 -1.8452
 3790SOL    HW223004   4.545   1.725  17.603 -0.6581 -1.0919  0.2512
 3791SOL     OW23005   1.796   0.210  11.270 -0.5175  0.5898  0.6597
 3791SOL    HW123006   1.778   0.297  11.233 -1.1809 -1.3347 -3.4774
 3791SOL    HW223007   1.802   0.231  11.364 -1.1201  2.2895  0.3263
 3792SOL     OW23008   4.644   0.024   5.450 -0.3458  0.4293  0.0791
 3792SOL    HW123009   4.646   4.668   5.444  1.3957  0.5170 -1.0375
 3792SOL    HW223010   4.727   0.043   5.494 -0.0744 -0.2823 -0.1252
 3793SOL     OW23011   2.447   4.695   0.530  0.0925 -0.5878  0.5805
 3793SOL    HW123012   2.425   0.045   0.558  0.5489  0.2308 -1.6709
 3793SOL    HW223013   2.542   4.703   0.519  0.3881 -0.7697  3.0300
 3794SOL     OW23014   2.640   4.422  13.651  0.7478  0.3062  0.0261
 3794SOL    HW123015   2.622   4.332  13.623  2.4813  0.8309 -2.8410
 3794SOL    HW223016   2.719   4.444  13.601 -0.5253  0.0797 -2.1084
 3795SOL     OW23017   1.929   2.181   3.236  0.1311  0.1825 -0.2700
 3795SOL    HW123018   1.898   2.185   3.146 -0.9137  0.2214  0.0975
 3795SOL    HW223019   1.844   2.186   3.279  0.5260  1.5759  0.3298
 3796SOL     OW23020   1.911   0.646  17.112  0.4083 -0.4563  0.3821
 3796SOL    HW123021   1.961   0.633  17.031 -0.5454  1.2568 -0.4779
 3796SOL    HW223022   1.864   0.563  17.122  1.6870 -1.7416 -4.0517
 3797SOL     OW23023   0.760   4.130   7.012 -0.2606  0.4913 -0.1050
 3797SOL    HW123024   0.767   4.036   7.033  0.6638  0.4342 -0.6724
 3797SOL    HW223025   0.666   4.141   6.997 -0.0195  1.1327 -1.0853
 3798SOL     OW23026   1.834   4.306  12.432  0.4071 -0.2651  0.1097
 3798SOL    HW123027   1.802   4.396  12.428 -0.6687 -0.5858  1.4080
 3798SOL    HW223028   1.773   4.256  12.487  1.4092 -0.7051  0.8341
 3799SOL     OW23029   1.840   1.378   6.236 -0.7683 -0.0778  0.3443
 3799SOL    HW123030   1.827   1.318   6.309  1.8586  0.5532  1.3451
 3799SOL    HW223031   1.773   1.438   6.269  2.2171  2.9113  0.9686
 3800SOL     OW23032   0.831   1.500   2.763 -0.2311 -0.3298 -0.3263
 3800SOL    HW123033   0.851   1.407   2.757  1.3946  0.0984 -1.5910
 3800SOL    HW223034   0.877   1.525   2.843 -2.0475  1.0232  0.2873
 3801SOL     OW23035   2.157   4.677   8.543  0.0421  0.6570 -0.1099
 3801SOL    HW123036   2.153   4.581   8.544 -1.0186  0.7082  0.1541
 3801SOL    HW223037   2.147   4.684   8.448  0.4414  1.3030 -0.1030
 3802SOL     OW23038   4.066   4.653   7.610  0.2459 -0.3684 -0.2794
 3802SOL    HW123039   4.070   4.570   7.562 -0.4159  0.0265 -1.0237
 3802SOL    HW223040   4.027   4.709   7.542  1.8072  2.7748  1.4627
 3803SOL     OW23041   3.745   0.379   8.191 -0.3968  0.0807 -0.2159
 3803SOL    HW123042   3.755   0.305   8.131  1.9696 -0.2889  0.6352
 3803SOL    HW223043   3.659   0.407   8.160 -0.9511 -2.0318 -0.5811
 3804SOL     OW23044   2.267   3.673   9.846  0.1342 -0.7814 -0.1937
 3804SOL    HW123045   2.216   3.597   9.819 -0.0307 -0.7417 -0.0024
 3804SOL    HW223046   2.321   3.684   9.768  0.5061 -0.5844  0.0954
 3805SOL     OW23047   2.292   0.181   4.120 -0.3250  0.1536 -0.7053
 3805SOL    HW123048   2.347   0.108   4.147 -2.5547 -0.3629  2.4455
 3805SOL    HW223049   2.334   0.255   4.164  0.6467 -1.3541  0.8720
 3806SOL     OW23050   3.380   1.560   0.008 -0.5151  0.4680 -0.0845
 3806SOL    HW123051   3.341   1.646   0.022 -1.3172 -0.2550  2.0931
 3806SOL    HW223052   3.456   1.580   0.062  0.1421 -1.9226 -0.1052
 3807SOL     OW23053   0.666   4.539   5.289  0.1828  0.5607  0.0303
 3807SOL    HW123054   0.743   4.578   5.249 -0.6589  0.7399 -1.4394
 3807SOL    HW223055   0.616   4.621   5.295 -0.9088  0.0875 -2.4162
 3808SOL     OW23056   3.630   3.387   0.299  0.0309 -0.2216 -0.9434
 3808SOL    HW123057   3.668   3.393   0.211 -0.0015 -1.8427 -1.0712
 3808SOL    HW223058   3.557   3.449   0.300  1.8716  1.9404 -0.9400
 3809SOL     OW23059   0.557   4.478  12.921 -0.1345 -0.2887 -0.7848
 3809SOL    HW123060   0.519   4.398  12.960 -1.4149  0.5997 -0.1983
 3809SOL    HW223061   0.607   4.513  12.995  1.3455 -1.4875 -1.2066
 3810SOL     OW23062   0.588   1.087  12.038 -0.4892 -0.5771 -0.6265
 3810SOL    HW123063   0.591   1.130  12.123  0.4721 -0.4255 -0.7417
 3810SOL    HW223064   0.494   1.089  12.022 -0.6433  3.4099  0.8119
 3811SOL     OW23065   2.529   1.842   7.005 -0.3709 -0.0390  0.0495
 3811SOL    HW123066   2.522   1.793   6.923 -1.7900 -1.7382  1.1855
 3811SOL    HW223067   2.559   1.924   6.968  1.3948 -0.4194  0.6498
 3812SOL     OW23068   4.407   1.752   0.262  0.1447 -0.3899 -0.1876
 3812SOL    HW123069   4.396   1.728   0.170 -1.4054  0.5237 -0.2355
 3812SOL    HW223070   4.403   1.848   0.269 -3.4464 -0.6054  0.8209
 3813SOL     OW23071   2.434   3.316   0.401  0.3209  0.0161 -0.4817
 3813SOL    HW123072   2.379   3.385   0.439 -1.9693 -1.1224 -1.7007
 3813SOL    HW223073   2.365   3.276   0.347  0.7537  0.2546 -1.2049
 3814SOL     OW23074   4.315   3.017   5.721  0.0223  0.3580  0.1746
 3814SOL    HW123075   4.266   3.042   5.799  0.0981  3.0525 -0.6448
 3814SOL    HW223076   4.402   3.006   5.759  2.0779 -0.6688 -4.8045
 3815SOL     OW23077   3.378   0.444   0.776 -0.1067  0.5430  0.0072
 3815SOL    HW123078   3.437   0.369   0.779  1.3705  1.5282 -3.7292
 3815SOL    HW223079   3.370   0.468   0.868 -2.0674 -1.9864  0.4963
 3816SOL     OW23080   1.057   1.535   8.558  0.5989  0.0517  0.1317
 3816SOL    HW123081   1.040   1.549   8.651 -1.9752 -0.1964 -0.3197
 3816SOL    HW223082   1.142   1.578   8.545  1.8953 -2.7569 -0.7490
 3817SOL     OW23083   3.522   4.668   5.679  0.3878 -0.6906  0.2699
 3817SOL    HW123084   3.470   4.701   5.751  0.8891 -1.7228  1.1095
 3817SOL    HW223085   3.449   4.638   5.625  1.3216 -1.4976 -0.5604
 3818SOL     OW23086   2.819   1.754  11.926  0.3096  0.1660 -0.1717
 3818SOL    HW123087   2.882   1.693  11.888 -2.0912 -2.7542  0.4927
 3818SOL    HW223088   2.855   1.842  11.929  0.2621  0.1212  1.3824
 3819SOL     OW23089   4.600   1.178  11.745 -0.0680 -0.3306  0.4383
 3819SOL    HW123090   4.536   1.107  11.755 -0.7745  0.3293  0.6078
 3819SOL    HW223091   4.664   1.136  11.803 -1.3035 -0.6381  1.5733
 3820SOL     OW23092   2.386   3.270   6.359  0.2516  0.2473  0.5249
 3820SOL    HW123093   2.298   3.231   6.358 -1.1154  3.3573  0.8090
 3820SOL    HW223094   2.370   3.338   6.294 -2.0131 -0.8871 -0.1181
 3821SOL     OW23095   2.460   1.286   0.863 -0.0874  0.2186  0.1291
 3821SOL    HW123096   2.546   1.301   0.901 -0.1315  0.9581 -0.0589
 3821SOL    HW223097   2.401   1.358   0.888  0.0507 -0.6216  2.8453
 3822SOL     OW23098   3.970   2.043  16.206 -0.0447 -0.3903 -0.3902
 3822SOL    HW123099   3.912   1.970  16.231  1.8356 -1.5823  0.4385
 3822SOL    HW223100   3.995   2.082  16.289  0.8740  0.9075 -1.2792
 3823SOL     OW23101   4.561   2.342  10.674 -0.5037  0.2926 -0.1099
 3823SOL    HW123102   4.482   2.335  10.727 -0.2966  3.6001  0.6794
 3823SOL    HW223103   4.614   2.298  10.740  2.5455  2.0897 -1.3255
 3824SOL     OW23104   4.295   1.921   3.256  0.0718  0.2485  0.1391
 3824SOL    HW123105   4.329   1.925   3.345 -1.3119  0.2464  0.6792
 3824SOL    HW223106   4.321   1.832   3.230 -0.7861 -0.3595  1.3202
 3825SOL     OW23107   4.250   3.958   0.201 -0.2797 -0.4974  0.3840
 3825SOL    HW123108   4.339   3.949   0.168 -0.2995  2.3622 -0.5105
 3825SOL    HW223109   4.250   4.028   0.267 -0.2725 -1.1340  1.0540
 3826SOL     OW23110   1.714   1.463   5.896  0.3042  0.2326 -0.7892
 3826SOL    HW123111   1.681   1.524   5.831 -1.0915  1.4361  1.0624
 3826SOL    HW223112   1.678   1.385   5.852  0.0944 -0.5597  0.7567
 3827SOL     OW23113   0.764   3.856   7.059 -0.8159 -0.3126 -0.3754
 3827SOL    HW123114   0.755   3.804   7.138  1.7536  0.0402  0.1370
 3827SOL    HW223115   0.854   3.835   7.035 -1.7053 -4.2750 -0.2996
 3828SOL     OW23116   2.096   4.288   3.682 -0.0228 -0.1866 -0.0559
 3828SOL    HW123117   2.059   4.376   3.677 -1.3159 -0.8323 -1.8333
 3828SOL    HW223118   2.158   4.301   3.610  0.7886 -0.9588  0.5005
 3829SOL     OW23119   4.619   0.714   8.418 -0.0689  0.2717 -0.4556
 3829SOL    HW123120   4.688   0.657   8.385 -1.0575 -0.7482 -0.7292
 3829SOL    HW223121   4.571   0.725   8.336  0.8480  1.6339 -0.8053
 3830SOL     OW23122   1.580   4.254   8.661  0.6243 -0.4345  0.0201
 3830SOL    HW123123   1.612   4.226   8.575 -1.0608 -1.1657 -0.3661
 3830SOL    HW223124   1.522   4.327   8.641  0.5333 -0.7064 -0.7161
 3831SOL     OW23125   1.958   2.024   9.884  0.1790 -0.3755 -0.3033
 3831SOL    HW123126   1.913   2.006   9.801  1.8101 -0.2767 -1.2230
 3831SOL    HW223127   1.926   1.959   9.946  0.5563  0.0632  0.3579
 3832SOL     OW23128   3.125   1.265   1.525 -0.1404  0.3422  0.7243
 3832SOL    HW123129   3.060   1.332   1.545 -0.6247  0.0830  0.0372
 3832SOL    HW223130   3.122   1.201   1.597  1.6369  0.0739  0.5569
 3833SOL     OW23131   4.577   2.527   8.838 -0.0304  0.0243  0.0903
 3833SOL    HW123132   4.489   2.499   8.866 -1.2276  3.0103 -0.6586
 3833SOL    HW223133   4.604   2.456   8.781 -0.7398 -1.4274  1.5616
 3834SOL     OW23134   0.041   4.707   8.645  0.8634 -0.1708 -0.6702
 3834SOL    HW123135   4.718   0.040   8.633  0.5998 -0.2144  0.4564
 3834SOL    HW223136   0.083   4.731   8.727  0.3233  1.8943 -0.9831
 3835SOL     OW23137   0.177   3.845   6.893  0.4552  1.0280  1.0236
 3835SOL    HW123138   0.267   3.869   6.873 -0.2132  3.0541  0.4265
 3835SOL    HW223139   0.173   3.762   6.845  0.8819  1.8638 -0.4383
 3836SOL     OW23140   1.141   2.817  14.209  0.5412 -0.8127  0.3852
 3836SOL    HW123141   1.131   2.768  14.290 -1.5208 -1.0648 -0.0224
 3836SOL    HW223142   1.127   2.760  14.133  1.2044 -0.2763 -0.1428
 3837SOL     OW23143   0.369   3.122   0.580  0.5096 -0.1200 -0.0745
 3837SOL    HW123144   0.343   3.203   0.624 -0.1196 -0.1880 -0.3220
 3837SOL    HW223145   0.403   3.168   0.504 -0.3872 -0.7757 -0.8799
 3838SOL     OW23146   4.613   2.400  16.717 -0.0499 -0.1277 -0.3270
 3838SOL    HW123147   4.680   2.406  16.785  0.2628  0.7990 -0.7207
 3838SOL    HW223148   4.581   2.488  16.699 -2.3309 -0.9574 -0.3782
 3839SOL     OW23149   2.957   0.271   2.180 -0.5986  0.5671 -0.3436
 3839SOL    HW123150   3.029   0.330   2.158 -1.1914  1.1023 -0.8408
 3839SOL    HW223151   2.898   0.297   2.109 -0.8269 -1.2963 -0.8204
 3840SOL     OW23152   2.459   4.277   7.841 -0.0455  0.1504 -0.1560
 3840SOL    HW123153   2.436   4.279   7.748  2.8902  2.0183 -0.8391
 3840SOL    HW223154   2.496   4.365   7.844 -0.6303  0.4002 -0.2002
 3841SOL     OW23155   0.157   0.767   4.723  0.2182 -0.2171 -0.4889
 3841SOL    HW123156   0.230   0.727   4.770 -0.1956  2.2061  2.1920
 3841SOL    HW223157   0.157   0.734   4.633 -2.4482  0.9182 -0.9086
 3842SOL     OW23158   2.176   3.799   0.572  0.3546 -0.2542 -0.7431
 3842SOL    HW123159   2.100   3.742   0.567 -0.9708  1.2304  2.4946
 3842SOL    HW223160   2.135   3.882   0.593  0.2769 -0.8133  1.3702
 3843SOL     OW23161   0.004   4.408   3.751 -0.1610 -0.1893 -0.4204
 3843SOL    HW123162   0.072   4.439   3.810 -1.9871  0.6988  1.2256
 3843SOL    HW223163   4.705   4.493   3.729 -0.0729  0.1053  0.6020
 3844SOL     OW23164   2.977   0.880   9.881 -0.5931 -0.0030 -0.6358
 3844SOL    HW123165   2.950   0.837   9.962 -1.0144  1.9889  0.2709
 3844SOL    HW223166   2.940   0.816   9.820 -0.3883 -1.0578  0.3550
 3845SOL     OW23167   2.850   0.538   3.399 -0.4896  0.0884  0.4055
 3845SOL    HW123168   2.878   0.463   3.346 -1.2451 -1.2392  1.8856
 3845SOL    HW223169   2.873   0.496   3.482 -1.6139 -1.0242  0.1374
 3846SOL     OW23170   0.019   1.249  12.390  0.1509  0.1967  0.1355
 3846SOL    HW123171   4.718   1.312  12.450 -0.0754 -0.0057  0.2003
 3846SOL    HW223172   4.696   1.255  12.317  0.6470  0.9855 -0.2201
 3847SOL     OW23173   0.639   1.491  13.797 -0.6862  0.3104  0.0837
 3847SOL    HW123174   0.654   1.549  13.722  1.7617  1.6245  1.6031
 3847SOL    HW223175   0.559   1.530  13.833  0.3518  1.1977  1.4141
 3848SOL     OW23176   0.213   4.616  10.214 -0.0115 -0.1386  0.1854
 3848SOL    HW123177   0.162   4.544  10.176  0.1474 -1.2569  2.0970
 3848SOL    HW223178   0.252   4.645  10.132  0.0100  1.4775  0.7667
 3849SOL     OW23179   3.222   1.099   0.353 -0.1540 -0.2985  0.3028
 3849SOL    HW123180   3.295   1.045   0.323  0.1079  1.4573 -2.2279
 3849SOL    HW223181   3.203   1.047   0.432  0.7018 -1.0617  0.0084
 3850SOL     OW23182   4.644   3.663  11.818 -0.4402 -0.0862  0.5783
 3850SOL    HW123183   4.596   3.589  11.781  2.7741 -1.5388 -0.7585
 3850SOL    HW223184   4.619   3.726  11.750  2.8440 -1.9345 -2.4138
 3851SOL     OW23185   1.943   2.279  16.357  0.4003  0.5381 -0.6184
 3851SOL    HW123186   1.941   2.191  16.320  0.9135 -0.5607  1.9969
 3851SOL    HW223187   2.032   2.293  16.388  0.4486  2.5326 -1.6577
 3852SOL     OW23188   2.349   2.846   5.717 -0.5386 -0.4849  0.4294
 3852SOL    HW123189   2.285   2.828   5.648 -0.0194  0.6680 -0.3552
 3852SOL    HW223190   2.422   2.792   5.686 -0.1424 -0.0885  0.6770
 3853SOL     OW23191   2.640   1.713   9.021  0.1613 -0.0077 -0.0950
 3853SOL    HW123192   2.589   1.645   9.065 -0.4556  0.4749 -0.0584
 3853SOL    HW223193   2.730   1.695   9.048  1.3000  1.2927 -2.9728
 3854SOL     OW23194   0.221   2.282   0.295 -0.2736 -0.1998 -1.1307
 3854SOL    HW123195   0.153   2.224   0.331  1.0351 -0.2208  1.2769
 3854SOL    HW223196   0.182   2.370   0.304  0.7596  0.4761 -3.2236
 3855SOL     OW23197   2.683   4.643   4.634  0.1399 -0.1377 -0.0414
 3855SOL    HW123198   2.759   4.696   4.613 -1.2299  1.8970  0.1744
 3855SOL    HW223199   2.725   4.557   4.642  1.4025  0.4683 -0.2738
 3856SOL     OW23200   0.804   2.809  10.656  0.3334  0.2580  0.2008
 3856SOL    HW123201   0.746   2.885  10.661  1.1845  0.8623  0.9323
 3856SOL    HW223202   0.804   2.788  10.750  0.3593  0.0075  0.1432
 3857SOL     OW23203   0.253   0.485   0.000  0.2042 -0.2498 -0.0825
 3857SOL    HW123204   0.330   0.539   0.016  0.4083 -1.0492  1.6346
 3857SOL    HW223205   0.183   0.523   0.053  1.4020  1.4294  0.2628
 3858SOL     OW23206   1.991   4.020  12.073  0.2485  0.7211 -0.0958
 3858SOL    HW123207   2.021   4.011  11.982 -1.6888 -1.2054 -0.5650
 3858SOL    HW223208   1.896   4.027  12.062  0.3072  1.3732 -0.1538
 3859SOL     OW23209   0.656   0.723   0.670  0.5329  0.0278 -0.2270
 3859SOL    HW123210   0.733   0.701   0.724  0.8120 -0.9069 -1.0012
 3859SOL    HW223211   0.659   0.643   0.618 -3.8055 -0.5440  0.4580
 3860SOL     OW23212   1.814   1.818   2.926  0.8103 -0.4764  0.4196
 3860SOL    HW123213   1.852   1.860   2.850 -0.1115 -0.3649  0.0197
 3860SOL    HW223214   1.863   1.736   2.924  0.1351 -0.8743  0.2289
 3861SOL     OW23215   3.307   1.980   3.678 -0.5395  0.2175  0.0896
 3861SOL    HW123216   3.252   2.015   3.609  0.0398 -0.6494 -0.8069
 3861SOL    HW223217   3.269   2.026   3.753  0.2229  1.0183 -0.0165
 3862SOL     OW23218   2.749   0.878  13.538  0.3849 -0.0774  0.5459
 3862SOL    HW123219   2.687   0.944  13.569 -0.2849 -1.2422  1.6420
 3862SOL    HW223220   2.737   0.799  13.589 -1.9353  0.6857  1.1791
 3863SOL     OW23221   3.122   4.015   5.575 -0.2303  0.6992  0.0711
 3863SOL    HW123222   3.101   3.942   5.516 -0.6676  1.0808 -0.2404
 3863SOL    HW223223   3.066   3.985   5.647  0.1484  2.3733  1.0551
 3864SOL     OW23224   0.460   4.342   3.866  0.2345 -0.1044 -0.4777
 3864SOL    HW123225   0.524   4.356   3.936  0.6196  0.5498 -0.9594
 3864SOL    HW223226   0.510   4.313   3.790  1.1032  0.4261 -0.1046
 3865SOL     OW23227   3.204   0.413  11.885  0.1998  0.0658  0.0603
 3865SOL    HW123228   3.122   0.380  11.850 -0.2402 -1.3245  2.4005
 3865SOL    HW223229   3.272   0.382  11.825 -0.9084 -1.0087 -0.6426
 3866SOL     OW23230   2.525   2.132   3.122  0.1687  0.1318  0.2391
 3866SOL    HW123231   2.538   2.052   3.071 -3.3182 -0.4236  0.2030
 3866SOL    HW223232   2.508   2.196   3.052 -1.2332 -0.2435  0.2439
 3867SOL     OW23233   4.498   4.722  10.857 -0.0539  0.1373 -0.0150
 3867SOL    HW123234   4.477   0.076  10.864  0.3905  0.0676  2.1206
 3867SOL    HW223235   4.548   4.715  10.776 -0.9499  2.0241 -0.7491
 3868SOL     OW23236   3.861   2.492  11.026 -0.4822  0.2251 -0.1878
 3868SOL    HW123237   3.773   2.456  11.033  0.2222 -1.2233  1.2223
 3868SOL    HW223238   3.901   2.425  11.081 -0.2459 -0.0430 -0.6786
 3869SOL     OW23239   2.393   0.742   5.834  0.0572 -0.4035  0.0571
 3869SOL    HW123240   2.343   0.748   5.915  1.5589 -0.7022  1.0126
 3869SOL    HW223241   2.474   0.705   5.869  0.1327 -1.1091 -0.8513
 3870SOL     OW23242   3.606   1.795   7.489  0.2763  0.0406 -0.0244
 3870SOL    HW123243   3.683   1.769   7.539  0.4782  1.9011  0.6400
 3870SOL    HW223244   3.640   1.813   7.402 -0.2815 -1.5430 -0.5679
 3871SOL     OW23245   2.693   3.411   4.027  0.2725  0.2153  0.5376
 3871SOL    HW123246   2.648   3.368   4.100 -1.1762  3.1468  1.3509
 3871SOL    HW223247   2.772   3.448   4.066  0.5820  0.6226 -0.4781
 3872SOL     OW23248   0.887   0.242   5.120 -0.5458 -0.1378  0.1558
 3872SOL    HW123249   0.835   0.225   5.041  1.5252 -1.1648 -0.9686
 3872SOL    HW223250   0.946   0.167   5.112 -0.8910 -0.6164  2.1126
 3873SOL     OW23251   2.016   2.883   3.363 -0.0620  0.4126  0.1442
 3873SOL    HW123252   2.055   2.875   3.450  0.0845 -1.4362 -0.0929
 3873SOL    HW223253   2.072   2.826   3.309 -1.2568  0.5013 -1.1932
 3874SOL     OW23254   3.750   3.164   3.114 -0.7074 -0.3366  0.6400
 3874SOL    HW123255   3.835   3.144   3.153 -0.3363  0.1562  0.0813
 3874SOL    HW223256   3.749   3.258   3.135  1.8026  0.6371 -3.5351
 3875SOL     OW23257   2.675   3.747  16.003  0.0680  0.1894  0.3907
 3875SOL    HW123258   2.680   3.653  15.987  2.0572  0.6838 -1.8561
 3875SOL    HW223259   2.742   3.755  16.072 -1.5032 -1.4405  2.1248
 3876SOL     OW23260   4.163   1.268   1.671  0.1439 -0.1533 -0.4257
 3876SOL    HW123261   4.072   1.264   1.698  0.0952  0.7411 -0.4669
 3876SOL    HW223262   4.178   1.175   1.654 -0.1342  0.0883 -1.9709
 3877SOL     OW23263   0.414   0.070   7.393 -0.3569 -0.3907  0.3617
 3877SOL    HW123264   0.378   0.031   7.473  1.0831  1.2608  1.8381
 3877SOL    HW223265   0.504   0.040   7.391  0.2506  1.3416  1.1868
 3878SOL     OW23266   1.411   3.593   9.144  0.6355 -0.3448 -0.4148
 3878SOL    HW123267   1.382   3.522   9.202 -1.0150  0.6124 -0.0864
 3878SOL    HW223268   1.503   3.583   9.168  0.3050 -0.5239  0.8232
 3879SOL     OW23269   1.956   1.386   6.001 -0.0339  0.1494 -0.0473
 3879SOL    HW123270   1.923   1.363   6.088  0.1384 -0.0263 -0.0307
 3879SOL    HW223271   1.871   1.411   5.964 -0.6230 -0.1821  1.0852
 3880SOL     OW23272   1.791   4.115   1.445 -0.3184 -0.1143  0.0332
 3880SOL    HW123273   1.871   4.063   1.454 -1.5596 -2.1922 -0.6979
 3880SOL    HW223274   1.812   4.204   1.417  0.8978 -0.1038  0.9600
 3881SOL     OW23275   1.497   2.154   7.671  0.2761 -0.3724 -0.1463
 3881SOL    HW123276   1.424   2.180   7.615 -0.2118  1.6908  1.4624
 3881SOL    HW223277   1.481   2.060   7.680 -1.9626  0.0384  0.0951
 3882SOL     OW23278   0.723   4.518  13.119 -0.1247 -0.3026 -0.1873
 3882SOL    HW123279   0.777   4.458  13.170 -3.5937  0.0841  3.9455
 3882SOL    HW223280   0.790   4.568  13.074 -1.3108  2.1027  0.7071
 3883SOL     OW23281   2.057   1.123   8.683 -0.4270 -0.2623  0.0561
 3883SOL    HW123282   2.042   1.167   8.599 -2.7971 -0.3513  0.4399
 3883SOL    HW223283   1.999   1.175   8.738 -1.1736 -0.6366 -0.3852
 3884SOL     OW23284   0.160   0.530   5.367 -0.1495  0.5607 -0.1376
 3884SOL    HW123285   0.140   0.452   5.315  0.9719  0.4027 -0.3278
 3884SOL    HW223286   0.172   0.491   5.454  0.7096 -1.8569 -1.3317
 3885SOL     OW23287   2.106   0.187   7.518 -0.4098 -0.3704  0.6552
 3885SOL    HW123288   2.038   0.154   7.576  0.0828  0.6219  1.8015
 3885SOL    HW223289   2.112   0.276   7.554  0.5568 -0.3208  0.3762
 3886SOL     OW23290   4.046   0.984   3.212 -0.1579 -0.2343  0.1473
 3886SOL    HW123291   4.067   0.912   3.153  1.4443 -1.5444  2.3476
 3886SOL    HW223292   4.005   0.926   3.276 -1.2019  0.1247 -0.2015
 3887SOL     OW23293   2.002   1.238   2.433 -0.0507 -0.4757  0.3619
 3887SOL    HW123294   1.990   1.302   2.503  2.9833 -0.0978  0.5598
 3887SOL    HW223295   1.957   1.165   2.473 -1.1081  0.6169  1.1495
 3888SOL     OW23296   3.156   4.563   5.904 -0.1732 -0.1301 -0.2440
 3888SOL    HW123297   3.124   4.574   5.993 -1.8484  1.2806 -1.0239
 3888SOL    HW223298   3.227   4.627   5.899 -0.0462 -0.4032 -1.8959
 3889SOL     OW23299   0.201   1.832  12.556 -0.1200  0.0274  0.0463
 3889SOL    HW123300   0.219   1.794  12.642  2.2834  0.8205 -0.0833
 3889SOL    HW223301   0.172   1.917  12.590  2.5479  0.8633  0.2922
 3890SOL     OW23302   3.279   1.197  11.322 -0.1642  0.8579 -0.6955
 3890SOL    HW123303   3.359   1.216  11.372 -1.1077  1.9598  0.3994
 3890SOL    HW223304   3.234   1.143  11.386  0.6713  0.0503 -0.7879
 3891SOL     OW23305   0.952   0.938   2.964 -0.1416 -0.1729 -0.2388
 3891SOL    HW123306   0.942   0.987   3.045  0.0043  0.1198 -0.3975
 3891SOL    HW223307   1.039   0.968   2.939 -0.7137  0.4184 -1.5447
 3892SOL     OW23308   1.065   2.917   3.125 -0.3332 -0.0412  0.4313
 3892SOL    HW123309   1.134   2.853   3.139  1.2605  1.5758 -0.0269
 3892SOL    HW223310   0.992   2.860   3.148 -0.8819  1.5935  2.7181
 3893SOL     OW23311   3.161   0.989   0.588  0.6059  0.3535 -0.5831
 3893SOL    HW123312   3.218   1.055   0.630 -0.3573  0.7365  0.1130
 3893SOL    HW223313   3.224   0.917   0.586 -0.7435 -0.8755  1.5842
 3894SOL     OW23314   2.053   0.807   7.979  0.5669 -0.4725 -0.8654
 3894SOL    HW123315   2.048   0.718   8.012  0.7216 -0.2083 -0.1252
 3894SOL    HW223316   2.104   0.847   8.050  0.4034  1.2249 -1.6949
 3895SOL     OW23317   4.689   2.882   4.701 -0.2687 -0.3867  0.6027
 3895SOL    HW123318   0.041   2.867   4.679  0.4276  2.4607  1.5486
 3895SOL    HW223319   4.660   2.902   4.612 -0.6140  0.1886  0.8420
 3896SOL     OW23320   4.007   2.089   2.558 -0.7304 -0.3622 -0.0976
 3896SOL    HW123321   4.067   2.156   2.590 -0.8395 -0.5055  0.4190
 3896SOL    HW223322   3.930   2.095   2.614  0.3224 -2.4824  1.6104
 3897SOL     OW23323   2.535   4.621   5.708 -0.4261  0.0274 -0.4873
 3897SOL    HW123324   2.603   4.648   5.646  0.9051  0.3461  1.0995
 3897SOL    HW223325   2.531   4.528   5.686 -0.9621 -0.2986  1.0045
 3898SOL     OW23326   4.152   0.969  11.076 -0.3878  0.6275  0.2515
 3898SOL    HW123327   4.148   1.018  11.158  0.2971  0.2716  0.5049
 3898SOL    HW223328   4.149   0.878  11.106  0.9997  0.5717  0.2482
 3899SOL     OW23329   4.069   1.471   5.108  0.2176 -0.1530 -0.2024
 3899SOL    HW123330   4.061   1.378   5.128  2.6790 -0.7195 -1.8419
 3899SOL    HW223331   4.001   1.506   5.166  0.2760  0.8425 -0.7323
 3900SOL     OW23332   1.077   2.010   2.602  0.6183 -0.1027  0.0299
 3900SOL    HW123333   0.997   2.008   2.550  1.2301 -0.9814 -0.8620
 3900SOL    HW223334   1.065   1.934   2.658 -1.3858  0.2329  0.0535
 3901SOL     OW23335   1.942   3.351   2.894  0.4794 -0.1193 -0.0742
 3901SOL    HW123336   1.955   3.438   2.856 -2.2778 -1.2270 -3.5169
 3901SOL    HW223337   1.873   3.361   2.960 -1.3858  2.8847 -2.4905
 3902SOL     OW23338   2.734   2.387   5.968 -0.5277  0.0656 -0.5882
 3902SOL    HW123339   2.814   2.356   5.927  0.2764  1.2698  0.0865
 3902SOL    HW223340   2.751   2.481   5.971  2.8334 -0.6198  1.8439
 3903SOL     OW23341   2.123   3.352   7.488  0.2147 -0.5085  0.1485
 3903SOL    HW123342   2.186   3.317   7.550  1.4635 -1.8695 -1.8783
 3903SOL    HW223343   2.088   3.424   7.540 -0.4971 -0.9904  0.3331
 3904SOL     OW23344   4.016   4.351   2.235  0.0698  0.3973  0.1229
 3904SOL    HW123345   4.047   4.333   2.324  0.9613 -1.7844 -0.6301
 3904SOL    HW223346   3.995   4.263   2.204  1.4623  0.5352 -1.2699
 3905SOL     OW23347   4.573   4.045   1.903  0.4791  0.4463  0.2013
 3905SOL    HW123348   4.668   4.047   1.894  0.4396  1.7040 -0.0064
 3905SOL    HW223349   4.552   3.974   1.842 -0.1858  0.2248  0.6894
 3906SOL     OW23350   2.667   3.188   6.992 -0.0735  0.5582  0.0968
 3906SOL    HW123351   2.664   3.095   6.968 -0.7793  0.1913  1.6098
 3906SOL    HW223352   2.746   3.212   6.944  0.2283 -1.1561 -0.2718
 3907SOL     OW23353   3.073   4.209   3.992 -0.1434 -0.2717  0.1228
 3907SOL    HW123354   3.132   4.244   4.059  1.5256  1.4445 -2.2677
 3907SOL    HW223355   2.990   4.253   4.011  0.4607  0.9046  0.0500
 3908SOL     OW23356   3.714   4.490   1.769 -0.3060  0.0856 -0.4497
 3908SOL    HW123357   3.644   4.444   1.724  0.3819 -0.6368 -0.7904
 3908SOL    HW223358   3.720   4.574   1.724  0.3109  0.2033 -0.1539
 3909SOL     OW23359   0.467   0.730   7.756 -0.4011 -0.0670  0.1716
 3909SOL    HW123360   0.414   0.808   7.775 -1.1602 -0.3385 -0.8755
 3909SOL    HW223361   0.558   0.756   7.765  0.8518 -4.2541 -0.8087
 3910SOL     OW23362   4.517   0.184  14.967  0.5827 -0.5559 -0.9013
 3910SOL    HW123363   4.461   0.261  14.978  0.9799 -0.5678  1.1111
 3910SOL    HW223364   4.497   0.131  15.044 -3.6638 -0.2746 -1.7698
 3911SOL     OW23365   1.570   2.786   9.542 -0.2287  0.2071 -0.0884
 3911SOL    HW123366   1.517   2.864   9.531 -0.9477 -0.1176  1.0367
 3911SOL    HW223367   1.605   2.770   9.454 -0.9682  0.8661 -0.4957
 3912SOL     OW23368   3.931   1.646   1.181  0.0359  0.1401 -0.2948
 3912SOL    HW123369   3.954   1.713   1.116  0.7132 -0.5241 -0.7468
 3912SOL    HW223370   3.945   1.710   1.251  0.2720 -2.2866  1.8594
 3913SOL     OW23371   0.231   1.485   4.825 -0.0395  0.6969  0.2470
 3913SOL    HW123372   0.149   1.525   4.797 -0.6563  0.6202  1.9390
 3913SOL    HW223373   0.237   1.415   4.760  1.1209  0.4282  0.6549
 3914SOL     OW23374   0.098   2.994   5.161 -0.0048 -0.6322 -0.0486
 3914SOL    HW123375   0.014   2.982   5.204  0.0938  1.5925  0.7811
 3914SOL    HW223376   0.072   2.964   5.074  2.2726 -3.4967  0.2434
 3915SOL     OW23377   1.110   2.162   2.852  0.4046 -0.0817  0.5719
 3915SOL    HW123378   1.195   2.206   2.856 -0.3703  1.4284 -0.0269
 3915SOL    HW223379   1.139   2.074   2.826 -0.6903 -0.3491  0.2823
 3916SOL     OW23380   1.146   3.729   7.800 -0.1371 -0.0352 -0.5716
 3916SOL    HW123381   1.224   3.689   7.839  0.7727  0.9155 -1.3966
 3916SOL    HW223382   1.079   3.661   7.802 -1.0892  0.8636 -1.8793
 3917SOL     OW23383   3.079   1.687   7.352 -0.1850 -0.1752 -0.2496
 3917SOL    HW123384   2.996   1.675   7.398  0.6434  1.0895  1.5785
 3917SOL    HW223385   3.129   1.727   7.423  2.3619  0.2737 -2.2703
 3918SOL     OW23386   1.199   0.711   6.504 -0.2099 -0.2170  0.1510
 3918SOL    HW123387   1.120   0.693   6.454 -1.5372 -0.4440  2.3563
 3918SOL    HW223388   1.192   0.802   6.533  1.1869 -0.7001  2.0274
 3919SOL     OW23389   1.657   4.251   4.822  0.6643 -0.3630  0.2302
 3919SOL    HW123390   1.568   4.217   4.820  0.4384  0.3145 -1.1459
 3919SOL    HW223391   1.713   4.173   4.829  0.7198 -0.3158  0.3263
 3920SOL     OW23392   0.690   2.116   7.486 -0.4287  0.0670  0.7288
 3920SOL    HW123393   0.666   2.082   7.572  1.2334 -0.6065  0.9231
 3920SOL    HW223394   0.626   2.188   7.485 -0.1655  0.2746 -0.2335
 3921SOL     OW23395   3.652   4.636   2.989  0.2441  0.3726 -0.5894
 3921SOL    HW123396   3.586   4.621   2.921 -0.2986 -2.1802  0.5047
 3921SOL    HW223397   3.728   4.639   2.932  1.9300 -1.4225  1.5599
 3922SOL     OW23398   0.063   3.561   7.676  0.3125 -0.2864  0.5943
 3922SOL    HW123399   0.055   3.574   7.770  1.8730 -1.9625  0.9616
 3922SOL    HW223400   4.713   3.573   7.644 -0.1744 -2.2548  1.2185
 3923SOL     OW23401   3.787   4.389   3.757  0.1650 -0.0959  0.1600
 3923SOL    HW123402   3.754   4.387   3.847 -1.7726 -0.1556 -0.5461
 3923SOL    HW223403   3.878   4.408   3.777 -0.7300  4.0648  0.4271
 3924SOL     OW23404   4.294   0.679   7.968 -0.3208  0.1330 -0.3969
 3924SOL    HW123405   4.217   0.733   7.949 -0.4726 -0.3778 -1.2374
 3924SOL    HW223406   4.257   0.643   8.048 -0.6603 -1.3048 -1.1903
 3925SOL     OW23407   2.568   3.992   1.730 -0.0064  0.3187 -0.2585
 3925SOL    HW123408   2.592   3.949   1.648  0.1606  1.2323 -0.6985
 3925SOL    HW223409   2.549   3.916   1.785  1.0296  0.8855  0.8894
 3926SOL     OW23410   0.505   0.662   0.053  0.2374 -0.2247  0.2594
 3926SOL    HW123411   0.578   0.601   0.048 -1.2558 -2.0370  0.6068
 3926SOL    HW223412   0.525   0.735  17.750 -2.8757  0.1629 -0.3314
 3927SOL     OW23413   2.608   2.548  15.898 -0.3492 -0.4911  0.2367
 3927SOL    HW123414   2.698   2.529  15.874 -0.0303  0.6114  0.5567
 3927SOL    HW223415   2.564   2.530  15.815 -1.1733 -0.6809  0.7156
 3928SOL     OW23416   3.273   3.019   6.774 -0.3833 -0.5447  0.0012
 3928SOL    HW123417   3.285   3.114   6.765  0.0870 -0.6824 -0.7580
 3928SOL    HW223418   3.178   3.009   6.780 -0.5819  0.3582 -1.6213
 3929SOL     OW23419   3.242   1.870   2.461 -0.4440 -0.2548  0.4173
 3929SOL    HW123420   3.232   1.933   2.532 -1.4197  2.0639 -1.7875
 3929SOL    HW223421   3.179   1.800   2.479  0.9844 -1.2237  1.6413
 3930SOL     OW23422   4.131   0.005   5.231  0.4774 -0.3228 -0.0191
 3930SOL    HW123423   4.192   0.042   5.168 -0.1692 -0.7575 -0.9143
 3930SOL    HW223424   4.090   4.672   5.183 -0.7812  0.2384  0.1916
 3931SOL     OW23425   4.648   3.257  17.428  0.2694  1.2684 -0.2569
 3931SOL    HW123426   4.680   3.167  17.437  0.4270  1.4101  0.5905
 3931SOL    HW223427   4.642   3.269  17.333  0.9381  0.7962 -0.3588
 3932SOL     OW23428   0.898   0.832   0.068 -0.0520 -0.0377  0.1345
 3932SOL    HW123429   0.949   0.756   0.041  0.9006  0.0638  1.6542
 3932SOL    HW223430   0.854   0.798   0.146 -1.5209  1.3098 -0.0948
 3933SOL     OW23431   2.404   4.547   7.284  0.5643  0.3709 -0.4377
 3933SOL    HW123432   2.392   4.537   7.190 -1.3096  1.5223 -0.3166
 3933SOL    HW223433   2.437   4.636   7.295  2.1775 -0.5342  2.0043
 3934SOL     OW23434   2.014   3.620   6.114  0.0354 -0.4043  0.2290
 3934SOL    HW123435   2.025   3.673   6.193 -0.7844 -0.2415  0.2386
 3934SOL    HW223436   1.936   3.568   6.133 -0.1435 -0.5605 -0.9235
 3935SOL     OW23437   2.848   0.414   9.295  0.1455 -0.1062  0.0426
 3935SOL    HW123438   2.802   0.492   9.263 -1.8504 -0.5851  1.7769
 3935SOL    HW223439   2.779   0.363   9.338  1.1113 -1.0378  0.4782
 3936SOL     OW23440   0.342   0.790   2.051 -0.0653 -0.1141 -0.3914
 3936SOL    HW123441   0.331   0.883   2.070 -2.5649 -0.8199  1.7956
 3936SOL    HW223442   0.250   0.765   2.062  0.1884  0.2191  2.4851
 3937SOL     OW23443   4.519   2.674  16.223 -0.4289  0.6929  0.1761
 3937SOL    HW123444   4.528   2.763  16.257  0.2370  0.1922  1.3064
 3937SOL    HW223445   4.520   2.621  16.302 -1.3719  0.1043 -0.2167
 3938SOL     OW23446   0.460   1.794  16.758  0.1393 -0.2208 -0.3014
 3938SOL    HW123447   0.474   1.700  16.751 -0.1252 -0.3468  0.9199
 3938SOL    HW223448   0.497   1.814  16.672 -2.3627 -2.2852 -1.8555
 3939SOL     OW23449   4.234   1.200   7.796 -0.2013  0.0333  0.1097
 3939SOL    HW123450   4.271   1.133   7.739  0.9212  0.0984  0.7729
 3939SOL    HW223451   4.142   1.201   7.767  0.6425 -0.2044 -2.5435
 3940SOL     OW23452   0.049   2.124   6.825  0.2463 -0.0388  0.2939
 3940SOL    HW123453   4.715   2.184   6.840 -1.1161 -1.3354 -1.2004
 3940SOL    HW223454   0.085   2.162   6.745  0.3411 -0.9531 -0.0980
 3941SOL     OW23455   4.538   4.460   7.441  0.0002 -0.0860  0.1145
 3941SOL    HW123456   4.583   4.429   7.520  0.8933 -2.3425 -1.2787
 3941SOL    HW223457   4.475   4.524   7.473 -0.3542 -0.1552 -0.4547
 3942SOL     OW23458   1.086   3.031   0.181 -0.1407 -0.5039 -0.4914
 3942SOL    HW123459   1.019   3.010   0.246  2.0621 -1.0478  1.6178
 3942SOL    HW223460   1.164   2.998   0.225 -1.5658  0.6134  2.8628
 3943SOL     OW23461   2.002   3.668   4.878 -0.2812 -0.2596  0.3756
 3943SOL    HW123462   1.982   3.672   4.785  0.5618 -0.3597  0.1882
 3943SOL    HW223463   1.952   3.742   4.913 -0.8593 -0.7560  0.5856
 3944SOL     OW23464   3.517   1.831   4.423 -0.1078 -0.2847  0.2456
 3944SOL    HW123465   3.457   1.772   4.378  1.6398 -2.8515  1.3195
 3944SOL    HW223466   3.472   1.912   4.396 -0.3629 -0.6559 -0.4402
 3945SOL     OW23467   1.971   1.864   3.334 -0.2265  0.0205  0.0857
 3945SOL    HW123468   1.886   1.883   3.295 -0.2678  0.3721  0.3456
 3945SOL    HW223469   2.004   1.794   3.279  0.9444 -0.4415  1.3678
 3946SOL     OW23470   2.987   3.681   7.090 -0.5085 -0.6373 -0.1255
 3946SOL    HW123471   2.994   3.601   7.038 -0.2757 -0.6757 -0.0387
 3946SOL    HW223472   2.903   3.713   7.059  1.1968  2.2047 -1.8060
 3947SOL     OW23473   3.155   2.291   6.076 -1.3007 -0.0916 -0.2486
 3947SOL    HW123474   3.150   2.231   6.002  1.5435  0.4815 -0.9301
 3947SOL    HW223475   3.239   2.336   6.070 -0.5225 -1.4696  0.3519
 3948SOL     OW23476   2.950   0.992   4.345 -0.4345 -0.2957 -0.5717
 3948SOL    HW123477   2.870   1.032   4.311  0.3356  1.5052 -0.2584
 3948SOL    HW223478   3.015   1.033   4.287  1.8958 -0.6029  1.8263
 3949SOL     OW23479   4.226   4.562  14.954  0.0598  0.1267 -0.0955
 3949SOL    HW123480   4.136   4.560  14.988  0.0213 -2.5163 -0.4032
 3949SOL    HW223481   4.221   4.477  14.911 -0.3019 -0.6650  1.4867
 3950SOL     OW23482   2.751   1.841   7.971  0.0959  0.3586  0.6815
 3950SOL    HW123483   2.723   1.787   8.044 -2.9134 -0.7015 -1.2924
 3950SOL    HW223484   2.835   1.801   7.947  1.0947  1.5691  2.1165
 3951SOL     OW23485   1.777   2.622   8.790  0.5011  0.3895  0.2799
 3951SOL    HW123486   1.769   2.717   8.790  2.0071  0.5165  0.4723
 3951SOL    HW223487   1.682   2.605   8.786  0.3986  0.8906  0.5512
 3952SOL     OW23488   3.934   3.580   1.695 -0.1308  0.0399  0.1218
 3952SOL    HW123489   3.999   3.559   1.761  0.0544  0.7225  0.1643
 3952SOL    HW223490   3.861   3.521   1.713  1.5746 -2.0511  0.1700
 3953SOL     OW23491   1.351   3.835   0.835 -0.3215 -0.1043 -0.3331
 3953SOL    HW123492   1.279   3.894   0.810  1.2430  1.5189 -0.9618
 3953SOL    HW223493   1.347   3.823   0.930 -0.7403 -0.2267 -0.3624
 3954SOL     OW23494   4.480   4.458   2.836  0.0212 -0.3445  0.6111
 3954SOL    HW123495   4.548   4.423   2.892  0.0484 -1.4248 -0.0948
 3954SOL    HW223496   4.509   4.457   2.745 -0.9702  1.2609  0.2702
 3955SOL     OW23497   0.499   4.573   6.703 -0.1561  0.6277 -0.2367
 3955SOL    HW123498   0.432   4.575   6.771 -1.3222  2.5692 -1.4197
 3955SOL    HW223499   0.444   4.548   6.628  1.2117  2.5264 -1.8751
 3956SOL     OW23500   2.657   3.101   3.879 -0.0108  0.3877 -0.2788
 3956SOL    HW123501   2.592   3.082   3.812  0.0419  0.0714 -0.2394
 3956SOL    HW223502   2.726   3.146   3.830  0.4184  3.1344  2.8272
 3957SOL     OW23503   0.088   1.935   5.471  0.2230 -0.0777  0.0456
 3957SOL    HW123504   0.121   1.891   5.393  0.8945 -1.4583  1.1160
 3957SOL    HW223505   4.734   1.948   5.451  0.2522  0.7612  0.4549
 3958SOL     OW23506   1.963   3.233   8.248 -0.0394 -0.3158 -0.1695
 3958SOL    HW123507   1.922   3.147   8.254 -0.7051 -0.0563 -1.1120
 3958SOL    HW223508   1.894   3.290   8.214  1.0870  0.8609 -0.4663
 3959SOL     OW23509   1.890   2.530   2.462  0.4589 -0.0659  0.3912
 3959SOL    HW123510   1.919   2.473   2.391 -0.5244 -0.0160 -0.0431
 3959SOL    HW223511   1.795   2.520   2.466  0.2182  0.8235 -3.2106
 3960SOL     OW23512   3.628   2.272  15.629 -0.4106 -0.1506  0.3977
 3960SOL    HW123513   3.562   2.229  15.684  0.0061  0.7358  1.5961
 3960SOL    HW223514   3.583   2.290  15.547 -2.2039 -2.2787  0.8846
 3961SOL     OW23515   1.541   4.026   4.988 -1.2483  0.1334 -0.0705
 3961SOL    HW123516   1.546   4.059   5.078  0.5906  1.5352 -0.7029
 3961SOL    HW223517   1.597   3.948   4.984  0.8449  1.6908 -0.9405
 3962SOL     OW23518   0.591   4.048   8.222  0.1473 -0.2213  0.7257
 3962SOL    HW123519   0.579   4.105   8.146  1.6125 -2.1152 -0.9400
 3962SOL    HW223520   0.546   3.965   8.203 -0.0201  0.2518 -0.9792
 3963SOL     OW23521   0.722   2.230   8.391 -0.2485  0.4525 -0.1921
 3963SOL    HW123522   0.662   2.261   8.459 -1.0474  0.0095 -0.7080
 3963SOL    HW223523   0.804   2.231   8.442  0.4385  0.5590 -1.3005
 3964SOL     OW23524   2.180   4.245   7.496 -0.0158  0.1468 -0.1537
 3964SOL    HW123525   2.135   4.164   7.521 -1.4786  0.9149 -0.2964
 3964SOL    HW223526   2.252   4.246   7.560 -0.8237  0.9687  0.7547
 3965SOL     OW23527   1.417   1.393   1.858 -0.3598  0.4502 -1.0774
 3965SOL    HW123528   1.327   1.390   1.824 -0.0234  0.8822 -2.0069
 3965SOL    HW223529   1.430   1.481   1.893 -0.1745  0.8005 -2.0086
 3966SOL     OW23530   0.137   2.043   9.278 -0.5651  0.0906  0.1830
 3966SOL    HW123531   0.188   2.123   9.284 -1.3896  0.8147 -2.4126
 3966SOL    HW223532   0.105   2.023   9.366  1.3712 -0.4693  0.7725
 3967SOL     OW23533   2.809   1.724   7.486  0.1166  0.7235  0.1061
 3967SOL    HW123534   2.759   1.755   7.562 -0.3640 -2.3427  1.0345
 3967SOL    HW223535   2.834   1.812   7.456 -1.6569  2.0119  2.4209
 3968SOL     OW23536   2.978   0.153   9.394 -0.0074  0.6910  0.1052
 3968SOL    HW123537   3.070   0.180   9.396  0.2488  0.0483 -2.2909
 3968SOL    HW223538   2.943   0.240   9.414  0.5926  1.1446 -0.7772
 3969SOL     OW23539   0.489   3.044   1.900 -0.5498 -0.2502 -0.1299
 3969SOL    HW123540   0.531   2.964   1.868  3.0393  0.7230  2.0349
 3969SOL    HW223541   0.557   3.095   1.945 -1.0064  0.4459 -0.2331
 3970SOL     OW23542   0.397   3.373  16.728 -0.2897  0.0196 -0.2791
 3970SOL    HW123543   0.392   3.354  16.822 -1.6568 -2.0864 -0.7772
 3970SOL    HW223544   0.418   3.292  16.681 -0.4433 -0.6197  0.7418
 3971SOL     OW23545   3.555   0.377   8.526  0.4276  0.6847 -0.3371
 3971SOL    HW123546   3.505   0.385   8.444  0.5039 -1.5978 -0.6058
 3971SOL    HW223547   3.636   0.345   8.486  0.3011  1.0324 -0.8740
 3972SOL     OW23548   2.773   3.587   5.097 -0.2778  0.3521  0.2228
 3972SOL    HW123549   2.739   3.654   5.038  0.4782 -1.0396 -1.8148
 3972SOL    HW223550   2.750   3.623   5.183  0.2971  1.0060  0.1002
 3973SOL     OW23551   2.847   0.945  11.335 -0.0283  0.0846  0.4839
 3973SOL    HW123552   2.794   0.870  11.308  0.0338 -0.0318  0.6905
 3973SOL    HW223553   2.938   0.920  11.318 -0.4534  0.0618 -1.7391
 3974SOL     OW23554   1.578   0.378  17.709 -0.5989  0.2505  0.3167
 3974SOL    HW123555   1.509   0.445  17.708 -1.4734 -0.6779 -0.9845
 3974SOL    HW223556   1.534   0.321   0.017 -0.9784  0.8537  0.6039
 3975SOL     OW23557   1.776   0.436   3.803  0.1878 -0.3441 -0.0785
 3975SOL    HW123558   1.803   0.400   3.888 -0.4777  0.6149  0.5390
 3975SOL    HW223559   1.696   0.388   3.785 -0.1505  0.5263 -0.9089
 3976SOL     OW23560   0.164   2.364  15.505 -0.2166 -0.2326 -0.0113
 3976SOL    HW123561   0.169   2.373  15.600  0.8071 -2.5011  0.1674
 3976SOL    HW223562   0.162   2.268  15.500 -0.8452 -0.3591  3.1807
 3977SOL     OW23563   3.540   1.837  17.729 -0.4580 -0.1487 -0.0734
 3977SOL    HW123564   3.634   1.851  17.740 -0.9132  2.8917 -0.0668
 3977SOL    HW223565   3.531   1.881  17.644  2.2646 -0.6754 -0.6209
 3978SOL     OW23566   1.828   3.495  17.413 -0.5164 -0.3734 -0.3014
 3978SOL    HW123567   1.769   3.428  17.381  2.6541 -3.3548  0.0630
 3978SOL    HW223568   1.787   3.577  17.386 -1.2186  0.2103  2.4957
 3979SOL     OW23569   4.307   1.418  15.637 -0.4098  0.3796  0.6011
 3979SOL    HW123570   4.364   1.490  15.609 -1.8479  1.6274  0.8450
 3979SOL    HW223571   4.360   1.399  15.714  1.2588  0.7394 -0.4525
 3980SOL     OW23572   4.022   4.087   3.069  0.2573 -0.0493  0.3771
 3980SOL    HW123573   4.011   4.044   2.984  0.4179 -1.7266  1.2132
 3980SOL    HW223574   3.937   4.130   3.078  0.3516  0.7162 -2.2859
 3981SOL     OW23575   4.100   4.689   5.504 -0.3691  0.0605 -0.4945
 3981SOL    HW123576   4.122   4.727   5.419  1.0576 -0.0877 -0.1801
 3981SOL    HW223577   4.185   4.674   5.544 -0.4904 -0.0716 -0.2811
 3982SOL     OW23578   2.134   1.668   7.516 -0.3572 -0.1529 -0.3651
 3982SOL    HW123579   2.059   1.631   7.563 -2.2279  1.5342 -1.9757
 3982SOL    HW223580   2.189   1.691   7.591  1.0450  0.5573 -1.6051
 3983SOL     OW23581   1.500   3.669   4.520  0.1635  0.3931 -0.3114
 3983SOL    HW123582   1.516   3.663   4.614 -0.7830 -2.0578 -0.3329
 3983SOL    HW223583   1.474   3.761   4.510 -0.0612  0.5947  2.2194
 3984SOL     OW23584   0.314   1.936   5.939  0.1703  0.0475 -0.5979
 3984SOL    HW123585   0.387   1.996   5.950 -0.9498  0.8545  2.3963
 3984SOL    HW223586   0.269   1.982   5.868 -2.9521  0.7203  1.8190
 3985SOL     OW23587   4.615   0.575   1.176  0.0086 -0.2175  0.1543
 3985SOL    HW123588   4.687   0.637   1.173 -0.4825  0.3893  1.1744
 3985SOL    HW223589   4.618   0.538   1.264  1.9807 -1.4308 -0.4215
 3986SOL     OW23590   1.064   2.683   9.146 -0.7704 -0.2882 -0.4172
 3986SOL    HW123591   1.000   2.649   9.208  0.6255  0.4176  1.4014
 3986SOL    HW223592   1.140   2.633   9.175 -1.3800 -0.3800  1.0281
 3987SOL     OW23593   4.133   3.439   9.679 -0.1376 -0.2410  0.6490
 3987SOL    HW123594   4.158   3.378   9.749 -1.9526 -1.5408  0.1672
 3987SOL    HW223595   4.192   3.508   9.708 -0.0762 -0.1426  0.2914
 3988SOL     OW23596   4.164   4.495   2.036  0.2048  0.6690 -0.0815
 3988SOL    HW123597   4.116   4.446   2.103  0.4371 -1.2454 -1.3325
 3988SOL    HW223598   4.109   4.479   1.959 -0.6948  1.9958  0.2778
 3989SOL     OW23599   2.395   4.624   8.736 -0.0757  0.0260  0.0863
 3989SOL    HW123600   2.331   4.617   8.665  1.8404  1.3583 -1.7599
 3989SOL    HW223601   2.377   4.539   8.776  0.9222 -0.2188  0.0179
 3990SOL     OW23602   2.003   2.078   0.291  0.0949 -0.5923  0.6685
 3990SOL    HW123603   2.066   2.007   0.303  3.2592  1.7807 -1.8037
 3990SOL    HW223604   1.924   2.057   0.341 -0.1131  0.5891  0.8389
 3991SOL     OW23605   3.347   2.023   1.126 -0.1868 -0.1461 -0.1890
 3991SOL    HW123606   3.369   2.082   1.054  0.3680 -0.0605  0.0515
 3991SOL    HW223607   3.407   2.045   1.197 -0.7552  1.9505 -0.3356
 3992SOL     OW23608   4.305   2.685   4.460 -0.2016  0.2179 -0.1733
 3992SOL    HW123609   4.382   2.658   4.510 -1.1867 -2.6578 -0.1665
 3992SOL    HW223610   4.282   2.597   4.428 -1.7629  1.6886 -3.0591
 3993SOL     OW23611   1.189   1.455   3.993 -0.2841  0.4920  0.6071
 3993SOL    HW123612   1.187   1.374   3.940 -0.7374  0.1570  1.1418
 3993SOL    HW223613   1.197   1.418   4.081  0.6591 -2.1689 -0.5706
 3994SOL     OW23614   1.746   1.400   6.724  0.4168  0.3669  0.2058
 3994SOL    HW123615   1.766   1.459   6.797  0.0998  0.2466  0.3872
 3994SOL    HW223616   1.772   1.444   6.643  2.1088 -0.7570  0.1363
 3995SOL     OW23617   0.918   1.266   7.838 -0.1465 -0.6798  0.0236
 3995SOL    HW123618   0.905   1.230   7.751 -2.0272  1.3528 -0.5327
 3995SOL    HW223619   0.992   1.322   7.815  0.3207 -1.3143 -0.0289
 3996SOL     OW23620   2.651   1.422  11.111 -0.0271  0.0332  0.0205
 3996SOL    HW123621   2.649   1.514  11.086  1.4654  0.5961  1.9737
 3996SOL    HW223622   2.740   1.401  11.141  0.0548 -0.7880 -0.8037
 3997SOL     OW23623   2.552   1.555   8.037  0.6565  0.0602 -0.1474
 3997SOL    HW123624   2.621   1.576   8.100 -1.0767  1.0547  1.4221
 3997SOL    HW223625   2.578   1.483   7.979 -0.3752 -0.0345 -0.4906
 3998SOL     OW23626   2.899   2.914   8.111  0.1607 -0.0419  0.0219
 3998SOL    HW123627   2.938   2.871   8.187  0.3492 -0.6843 -0.4354
 3998SOL    HW223628   2.941   2.862   8.043 -1.5309  0.4881 -1.4197
 3999SOL     OW23629   3.110   0.331   7.004  0.8057  0.4527 -0.3110
 3999SOL    HW123630   3.039   0.390   7.025 -0.1861 -0.3104 -1.5007
 3999SOL    HW223631   3.142   0.304   7.090  0.6241 -2.4339 -1.1457
 4000SOL     OW23632   4.269   0.160   1.172 -0.5255 -0.5893 -0.3917
 4000SOL    HW123633   4.321   0.234   1.141  1.5406 -0.6703  2.9690
 4000SOL    HW223634   4.311   0.082   1.136 -1.4038 -1.4031  0.3443
 4001SOL     OW23635   3.295   4.583   7.998  0.0466  0.4621 -0.1271
 4001SOL    HW123636   3.277   4.493   7.972 -2.0298  0.2500  2.0715
 4001SOL    HW223637   3.373   4.567   8.052  0.1912  2.4823  0.2658
 4002SOL     OW23638   2.571   1.209   5.633 -0.4135  0.8276  0.2930
 4002SOL    HW123639   2.666   1.209   5.647 -0.2614 -1.9480 -0.6533
 4002SOL    HW223640   2.542   1.119   5.648 -0.6992  0.9709  0.5931
 4003SOL     OW23641   0.574   1.345   8.424 -0.1743 -0.2913  0.2777
 4003SOL    HW123642   0.630   1.338   8.347 -1.3620 -0.7296 -0.5454
 4003SOL    HW223643   0.536   1.433   8.422 -2.4766 -1.3350 -1.3749
 4004SOL     OW23644   3.052   2.258  14.563  0.3499  0.3757  0.8131
 4004SOL    HW123645   2.991   2.319  14.523  0.7803 -0.5865 -1.2688
 4004SOL    HW223646   3.042   2.274  14.657  0.5491  2.9122  0.3999
 4005SOL     OW23647   1.724   4.274   8.891  0.3025 -0.3241  0.2118
 4005SOL    HW123648   1.696   4.349   8.944 -1.8400  0.1554 -1.5893
 4005SOL    HW223649   1.647   4.268   8.834  0.3858  1.9240 -0.1398
 4006SOL     OW23650   3.689   2.166   8.170  0.4782 -0.3975 -0.8215
 4006SOL    HW123651   3.673   2.173   8.264  2.0937  2.8105 -0.7793
 4006SOL    HW223652   3.770   2.119   8.153  1.3799  1.2892 -1.1695
 4007SOL     OW23653   0.014   1.310   2.091  0.0713  0.5763  0.6432
 4007SOL    HW123654   4.672   1.292   2.043 -0.6276  0.4886  1.8791
 4007SOL    HW223655   0.050   1.222   2.083  0.5775  1.0323 -2.0591
 4008SOL     OW23656   4.542   1.149   2.233  0.2336  0.3332  0.4580
 4008SOL    HW123657   4.520   1.163   2.141  0.6673  0.7242  0.4135
 4008SOL    HW223658   4.585   1.064   2.239  0.8411  0.5628 -0.7812
 4009SOL     OW23659   0.200   3.820   5.291 -0.3849  0.2468  0.0740
 4009SOL    HW123660   0.238   3.843   5.207 -1.0350 -2.2183 -0.8826
 4009SOL    HW223661   0.110   3.801   5.265  0.0596 -1.3700 -0.2534
 4010SOL     OW23662   0.038   0.356   3.452  0.5745  0.2455  0.2519
 4010SOL    HW123663   0.012   0.349   3.360  0.9465 -0.6338  0.2102
 4010SOL    HW223664   0.134   0.354   3.449  0.5329  0.9891 -2.1189
 4011SOL     OW23665   2.710   0.308   6.415 -0.2240  0.0289  0.3985
 4011SOL    HW123666   2.681   0.315   6.506 -0.4324 -0.4262  0.3666
 4011SOL    HW223667   2.696   0.398   6.385  2.8976 -0.4180 -2.3971
 4012SOL     OW23668   4.341   1.343  14.791  0.7950  0.1416 -0.4162
 4012SOL    HW123669   4.343   1.349  14.696  1.0246  0.5644 -0.3875
 4012SOL    HW223670   4.294   1.425  14.808 -0.3490 -0.6461  0.1687
 4013SOL     OW23671   4.486   3.908   9.470 -0.4930 -0.6590  0.1263
 4013SOL    HW123672   4.498   3.893   9.377 -2.1989  1.8022 -0.4791
 4013SOL    HW223673   4.549   3.978   9.487 -0.0699 -0.8241 -0.7985
 4014SOL     OW23674   2.504   1.724   6.754  0.3632  0.5589 -0.1492
 4014SOL    HW123675   2.508   1.629   6.753 -0.4480  0.5426 -2.8151
 4014SOL    HW223676   2.489   1.746   6.662 -0.9450 -0.3698 -0.1474
 4015SOL     OW23677   3.262   1.550   4.371  0.5303 -0.0517 -1.0753
 4015SOL    HW123678   3.187   1.608   4.368  1.3473  0.9876 -1.3549
 4015SOL    HW223679   3.288   1.578   4.283  0.9763  0.2333 -0.8529
 4016SOL     OW23680   4.164   0.512   5.797 -0.3921 -0.6981 -0.4291
 4016SOL    HW123681   4.099   0.551   5.738  0.5467  1.9929  0.3108
 4016SOL    HW223682   4.135   0.551   5.879  2.7562 -0.1909  0.4564
 4017SOL     OW23683   0.393   0.138  16.489 -0.3819  0.5759 -0.0298
 4017SOL    HW123684   0.360   0.107  16.405  1.0967 -0.9886 -0.0339
 4017SOL    HW223685   0.481   0.167  16.465 -0.9219  0.9394 -1.6241
 4018SOL     OW23686   1.176   0.246   5.862 -0.0109  0.5490 -0.4446
 4018SOL    HW123687   1.180   0.252   5.957  3.3332  1.0666 -0.6023
 4018SOL    HW223688   1.185   0.337   5.834  1.3224  0.0596 -1.6279
 4019SOL     OW23689   4.268   4.448  13.017 -0.2733  0.7751 -0.4452
 4019SOL    HW123690   4.211   4.371  13.024  1.4760 -0.4901 -0.0249
 4019SOL    HW223691   4.353   4.415  13.045 -0.6212  1.0679  0.9696
 4020SOL     OW23692   2.799   3.540   1.390  1.1546 -0.2660 -0.3835
 4020SOL    HW123693   2.770   3.630   1.377 -2.2590 -1.2306  0.5154
 4020SOL    HW223694   2.872   3.542   1.451  0.7778  2.0614 -0.0332
 4021SOL     OW23695   4.056   2.364   6.077 -0.1442  0.6606  0.2978
 4021SOL    HW123696   4.047   2.271   6.054  0.7908  0.3146  1.3373
 4021SOL    HW223697   4.087   2.387   5.989  0.7176  0.4975  0.5549
 4022SOL     OW23698   4.332   0.255   1.951 -0.6302 -0.2999  0.4401
 4022SOL    HW123699   4.395   0.208   2.005 -0.2961 -0.5929 -0.2168
 4022SOL    HW223700   4.280   0.179   1.926 -0.8425  0.1192 -0.3953
 4023SOL     OW23701   3.875   3.865   8.081 -0.3456 -0.4174  0.0051
 4023SOL    HW123702   3.872   3.839   7.989  0.9661 -2.2069  0.4596
 4023SOL    HW223703   3.902   3.781   8.117 -0.8969  0.0616  1.5211
 4024SOL     OW23704   2.096   1.158  11.100  0.0751 -0.1002 -0.5140
 4024SOL    HW123705   2.114   1.081  11.045  0.2712 -1.2840  1.1858
 4024SOL    HW223706   2.172   1.152  11.158  0.8524 -0.3870 -1.5671
 4025SOL     OW23707   1.675   3.785   8.002 -0.0111 -0.6197 -0.0830
 4025SOL    HW123708   1.684   3.791   7.907  2.4063  2.2253  0.2948
 4025SOL    HW223709   1.646   3.695   8.015 -1.1622 -0.0944  0.9865
 4026SOL     OW23710   3.705   2.712   5.881  0.0181  0.1477  0.1035
 4026SOL    HW123711   3.710   2.808   5.886  0.8614  0.0716  0.6545
 4026SOL    HW223712   3.768   2.688   5.813 -0.3175 -4.2313  1.4078
 4027SOL     OW23713   2.059   4.628   7.118  0.2533 -0.7284  0.2042
 4027SOL    HW123714   2.015   4.558   7.069  1.4962 -1.4434  0.1170
 4027SOL    HW223715   2.147   4.604   7.091  0.0348 -1.2794 -0.0082
 4028SOL     OW23716   4.252   1.136  10.898 -0.2098 -0.2059 -0.2618
 4028SOL    HW123717   4.212   1.068  10.953 -1.8360  0.3632 -0.7425
 4028SOL    HW223718   4.222   1.105  10.813 -1.0093  0.5713 -0.2637
 4029SOL     OW23719   2.974   4.369  17.754 -0.5280 -0.3902  0.4079
 4029SOL    HW123720   2.960   4.345   0.090 -0.8954 -0.2037  0.4009
 4029SOL    HW223721   3.048   4.315  17.726 -0.4604 -0.4955  0.7939
 4030SOL     OW23722   2.205   1.317   5.664 -0.1505 -0.2712  0.1251
 4030SOL    HW123723   2.209   1.243   5.724  0.8959 -0.0233  0.3616
 4030SOL    HW223724   2.280   1.369   5.692 -2.3739  1.8262  2.1885
 4031SOL     OW23725   1.117   4.455   7.939 -0.1840 -0.1437  0.1514
 4031SOL    HW123726   1.091   4.495   8.023  0.2876  1.3055 -0.3888
 4031SOL    HW223727   1.049   4.391   7.921 -1.6956  1.3748  0.4737
 4032SOL     OW23728   3.400   0.681   3.968 -0.3505 -0.3121  0.1130
 4032SOL    HW123729   3.363   0.594   3.986  2.3132 -1.2163  1.3153
 4032SOL    HW223730   3.402   0.681   3.873 -2.7582 -1.6891  0.0572
 4033SOL     OW23731   0.680   1.601   3.948  0.1077 -0.6415 -0.2900
 4033SOL    HW123732   0.749   1.654   3.909 -1.1888  1.9040  0.9053
 4033SOL    HW223733   0.612   1.618   3.883 -0.2649  1.9294  0.8102
 4034SOL     OW23734   3.242   2.761   1.875 -0.1626  0.2549 -0.1339
 4034SOL    HW123735   3.279   2.683   1.918 -1.6865  0.0010  0.7268
 4034SOL    HW223736   3.156   2.760   1.917 -0.7446  0.7639 -1.3404
 4035SOL     OW23737   4.027   1.262  14.694  0.5049 -0.7163  0.5234
 4035SOL    HW123738   4.032   1.346  14.649  1.8280 -1.1293 -0.0962
 4035SOL    HW223739   4.107   1.267  14.746 -1.6371  1.6293  3.5411
 4036SOL     OW23740   1.475   4.617   8.840  0.4579  0.4628  0.0115
 4036SOL    HW123741   1.566   4.602   8.866  0.9024  0.9171 -1.3328
 4036SOL    HW223742   1.475   4.698   8.790  2.2130 -1.4407 -3.0680
 4037SOL     OW23743   2.213   2.907   4.353 -0.0735  0.3570 -0.3294
 4037SOL    HW123744   2.174   2.952   4.428  0.7205  0.7633 -0.1566
 4037SOL    HW223745   2.282   2.862   4.402  0.3676  0.0320 -1.2528
 4038SOL     OW23746   4.002   3.723   3.754  0.1055  0.0328 -0.4710
 4038SOL    HW123747   4.081   3.777   3.756 -1.0963  1.7586 -0.0649
 4038SOL    HW223748   4.023   3.659   3.686 -1.7606  0.5910 -1.5844
 4039SOL     OW23749   4.422   2.836   9.226 -0.1702  0.3234 -0.3736
 4039SOL    HW123750   4.465   2.893   9.161  0.4137  1.3592  0.9179
 4039SOL    HW223751   4.492   2.778   9.255 -1.3748 -1.3297 -0.8119
 4040SOL     OW23752   4.047   4.014  16.841 -0.2138 -0.2104  0.8022
 4040SOL    HW123753   4.072   3.949  16.775 -0.3237  0.6684 -0.1230
 4040SOL    HW223754   3.952   4.022  16.827 -0.1866 -2.6876 -0.8621
 4041SOL     OW23755   1.959   2.789   2.501 -0.3673  0.1736  0.2677
 4041SOL    HW123756   1.899   2.715   2.488 -0.1667  0.4672 -2.4616
 4041SOL    HW223757   1.928   2.809   2.589 -2.5344 -1.0813 -0.2018
 4042SOL     OW23758   0.934   0.325   6.795  0.6785  0.8802 -0.2110
 4042SOL    HW123759   0.996   0.376   6.848  1.1881 -0.9508  0.9147
 4042SOL    HW223760   0.853   0.367   6.824 -0.8032 -2.2939  0.2375
 4043SOL     OW23761   1.722   1.644   8.886  0.3256 -0.3093 -0.3937
 4043SOL    HW123762   1.755   1.734   8.896  0.0401 -0.4166  1.4529
 4043SOL    HW223763   1.761   1.601   8.962 -1.0788 -1.2018 -0.1824
 4044SOL     OW23764   0.810   3.335   7.311  0.6420  0.5230 -0.0189
 4044SOL    HW123765   0.775   3.268   7.369 -1.7723  0.7580 -1.1936
 4044SOL    HW223766   0.846   3.277   7.244  0.2565 -0.4630  0.6285
 4045SOL     OW23767   3.458   0.822   3.602  0.4416  0.0990 -0.5035
 4045SOL    HW123768   3.492   0.740   3.565  0.3170  0.2786 -1.0115
 4045SOL    HW223769   3.364   0.806   3.593  0.6036 -1.7260  1.0892
 4046SOL     OW23770   0.506   2.503  11.419  0.2209 -0.4494 -0.3040
 4046SOL    HW123771   0.561   2.497  11.341 -1.3091 -2.1378 -1.2599
 4046SOL    HW223772   0.467   2.591  11.418  0.7606 -0.2172 -0.6372
 4047SOL     OW23773   2.490   1.191   7.687 -0.3224 -0.2801 -0.4103
 4047SOL    HW123774   2.499   1.264   7.627  1.9137  0.4077  0.7285
 4047SOL    HW223775   2.570   1.140   7.672 -1.5471 -1.4701 -2.8079
 4048SOL     OW23776   3.557   4.255   4.230  0.7686  0.1623 -0.2724
 4048SOL    HW123777   3.632   4.288   4.180  1.0033  0.1739  0.0833
 4048SOL    HW223778   3.595   4.199   4.298 -0.2246  1.2879  1.1987
 4049SOL     OW23779   0.043   4.686  17.752  0.2018  0.0418  0.2873
 4049SOL    HW123780   0.106   0.018  17.744 -0.1220  0.1281 -1.3808
 4049SOL    HW223781   0.095   4.618  17.710 -0.0855  0.2877 -0.4703
 4050SOL     OW23782   3.136   0.827   1.364 -0.2726 -0.1570  0.4862
 4050SOL    HW123783   3.160   0.752   1.310  0.5841  0.0608  0.5577
 4050SOL    HW223784   3.157   0.899   1.304 -2.1022 -0.6177 -0.7095
 4051SOL     OW23785   4.632   1.385  14.111  0.0799  0.6308  0.0387
 4051SOL    HW123786   4.603   1.310  14.059  0.2098  1.1546 -0.7858
 4051SOL    HW223787   4.660   1.451  14.047 -0.3409  0.5855 -0.1876
 4052SOL     OW23788   0.148   4.294  11.178  0.4017 -0.3330  0.4048
 4052SOL    HW123789   0.063   4.274  11.216  0.2720 -0.4262  0.0563
 4052SOL    HW223790   0.110   4.319  11.094  1.2342 -0.0197  0.1171
 4053SOL     OW23791   3.747   2.361   7.342 -0.1510 -0.2850 -0.3904
 4053SOL    HW123792   3.718   2.387   7.255 -0.9763  2.0721  0.5905
 4053SOL    HW223793   3.669   2.384   7.392 -0.1955 -1.5291  0.1239
 4054SOL     OW23794   3.186   2.002  14.837  0.2126  0.8592  1.1503
 4054SOL    HW123795   3.272   2.001  14.795  0.0911  1.5329  0.8936
 4054SOL    HW223796   3.150   1.924  14.797  1.1327 -0.3319  2.6277
 4055SOL     OW23797   2.918   4.415  12.161 -0.3942 -0.3409 -0.3103
 4055SOL    HW123798   2.988   4.461  12.206  0.9194 -1.6860 -1.0110
 4055SOL    HW223799   2.939   4.322  12.164 -1.8333 -0.5999  2.0446
 4056SOL     OW23800   2.975   0.771  16.343 -0.1056  1.0918 -0.0988
 4056SOL    HW123801   2.962   0.691  16.292  1.9516  0.3667  0.5053
 4056SOL    HW223802   3.069   0.761  16.358  0.1796  1.8482 -1.3148
 4057SOL     OW23803   1.241   0.166   5.524 -0.5309  0.7973 -0.0715
 4057SOL    HW123804   1.287   0.211   5.595 -2.8278  3.6852 -0.4058
 4057SOL    HW223805   1.274   0.215   5.448  0.7880 -0.8046 -0.5289
 4058SOL     OW23806   3.108   0.285  11.373  0.0114 -0.2629  0.1168
 4058SOL    HW123807   3.096   0.272  11.467  3.0006 -0.9416  0.4018
 4058SOL    HW223808   3.032   0.245  11.330  2.0064 -2.3372 -1.4923
 4059SOL     OW23809   1.442   4.598   2.755  0.4809 -0.0983  0.5209
 4059SOL    HW123810   1.459   4.527   2.692  2.2869  0.9718 -0.1837
 4059SOL    HW223811   1.487   4.571   2.835  0.3693 -0.2587  0.5291
 4060SOL     OW23812   1.432   0.198   4.093  0.0285  0.5462 -0.1329
 4060SOL    HW123813   1.352   0.240   4.061 -0.1008  0.9929  0.7836
 4060SOL    HW223814   1.396   0.133   4.153  2.8311 -0.6016  0.2933
 4061SOL     OW23815   3.027   3.346   4.683 -0.6129  0.2016  0.4814
 4061SOL    HW123816   2.973   3.365   4.606 -0.0694 -0.3367 -0.0251
 4061SOL    HW223817   2.986   3.408   4.744 -1.7723  1.1119 -1.2088
 4062SOL     OW23818   3.294   1.439   1.389  0.2555  0.1897  0.0676
 4062SOL    HW123819   3.265   1.405   1.304 -1.9319 -1.8135  1.6007
 4062SOL    HW223820   3.357   1.372   1.417 -0.0382  0.7213  2.0404
 4063SOL     OW23821   3.979   0.300   4.139  0.6197 -0.4521 -0.6674
 4063SOL    HW123822   3.954   0.325   4.050  1.3431  0.2294 -0.6808
 4063SOL    HW223823   4.071   0.284   4.121  1.0846  0.3118  1.0198
 4064SOL     OW23824   0.689   4.022  14.692 -0.0283 -0.0274 -0.2939
 4064SOL    HW123825   0.715   4.004  14.602 -0.1248  0.0341 -0.3337
 4064SOL    HW223826   0.603   4.063  14.684  1.0100  1.9256 -1.4790
 4065SOL     OW23827   2.870   2.677   2.381 -0.1655 -0.2413  0.1967
 4065SOL    HW123828   2.895   2.769   2.370  1.6877 -0.8611 -0.7161
 4065SOL    HW223829   2.880   2.645   2.291 -0.7235 -3.0624  1.1306
 4066SOL     OW23830   3.680   3.269   5.802 -0.1421  0.5768 -0.1074
 4066SOL    HW123831   3.776   3.263   5.799 -0.0268  1.6993  1.2291
 4066SOL    HW223832   3.652   3.221   5.880 -1.1175 -0.3555 -1.0406
 4067SOL     OW23833   2.012   2.260  10.001 -0.4070 -0.7419  0.6781
 4067SOL    HW123834   1.968   2.312   9.934 -1.6650 -1.2155  1.1571
 4067SOL    HW223835   1.982   2.172   9.977  1.4570 -1.6124  1.5064
 4068SOL     OW23836   3.523   1.012   8.543  0.1812 -0.4114 -0.6237
 4068SOL    HW123837   3.523   0.978   8.632  0.3202  0.3252 -0.3416
 4068SOL    HW223838   3.431   1.003   8.518 -0.0066  1.3669 -0.6191
 4069SOL     OW23839   4.052   3.031   3.080  0.3905 -0.0188 -0.1055
 4069SOL    HW123840   4.088   3.041   2.992  2.2862 -1.3992  0.4975
 4069SOL    HW223841   4.115   3.091   3.119  1.1099 -3.1671  3.5986
 4070SOL     OW23842   1.121   4.652   8.818  0.3116 -0.1053 -0.9660
 4070SOL    HW123843   1.088   4.565   8.794 -1.0127 -0.0692  0.7270
 4070SOL    HW223844   1.113   4.705   8.739  1.3319  1.2843 -0.1320
 4071SOL     OW23845   4.183   4.714   8.069  0.1280 -0.0494 -0.1153
 4071SOL    HW123846   4.218   0.060   8.095  1.3200 -0.8486  0.8915
 4071SOL    HW223847   4.129   4.690   8.145  0.7775 -0.0409  0.3455
 4072SOL     OW23848   0.581   2.480   7.671  0.4946 -0.7595 -0.4250
 4072SOL    HW123849   0.590   2.572   7.648 -3.0250 -0.4483 -0.6059
 4072SOL    HW223850   0.613   2.477   7.761 -2.1107  0.2981  0.5424
 4073SOL     OW23851   0.602   0.187  14.802  0.6038 -0.7122  0.0063
 4073SOL    HW123852   0.528   0.158  14.748 -0.1811 -0.8344  1.1557
 4073SOL    HW223853   0.547   0.216  14.874 -2.2672  0.4199 -2.6246
 4074SOL     OW23854   2.148   4.610   2.560  0.5075 -0.0072 -0.7788
 4074SOL    HW123855   2.220   4.658   2.603 -0.6439  0.2113  0.9232
 4074SOL    HW223856   2.138   4.533   2.617  1.4658 -1.0094 -1.9728
 4075SOL     OW23857   2.540   1.937   2.670 -0.2336  0.0625 -0.4554
 4075SOL    HW123858   2.591   1.905   2.595 -0.1297 -0.6142 -0.0910
 4075SOL    HW223859   2.553   2.027   2.640 -0.3757 -0.2281 -1.3885
 4076SOL     OW23860   0.043   2.236   6.243 -0.2133  0.5776 -0.4156
 4076SOL    HW123861   4.715   2.283   6.291 -0.6214  0.4762 -0.8857
 4076SOL    HW223862   0.113   2.301   6.248 -0.8871  1.0995  1.8986
 4077SOL     OW23863   0.764   3.128  13.792 -0.0523 -0.2889  0.4064
 4077SOL    HW123864   0.789   3.084  13.873 -1.3770 -1.1880  0.3241
 4077SOL    HW223865   0.818   3.207  13.800  0.3436 -0.4789 -0.4391
 4078SOL     OW23866   0.169   3.205   3.136  0.1415 -0.1389  0.2149
 4078SOL    HW123867   0.143   3.282   3.187 -0.8425  0.7013 -1.5027
 4078SOL    HW223868   0.097   3.146   3.157 -1.0518  1.5949  1.0198
 4079SOL     OW23869   3.787   0.787   7.295  0.1232 -0.2385 -0.4351
 4079SOL    HW123870   3.735   0.832   7.361 -0.4094 -1.1868 -0.2092
 4079SOL    HW223871   3.726   0.757   7.228  0.6829  2.0667 -1.9729
 4080SOL     OW23872   4.623   1.238   5.235 -0.7304  0.5175  0.3249
 4080SOL    HW123873   4.614   1.325   5.274 -0.6069  1.2030 -1.1698
 4080SOL    HW223874   4.598   1.259   5.145 -0.3567 -2.1089 -0.3956
 4081SOL     OW23875   0.264   2.777   8.145  0.4934 -0.1986  0.6966
 4081SOL    HW123876   0.220   2.761   8.228  0.6324 -0.5131  0.7104
 4081SOL    HW223877   0.191   2.783   8.083 -0.6431  1.3213  2.2013
 4082SOL     OW23878   1.065   4.718   7.219  0.2095 -0.5724 -0.3332
 4082SOL    HW123879   1.001   4.648   7.227 -0.5455  0.1653  0.0707
 4082SOL    HW223880   1.117   4.695   7.296  2.4751 -1.2509 -2.0707
 4083SOL     OW23881   0.100   3.067   1.658  0.1487  0.0682  0.4168
 4083SOL    HW123882   0.074   2.978   1.683 -0.6888  0.2816  0.3073
 4083SOL    HW223883   0.016   3.114   1.657 -0.8439 -1.6805  1.9921
 4084SOL     OW23884   0.064   1.277   2.733 -0.0633  0.2046 -0.1766
 4084SOL    HW123885   4.713   1.295   2.710 -0.5466 -1.2695  0.5626
 4084SOL    HW223886   0.078   1.341   2.803 -2.2918 -0.5940  1.0097
 4085SOL     OW23887   0.282   2.669   1.903 -0.3415  0.3443  0.1609
 4085SOL    HW123888   0.187   2.659   1.909 -0.6042  3.0765  0.5045
 4085SOL    HW223889   0.283   2.743   1.842 -1.0284  0.3239  0.1232
 4086SOL     OW23890   2.109   0.723   6.682  0.0233 -0.0785 -0.5206
 4086SOL    HW123891   2.160   0.800   6.706  1.1898 -0.9883 -0.0785
 4086SOL    HW223892   2.036   0.728   6.743  1.5749 -1.3693  1.4314
 4087SOL     OW23893   1.659   0.705   7.270 -0.1742 -0.2552 -0.1146
 4087SOL    HW123894   1.622   0.793   7.264 -1.1204 -0.6506 -0.1264
 4087SOL    HW223895   1.707   0.722   7.351  3.2493 -0.4660 -2.1017
 4088SOL     OW23896   0.241   2.363  15.800 -0.6124 -0.3986 -0.1390
 4088SOL    HW123897   0.320   2.312  15.784 -0.2229  0.7579 -1.8460
 4088SOL    HW223898   0.219   2.336  15.890 -2.5414 -1.7298 -1.0172
 4089SOL     OW23899   0.240   0.735   8.481 -0.8109  0.3704 -0.0423
 4089SOL    HW123900   0.181   0.738   8.405  1.0611 -1.4507 -1.5906
 4089SOL    HW223901   0.202   0.661   8.529  1.5368 -0.8307 -0.0609
 4090SOL     OW23902   0.155   3.698   4.562 -0.0732  0.2146 -0.5604
 4090SOL    HW123903   0.155   3.740   4.476 -2.8164  0.1151 -0.5954
 4090SOL    HW223904   0.061   3.687   4.578  0.1811  0.1536  0.8432
 4091SOL     OW23905   0.584   1.966   5.071 -0.4431  0.1953  0.5054
 4091SOL    HW123906   0.528   1.902   5.116  0.6362 -0.0328  1.5079
 4091SOL    HW223907   0.544   1.976   4.984  0.0226 -1.8283  0.0642
 4092SOL     OW23908   4.672   3.757   2.168 -0.4090  0.5516  0.5613
 4092SOL    HW123909   4.663   3.774   2.262 -1.8348 -1.8571  0.8751
 4092SOL    HW223910   4.726   3.678   2.169  2.3141  2.4002 -0.7211
 4093SOL     OW23911   3.800   1.704   7.664  0.0565 -0.8288  0.1357
 4093SOL    HW123912   3.842   1.758   7.731  0.1434  1.0003 -1.3964
 4093SOL    HW223913   3.867   1.712   7.597 -2.2195  1.6566 -1.8073
 4094SOL     OW23914   0.825   0.777   9.543 -0.1429  0.1807 -0.2177
 4094SOL    HW123915   0.792   0.866   9.536 -1.3320 -0.1938  0.5878
 4094SOL    HW223916   0.748   0.724   9.522 -0.8775  0.0131  2.9088
 4095SOL     OW23917   2.046   0.332   9.444  0.9633 -0.3752 -0.7001
 4095SOL    HW123918   2.016   0.315   9.534 -0.2996 -0.5640 -1.1487
 4095SOL    HW223919   1.969   0.366   9.399  0.4630 -1.4424 -0.6618
 4096SOL     OW23920   4.043   1.474   3.980 -0.4304  0.1075  0.6780
 4096SOL    HW123921   3.986   1.516   4.044  0.3166  2.4603 -0.1954
 4096SOL    HW223922   4.027   1.385   4.010 -3.1002  0.8650  1.4961
 4097SOL     OW23923   3.084   2.707   5.637 -0.2322 -0.3521 -0.1076
 4097SOL    HW123924   3.177   2.706   5.613 -0.3694 -0.8992 -0.6065
 4097SOL    HW223925   3.080   2.637   5.702  0.2259  1.5437  1.9424
 4098SOL     OW23926   1.923   3.901   8.088 -0.3076  0.1806 -0.4714
 4098SOL    HW123927   1.927   3.875   8.180  2.9237 -0.4992 -0.7894
 4098SOL    HW223928   1.833   3.882   8.064 -0.3781  1.0638 -0.9205
 4099SOL     OW23929   3.611   0.302   0.670 -0.2564  0.2376 -0.6495
 4099SOL    HW123930   3.639   0.379   0.620  0.7581  0.1926 -0.1573
 4099SOL    HW223931   3.587   0.241   0.600  0.7496  1.1573 -1.7939
 4100SOL     OW23932   3.272   0.954   1.553  0.2686  0.6281 -0.4576
 4100SOL    HW123933   3.209   0.909   1.496 -0.8386  1.0359  0.4363
 4100SOL    HW223934   3.355   0.925   1.515  1.8214  1.0002  2.6694
 4101SOL     OW23935   4.080   1.726   5.939 -0.0287  0.0120 -0.0934
 4101SOL    HW123936   4.015   1.657   5.942  1.0735 -0.9444  1.4842
 4101SOL    HW223937   4.161   1.677   5.952 -0.3737 -0.4797  0.1587
 4102SOL     OW23938   0.450   3.049   9.088  0.5969 -0.2664 -0.2795
 4102SOL    HW123939   0.497   2.994   9.151 -1.9324  0.3239  2.0807
 4102SOL    HW223940   0.383   3.092   9.141  2.0152  3.3271 -1.4164
 4103SOL     OW23941   0.012   1.728   5.694  0.2083 -0.0742  0.0554
 4103SOL    HW123942   4.737   1.782   5.617 -2.8429 -1.5285 -0.3785
 4103SOL    HW223943   4.664   1.695   5.715  0.0423 -0.1256 -0.7259
 4104SOL     OW23944   2.120   3.820   6.736 -0.0351  0.3938  0.1049
 4104SOL    HW123945   2.040   3.819   6.683 -0.0341 -0.2157  0.1145
 4104SOL    HW223946   2.193   3.806   6.675  0.5027  1.4283  0.5172
 4105SOL     OW23947   4.677   4.384   2.995  0.3983 -0.1724 -0.0554
 4105SOL    HW123948   4.676   4.374   3.090 -1.4580  1.7366  0.1071
 4105SOL    HW223949   0.027   4.359   2.971 -0.4292 -3.1071 -0.1305
 4106SOL     OW23950   2.572   2.481   6.783 -0.4797 -0.2572 -0.6814
 4106SOL    HW123951   2.658   2.482   6.742  1.1683 -1.1584  2.8547
 4106SOL    HW223952   2.576   2.423   6.858 -0.3410 -0.1962 -0.6428
 4107SOL     OW23953   4.231   0.796   8.394 -0.2829  0.4205 -0.3552
 4107SOL    HW123954   4.148   0.834   8.364 -0.3645  1.6598  1.4403
 4107SOL    HW223955   4.293   0.860   8.358 -0.6249  1.2107  0.4565
 4108SOL     OW23956   0.635   0.262   6.993  0.3111  0.2762 -0.2543
 4108SOL    HW123957   0.663   0.282   7.082  1.5301  0.2998 -0.6503
 4108SOL    HW223958   0.656   0.169   6.989  2.9411  0.8636 -0.2596
 4109SOL     OW23959   4.323   2.433   2.743  0.6182  0.4670 -0.0705
 4109SOL    HW123960   4.356   2.374   2.675 -0.1364 -0.9587  0.7971
 4109SOL    HW223961   4.324   2.373   2.817 -2.5702  1.1206  0.5206
 4110SOL     OW23962   2.962   4.235   0.231  0.2794 -0.2856  0.2287
 4110SOL    HW123963   2.876   4.192   0.230  0.9408 -1.6402  1.0881
 4110SOL    HW223964   3.003   4.209   0.313 -0.2999 -0.5970  0.4178
 4111SOL     OW23965   3.881   2.466   2.336  0.0780 -0.1511 -0.2285
 4111SOL    HW123966   3.961   2.442   2.381  0.4182 -0.5868 -1.0663
 4111SOL    HW223967   3.909   2.494   2.249 -1.1675  0.5611 -0.3972
 4112SOL     OW23968   3.300   0.397  12.705 -0.2747  0.0905  0.2279
 4112SOL    HW123969   3.316   0.482  12.663 -0.8665 -0.3291 -0.8465
 4112SOL    HW223970   3.213   0.409  12.744 -1.5369 -1.7835 -2.0133
 4113SOL     OW23971   3.346   3.786   5.467  0.5146 -0.2353 -0.0064
 4113SOL    HW123972   3.421   3.838   5.495  1.8558 -1.6216 -0.9758
 4113SOL    HW223973   3.277   3.846   5.440  1.8208  1.0845 -0.4017
 4114SOL     OW23974   4.553   0.084   8.483 -0.0041  0.7060  0.2060
 4114SOL    HW123975   4.506   0.022   8.426 -0.2036  1.0914 -0.0490
 4114SOL    HW223976   4.483   0.129   8.530 -1.3303 -1.7694  0.5919
 4115SOL     OW23977   4.680   1.602   1.998  0.9611 -0.5681  0.7785
 4115SOL    HW123978   4.669   1.534   2.064 -2.7297 -0.0185  0.7174
 4115SOL    HW223979   4.699   1.561   1.913  0.8150  1.7065 -0.3506
 4116SOL     OW23980   2.104   0.476   6.550 -0.1673  0.4137 -0.3105
 4116SOL    HW123981   2.107   0.562   6.592 -1.8175  0.6216 -0.6378
 4116SOL    HW223982   2.048   0.428   6.610 -1.8166  0.7236 -1.6011
 4117SOL     OW23983   0.471   0.114   8.984  0.1325 -0.0939  0.0844
 4117SOL    HW123984   0.383   0.111   9.022  0.5522 -0.8736  0.9957
 4117SOL    HW223985   0.483   0.020   8.970  2.2159  0.1378  0.3371
 4118SOL     OW23986   0.447   1.919   5.624 -0.7352  0.1203 -0.5123
 4118SOL    HW123987   0.496   1.857   5.678 -1.4217  0.2845  0.3038
 4118SOL    HW223988   0.374   1.942   5.682  1.1910  0.3568  1.8367
 4119SOL     OW23989   2.260   2.434   1.658  0.0026 -0.5724  0.1404
 4119SOL    HW123990   2.279   2.504   1.721  1.9951 -1.6347  0.6918
 4119SOL    HW223991   2.190   2.478   1.609  0.5048  0.3838  0.2961
 4120SOL     OW23992   3.082   0.216   6.112 -0.2105 -0.0206 -0.4270
 4120SOL    HW123993   3.086   0.297   6.060  1.8021 -1.3697 -2.4100
 4120SOL    HW223994   3.045   0.247   6.194  1.6104 -1.3096  0.8781
 4121SOL     OW23995   3.816   1.840  16.301 -0.2165 -0.4209 -0.1018
 4121SOL    HW123996   3.779   1.786  16.231  1.0467 -0.6904 -0.5710
 4121SOL    HW223997   3.822   1.771  16.368  1.9470 -0.0836  0.0560
 4122SOL     OW23998   1.045   4.108   2.646 -0.5006 -0.6497 -0.1780
 4122SOL    HW123999   1.004   4.033   2.603 -1.3951 -0.6913  0.7321
 4122SOL    HW224000   0.973   4.146   2.697 -0.9061 -0.4722 -0.8804
 4123SOL     OW24001   4.277   0.879   6.842  0.0104 -0.1445  0.0083
 4123SOL    HW124002   4.337   0.887   6.768 -1.2784 -0.2809 -1.0621
 4123SOL    HW224003   4.240   0.965   6.862  0.1220 -0.3373  1.0536
 4124SOL     OW24004   4.567   0.371  17.188  0.2930  0.2554  0.2496
 4124SOL    HW124005   4.647   0.344  17.234 -0.7372  0.6750  2.2460
 4124SOL    HW224006   4.581   0.465  17.179 -1.3783  0.2699 -2.0649
 4125SOL     OW24007   1.211   0.846   5.162 -0.4237 -0.1654  0.0054
 4125SOL    HW124008   1.162   0.813   5.237  0.5198 -0.7328  0.3706
 4125SOL    HW224009   1.134   0.847   5.105 -1.4121  0.2800  1.3486
 4126SOL     OW24010   1.805   3.587   9.891  0.5191 -0.0484  0.6930
 4126SOL    HW124011   1.834   3.518   9.951  0.2195 -0.3003  0.5448
 4126SOL    HW224012   1.805   3.539   9.809 -0.2838  1.2499 -0.0794
 4127SOL     OW24013   0.809   3.738   1.386 -0.0062  0.0357 -0.1601
 4127SOL    HW124014   0.762   3.660   1.357 -2.2735  1.4382 -0.2515
 4127SOL    HW224015   0.760   3.758   1.466 -0.8649 -2.5345 -0.0453
 4128SOL     OW24016   0.681   0.982   2.537  0.7680  0.1408 -0.2042
 4128SOL    HW124017   0.774   0.999   2.520  0.6699  0.8838  0.0152
 4128SOL    HW224018   0.682   0.929   2.617  0.4917 -0.9096 -0.8929
 4129SOL     OW24019   1.823   4.701   3.417  0.1119  0.0494  0.5440
 4129SOL    HW124020   1.864   4.702   3.330 -0.1297 -0.9434  0.4192
 4129SOL    HW224021   1.887   0.003   3.474  0.2753 -0.7400  0.9235
 4130SOL     OW24022   2.227   1.918   1.096 -0.4736  0.2431  0.0050
 4130SOL    HW124023   2.254   2.008   1.077 -0.6472  0.7389  2.1157
 4130SOL    HW224024   2.136   1.917   1.065 -0.2457  0.5979 -0.6859
 4131SOL     OW24025   0.686   1.965   8.324 -0.3627 -0.7196 -0.2939
 4131SOL    HW124026   0.727   1.969   8.238 -0.7871 -1.4372 -0.5231
 4131SOL    HW224027   0.690   2.057   8.351 -0.2257 -0.6094 -0.6992
 4132SOL     OW24028   2.016   1.371   1.831 -0.4554  0.1489 -0.0645
 4132SOL    HW124029   2.053   1.397   1.916  1.3572  0.5922 -0.9795
 4132SOL    HW224030   1.949   1.309   1.858  0.1641 -0.4984  0.0021
 4133SOL     OW24031   1.379   2.280   2.779 -0.3701 -0.1324  0.0036
 4133SOL    HW124032   1.354   2.277   2.687  1.9257  1.9532 -0.7023
 4133SOL    HW224033   1.454   2.221   2.783 -1.7291 -1.7039  2.3749
 4134SOL     OW24034   2.537   1.365   4.432 -0.3543  0.2621 -0.1499
 4134SOL    HW124035   2.472   1.295   4.429 -0.0543 -0.0628  0.9165
 4134SOL    HW224036   2.571   1.385   4.345 -1.5261  3.4259  0.1258
 4135SOL     OW24037   3.857   4.721   3.450  0.2825  0.1777 -0.2150
 4135SOL    HW124038   3.803   0.001   3.374 -1.7998 -3.9811  0.1657
 4135SOL    HW224039   3.843   4.627   3.463 -0.9796  0.3472 -0.4089
 4136SOL     OW24040   3.685   1.615   1.924 -0.4356 -0.2646  0.2607
 4136SOL    HW124041   3.664   1.660   2.006 -0.5119  1.4963 -0.7267
 4136SOL    HW224042   3.711   1.687   1.868  0.0849 -1.4286 -0.9791
 4137SOL     OW24043   0.119   1.854   6.570 -0.2116  0.0811 -0.2499
 4137SOL    HW124044   0.091   1.897   6.489  0.3764  0.3175 -0.3286
 4137SOL    HW224045   0.042   1.800   6.586 -0.1297 -0.0611 -0.3367
 4138SOL     OW24046   0.272   2.938   7.516  0.2326  0.1632 -0.1321
 4138SOL    HW124047   0.241   2.850   7.494 -1.8144  1.0169 -0.6520
 4138SOL    HW224048   0.367   2.925   7.514  0.2890  0.4297  0.9855
 4139SOL     OW24049   0.396   1.163   1.921  0.0964 -0.7248  0.0291
 4139SOL    HW124050   0.415   1.195   2.009  2.4458 -1.8595 -0.0761
 4139SOL    HW224051   0.445   1.221   1.862 -3.1387 -0.1367 -2.1375
 4140SOL     OW24052   2.854   0.078   5.319  0.2100  0.2995  0.3606
 4140SOL    HW124053   2.788   0.147   5.325 -1.1394 -0.7687 -2.1052
 4140SOL    HW224054   2.871   0.076   5.225 -1.5153  1.3960  0.0348
 4141SOL     OW24055   0.210   2.445   3.849 -0.4096 -0.0988  0.0246
 4141SOL    HW124056   0.182   2.483   3.931 -0.3541 -0.5484  0.2520
 4141SOL    HW224057   0.305   2.437   3.861 -0.1216  0.3447 -1.8689
 4142SOL     OW24058   0.269   2.693   3.359  0.5944  0.2241  0.5738
 4142SOL    HW124059   0.237   2.701   3.449  0.2844  2.8822  0.2072
 4142SOL    HW224060   0.300   2.782   3.343  3.2056 -0.2671  2.8103
 4143SOL     OW24061   2.399   2.521   4.833  0.2370  0.2803 -0.6111
 4143SOL    HW124062   2.480   2.487   4.869  1.0407  2.2728 -0.5385
 4143SOL    HW224063   2.417   2.613   4.852  0.7888 -0.0789  0.6415
 4144SOL     OW24064   3.357   3.491   7.474  0.2152  0.2492  0.1128
 4144SOL    HW124065   3.428   3.555   7.464  1.2517 -1.0396 -0.8712
 4144SOL    HW224066   3.326   3.510   7.386  0.1583  2.8104  0.6959
 4145SOL     OW24067   2.564   0.567   7.749  0.3318 -0.1411 -0.1684
 4145SOL    HW124068   2.643   0.521   7.778  0.8735  0.6823 -0.3310
 4145SOL    HW224069   2.548   0.629   7.821 -0.1503 -0.0924 -0.3222
 4146SOL     OW24070   0.116   1.247  15.696  0.4926 -0.0143 -0.2247
 4146SOL    HW124071   0.192   1.305  15.704 -1.0601  2.0419 -0.2115
 4146SOL    HW224072   0.135   1.189  15.770 -2.4598 -1.6042 -0.7089
 4147SOL     OW24073   2.882   2.734  11.946  0.5047 -0.4345  0.7869
 4147SOL    HW124074   2.790   2.756  11.927  0.7058 -1.2035 -1.1286
 4147SOL    HW224075   2.921   2.819  11.967  0.6870 -0.9861  2.6603
 4148SOL     OW24076   1.126   0.840   8.778  0.0521 -0.0198  0.1864
 4148SOL    HW124077   1.103   0.854   8.870 -1.0663 -2.4221  0.2817
 4148SOL    HW224078   1.132   0.929   8.744  0.3872 -0.1129  0.0004
 4149SOL     OW24079   0.567   1.902  15.542  0.3434  0.4095 -0.5250
 4149SOL    HW124080   0.523   1.954  15.475 -1.9630  0.5467  1.1042
 4149SOL    HW224081   0.637   1.861  15.490 -0.3979 -1.5122 -0.0187
 4150SOL     OW24082   1.350   1.524   8.932 -0.0961 -0.3401  0.5090
 4150SOL    HW124083   1.375   1.525   9.025  0.4738  2.7798  0.3199
 4150SOL    HW224084   1.257   1.546   8.943 -0.6822 -2.4596 -0.2928
 4151SOL     OW24085   1.169   2.307   7.861 -0.0196  0.2027  0.0779
 4151SOL    HW124086   1.177   2.395   7.823  1.5533 -1.0063 -2.3581
 4151SOL    HW224087   1.116   2.257   7.800 -1.1528  1.2854  0.1837
 4152SOL     OW24088   2.747   2.104   7.725  0.2371 -0.6132  0.0025
 4152SOL    HW124089   2.753   2.169   7.655 -0.7484  0.5011  0.9613
 4152SOL    HW224090   2.746   2.164   7.799 -0.9429  0.4069 -0.8421
 4153SOL     OW24091   2.019   3.143   1.243  0.3327 -0.0120  0.5767
 4153SOL    HW124092   2.105   3.108   1.221 -0.3001 -2.9751  2.7384
 4153SOL    HW224093   2.039   3.195   1.321  1.5104  0.4156 -0.0185
 4154SOL     OW24094   1.998   3.627  15.645  0.4226  0.1762  0.1587
 4154SOL    HW124095   1.944   3.676  15.706 -1.9303  0.5680 -2.2261
 4154SOL    HW224096   2.074   3.684  15.637 -0.7272  1.5083 -1.4039
 4155SOL     OW24097   2.338   4.064   1.190  0.4598 -0.5378  0.5440
 4155SOL    HW124098   2.314   4.134   1.251  1.2297  0.1907  0.0164
 4155SOL    HW224099   2.267   4.002   1.201 -1.1203  1.5731  2.3896
 4156SOL     OW24100   2.194   3.157   3.629 -0.8197  0.4884  0.9957
 4156SOL    HW124101   2.186   3.061   3.629  0.6137  0.3827  3.2971
 4156SOL    HW224102   2.159   3.176   3.542  1.5611  1.5855  0.2777
 4157SOL     OW24103   2.148   3.422   7.199 -0.2909  0.2644 -0.2043
 4157SOL    HW124104   2.219   3.359   7.211 -0.0262  0.6704  0.3514
 4157SOL    HW224105   2.108   3.426   7.285  1.9249 -1.0148  0.8879
 4158SOL     OW24106   3.547   0.837   8.216  0.2703 -0.2101  0.1819
 4158SOL    HW124107   3.544   0.818   8.122  3.0903 -0.0082  0.0351
 4158SOL    HW224108   3.469   0.803   8.259  1.2627 -1.0132  1.3587
 4159SOL     OW24109   3.629   2.867  17.116 -0.3017  0.5192 -0.0428
 4159SOL    HW124110   3.566   2.815  17.166 -0.7493  1.7387  0.6508
 4159SOL    HW224111   3.675   2.913  17.186 -1.9760 -0.0321  1.4274
 4160SOL     OW24112   1.425   3.882   8.511  0.3301  0.0107  0.1981
 4160SOL    HW124113   1.511   3.901   8.472 -0.5392  0.8035 -1.3416
 4160SOL    HW224114   1.391   3.970   8.496 -0.2021  0.1630  2.3230
 4161SOL     OW24115   1.594   3.105   5.582  0.2439  0.4250 -0.1554
 4161SOL    HW124116   1.601   3.175   5.647 -2.4097  0.1049  0.4740
 4161SOL    HW224117   1.642   3.033   5.621  1.2889 -0.2978 -2.7846
 4162SOL     OW24118   2.473   0.855   4.220  0.0120  0.7610 -0.2123
 4162SOL    HW124119   2.501   0.792   4.154  0.4340  0.0266  0.6730
 4162SOL    HW224120   2.507   0.938   4.184  0.5695 -0.2052 -1.9331
 4163SOL     OW24121   2.189   4.622  11.976 -0.1665  0.1353 -0.0514
 4163SOL    HW124122   2.132   4.559  12.020  0.7672 -1.1330 -0.6474
 4163SOL    HW224123   2.261   4.630  12.038 -1.6388 -0.6879  1.7560
 4164SOL     OW24124   3.877   3.798   2.105  0.0455 -0.1981 -0.1011
 4164SOL    HW124125   3.917   3.832   2.185  2.1154  1.4689 -1.8310
 4164SOL    HW224126   3.937   3.838   2.041 -0.7682 -1.0747 -1.4004
 4165SOL     OW24127   1.010   3.489   6.414  0.0024 -0.0769  0.0085
 4165SOL    HW124128   0.973   3.502   6.326  4.1779  0.0183 -1.7478
 4165SOL    HW224129   1.036   3.397   6.411  1.0305  0.1638  1.4965
 4166SOL     OW24130   4.192   0.103   6.877  0.1909 -0.2422 -0.5278
 4166SOL    HW124131   4.253   0.052   6.930  1.5667  1.3558 -0.5528
 4166SOL    HW224132   4.245   0.095   6.798 -0.6497 -0.6232 -1.0551
 4167SOL     OW24133   1.055   3.772   1.509 -0.1411 -0.7620 -0.3213
 4167SOL    HW124134   1.083   3.689   1.470 -0.3033 -1.5180  1.1534
 4167SOL    HW224135   0.986   3.796   1.446 -0.6484  0.3378  0.6445
 4168SOL     OW24136   0.348   4.546  11.258  0.0651 -0.2396  0.8132
 4168SOL    HW124137   0.415   4.601  11.300  1.3862  0.3739 -2.0872
 4168SOL    HW224138   0.299   4.601  11.198  2.1077  0.5856 -0.1011
 4169SOL     OW24139   3.562   2.177   4.898 -0.5753  0.5855 -0.1618
 4169SOL    HW124140   3.485   2.123   4.909 -0.2144  0.2449  0.6988
 4169SOL    HW224141   3.602   2.173   4.985 -0.3126 -0.3667 -0.3239
 4170SOL     OW24142   2.437   3.482   2.972  0.2972 -0.2126  0.3066
 4170SOL    HW124143   2.524   3.470   3.009 -0.6848  2.0770  3.3372
 4170SOL    HW224144   2.382   3.441   3.039 -0.8362 -0.5131 -0.8151
 4171SOL     OW24145   4.122   0.773  11.682 -0.0151 -0.5744 -0.5790
 4171SOL    HW124146   4.067   0.723  11.742 -2.1090  1.8923 -0.4247
 4171SOL    HW224147   4.208   0.742  11.711 -0.9196 -1.4165  1.1658
 4172SOL     OW24148   1.036   1.418  17.515  0.3518  0.1103 -0.0111
 4172SOL    HW124149   1.025   1.507  17.550 -0.3981 -0.4727  1.2537
 4172SOL    HW224150   1.099   1.426  17.444 -0.6346  0.2293 -0.8617
 4173SOL     OW24151   2.916   2.564   1.268 -0.0391  0.3392  0.4522
 4173SOL    HW124152   2.887   2.655   1.260  2.8548  0.9866 -2.6240
 4173SOL    HW224153   3.010   2.577   1.262 -0.1107  0.9834  0.6623
 4174SOL     OW24154   1.230   0.128   3.724  0.1305  0.6066 -0.6387
 4174SOL    HW124155   1.283   0.094   3.796 -0.1980  1.4741  0.0115
 4174SOL    HW224156   1.279   0.099   3.646 -0.8623  0.5808 -1.2493
 4175SOL     OW24157   4.364   3.210   3.506 -0.0969  0.2076  0.4037
 4175SOL    HW124158   4.343   3.269   3.433 -1.3688  0.1143  0.7024
 4175SOL    HW224159   4.448   3.246   3.534 -0.0015 -0.9497  1.5839
 4176SOL     OW24160   0.762   2.973   6.319  0.4688  0.0773  0.0121
 4176SOL    HW124161   0.814   3.025   6.257  0.8577 -2.2654 -1.6278
 4176SOL    HW224162   0.828   2.938   6.378  1.9894 -2.1221 -3.0106
 4177SOL     OW24163   4.357   0.856   5.399  0.2470  0.0257  0.4098
 4177SOL    HW124164   4.375   0.764   5.380 -1.3012  0.3011 -2.3687
 4177SOL    HW224165   4.402   0.870   5.482  0.7842  0.0558  0.1087
 4178SOL     OW24166   4.287   3.388   8.046 -0.0653 -0.7358 -0.5325
 4178SOL    HW124167   4.207   3.416   8.000  0.7617 -0.0790 -1.5619
 4178SOL    HW224168   4.317   3.461   8.101  0.0782 -0.7581 -0.5822
 4179SOL     OW24169   4.325   1.914  16.740 -0.4828 -0.1780 -0.3425
 4179SOL    HW124170   4.394   1.977  16.761  0.3367 -0.3414 -2.5668
 4179SOL    HW224171   4.337   1.900  16.646 -0.1447 -1.0360 -0.1752
 4180SOL     OW24172   1.884   4.676   8.229 -0.6590  0.0740 -0.2906
 4180SOL    HW124173   1.791   4.690   8.248 -0.6589 -0.3517  0.0391
 4180SOL    HW224174   1.872   4.633   8.145 -1.0500  2.3581 -1.3878
 4181SOL     OW24175   0.302   3.981   0.006  0.3947 -0.4032 -0.4441
 4181SOL    HW124176   0.379   3.981   0.063 -0.3011  0.5888  0.4945
 4181SOL    HW224177   0.275   3.890   0.004  1.9606 -0.9076  2.2604
 4182SOL     OW24178   2.596   2.755   2.744 -0.5330  0.4807  0.6173
 4182SOL    HW124179   2.691   2.748   2.748 -0.5713 -0.9089 -0.7126
 4182SOL    HW224180   2.577   2.693   2.674 -0.6649  0.3569  0.7633
 4183SOL     OW24181   1.952   1.217  14.742  0.1122  0.4097  0.2905
 4183SOL    HW124182   2.040   1.209  14.705 -0.6956  2.2008 -2.0165
 4183SOL    HW224183   1.912   1.136  14.713  0.8989  0.4557 -0.9232
 4184SOL     OW24184   3.586   1.448  17.166  0.0837  0.1096  0.2133
 4184SOL    HW124185   3.593   1.408  17.080  0.1852 -2.6318  1.4991
 4184SOL    HW224186   3.497   1.483  17.167 -0.4459 -1.2555  0.2514
 4185SOL     OW24187   0.454   1.672   4.907 -0.2464 -0.4342 -0.2442
 4185SOL    HW124188   0.372   1.624   4.894 -0.9866  1.2070 -1.6157
 4185SOL    HW224189   0.444   1.699   4.999  0.5944  0.1066 -0.3086
 4186SOL     OW24190   3.343   1.064  17.730 -0.0386  0.0139  0.3596
 4186SOL    HW124191   3.427   1.035  17.695 -0.6376 -1.4762  0.1443
 4186SOL    HW224192   3.287   0.998  17.690  1.4423 -0.0619 -1.5692
 4187SOL     OW24193   4.362   3.604   8.426 -0.2489  0.1271 -0.0227
 4187SOL    HW124194   4.433   3.560   8.378  1.0137  1.2478  0.7974
 4187SOL    HW224195   4.385   3.574   8.514 -3.0983  0.5730  0.8450
 4188SOL     OW24196   1.887   2.391   4.503 -0.2743  0.2137  0.2112
 4188SOL    HW124197   1.954   2.437   4.555  0.1297  1.6497 -1.5979
 4188SOL    HW224198   1.914   2.300   4.498 -2.1498 -0.4101  1.5156
 4189SOL     OW24199   0.507   2.773   2.563  0.0207 -0.0726  0.4286
 4189SOL    HW124200   0.569   2.821   2.618 -0.1129 -1.0447  1.4130
 4189SOL    HW224201   0.451   2.847   2.539 -0.5550 -0.9897 -1.0340
 4190SOL     OW24202   0.645   2.462  16.713 -0.5725  0.0212 -0.7199
 4190SOL    HW124203   0.560   2.497  16.686 -0.7025 -0.1679 -0.5592
 4190SOL    HW224204   0.665   2.416  16.632 -0.7050  1.8190 -1.7608
 4191SOL     OW24205   1.518   1.118   6.359  0.0128  0.2070  0.2707
 4191SOL    HW124206   1.426   1.096   6.344 -0.3741  1.9738  0.1180
 4191SOL    HW224207   1.535   1.173   6.283  1.8605 -0.7460  0.0023
 4192SOL     OW24208   1.502   2.458   7.982 -0.4370  0.1550 -0.3048
 4192SOL    HW124209   1.566   2.416   7.924 -0.2450  0.8938 -0.6299
 4192SOL    HW224210   1.533   2.545   8.006  0.0207 -0.3498  0.9312
 4193SOL     OW24211   1.134   3.555  17.445  0.8352 -0.3471  0.5409
 4193SOL    HW124212   1.078   3.485  17.481 -2.3103  2.1410  0.4892
 4193SOL    HW224213   1.204   3.540  17.508  1.2144 -0.4332  0.0957
 4194SOL     OW24214   4.594   2.079  14.934 -0.0205 -0.1208 -0.1504
 4194SOL    HW124215   4.627   2.169  14.945 -0.5181  0.0611 -0.1727
 4194SOL    HW224216   4.523   2.099  14.873 -1.4151 -2.3732  0.7772
 4195SOL     OW24217   1.117   4.219   7.478  0.0460  0.0017 -0.3058
 4195SOL    HW124218   1.115   4.234   7.572  2.4481  1.7563 -0.5200
 4195SOL    HW224219   1.138   4.126   7.469 -1.1338 -0.0524 -2.4663
 4196SOL     OW24220   3.661   4.265   0.826  0.0452  0.3944  0.0068
 4196SOL    HW124221   3.739   4.313   0.855  1.3092 -1.8895  0.3687
 4196SOL    HW224222   3.622   4.239   0.910 -0.5237  0.9346 -0.0926
 4197SOL     OW24223   4.247   1.923  17.013  0.5874  0.6394  0.2770
 4197SOL    HW124224   4.161   1.958  16.990  1.1789  0.0432 -2.9224
 4197SOL    HW224225   4.293   1.918  16.928 -2.5698  4.5226 -1.6535
 4198SOL     OW24226   2.876   0.692   4.018 -0.4571  0.0526 -0.4420
 4198SOL    HW124227   2.923   0.769   3.988  1.0609 -1.3961 -1.8011
 4198SOL    HW224228   2.907   0.688   4.108 -1.8187 -1.2583 -0.0146
 4199SOL     OW24229   0.069   2.075  17.405 -0.3655  0.0195 -0.1189
 4199SOL    HW124230   0.085   2.020  17.328 -3.3321 -0.8646 -0.1249
 4199SOL    HW224231   0.090   2.160  17.365 -1.1658  1.1216  1.7979
 4200SOL     OW24232   4.399   4.170   2.233 -0.3978  0.0406 -0.8609
 4200SOL    HW124233   4.331   4.194   2.296  1.4614  1.7665  0.4966
 4200SOL    HW224234   4.341   4.145   2.162 -0.8506 -0.5652 -0.2732
 4201SOL     OW24235   4.131   3.954   4.494 -0.3151 -0.7666  0.1763
 4201SOL    HW124236   4.163   3.957   4.404  0.6131  0.3077  0.5514
 4201SOL    HW224237   4.213   3.961   4.542 -0.7636 -1.9052  1.1419
 4202SOL     OW24238   3.851   1.197   4.280  0.0557 -0.3719  0.2731
 4202SOL    HW124239   3.880   1.266   4.340  0.1302  0.5709 -0.8415
 4202SOL    HW224240   3.785   1.152   4.333 -0.5496 -2.8161 -2.6026
 4203SOL     OW24241   1.283   1.364   4.873  0.2108 -0.8567 -0.2505
 4203SOL    HW124242   1.250   1.442   4.828 -0.3589 -0.3617  0.9945
 4203SOL    HW224243   1.370   1.359   4.834  0.0317  0.2982 -0.8026
 4204SOL     OW24244   3.130   0.430   7.541  0.1195 -0.6208 -0.1529
 4204SOL    HW124245   3.175   0.364   7.594  0.0579 -0.1974  0.4285
 4204SOL    HW224246   3.042   0.395   7.528 -1.3020  1.9119  2.8293
 4205SOL     OW24247   1.553   4.166  16.701 -0.6057 -0.0001  0.3931
 4205SOL    HW124248   1.480   4.117  16.739 -0.9457  0.8282  0.7970
 4205SOL    HW224249   1.571   4.219  16.779  1.9076  0.4087 -0.4860
 4206SOL     OW24250   1.502   3.389   5.059  0.3944  0.1935  0.5105
 4206SOL    HW124251   1.462   3.303   5.075  0.7402 -0.4393 -2.0297
 4206SOL    HW224252   1.529   3.381   4.968  2.1186  1.6268  0.9015
 4207SOL     OW24253   0.081   0.124  10.013 -0.1178  0.7494 -0.2314
 4207SOL    HW124254   0.057   0.110  10.104  1.5108  1.5330  0.3155
 4207SOL    HW224255   0.120   0.211  10.019 -2.2572  1.6615  0.6420
 4208SOL     OW24256   3.523   4.383   4.567  0.0964 -0.5761 -0.4279
 4208SOL    HW124257   3.549   4.322   4.497 -0.4000 -0.5099 -0.6695
 4208SOL    HW224258   3.605   4.412   4.606 -0.0877  0.2060 -0.6282
 4209SOL     OW24259   2.712   3.823   3.058  0.5248 -0.2456  0.1545
 4209SOL    HW124260   2.691   3.760   3.127 -0.6574  2.0782  1.8997
 4209SOL    HW224261   2.649   3.893   3.073 -0.7875 -1.5446  0.6772
 4210SOL     OW24262   4.107   2.609   7.253 -0.4992  0.0709  0.3825
 4210SOL    HW124263   4.154   2.563   7.184  1.5095  1.6496  0.7244
 4210SOL    HW224264   4.120   2.700   7.226  1.4244 -1.4407 -3.7515
 4211SOL     OW24265   4.553   0.819   6.994  0.1596  0.1219 -0.2469
 4211SOL    HW124266   4.506   0.877   7.054 -1.4711 -2.1638  0.6889
 4211SOL    HW224267   4.508   0.835   6.911  1.8037 -2.1727 -1.5847
 4212SOL     OW24268   2.239   4.022  17.254 -0.1262  0.7779  0.5294
 4212SOL    HW124269   2.245   4.083  17.328  1.0786 -2.3657  3.0457
 4212SOL    HW224270   2.272   4.075  17.181 -1.4496 -0.2194 -0.7777
 4213SOL     OW24271   1.947   4.011   9.012  0.2791 -0.3820  0.5673
 4213SOL    HW124272   1.992   4.028   8.929  3.2422  1.7396  2.6212
 4213SOL    HW224273   1.928   4.091   9.060  1.5429 -0.7323  1.6492
 4214SOL     OW24274   1.764   2.569  12.334  0.6834 -0.5923 -0.0444
 4214SOL    HW124275   1.805   2.649  12.368  2.2125 -2.2530  2.0096
 4214SOL    HW224276   1.788   2.583  12.242  0.7986  0.5460  0.1475
 4215SOL     OW24277   0.264   1.909   2.419  0.2284 -0.4738  0.3328
 4215SOL    HW124278   0.313   1.941   2.495 -0.9140  0.2365  0.7804
 4215SOL    HW224279   0.234   1.824   2.450 -2.6809  0.4595  0.0592
 4216SOL     OW24280   4.738   0.997   2.839  0.0649 -0.2249 -0.3966
 4216SOL    HW124281   4.733   1.092   2.849  0.7715 -0.3022  0.6715
 4216SOL    HW224282   4.709   0.958   2.921  0.6962 -0.1211 -0.1313
 4217SOL     OW24283   3.045   0.496   4.206 -0.4061  0.1263  0.6393
 4217SOL    HW124284   2.999   0.483   4.289  0.5758  2.7201  1.5936
 4217SOL    HW224285   3.085   0.577   4.238  0.4110  0.5853 -1.5505
 4218SOL     OW24286   4.442   0.328   9.215  0.0487 -0.3381 -0.2388
 4218SOL    HW124287   4.471   0.271   9.286  2.4321  0.8181 -0.2902
 4218SOL    HW224288   4.376   0.271   9.175 -0.6874 -2.2841  3.7690
 4219SOL     OW24289   1.156   0.319   4.923  0.4988  0.7308  0.0587
 4219SOL    HW124290   1.195   0.321   4.835  3.8140  1.8204  1.5968
 4219SOL    HW224291   1.127   0.410   4.929 -2.6394 -0.1919 -0.9234
 4220SOL     OW24292   2.372   4.174  11.534  0.1822  0.4257 -0.7330
 4220SOL    HW124293   2.357   4.132  11.619  0.8957  1.3118 -0.1691
 4220SOL    HW224294   2.294   4.148  11.486 -0.3759  0.6842  0.0314
 4221SOL     OW24295   4.258   1.113   8.600  0.3076 -0.0447  0.1515
 4221SOL    HW124296   4.311   1.159   8.664  0.2126 -0.9628  0.8955
 4221SOL    HW224297   4.274   1.023   8.630  0.4692  0.6287  2.1143
 4222SOL     OW24298   3.413   0.771   4.408  0.8483 -1.0570 -0.0587
 4222SOL    HW124299   3.506   0.788   4.420  0.4234  0.3200  1.3294
 4222SOL    HW224300   3.389   0.737   4.495 -0.0783  0.2755  0.2102
 4223SOL     OW24301   1.223   3.432   9.840  0.0160 -0.3806  0.4082
 4223SOL    HW124302   1.165   3.507   9.829  1.8137  0.9884  0.1831
 4223SOL    HW224303   1.295   3.463   9.785  0.5639 -2.0131  0.2089
 4224SOL     OW24304   2.644   2.486   8.480 -0.8021 -0.2031 -0.0623
 4224SOL    HW124305   2.696   2.425   8.428 -2.2552 -1.7288  0.2806
 4224SOL    HW224306   2.702   2.505   8.553  0.1103  0.1070 -0.8712
 4225SOL     OW24307   4.563   1.522   5.298 -0.3454  0.2776 -0.0981
 4225SOL    HW124308   4.502   1.549   5.230 -0.2088 -0.4847 -0.5157
 4225SOL    HW224309   4.513   1.560   5.371  2.3125  0.3473  1.6910
 4226SOL     OW24310   3.245   2.267   2.807 -0.1516  0.4571  0.1750
 4226SOL    HW124311   3.221   2.324   2.881  3.9607  0.9597  1.0859
 4226SOL    HW224312   3.270   2.327   2.737 -2.3504  2.1675  0.8454
 4227SOL     OW24313   1.709   3.225   6.616 -0.3035 -0.1103  0.2344
 4227SOL    HW124314   1.677   3.297   6.669 -2.4773  1.2584 -2.9233
 4227SOL    HW224315   1.800   3.225   6.644 -0.1691 -1.5406 -0.1949
 4228SOL     OW24316   1.579   3.524   2.093  0.3064 -0.4537 -0.2466
 4228SOL    HW124317   1.487   3.505   2.110  0.0452 -0.7262 -1.9329
 4228SOL    HW224318   1.629   3.450   2.128  1.9431  0.4830 -0.5818
 4229SOL     OW24319   0.899   0.960   5.055  0.0850 -0.1279  0.4829
 4229SOL    HW124320   0.919   0.994   5.142 -0.5554  2.1147 -0.2444
 4229SOL    HW224321   0.804   0.969   5.047  0.2830  0.4811 -1.2873
 4230SOL     OW24322   2.712   1.735  16.433 -0.8366  0.1297 -0.8495
 4230SOL    HW124323   2.741   1.827  16.433 -0.1129 -0.1000 -0.9307
 4230SOL    HW224324   2.713   1.704  16.342  1.0272  0.4431 -0.9450
 4231SOL     OW24325   4.541   3.771   4.374 -0.3970 -0.5610  0.2507
 4231SOL    HW124326   4.451   3.762   4.405 -0.4609  1.3799  0.6139
 4231SOL    HW224327   4.579   3.714   4.441 -2.6498  1.0852  2.9135
 4232SOL     OW24328   1.391   4.063  10.163  0.5714  0.1773 -0.2971
 4232SOL    HW124329   1.372   4.001  10.234 -2.5077 -0.0155 -1.3201
 4232SOL    HW224330   1.442   4.120  10.221 -0.5326 -1.2387  2.0672
 4233SOL     OW24331   2.692   1.383   8.918 -0.0566 -0.4788 -0.0782
 4233SOL    HW124332   2.649   1.427   8.991 -0.9353 -0.8500 -0.3664
 4233SOL    HW224333   2.776   1.364   8.959  0.1704  0.5760 -0.0648
 4234SOL     OW24334   3.093   0.435  13.714  0.1672  0.3343  0.0657
 4234SOL    HW124335   3.153   0.507  13.733 -1.0990  1.7391 -1.3558
 4234SOL    HW224336   3.066   0.408  13.802 -1.3758  0.9912 -0.2118
 4235SOL     OW24337   0.369   2.297   3.349 -0.5062 -0.0834  0.7294
 4235SOL    HW124338   0.328   2.363   3.292  2.4471  1.2819  0.2119
 4235SOL    HW224339   0.297   2.287   3.411 -0.3243  1.1088  1.1430
 4236SOL     OW24340   0.701   2.077  17.407  0.4736  0.0895  0.0121
 4236SOL    HW124341   0.641   2.055  17.479  1.8388 -1.1443  0.7724
 4236SOL    HW224342   0.680   2.012  17.340  2.4800 -0.9573  0.4010
 4237SOL     OW24343   1.549   1.580   4.236  0.4075 -0.4990 -0.2752
 4237SOL    HW124344   1.523   1.656   4.183  0.0886 -0.5871 -0.2444
 4237SOL    HW224345   1.517   1.511   4.178  0.2171 -0.1944 -0.5345
 4238SOL     OW24346   3.671   0.963   6.933  0.5569 -0.1611  0.0532
 4238SOL    HW124347   3.634   0.955   7.021 -0.7146 -0.5031 -0.5152
 4238SOL    HW224348   3.644   0.874   6.912  1.3262 -0.1605 -0.9115
 4239SOL     OW24349   4.485   0.713  15.096 -0.3082 -0.6792  0.1661
 4239SOL    HW124350   4.481   0.656  15.019 -1.2127  1.6538 -1.5363
 4239SOL    HW224351   4.521   0.792  15.056 -2.4119  1.1854  1.9720
 4240SOL     OW24352   0.328   3.396  15.366 -0.1918 -0.3001 -0.5480
 4240SOL    HW124353   0.386   3.404  15.442 -2.2754 -1.9469  1.2153
 4240SOL    HW224354   0.393   3.421  15.301  1.8159  2.0446  2.3974
 4241SOL     OW24355   0.226   2.344   5.625 -0.1894  0.2340  0.5535
 4241SOL    HW124356   0.268   2.427   5.605 -2.1798  1.3001  0.7694
 4241SOL    HW224357   0.140   2.356   5.583 -0.5529 -0.7798  1.0187
 4242SOL     OW24358   2.617   0.134   4.178 -0.1957  0.3198  0.2086
 4242SOL    HW124359   2.651   0.070   4.240  2.0322  1.1872 -0.1156
 4242SOL    HW224360   2.624   0.219   4.221  1.6691  0.6213 -0.6919
 4243SOL     OW24361   4.092   4.014  16.468 -0.6296  0.1555  0.1969
 4243SOL    HW124362   4.113   3.922  16.478  3.2384  1.0907  0.5769
 4243SOL    HW224363   4.157   4.045  16.405  1.1219 -1.3226  1.2954
 4244SOL     OW24364   0.195   3.333  17.145 -0.1938  0.2725 -0.9067
 4244SOL    HW124365   0.102   3.327  17.167  0.3693 -0.6422  1.2198
 4244SOL    HW224366   0.195   3.426  17.120  2.4225  0.5177 -0.0189
 4245SOL     OW24367   1.489   1.439   4.000  0.0433 -0.1213 -0.0877
 4245SOL    HW124368   1.516   1.362   3.950  0.9835 -0.0375  0.2749
 4245SOL    HW224369   1.394   1.438   3.996  0.1292  2.1070 -2.3602
 4246SOL     OW24370   1.165   2.192   5.228  0.3295  0.1873 -0.2595
 4246SOL    HW124371   1.190   2.193   5.136 -0.4182  1.3962 -0.4443
 4246SOL    HW224372   1.178   2.280   5.262 -1.1345  0.2410  0.1784
 4247SOL     OW24373   3.897   4.217  12.716 -0.1261 -0.2871  0.4138
 4247SOL    HW124374   3.991   4.213  12.697 -0.2898 -0.1770 -0.4383
 4247SOL    HW224375   3.898   4.262  12.800 -0.5094  0.7000 -0.1090
 4248SOL     OW24376   4.288   3.638   4.265 -0.3980  0.1572 -0.3951
 4248SOL    HW124377   4.224   3.651   4.334  0.7290 -1.0197  0.8603
 4248SOL    HW224378   4.256   3.707   4.207 -1.2716  0.8517  0.9245
 4249SOL     OW24379   2.796   0.280  14.681 -0.4308  0.4421 -0.1212
 4249SOL    HW124380   2.857   0.314  14.748  0.7479 -1.1002 -0.4158
 4249SOL    HW224381   2.854   0.265  14.606 -1.2723  0.9367 -0.8696
 4250SOL     OW24382   1.261   4.010   5.126 -0.3734  0.4166 -0.3788
 4250SOL    HW124383   1.325   3.973   5.188 -3.3018 -2.0821  1.0992
 4250SOL    HW224384   1.281   4.103   5.142 -0.8099  0.6135 -0.9757
 4251SOL     OW24385   3.120   1.887   4.106 -0.7012 -0.4475  0.1691
 4251SOL    HW124386   3.033   1.863   4.073  0.2046 -1.2337 -1.6338
 4251SOL    HW224387   3.116   1.846   4.192  0.5761 -0.3961  0.2394
 4252SOL     OW24388   0.672   1.217   3.444 -0.3989 -0.2398 -0.3965
 4252SOL    HW124389   0.578   1.239   3.443 -0.8156 -2.0414 -0.9717
 4252SOL    HW224390   0.695   1.209   3.351 -1.0026  1.2693 -0.6858
 4253SOL     OW24391   1.855   0.402  10.711  0.1738  0.1527  0.5092
 4253SOL    HW124392   1.923   0.468  10.700  0.6232 -0.4822 -0.4539
 4253SOL    HW224393   1.910   0.326  10.693  1.2184  0.2254  3.3017
 4254SOL     OW24394   1.151   1.685   7.356 -0.8463  0.4253 -0.7577
 4254SOL    HW124395   1.201   1.698   7.437  2.6633  0.6285 -2.9755
 4254SOL    HW224396   1.075   1.654   7.406 -1.2685  0.8534 -1.1425
 4255SOL     OW24397   4.258   0.636  15.222  0.2720 -0.6534 -0.1371
 4255SOL    HW124398   4.346   0.641  15.185  0.0073  1.9161 -0.4036
 4255SOL    HW224399   4.204   0.698  15.173 -0.2470 -0.6635  0.4163
 4256SOL     OW24400   3.858   2.249  10.747 -0.1220 -0.6823 -0.0432
 4256SOL    HW124401   3.768   2.261  10.715 -0.0822 -1.4913 -0.4527
 4256SOL    HW224402   3.858   2.165  10.792  0.4058 -0.1296  0.9825
 4257SOL     OW24403   1.179   3.668   4.858  0.3540 -0.0231 -0.9390
 4257SOL    HW124404   1.260   3.714   4.878  1.3818 -2.2015 -0.0897
 4257SOL    HW224405   1.128   3.717   4.923  0.8375 -1.8928  0.8287
 4258SOL     OW24406   3.534   0.606   3.421  0.2069 -0.4998  0.0582
 4258SOL    HW124407   3.597   0.576   3.355 -0.8155  1.2708 -1.7409
 4258SOL    HW224408   3.447   0.577   3.392 -0.0713  0.3342  0.0522
 4259SOL     OW24409   2.540   3.146   9.353 -0.0686  0.3350 -0.4860
 4259SOL    HW124410   2.459   3.193   9.335 -0.4305  0.5253  1.6106
 4259SOL    HW224411   2.577   3.191   9.429  1.9877  0.5414 -1.6122
 4260SOL     OW24412   1.345   1.062  15.903  0.0522  0.0436 -0.9055
 4260SOL    HW124413   1.439   1.045  15.906  0.1234  0.4733 -0.7945
 4260SOL    HW224414   1.303   0.976  15.901 -2.5377  1.3702 -3.3714
 4261SOL     OW24415   1.655   4.108   5.703  0.2132  0.1628 -0.6439
 4261SOL    HW124416   1.706   4.068   5.632  0.0824 -0.2030 -0.5354
 4261SOL    HW224417   1.726   4.155   5.746 -0.4021  1.2026 -0.7824
 4262SOL     OW24418   3.891   1.558  14.887  0.0198 -0.0085 -0.6412
 4262SOL    HW124419   3.858   1.639  14.849 -2.5867 -1.1692 -0.8172
 4262SOL    HW224420   3.842   1.490  14.842  0.2879 -0.3419 -0.4281
 4263SOL     OW24421   1.744   1.299   4.303 -0.0157  0.1207  0.2159
 4263SOL    HW124422   1.764   1.369   4.365  1.0612 -1.8918  2.1504
 4263SOL    HW224423   1.777   1.228   4.357 -0.9128  1.2229  2.1994
 4264SOL     OW24424   0.863   1.309   1.381  0.0132 -0.6938 -0.2597
 4264SOL    HW124425   0.804   1.313   1.305  0.1545  3.2565 -0.1551
 4264SOL    HW224426   0.941   1.323   1.327 -0.8744 -2.2329 -1.9331
 4265SOL     OW24427   0.159   2.048   1.940 -0.1660  0.0364  0.2634
 4265SOL    HW124428   0.204   1.973   1.902 -0.4091  0.0475 -0.0514
 4265SOL    HW224429   0.219   2.121   1.925  1.0904 -0.9697  0.3926
 4266SOL     OW24430   1.998   1.088   7.475  0.2945 -0.1085 -0.8686
 4266SOL    HW124431   1.943   1.155   7.435 -0.0969  0.6391  0.9711
 4266SOL    HW224432   2.078   1.120   7.433  1.6287 -0.2431  1.6226
 4267SOL     OW24433   0.787   4.607   8.669 -0.3466 -0.3636 -0.3445
 4267SOL    HW124434   0.760   4.678   8.611 -0.6927  0.5738  0.9440
 4267SOL    HW224435   0.703   4.587   8.709 -0.6767 -0.2598 -0.9899
 4268SOL     OW24436   4.711   3.418  14.889 -0.5321  0.2393 -0.2183
 4268SOL    HW124437   0.060   3.384  14.902 -0.4688 -0.3600 -2.2526
 4268SOL    HW224438   4.662   3.338  14.905 -0.9990  0.3340 -1.1179
 4269SOL     OW24439   4.276   1.110  14.918  0.6396  0.0120  0.3945
 4269SOL    HW124440   4.321   1.185  14.880  1.0038 -1.0060 -1.1764
 4269SOL    HW224441   4.246   1.153  14.998  0.7971  0.4865  0.1950
 4270SOL     OW24442   2.026   1.969   8.215  0.6273 -0.4089  0.2392
 4270SOL    HW124443   1.976   1.912   8.157 -0.9980  1.6453 -0.3849
 4270SOL    HW224444   2.031   1.919   8.297  0.1775  0.9076  1.0789
 4271SOL     OW24445   4.072   3.417   6.475 -0.5036 -0.4094  0.2879
 4271SOL    HW124446   4.061   3.332   6.518  0.5364  0.5493  2.4413
 4271SOL    HW224447   3.985   3.432   6.439  0.7076 -1.2311 -3.0406
 4272SOL     OW24448   0.975   3.872   9.371  0.1541 -0.0835  0.4023
 4272SOL    HW124449   0.973   3.814   9.294 -0.5249  0.8131 -0.2632
 4272SOL    HW224450   0.976   3.957   9.327  1.6576 -0.4524 -0.2919
 4273SOL     OW24451   2.611   3.740   8.386 -0.2130 -0.3868  0.0535
 4273SOL    HW124452   2.532   3.766   8.338  0.2479  2.0581  0.6112
 4273SOL    HW224453   2.619   3.647   8.364 -1.4078 -0.4849  0.0124
 4274SOL     OW24454   1.821   0.034   9.450  0.3443 -0.5175 -0.5285
 4274SOL    HW124455   1.761   0.109   9.449  0.0409 -0.7397  1.3598
 4274SOL    HW224456   1.770   4.718   9.509  0.1561  1.1701  0.8845
 4275SOL     OW24457   0.041   1.897   3.765 -0.2460  0.2874 -0.1904
 4275SOL    HW124458   0.051   1.853   3.681 -1.1580 -1.7397  0.7499
 4275SOL    HW224459   0.098   1.973   3.755  2.0109 -1.5024 -1.1432
 4276SOL     OW24460   2.013   2.869   1.936 -0.2268 -0.2256  0.3644
 4276SOL    HW124461   2.089   2.853   1.993 -0.4538  0.1026  0.7648
 4276SOL    HW224462   1.942   2.825   1.984 -0.4539 -0.0647  0.1773
 4277SOL     OW24463   2.241   0.701   3.965  0.7045 -0.2295 -0.0688
 4277SOL    HW124464   2.331   0.671   3.956  1.2657  0.7158  2.3179
 4277SOL    HW224465   2.253   0.796   3.961  2.4450 -0.4263  0.4062
 4278SOL     OW24466   4.598   0.732  11.609  0.0544  0.1570  0.3390
 4278SOL    HW124467   4.658   0.726  11.683  2.1284  3.3104 -1.1121
 4278SOL    HW224468   4.604   0.822  11.579 -0.6587 -0.4613 -1.6707
 4279SOL     OW24469   3.184   4.540   4.010  0.4224  0.1423  0.6668
 4279SOL    HW124470   3.178   4.535   4.105 -2.9701  1.5735  0.5066
 4279SOL    HW224471   3.206   4.452   3.979  0.1603 -0.0538  1.0328
 4280SOL     OW24472   1.620   0.758   5.916  0.5224 -0.6638 -0.6488
 4280SOL    HW124473   1.585   0.847   5.910 -1.0662 -1.1651  1.4234
 4280SOL    HW224474   1.678   0.772   5.990 -0.9138  0.4643  0.2664
 4281SOL     OW24475   1.375   4.083   2.759  0.1278 -0.2389  0.1482
 4281SOL    HW124476   1.433   4.083   2.836 -1.0509 -3.1439  0.9998
 4281SOL    HW224477   1.329   4.000   2.766 -1.4654  0.5643 -0.7467
 4282SOL     OW24478   0.883   4.540   7.265 -0.8268 -0.1341  0.2866
 4282SOL    HW124479   0.879   4.462   7.211 -3.1657 -1.1781  1.9558
 4282SOL    HW224480   0.899   4.506   7.353 -0.1626  0.6035  0.4532
 4283SOL     OW24481   0.694   0.330   2.504 -0.0154  0.1194 -0.1094
 4283SOL    HW124482   0.736   0.408   2.468  0.9098  0.2048  1.1376
 4283SOL    HW224483   0.731   0.255   2.459 -0.9733  0.3819 -1.3498
 4284SOL     OW24484   0.121   1.270   9.399  0.2320 -0.3758  0.9315
 4284SOL    HW124485   0.206   1.295   9.435  0.5564 -0.6497  0.3543
 4284SOL    HW224486   0.096   1.194   9.452  0.3063 -1.3661 -0.4625
 4285SOL     OW24487   0.395   3.899   2.703 -0.2844  0.2999  0.2595
 4285SOL    HW124488   0.348   3.970   2.746 -0.7987  0.5759 -0.7579
 4285SOL    HW224489   0.414   3.941   2.619 -1.8287 -2.4387 -1.4532
 4286SOL     OW24490   0.844   3.295  17.121 -0.3248 -0.1036  0.0564
 4286SOL    HW124491   0.758   3.253  17.128  0.7899 -2.8697 -2.7364
 4286SOL    HW224492   0.891   3.238  17.182 -2.4432  0.1795  1.9897
 4287SOL     OW24493   0.754   2.791  16.470  0.1901  0.4575  0.2206
 4287SOL    HW124494   0.736   2.885  16.470 -0.5282  0.3288 -3.2065
 4287SOL    HW224495   0.681   2.759  16.523 -0.5714 -0.5498 -1.4187
 4288SOL     OW24496   4.181   2.453   8.660  0.5195  0.4248  0.0077
 4288SOL    HW124497   4.118   2.441   8.588 -0.2361 -0.1987  0.7711
 4288SOL    HW224498   4.251   2.500   8.614  2.4074 -0.3400  2.1247
 4289SOL     OW24499   1.880   3.903   3.194  0.2692 -0.4051 -0.1861
 4289SOL    HW124500   1.958   3.905   3.138 -0.4902 -1.4513 -1.2807
 4289SOL    HW224501   1.826   3.830   3.164  0.5184 -0.4749 -0.4773
 4290SOL     OW24502   0.323   1.688   7.358  0.8687 -0.3668  0.4582
 4290SOL    HW124503   0.288   1.743   7.288  0.0081  0.1294  1.2882
 4290SOL    HW224504   0.300   1.730   7.440 -0.9923 -2.4453  0.9868
 4291SOL     OW24505   1.532   1.299   2.578 -0.4960 -0.2669  0.0491
 4291SOL    HW124506   1.506   1.217   2.620  1.5052 -0.4630  0.8617
 4291SOL    HW224507   1.444   1.337   2.568 -0.2621  0.4432  0.6756
 4292SOL     OW24508   0.248   1.034   1.154 -0.5859  0.3763 -0.0764
 4292SOL    HW124509   0.258   1.116   1.202  1.6204  0.0782 -0.0187
 4292SOL    HW224510   0.277   1.057   1.065 -1.1796 -0.8175 -0.5774
 4293SOL     OW24511   3.168   0.672   6.515  0.0947  0.9134 -0.7271
 4293SOL    HW124512   3.189   0.598   6.458  0.6478 -0.1516  0.8769
 4293SOL    HW224513   3.081   0.652   6.548  0.6352 -1.2272 -0.6404
 4294SOL     OW24514   3.951   1.107   2.712  0.5787  0.0729 -0.0718
 4294SOL    HW124515   3.983   1.017   2.718 -0.0666 -0.0804  1.0443
 4294SOL    HW224516   3.988   1.143   2.792 -0.7934 -0.2916  0.7158
 4295SOL     OW24517   4.434   3.174   5.942 -0.4927 -0.0461 -0.1448
 4295SOL    HW124518   4.512   3.128   5.911  0.2251 -0.4252  2.2030
 4295SOL    HW224519   4.411   3.121   6.018 -0.4785 -0.8668 -0.7110
 4296SOL     OW24520   1.689   2.903   8.140 -0.2474  0.4369 -0.3087
 4296SOL    HW124521   1.764   2.922   8.084  0.8839  0.7430  1.3338
 4296SOL    HW224522   1.709   2.960   8.214  0.2475  0.5652 -0.5396
 4297SOL     OW24523   3.253   2.497   3.340  0.1277  0.1924 -0.1120
 4297SOL    HW124524   3.249   2.405   3.313  0.9246  0.5882 -1.5729
 4297SOL    HW224525   3.180   2.525   3.396  1.0364 -0.9095  1.6250
 4298SOL     OW24526   4.015   0.693  14.557  0.2168 -0.4566  0.6744
 4298SOL    HW124527   3.960   0.762  14.519  1.6147 -0.7544 -1.8557
 4298SOL    HW224528   3.987   0.691  14.648 -0.0372 -0.6503  0.5924
 4299SOL     OW24529   0.407   4.540   4.107 -0.3320  0.3496 -0.3034
 4299SOL    HW124530   0.409   4.492   4.189  0.0706  2.2003  0.7685
 4299SOL    HW224531   0.501   4.537   4.088  0.2487 -1.2959  2.9035
 4300SOL     OW24532   3.844   3.424  10.928  0.4509  0.1798  0.0018
 4300SOL    HW124533   3.911   3.374  10.882  0.2270 -0.6066  0.5349
 4300SOL    HW224534   3.839   3.368  11.005  0.7060 -1.0142 -0.8591
 4301SOL     OW24535   2.408   0.483   2.368 -0.1059  0.4830  0.2103
 4301SOL    HW124536   2.336   0.485   2.431  0.0687  1.3859  0.3719
 4301SOL    HW224537   2.378   0.409   2.314  0.3343  0.1751  0.3869
 4302SOL     OW24538   0.594   0.606   9.404  0.1466  0.2466 -0.4007
 4302SOL    HW124539   0.607   0.663   9.328  1.2823 -2.1799 -1.9906
 4302SOL    HW224540   0.513   0.634   9.446  0.7562  1.1337  0.2011
 4303SOL     OW24541   3.963   2.343  11.213  0.4093 -0.1670  0.2420
 4303SOL    HW124542   3.943   2.264  11.263 -0.0996  0.2662  0.7141
 4303SOL    HW224543   3.982   2.411  11.277  0.1066 -0.4944  0.6786
 4304SOL     OW24544   2.516   4.598   4.924 -0.5110 -0.0977  0.4304
 4304SOL    HW124545   2.472   4.593   4.839  1.5704  0.6685 -0.7063
 4304SOL    HW224546   2.586   4.651   4.885 -1.4246  1.2524  0.6563
 4305SOL     OW24547   2.579   0.025  16.865  0.2013 -0.6515 -0.2384
 4305SOL    HW124548   2.604   0.024  16.957 -2.1748 -1.7996  0.3823
 4305SOL    HW224549   2.485   0.009  16.862 -0.1161  1.2163  0.1472
 4306SOL     OW24550   2.887   2.241   7.447 -0.3608 -0.0381 -0.0116
 4306SOL    HW124551   2.896   2.334   7.429  2.2600 -0.4201 -0.6653
 4306SOL    HW224552   2.946   2.233   7.522 -0.6193  0.8702  0.2856
 4307SOL     OW24553   0.815   3.940   4.598  0.0625  0.7037  0.4223
 4307SOL    HW124554   0.811   3.958   4.692 -3.2431  1.4262  0.1321
 4307SOL    HW224555   0.761   3.861   4.593 -0.9184  1.5111 -1.7160
 4308SOL     OW24556   0.428   4.696   0.377  0.3371  0.1084  0.0215
 4308SOL    HW124557   0.463   4.698   0.287  0.0680  1.1288 -0.0601
 4308SOL    HW224558   0.378   0.038   0.384 -1.9955 -0.9689 -4.0344
 4309SOL     OW24559   4.384   0.146  10.283  0.0098 -0.3655 -0.8826
 4309SOL    HW124560   4.318   0.090  10.243  2.3595 -2.3326 -1.9918
 4309SOL    HW224561   4.341   0.231  10.273  1.8139  0.6687 -0.0389
 4310SOL     OW24562   3.338   4.675  15.973 -0.3951 -0.0352 -0.0912
 4310SOL    HW124563   3.302   4.649  15.889 -0.3359 -1.5508  0.3436
 4310SOL    HW224564   3.431   4.681  15.951  0.1631 -0.6743  2.0317
 4311SOL     OW24565   2.869   1.968  15.373 -0.5745  0.0762 -0.6223
 4311SOL    HW124566   2.941   2.025  15.398 -2.1140  1.6317  0.2278
 4311SOL    HW224567   2.836   2.004  15.291  2.0624 -0.1815 -1.8136
 4312SOL     OW24568   2.281   2.497   2.458  0.1023 -0.1658  0.0416
 4312SOL    HW124569   2.238   2.570   2.413 -0.6276  0.9260  2.4626
 4312SOL    HW224570   2.264   2.433   2.389 -0.0804  0.1362 -0.1987
 4313SOL     OW24571   0.182   2.549   2.202 -0.1817 -0.3953 -0.3635
 4313SOL    HW124572   0.123   2.540   2.127 -0.8991  1.0102  0.0414
 4313SOL    HW224573   0.213   2.458   2.208  1.3977  0.1488 -0.1924
 4314SOL     OW24574   0.013   1.865   7.749 -0.5818  0.2063 -0.6114
 4314SOL    HW124575   4.725   1.954   7.729 -0.8544  0.4022  0.6177
 4314SOL    HW224576   0.036   1.880   7.841  0.6372 -0.5717 -0.7809
 4315SOL     OW24577   0.418   1.851   8.296  0.2558 -0.0899 -0.1988
 4315SOL    HW124578   0.500   1.889   8.328 -1.4021  2.4303  1.0802
 4315SOL    HW224579   0.424   1.873   8.203  1.1371  0.6256  0.0249
 4316SOL     OW24580   0.049   2.340   9.523 -0.0257  0.2517  0.3129
 4316SOL    HW124581   0.091   2.259   9.495 -0.5216 -0.4285  1.5343
 4316SOL    HW224582   0.095   2.407   9.472 -1.3348  0.2361 -0.9076
 4317SOL     OW24583   1.188   2.410   4.572  0.0711 -0.1760  0.3805
 4317SOL    HW124584   1.246   2.408   4.648 -0.4390  0.0981  0.7769
 4317SOL    HW224585   1.225   2.475   4.513  0.8795  0.9723  2.1385
 4318SOL     OW24586   1.245   2.903   7.531 -0.0735 -0.3994 -0.2542
 4318SOL    HW124587   1.266   2.839   7.462  2.4613  1.7121 -1.4572
 4318SOL    HW224588   1.335   2.933   7.543 -0.4338  0.1583  1.0080
 4319SOL     OW24589   4.418   3.040   7.035  0.3045  0.3685  0.6983
 4319SOL    HW124590   4.323   3.029   7.040  0.2768 -0.0946 -0.9603
 4319SOL    HW224591   4.423   3.101   6.962 -1.0044  0.7425  0.9218
 4320SOL     OW24592   1.837   2.785  15.109 -0.2163  0.3362 -0.1581
 4320SOL    HW124593   1.753   2.777  15.155  0.9803 -0.5213  1.8641
 4320SOL    HW224594   1.815   2.729  15.033 -1.7629  0.6772  0.0287
 4321SOL     OW24595   1.871   4.139  10.205  0.4546  0.0744 -0.2950
 4321SOL    HW124596   1.878   4.148  10.300  1.4485  2.1254 -0.5564
 4321SOL    HW224597   1.959   4.107  10.188  0.5367 -0.2357  0.6750
 4322SOL     OW24598   4.231   3.619   2.863  0.9415 -0.1363 -0.0843
 4322SOL    HW124599   4.215   3.581   2.777  0.8720 -2.5174  0.9891
 4322SOL    HW224600   4.253   3.707   2.831 -2.1757  1.4431  2.0734
 4323SOL     OW24601   0.402   0.646   6.151  0.3322 -0.0396 -0.8164
 4323SOL    HW124602   0.436   0.732   6.127  1.8647 -1.0115 -2.1213
 4323SOL    HW224603   0.394   0.678   6.241  0.1215 -0.0548 -0.8319
 4324SOL     OW24604   0.037   2.870   7.970  0.1485 -0.6158 -0.0250
 4324SOL    HW124605   0.043   2.964   7.955  1.4222 -0.7287 -0.2296
 4324SOL    HW224606   4.684   2.863   7.991 -0.4212  0.3856 -2.2439
 4325SOL     OW24607   0.038   4.652   9.852  0.2010  0.6459 -0.3724
 4325SOL    HW124608   4.682   4.644   9.854  0.2372 -0.3698 -2.3399
 4325SOL    HW224609   0.051   4.737   9.892 -2.8015  1.0883 -0.3143
 4326SOL     OW24610   3.434   4.449   5.405  0.2634  0.6250  0.5286
 4326SOL    HW124611   3.523   4.422   5.426 -0.2758  1.2501  3.5517
 4326SOL    HW224612   3.395   4.453   5.492 -1.8361 -2.5437 -0.2934
 4327SOL     OW24613   1.821   1.973  11.303 -0.1415 -0.5051 -0.4645
 4327SOL    HW124614   1.790   2.051  11.349  0.2889  0.2179 -1.3972
 4327SOL    HW224615   1.796   1.901  11.361  1.0838  1.9833  3.1404
 4328SOL     OW24616   3.261   3.479   8.406 -0.2552 -0.0059  0.2310
 4328SOL    HW124617   3.186   3.420   8.404  0.1614 -0.5395  0.4464
 4328SOL    HW224618   3.279   3.497   8.314 -0.7099 -0.7390  0.0012
 4329SOL     OW24619   1.711   2.387   7.211 -0.8565  0.2221 -0.0497
 4329SOL    HW124620   1.761   2.466   7.232  1.5050 -0.7840 -1.8362
 4329SOL    HW224621   1.789   2.336   7.186 -1.0399 -1.3159  2.4971
 4330SOL     OW24622   0.029   0.112  15.148  0.0869 -0.1460  0.5083
 4330SOL    HW124623   0.075   0.173  15.091 -1.6017 -1.2131 -2.0022
 4330SOL    HW224624   4.698   0.169  15.179  1.6062  2.1958 -0.3090
 4331SOL     OW24625   0.539   0.145   7.678 -0.2500  0.1752 -0.0861
 4331SOL    HW124626   0.455   0.100   7.687  0.5181 -1.2319  0.0361
 4331SOL    HW224627   0.526   0.239   7.692  1.6768  0.6800 -1.6800
 4332SOL     OW24628   4.227   4.593   3.726  0.1287 -0.1069 -0.2755
 4332SOL    HW124629   4.321   4.612   3.730  0.5443 -1.9854 -0.7231
 4332SOL    HW224630   4.205   4.625   3.639 -1.5408 -0.1992  0.1204
 4333SOL     OW24631   1.598   3.793   3.933  0.4627 -0.6546 -0.1182
 4333SOL    HW124632   1.568   3.715   3.980 -1.2754  0.7715  1.1298
 4333SOL    HW224633   1.607   3.770   3.841 -1.1547  0.0075 -0.4268
 4334SOL     OW24634   0.156   3.710   2.673 -0.1129 -0.0887 -0.2592
 4334SOL    HW124635   0.147   3.653   2.749  0.2191  1.3944  0.8940
 4334SOL    HW224636   0.235   3.762   2.687 -1.9972  2.2098  1.9519
 4335SOL     OW24637   0.741   3.705   7.282 -0.1297  0.1642  0.3195
 4335SOL    HW124638   0.810   3.648   7.248  1.1790  0.5274  2.3908
 4335SOL    HW224639   0.691   3.644   7.336  1.2429 -0.0720  1.3106
 4336SOL     OW24640   3.781   2.277   9.446 -0.0668 -0.0852 -0.5651
 4336SOL    HW124641   3.700   2.229   9.464  0.9768 -0.8200  2.2557
 4336SOL    HW224642   3.747   2.343   9.386  0.0107  1.4992  1.1400
 4337SOL     OW24643   2.129   4.305   7.255 -0.1349 -0.1386  0.2153
 4337SOL    HW124644   2.159   4.294   7.346  1.5587  1.2452 -0.1746
 4337SOL    HW224645   2.209   4.312   7.203  1.9152 -0.4014  3.2940
 4338SOL     OW24646   2.897   4.681   7.835  0.0068 -0.2836 -0.7058
 4338SOL    HW124647   2.980   4.681   7.786  0.2729 -2.9223 -0.2583
 4338SOL    HW224648   2.921   4.739   7.907 -2.1268 -0.1524 -0.1215
 4339SOL     OW24649   0.724   1.649   7.907  0.2396  0.0953  0.1312
 4339SOL    HW124650   0.633   1.680   7.912 -0.2524 -1.0136 -2.0998
 4339SOL    HW224651   0.707   1.573   7.851  0.5172  0.2242 -0.1226
 4340SOL     OW24652   4.206   0.246   3.950  0.4529  0.2490 -0.0390
 4340SOL    HW124653   4.285   0.300   3.957 -0.5447  1.6569  0.1589
 4340SOL    HW224654   4.147   0.279   3.882 -0.2705 -1.9458 -0.4703
 4341SOL     OW24655   4.142   4.257  11.763  0.4585  0.7612  0.4113
 4341SOL    HW124656   4.159   4.282  11.672  1.4338 -0.7087  0.1817
 4341SOL    HW224657   4.225   4.218  11.790 -0.6750 -2.8566 -1.3215
 4342SOL     OW24658   3.113   4.723   4.263 -0.3666  0.8890  0.4487
 4342SOL    HW124659   3.204   4.734   4.236 -0.6023 -1.4044 -1.2903
 4342SOL    HW224660   3.113   4.627   4.272 -0.4863  0.8482 -0.0089
 4343SOL     OW24661   3.010   2.247  12.306  0.2819  0.5552 -0.1620
 4343SOL    HW124662   3.029   2.179  12.241  2.0032 -0.4527  1.3929
 4343SOL    HW224663   2.975   2.193  12.377 -2.5109  3.2648  0.5140
 4344SOL     OW24664   4.598   2.893   5.259  0.4007  0.1579  0.4510
 4344SOL    HW124665   4.587   2.798   5.262  1.4165 -0.0195 -2.0553
 4344SOL    HW224666   4.528   2.924   5.317  0.5407 -0.3254  0.8771
 4345SOL     OW24667   3.725   4.417   6.221 -0.3344 -0.5112  0.0729
 4345SOL    HW124668   3.676   4.361   6.281 -0.2994 -1.3185 -0.6512
 4345SOL    HW224669   3.784   4.466   6.279  1.1714 -0.5335 -1.4356
 4346SOL     OW24670   3.008   1.012   3.273  0.3434 -0.0398  0.1066
 4346SOL    HW124671   2.930   1.065   3.259  0.6406 -0.0715 -1.7232
 4346SOL    HW224672   3.033   0.995   3.182 -0.1389  1.3745 -0.3009
 4347SOL     OW24673   4.141   3.140   5.357  0.6042  0.4465 -0.2350
 4347SOL    HW124674   4.070   3.159   5.419 -2.1395 -0.3516 -3.1345
 4347SOL    HW224675   4.196   3.218   5.364 -1.0886  1.6572 -0.4497
 4348SOL     OW24676   1.186   1.258   3.560 -0.4202  0.3057 -0.4788
 4348SOL    HW124677   1.223   1.173   3.582 -0.1907  0.6980  0.6233
 4348SOL    HW224678   1.180   1.245   3.465 -0.7353 -1.0976 -0.2689
 4349SOL     OW24679   2.830   2.473   5.514 -0.6504  0.2231  0.1257
 4349SOL    HW124680   2.802   2.389   5.552  0.0536  0.2743  0.7505
 4349SOL    HW224681   2.925   2.476   5.510 -0.6706  0.5293 -0.1049
 4350SOL     OW24682   0.174   3.467  10.181  0.4352  0.0793 -0.2429
 4350SOL    HW124683   0.177   3.434  10.092  2.8724  0.1103 -0.1814
 4350SOL    HW224684   0.190   3.559  10.159  1.0798 -0.2907 -1.3101
 4351SOL     OW24685   0.116   0.690   1.915 -0.2600 -0.4483 -0.6036
 4351SOL    HW124686   0.121   0.757   1.846 -1.4765 -1.1091 -1.3162
 4351SOL    HW224687   0.026   0.660   1.906 -1.1749  2.1435 -0.0793
 4352SOL     OW24688   0.557   2.298   2.912  0.3189 -0.1093 -0.0585
 4352SOL    HW124689   0.512   2.321   2.830  1.3498  1.9320 -0.0584
 4352SOL    HW224690   0.590   2.384   2.938  1.5935 -0.6955  0.2357
 4353SOL     OW24691   4.557   3.648   9.548 -0.1370 -0.1758  0.6871
 4353SOL    HW124692   4.520   3.731   9.519  2.9381  1.3024  0.9718
 4353SOL    HW224693   4.475   3.615   9.585 -1.3352  0.5061 -1.3968
 4354SOL     OW24694   3.989   4.720   7.869  0.2611  0.2948 -0.0021
 4354SOL    HW124695   4.020   4.716   7.778  1.6799 -2.1033  0.5645
 4354SOL    HW224696   4.078   4.720   7.905 -0.1922  1.1230  1.1155
 4355SOL     OW24697   4.558   1.712   9.906 -0.1409 -0.3065  0.0884
 4355SOL    HW124698   4.467   1.684   9.895  0.4205 -1.5244 -1.5684
 4355SOL    HW224699   4.552   1.749   9.994 -1.9804 -0.8434  0.1880
 4356SOL     OW24700   1.851   1.173   2.182 -0.0169  0.2209 -0.3992
 4356SOL    HW124701   1.893   1.138   2.260 -0.4590 -2.2346 -1.2753
 4356SOL    HW224702   1.895   1.257   2.191  0.9947 -0.3355 -0.1889
 4357SOL     OW24703   2.986   2.717   2.001 -0.5705 -0.1684 -0.1303
 4357SOL    HW124704   2.891   2.717   1.986 -0.1546  1.0856 -2.7468
 4357SOL    HW224705   2.999   2.625   2.027 -1.0015 -0.0168  0.6396
 4358SOL     OW24706   2.034   1.662   2.107  0.3093  0.0577  0.0941
 4358SOL    HW124707   1.943   1.687   2.094  0.8283  1.4788 -0.7637
 4358SOL    HW224708   2.083   1.720   2.049  0.5689  0.3682  0.6125
 4359SOL     OW24709   4.573   4.132   8.850  0.0139 -0.0601  0.0546
 4359SOL    HW124710   4.524   4.054   8.824  2.1237 -1.4947  0.4555
 4359SOL    HW224711   4.638   4.121   8.781 -1.3245  0.0304 -1.2366
 4360SOL     OW24712   1.456   3.811  10.002  0.1574 -0.0881 -0.1974
 4360SOL    HW124713   1.414   3.892  10.031 -1.2753 -2.3242  4.1248
 4360SOL    HW224714   1.520   3.839   9.938 -0.9609  0.1893 -1.1890
 4361SOL     OW24715   0.663   0.871   5.639  0.4590 -0.1719  0.2454
 4361SOL    HW124716   0.671   0.955   5.683  1.0297 -0.4051  0.5935
 4361SOL    HW224717   0.708   0.885   5.556 -0.5374  1.6204  0.0074
 4362SOL     OW24718   0.498   3.836   7.036  0.3489 -0.3914  0.1351
 4362SOL    HW124719   0.469   3.882   6.957  1.1555 -0.0334  0.0544
 4362SOL    HW224720   0.592   3.851   7.037  0.3576 -0.5805  2.3312
 4363SOL     OW24721   2.395   1.933   1.889  0.5922  0.2870  0.1638
 4363SOL    HW124722   2.338   2.002   1.854  1.6048 -0.8059 -3.7093
 4363SOL    HW224723   2.327   1.870   1.911  3.5026 -2.0194  2.5688
 4364SOL     OW24724   3.266   3.423  10.040 -0.2660 -0.7272 -0.1617
 4364SOL    HW124725   3.279   3.334  10.072  2.1126  0.9154  3.4141
 4364SOL    HW224726   3.357   3.451  10.046  0.4127 -2.9935  0.1907
 4365SOL     OW24727   0.117   0.133   5.548  0.7191 -0.3096 -0.3142
 4365SOL    HW124728   0.172   0.055   5.556  0.5156 -0.3654  0.4850
 4365SOL    HW224729   0.178   0.204   5.570 -1.0331  0.3738  2.2553
 4366SOL     OW24730   0.813   0.898   5.404  0.3961  0.0305 -0.4198
 4366SOL    HW124731   0.839   0.840   5.332  0.0942 -0.3630 -0.2170
 4366SOL    HW224732   0.898   0.911   5.445  2.2191 -1.7931 -3.5938
 4367SOL     OW24733   2.449   1.487   3.243 -0.5930 -0.4420 -0.2338
 4367SOL    HW124734   2.427   1.579   3.234 -0.3443 -0.7248 -3.6082
 4367SOL    HW224735   2.540   1.486   3.213 -0.2394  0.1702  0.8184
 4368SOL     OW24736   3.919   4.544  13.182 -0.3525  0.8188 -0.4007
 4368SOL    HW124737   3.926   4.550  13.087  1.4480  0.4307 -0.2905
 4368SOL    HW224738   3.884   4.633  13.186 -0.4790  0.7764 -0.5842
 4369SOL     OW24739   4.085   3.413   1.844  0.1703 -0.0620  0.3363
 4369SOL    HW124740   4.039   3.334   1.873  0.0156 -0.1874 -0.2461
 4369SOL    HW224741   4.124   3.371   1.768  1.5579  1.6264  0.1101
 4370SOL     OW24742   1.784   3.237   3.409  0.0462  0.2551  0.0720
 4370SOL    HW124743   1.792   3.216   3.502  1.3042 -2.7198 -0.7197
 4370SOL    HW224744   1.714   3.177   3.385 -0.5444  1.2034 -0.5241
 4371SOL     OW24745   4.065   0.657  13.135 -0.3181  0.4321  0.5254
 4371SOL    HW124746   4.074   0.707  13.216  0.3787 -3.7875  3.0554
 4371SOL    HW224747   4.084   0.723  13.068 -0.1588 -2.6023 -2.4350
 4372SOL     OW24748   3.298   2.571   8.451 -0.0915  0.5878 -0.1218
 4372SOL    HW124749   3.390   2.591   8.463  0.2880 -2.1485  1.6178
 4372SOL    HW224750   3.291   2.556   8.357  2.1588  0.7777 -0.3085
 4373SOL     OW24751   4.406   0.776  16.162 -0.0987 -0.3123 -0.0143
 4373SOL    HW124752   4.422   0.794  16.069  2.4928  0.9217  0.6573
 4373SOL    HW224753   4.325   0.726  16.151  0.6096 -1.0851 -1.6528
 4374SOL     OW24754   3.052   1.081   2.138  0.0345 -0.3229 -0.5368
 4374SOL    HW124755   2.980   1.059   2.078 -1.3535  1.5889  0.4311
 4374SOL    HW224756   3.124   1.066   2.076  1.2511  0.0719  0.7853
 4375SOL     OW24757   3.472   4.660   4.427  0.4566 -0.0458  0.1134
 4375SOL    HW124758   3.554   4.640   4.473  0.1784 -0.0976  0.5778
 4375SOL    HW224759   3.427   4.576   4.434  0.4415  0.1690  2.3794
 4376SOL     OW24760   4.064   3.214   6.643  0.2768  0.6851  0.3303
 4376SOL    HW124761   4.052   3.119   6.651  2.1261  0.2789 -1.7084
 4376SOL    HW224762   4.144   3.229   6.693 -1.0275 -1.2469  3.0342
 4377SOL     OW24763   2.253   3.389   3.131 -0.3481  0.8658 -0.4645
 4377SOL    HW124764   2.215   3.319   3.079  1.7719  1.1590 -2.4057
 4377SOL    HW224765   2.280   3.338   3.208 -1.1965  2.0735  0.6416
 4378SOL     OW24766   0.525   4.217  13.047 -0.6443 -0.1623 -0.0879
 4378SOL    HW124767   0.454   4.165  13.085 -1.0676 -0.7980 -1.7222
 4378SOL    HW224768   0.570   4.156  12.988 -0.3863 -0.5555  0.5181
 4379SOL     OW24769   4.501   3.608   6.631  0.0721 -0.1793  0.0861
 4379SOL    HW124770   4.412   3.574   6.638 -0.5500  1.3675 -0.4531
 4379SOL    HW224771   4.530   3.563   6.551 -2.5691  1.4512 -1.7810
 4380SOL     OW24772   4.463   3.525   2.683 -0.2798 -0.4078  0.0377
 4380SOL    HW124773   4.533   3.520   2.618  0.2705 -2.2033  0.7550
 4380SOL    HW224774   4.514   3.532   2.764  1.1843  1.5777 -1.0702
 4381SOL     OW24775   4.361   2.764   3.296  0.6552  0.2819 -0.4149
 4381SOL    HW124776   4.288   2.717   3.337  0.1418  2.8950  1.7355
 4381SOL    HW224777   4.435   2.704   3.305  1.0100  0.8915  0.6882
 4382SOL     OW24778   1.648   1.538   6.340  0.9026 -0.7712 -0.0065
 4382SOL    HW124779   1.586   1.482   6.386 -1.2967  2.8030  1.4488
 4382SOL    HW224780   1.681   1.595   6.410  1.2111 -0.8876 -0.0560
 4383SOL     OW24781   3.132   3.134   4.967  0.0839  0.2231  0.1158
 4383SOL    HW124782   3.058   3.103   4.914  0.8593  0.4439 -1.0907
 4383SOL    HW224783   3.205   3.093   4.922  0.1765 -1.3860  1.7249
 4384SOL     OW24784   4.157   4.093   6.665  0.4687  0.3427 -0.3486
 4384SOL    HW124785   4.205   4.060   6.740 -1.9487  1.9842  1.9232
 4384SOL    HW224786   4.082   4.140   6.701  1.3707  0.1508  1.7422
 4385SOL     OW24787   1.681   3.573   9.170  0.1331 -0.0584 -0.3778
 4385SOL    HW124788   1.687   3.658   9.213  1.1868 -0.0823 -0.4866
 4385SOL    HW224789   1.766   3.558   9.129  1.0811  1.5110  1.0342
 4386SOL     OW24790   1.171   2.318   6.611 -0.1574  0.1923  0.6085
 4386SOL    HW124791   1.240   2.374   6.576 -0.9043  0.6197 -0.1779
 4386SOL    HW224792   1.214   2.243   6.653  0.0920 -0.3817 -0.6718
 4387SOL     OW24793   2.196   3.421   1.368 -0.0636  0.0461  0.0650
 4387SOL    HW124794   2.225   3.342   1.324 -0.0263 -1.0049  1.9817
 4387SOL    HW224795   2.273   3.476   1.359  0.0196  0.1674  1.5031
 4388SOL     OW24796   4.670   2.062   1.701  0.5470 -0.3011  0.3509
 4388SOL    HW124797   4.726   2.139   1.696  2.1737 -1.3694  1.7810
 4388SOL    HW224798   4.729   1.995   1.736  1.8257  0.9302  0.5734
 4389SOL     OW24799   0.154   0.844   7.433  0.6578 -0.3863  0.6089
 4389SOL    HW124800   0.060   0.851   7.418  1.0004  2.4367 -0.2452
 4389SOL    HW224801   0.187   0.771   7.380 -1.6196 -0.4998 -0.6440
 4390SOL     OW24802   2.783   1.683   2.649  0.4293  0.1871 -0.6830
 4390SOL    HW124803   2.827   1.768   2.654  1.5222 -0.5408  1.9735
 4390SOL    HW224804   2.860   1.627   2.658 -0.1230 -0.4250  0.1383
 4391SOL     OW24805   2.060   4.014   0.681  0.4373  0.4442  0.1655
 4391SOL    HW124806   2.056   4.097   0.633 -0.1029  0.2657 -0.1008
 4391SOL    HW224807   2.055   4.028   0.775 -0.1275 -0.4398  0.2676
 4392SOL     OW24808   1.241   4.065  13.634 -0.1273  0.0638  0.1456
 4392SOL    HW124809   1.275   4.086  13.547 -0.1824  1.1405  0.3910
 4392SOL    HW224810   1.162   4.015  13.612 -0.1863  0.4000 -0.3930
 4393SOL     OW24811   0.900   0.103   4.670  0.1841 -0.2512  0.0523
 4393SOL    HW124812   0.859   0.023   4.638 -1.1974  0.5141 -0.1179
 4393SOL    HW224813   0.846   0.170   4.627  0.5864  1.3974  2.1573
 4394SOL     OW24814   2.853   4.256   9.094  0.0960  0.1349 -0.2373
 4394SOL    HW124815   2.913   4.316   9.137 -0.8266 -0.2508  1.5719
 4394SOL    HW224816   2.876   4.175   9.139  0.3209 -0.1431 -0.8384
 4395SOL     OW24817   1.504   3.330   6.456 -0.3394 -0.0933 -0.4008
 4395SOL    HW124818   1.431   3.268   6.446  0.2060 -0.6836 -0.6872
 4395SOL    HW224819   1.574   3.266   6.466  1.2195  1.2451 -2.8702
 4396SOL     OW24820   1.426   0.026   9.674  0.1555  0.0448  0.4083
 4396SOL    HW124821   1.370   4.699   9.715 -1.2463  1.0731  0.1575
 4396SOL    HW224822   1.444   0.088   9.745 -0.0840 -0.8672  1.2627
 4397SOL     OW24823   4.466   0.338   4.560 -0.3373  0.2417 -0.2488
 4397SOL    HW124824   4.480   0.431   4.578  2.4591 -0.0401 -1.0867
 4397SOL    HW224825   4.540   0.322   4.502 -0.8433 -2.1786 -0.2377
 4398SOL     OW24826   4.198   1.945   5.832 -0.1151  0.4103  0.2096
 4398SOL    HW124827   4.176   1.859   5.868 -1.2887  1.0994  1.1405
 4398SOL    HW224828   4.223   1.992   5.911 -1.8661 -1.0667  1.6617
 4399SOL     OW24829   0.587   3.904  11.512  0.1047 -0.3739  0.2906
 4399SOL    HW124830   0.570   3.828  11.455 -2.4715  0.6696 -0.3492
 4399SOL    HW224831   0.502   3.943  11.533  0.0251 -1.7078  2.5012
 4400SOL     OW24832   0.783   1.895   9.625  0.0967 -0.1102 -0.9437
 4400SOL    HW124833   0.743   1.981   9.638 -1.2864 -0.9167  0.0687
 4400SOL    HW224834   0.713   1.848   9.669  0.0117  1.9700  1.1757
 4401SOL     OW24835   1.175   2.892   4.193  0.6625  0.1675 -0.3786
 4401SOL    HW124836   1.236   2.886   4.266 -0.1804  1.3186  0.4252
 4401SOL    HW224837   1.225   2.945   4.132 -0.0683 -1.6843 -2.5739
 4402SOL     OW24838   1.938   1.051   9.349 -0.5170  0.0315 -0.0414
 4402SOL    HW124839   1.966   0.959   9.357  1.7315  0.6298 -0.8659
 4402SOL    HW224840   1.910   1.053   9.257 -0.2546 -1.0644 -0.1548
 4403SOL     OW24841   0.349   1.830   6.233 -0.4644  0.6176  0.1766
 4403SOL    HW124842   0.319   1.913   6.271 -0.2806  1.2368 -1.0094
 4403SOL    HW224843   0.443   1.843   6.241 -0.6891  2.2457  0.1315
 4404SOL     OW24844   4.726   2.533   7.917  0.5298 -0.2048  0.2811
 4404SOL    HW124845   0.021   2.622   7.920 -1.4748  0.5897 -0.3354
 4404SOL    HW224846   0.070   2.485   7.907 -0.3452 -1.7801  0.5206
 4405SOL     OW24847   1.963   2.566   8.341 -0.4113  0.4044  0.1275
 4405SOL    HW124848   1.982   2.532   8.254  1.4224 -1.2720  1.1719
 4405SOL    HW224849   2.023   2.639   8.358 -0.8600  1.2728 -2.0990
 4406SOL     OW24850   1.210   1.739   9.132 -0.2941  0.3724  0.0673
 4406SOL    HW124851   1.173   1.811   9.182 -1.7481  1.1570 -2.1200
 4406SOL    HW224852   1.144   1.669   9.142  1.4250 -1.9290 -4.7247
 4407SOL     OW24853   2.820   3.498   2.314 -0.4163  0.0826  0.5814
 4407SOL    HW124854   2.761   3.557   2.362 -3.1185 -1.2011 -1.1876
 4407SOL    HW224855   2.898   3.553   2.311 -1.5525  1.5479 -2.0801
 4408SOL     OW24856   4.277   3.611   4.555  0.3038 -0.1015 -0.0424
 4408SOL    HW124857   4.243   3.590   4.642  2.6366 -0.4088  0.8016
 4408SOL    HW224858   4.357   3.560   4.570  1.0407  1.0519 -0.0076
 4409SOL     OW24859   0.968   0.616   6.380  0.0919  0.1653  0.0408
 4409SOL    HW124860   0.912   0.682   6.338 -0.9356 -1.0404 -0.5003
 4409SOL    HW224861   0.946   0.546   6.318  0.9185 -0.1432  0.1042
 4410SOL     OW24862   3.298   1.573   8.777  0.0329  0.0054  0.1342
 4410SOL    HW124863   3.386   1.539   8.792 -0.5154 -1.4777  0.0377
 4410SOL    HW224864   3.289   1.628   8.855  3.1718  0.9100 -0.1340
 4411SOL     OW24865   2.229   1.588   2.604  0.0426 -0.6523 -0.1505
 4411SOL    HW124866   2.222   1.654   2.673 -1.6299 -0.3460 -0.6109
 4411SOL    HW224867   2.238   1.649   2.530  0.9144 -1.0865 -0.4007
 4412SOL     OW24868   2.290   1.075  13.641 -0.2886  0.1920  0.1804
 4412SOL    HW124869   2.328   1.131  13.708 -2.4172 -0.1851  1.6781
 4412SOL    HW224870   2.283   0.993  13.690 -1.5605  0.1963 -0.0030
 4413SOL     OW24871   2.664   2.847  13.374  0.4338  0.0064  0.4267
 4413SOL    HW124872   2.682   2.907  13.302  0.6220 -2.2722 -1.4219
 4413SOL    HW224873   2.592   2.791  13.343  0.5263  0.1639 -0.0726
 4414SOL     OW24874   2.025   1.968   6.121  0.3675 -0.6157  0.3709
 4414SOL    HW124875   1.979   1.905   6.175  0.2568  0.3117  1.3484
 4414SOL    HW224876   2.117   1.943   6.131  0.6898  0.0037 -1.0403
 4415SOL     OW24877   1.041   1.504   0.194 -0.1294  0.7780  0.4182
 4415SOL    HW124878   1.065   1.430   0.138 -1.0373  1.3716 -0.7351
 4415SOL    HW224879   0.999   1.560   0.129  2.3984 -1.2601 -2.9642
 4416SOL     OW24880   3.220   2.803   1.584 -0.2590  0.4190 -0.0293
 4416SOL    HW124881   3.231   2.819   1.678 -1.0585 -0.6062  0.2404
 4416SOL    HW224882   3.288   2.852   1.537  1.7137 -1.5397  0.7801
 4417SOL     OW24883   0.213   3.706   3.698 -0.5245  0.6268  0.6389
 4417SOL    HW124884   0.299   3.744   3.680 -1.2816  2.3511  0.6619
 4417SOL    HW224885   0.155   3.775   3.666 -1.5307  0.3527  1.8603
 4418SOL     OW24886   3.151   2.262   8.150  0.0020  0.0532 -0.3172
 4418SOL    HW124887   3.090   2.197   8.115  0.8450 -0.4404 -0.8975
 4418SOL    HW224888   3.090   2.335   8.158  2.0724  1.7029  0.6585
 4419SOL     OW24889   1.221   2.440   5.305  0.3818  0.5726  0.4044
 4419SOL    HW124890   1.191   2.434   5.395 -0.0971  2.1797  0.3478
 4419SOL    HW224891   1.276   2.517   5.316  2.1862 -0.4284 -1.4885
 4420SOL     OW24892   1.949   3.884   8.596 -0.5392  0.3417 -0.4879
 4420SOL    HW124893   2.024   3.838   8.634  1.0965  2.0766 -1.5807
 4420SOL    HW224894   1.886   3.886   8.668  0.8348  0.1965  0.7202
 4421SOL     OW24895   2.083   2.433   2.657 -0.0423  0.1936  0.2417
 4421SOL    HW124896   2.150   2.434   2.589 -1.9667 -1.0949 -1.6553
 4421SOL    HW224897   2.021   2.487   2.608  0.3573  0.2498 -0.2067
 4422SOL     OW24898   2.201   2.988   1.753  0.0497 -0.2801  0.1791
 4422SOL    HW124899   2.136   2.928   1.789 -1.4949  1.3232  0.0848
 4422SOL    HW224900   2.270   2.925   1.732 -0.3459 -0.0068 -2.0071
 4423SOL     OW24901   4.406   2.650  11.434 -0.4067 -0.1568 -0.2873
 4423SOL    HW124902   4.406   2.685  11.346 -0.5668  3.2092  1.0666
 4423SOL    HW224903   4.330   2.696  11.471 -0.3348  1.3482 -2.0639
 4424SOL     OW24904   1.158   2.003  10.062  0.1782  0.5705  0.6416
 4424SOL    HW124905   1.199   2.021   9.978  0.5642 -3.2458  0.0025
 4424SOL    HW224906   1.135   1.910  10.060 -1.3473  0.9961 -1.6580
 4425SOL     OW24907   1.455   2.874   9.941  0.3775  0.2749 -0.2919
 4425SOL    HW124908   1.363   2.865   9.917  0.7096 -0.9028 -1.1422
 4425SOL    HW224909   1.461   2.830  10.026 -0.6291 -0.4304 -0.5808
 4426SOL     OW24910   3.002   1.328   3.577 -0.2063  0.2825 -0.3139
 4426SOL    HW124911   2.923   1.274   3.587 -1.6444  2.2686 -0.8154
 4426SOL    HW224912   3.062   1.256   3.594  0.3421  0.7146 -0.4400
 4427SOL     OW24913   1.844   1.425   3.908  0.4860  0.2234  0.0114
 4427SOL    HW124914   1.776   1.485   3.938 -0.7062 -1.2571  0.2330
 4427SOL    HW224915   1.824   1.410   3.815 -1.2777  0.1651  0.4004
 4428SOL     OW24916   2.840   0.017   6.672  0.0267 -0.5086  0.1434
 4428SOL    HW124917   2.917   0.039   6.621 -0.3218 -1.1499 -0.6694
 4428SOL    HW224918   2.805   4.694   6.608 -2.3178  0.3900  0.5581
 4429SOL     OW24919   2.949   4.045   7.221  0.3660 -0.4562  0.4163
 4429SOL    HW124920   2.937   4.124   7.169  1.9383  0.3861  1.3410
 4429SOL    HW224921   3.025   4.010   7.175  1.2250  0.8604  0.8436
 4430SOL     OW24922   3.985   4.663   6.785  0.2645 -0.5915  0.1149
 4430SOL    HW124923   4.035   4.683   6.706  0.3715 -0.5475  0.1939
 4430SOL    HW224924   4.023   4.730   6.841  1.4279 -0.6619 -0.5824
 4431SOL     OW24925   2.403   1.624   4.527 -0.0026 -0.3503 -0.2175
 4431SOL    HW124926   2.431   1.537   4.497 -0.6149 -0.1032 -1.4879
 4431SOL    HW224927   2.489   1.662   4.545  0.6441 -2.1519  0.5271
 4432SOL     OW24928   4.259   2.973  16.164 -0.8143  0.4237 -0.0704
 4432SOL    HW124929   4.346   2.997  16.198 -1.6805 -0.3573  2.7401
 4432SOL    HW224930   4.267   3.004  16.074 -4.3494 -0.5508 -0.7257
 4433SOL     OW24931   4.371   1.249  11.110 -0.7272  0.2160 -0.4478
 4433SOL    HW124932   4.313   1.207  11.173  0.5153  2.0391  1.8935
 4433SOL    HW224933   4.342   1.213  11.026 -0.0813 -0.0853 -0.5412
 4434SOL     OW24934   1.071   0.366  16.176  0.0861  0.0925  0.4344
 4434SOL    HW124935   1.014   0.429  16.130 -0.6249  0.1703  1.4275
 4434SOL    HW224936   1.072   0.400  16.265 -1.8310  0.5264  0.2880
 4435SOL     OW24937   1.169   4.681   2.304 -0.8931 -0.0646 -0.3182
 4435SOL    HW124938   1.215   4.711   2.225  0.5008 -0.5889  0.2994
 4435SOL    HW224939   1.238   4.649   2.363 -2.4322 -3.0355 -0.0991
 4436SOL     OW24940   3.707   3.397   7.008  0.0471 -0.0631  0.8185
 4436SOL    HW124941   3.719   3.303   7.019 -0.9745 -0.2875  0.0689
 4436SOL    HW224942   3.789   3.413   6.961 -2.1773  2.3108 -2.2839
 4437SOL     OW24943   4.112   1.200   2.015  0.1328  0.6798  0.0325
 4437SOL    HW124944   4.077   1.285   1.988 -0.7200 -0.2012 -1.6924
 4437SOL    HW224945   4.062   1.178   2.093  0.6627 -0.3417  0.0953
 4438SOL     OW24946   4.173   3.124   7.133 -0.0454  0.6620 -0.2651
 4438SOL    HW124947   4.194   3.171   7.214 -1.5139  0.5824  0.1565
 4438SOL    HW224948   4.108   3.183   7.094  0.5553  1.2523 -0.3744
 4439SOL     OW24949   1.684   1.482   7.949 -0.3328  0.4060 -0.1780
 4439SOL    HW124950   1.594   1.514   7.957  0.4582  2.8793 -1.2041
 4439SOL    HW224951   1.707   1.453   8.038 -1.1737 -0.9107 -0.3954
 4440SOL     OW24952   3.694   2.202   6.802 -0.2860 -0.2051  0.4252
 4440SOL    HW124953   3.781   2.213   6.842  0.1759  1.6739 -1.0634
 4440SOL    HW224954   3.696   2.106   6.801 -1.0985 -0.2146 -1.0234
 4441SOL     OW24955   0.820   0.301  17.704  0.4519  0.0646  0.3711
 4441SOL    HW124956   0.808   0.338   0.036 -0.1057  0.8334 -0.0193
 4441SOL    HW224957   0.878   0.226  17.714  2.4995  1.6296  0.3177
 4442SOL     OW24958   3.273   1.414   5.131  0.1873 -0.4144  0.0666
 4442SOL    HW124959   3.350   1.466   5.152 -0.7663  1.6693 -1.6025
 4442SOL    HW224960   3.236   1.389   5.216 -1.9260 -1.9280 -1.2939
 4443SOL     OW24961   3.223   3.277   0.332  0.4395  0.6693 -0.3104
 4443SOL    HW124962   3.195   3.343   0.268 -0.1561  0.6608 -0.0573
 4443SOL    HW224963   3.296   3.327   0.368  0.8964  0.6845 -1.2591
 4444SOL     OW24964   1.095   4.565   4.697 -0.6533 -0.2007  0.3944
 4444SOL    HW124965   1.138   4.516   4.627  1.7108  1.0576  0.9945
 4444SOL    HW224966   1.116   4.657   4.685 -0.0446 -0.3096  0.6264
 4445SOL     OW24967   0.659   2.275   4.816  0.2189  0.1000  0.1659
 4445SOL    HW124968   0.671   2.292   4.723 -2.1867 -0.7219 -0.3007
 4445SOL    HW224969   0.659   2.179   4.819  2.1223  0.0751 -0.8045
 4446SOL     OW24970   0.319   2.595   5.629 -0.0298 -0.0066  0.3798
 4446SOL    HW124971   0.406   2.581   5.590 -1.3607  0.3672 -2.7651
 4446SOL    HW224972   0.334   2.689   5.640  1.8672 -0.0948 -1.2363
 4447SOL     OW24973   1.521   2.403   9.087 -0.2936  0.1161 -0.4476
 4447SOL    HW124974   1.529   2.399   8.992  0.7732  0.0536 -0.3565
 4447SOL    HW224975   1.442   2.353   9.107 -0.9639  0.6467 -1.7662
 4448SOL     OW24976   2.744   4.658   1.543 -0.5431 -0.2600  0.1322
 4448SOL    HW124977   2.812   4.606   1.500 -1.3483 -2.0059  0.9766
 4448SOL    HW224978   2.687   4.592   1.582 -1.8180 -0.0905 -1.4411
 4449SOL     OW24979   4.665   0.426  14.211 -0.0442  0.0372  0.3607
 4449SOL    HW124980   4.634   0.353  14.157 -2.0089  0.3684  1.0364
 4449SOL    HW224981   4.597   0.453  14.272 -2.0089  1.6046 -2.5227
 4450SOL     OW24982   2.025   4.559   3.714  0.0115 -0.6420  0.2405
 4450SOL    HW124983   2.068   4.593   3.635  1.0605 -0.7968  0.7359
 4450SOL    HW224984   2.034   4.636   3.771 -3.5102  0.3830 -0.6191
 4451SOL     OW24985   2.863   2.413   4.097  0.0243  0.2528  0.0240
 4451SOL    HW124986   2.780   2.450   4.129 -0.5049  0.6955 -1.8380
 4451SOL    HW224987   2.861   2.435   4.004 -1.8828 -0.1980 -0.0575
 4452SOL     OW24988   4.262   3.619   9.039  0.0124  0.0424  0.5572
 4452SOL    HW124989   4.343   3.634   9.088  0.8887  0.4103 -1.0172
 4452SOL    HW224990   4.251   3.525   9.055 -2.1297  0.5448  2.0356
 4453SOL     OW24991   3.697   0.927   8.855  0.5797  0.2251 -0.3285
 4453SOL    HW124992   3.787   0.894   8.853 -0.0302 -1.5596  2.4856
 4453SOL    HW224993   3.649   0.846   8.868 -1.2334  1.5632  1.3152
 4454SOL     OW24994   0.334   3.943  16.748  0.1079 -0.3956  0.1050
 4454SOL    HW124995   0.366   3.860  16.714 -1.5360 -0.7428 -0.5975
 4454SOL    HW224996   0.244   3.924  16.723 -0.4847  2.0010  0.4658
 4455SOL     OW24997   2.545   4.539  15.299 -0.3448  0.0307  0.0367
 4455SOL    HW124998   2.482   4.599  15.257  0.4423 -0.0644 -1.2794
 4455SOL    HW224999   2.500   4.521  15.381  0.3954  1.8277  0.8369
 4456SOL     OW25000   2.490   3.542   3.369 -0.7834  0.6767 -0.7257
 4456SOL    HW125001   2.421   3.506   3.425 -1.4886  0.3888 -1.8016
 4456SOL    HW225002   2.514   3.472   3.309 -1.6257  0.4373 -0.7845
 4457SOL     OW25003   1.513   0.396   6.742 -0.3170 -0.2148 -0.2511
 4457SOL    HW125004   1.517   0.448   6.661 -1.8394  3.3066  1.9348
 4457SOL    HW225005   1.547   0.452   6.812 -2.1238 -1.6633  1.7730
 4458SOL     OW25006   4.067   3.097  15.385  0.4144  0.4488  0.0048
 4458SOL    HW125007   3.999   3.042  15.424  0.5033 -0.3789 -1.0132
 4458SOL    HW225008   4.123   3.108  15.463 -0.7963 -0.5521  1.0029
 4459SOL     OW25009   2.749   0.322   5.695  0.1474  0.0780  0.4809
 4459SOL    HW125010   2.709   0.293   5.777 -1.3576 -0.8238 -0.5569
 4459SOL    HW225011   2.809   0.248   5.683 -0.8254 -0.4096 -1.3733
 4460SOL     OW25012   2.525   0.155   0.334  0.8393  0.1413  0.2132
 4460SOL    HW125013   2.496   0.197   0.414 -1.3977  0.8851 -0.9944
 4460SOL    HW225014   2.588   0.094   0.374 -0.1300 -1.6756 -1.0374
 4461SOL     OW25015   1.865   3.793   3.442  0.9293  0.1377 -0.2013
 4461SOL    HW125016   1.840   3.847   3.368  0.6222 -0.6958 -0.7047
 4461SOL    HW225017   1.820   3.713   3.415  1.9305 -0.1745 -0.9272
 4462SOL     OW25018   1.959   0.921  17.636  0.6520 -0.0854 -0.4217
 4462SOL    HW125019   2.021   0.902  17.565 -0.4238  1.6620 -1.8357
 4462SOL    HW225020   1.886   0.863  17.613  0.9640 -0.1354 -1.2628
 4463SOL     OW25021   0.242   1.189   3.955 -0.3734 -0.2199 -0.0139
 4463SOL    HW125022   0.190   1.179   3.875 -0.4372  1.8436 -0.2103
 4463SOL    HW225023   0.283   1.102   3.960 -2.7951 -1.3869 -0.2837
 4464SOL     OW25024   3.500   4.485   3.341  0.3737  0.0303  0.1523
 4464SOL    HW125025   3.470   4.462   3.429  3.5475  0.2793  1.3115
 4464SOL    HW225026   3.479   4.578   3.341  0.4093  0.0379  3.5427
 4465SOL     OW25027   2.706   1.162   5.026  0.2015  0.5746  0.3508
 4465SOL    HW125028   2.664   1.248   5.018 -2.6207 -0.8344  0.0203
 4465SOL    HW225029   2.748   1.144   4.941  0.0939 -2.4055  0.9488
 4466SOL     OW25030   3.958   0.302   5.052 -0.5396  0.3844 -0.7758
 4466SOL    HW125031   4.040   0.310   5.100 -0.3121 -1.5490 -0.8287
 4466SOL    HW225032   3.905   0.260   5.120  1.0397  0.9197  0.7786
 4467SOL     OW25033   3.864   1.390   0.546  0.2138  0.2572 -0.6591
 4467SOL    HW125034   3.802   1.366   0.615  0.8959 -1.2864 -0.5897
 4467SOL    HW225035   3.817   1.390   0.463  0.0335 -2.5206 -0.5422
 4468SOL     OW25036   0.122   2.098  13.309 -0.1647 -1.0371  0.1043
 4468SOL    HW125037   0.029   2.077  13.318 -0.9112  1.3382 -2.2615
 4468SOL    HW225038   0.110   2.193  13.309  0.0516 -1.0035  1.7116
 4469SOL     OW25039   4.189   0.137   5.731  0.2846 -0.3992  0.8866
 4469SOL    HW125040   4.278   0.172   5.738 -0.4153  1.9013 -1.5493
 4469SOL    HW225041   4.198   0.042   5.725 -1.0431 -0.6711  3.2545
 4470SOL     OW25042   1.392   3.531   8.234  0.1961  0.0011 -0.3237
 4470SOL    HW125043   1.455   3.507   8.167 -0.2936 -2.6684  0.1763
 4470SOL    HW225044   1.320   3.476   8.204 -0.8016  0.1296  1.8147
 4471SOL     OW25045   1.446   4.423   6.438  0.1201 -0.2978  0.0207
 4471SOL    HW125046   1.453   4.466   6.523  2.8046 -0.0979 -0.2879
 4471SOL    HW225047   1.403   4.340   6.458 -0.6301  0.3811  1.2420
 4472SOL     OW25048   3.304   2.185   6.951  0.1927  0.2508  0.0834
 4472SOL    HW125049   3.333   2.107   6.999 -1.0932 -2.0410 -2.8838
 4472SOL    HW225050   3.255   2.152   6.876  1.1961  0.8519 -0.8221
 4473SOL     OW25051   1.115   1.862   2.302  0.2368  0.0326 -0.2895
 4473SOL    HW125052   1.146   1.894   2.217 -0.7286  2.8705  0.4160
 4473SOL    HW225053   1.020   1.865   2.292  0.2409 -1.0285 -0.7216
 4474SOL     OW25054   2.238   1.892   6.247  0.6481 -0.2127  1.2927
 4474SOL    HW125055   2.204   1.963   6.302  1.1595  0.3346  0.9095
 4474SOL    HW225056   2.330   1.916   6.231  1.0806 -3.8784 -1.4220
 4475SOL     OW25057   0.270   2.143   7.160  0.1381  0.2748 -0.0253
 4475SOL    HW125058   0.301   2.227   7.125 -0.3116  0.0571 -0.9454
 4475SOL    HW225059   0.323   2.078   7.114  1.7785  1.0351  0.7628
 4476SOL     OW25060   2.161   4.004  15.530  0.0786  0.0352  0.4140
 4476SOL    HW125061   2.196   3.926  15.573  0.1045  0.1842  0.6619
 4476SOL    HW225062   2.082   3.970  15.488  0.5669 -1.4598  0.7066
 4477SOL     OW25063   3.795   3.072   5.134  0.0431 -0.5574 -0.0029
 4477SOL    HW125064   3.751   3.063   5.218  1.2860 -0.6093  0.6442
 4477SOL    HW225065   3.828   2.987   5.105 -0.1439 -0.8541  0.6664
 4478SOL     OW25066   4.525   4.231  14.531 -0.8321 -0.7396  0.4326
 4478SOL    HW125067   4.545   4.143  14.498 -1.7077 -0.3327 -1.2088
 4478SOL    HW225068   4.435   4.238  14.502 -0.0718  0.0749 -1.7428
 4479SOL     OW25069   3.907   4.694   1.953 -0.1095  0.2514 -0.5807
 4479SOL    HW125070   3.915   4.646   2.036  1.2108  0.2531 -0.7039
 4479SOL    HW225071   3.846   4.639   1.904 -0.2986  0.2298 -0.3216
 4480SOL     OW25072   2.971   2.814   4.224  0.3291  0.1347  0.0204
 4480SOL    HW125073   3.026   2.882   4.184 -0.4526  2.2086  2.5300
 4480SOL    HW225074   2.921   2.873   4.280  0.2807  2.6012 -2.6103
 4481SOL     OW25075   3.375   3.751   8.802  0.1639 -0.2697  0.8522
 4481SOL    HW125076   3.351   3.843   8.813 -1.1944 -0.7613  1.9003
 4481SOL    HW225077   3.283   3.728   8.807 -0.1064  0.5338 -0.3266
 4482SOL     OW25078   1.479   1.941   2.613 -0.1383  0.4099  0.5544
 4482SOL    HW125079   1.462   1.960   2.705 -1.4318  2.6036 -0.1352
 4482SOL    HW225080   1.569   1.969   2.596  0.3296 -1.0727  0.5766
 4483SOL     OW25081   0.423   0.156   3.257 -0.0159 -0.2572  0.0285
 4483SOL    HW125082   0.374   0.103   3.194  0.5829  2.5917 -2.8446
 4483SOL    HW225083   0.508   0.142   3.216  0.5279  2.7882  0.1584
 4484SOL     OW25084   1.547   4.189   7.544  0.1671 -0.1660  0.5087
 4484SOL    HW125085   1.550   4.176   7.449  1.0714 -0.2617  0.5524
 4484SOL    HW225086   1.599   4.270   7.540 -1.7741  1.1259  1.3923
 4485SOL     OW25087   2.927   2.144  13.300  0.1380  0.6850 -0.6586
 4485SOL    HW125088   2.866   2.214  13.320 -1.8841 -1.3544  0.3406
 4485SOL    HW225089   2.910   2.145  13.206 -2.2006  0.1582 -0.2492
 4486SOL     OW25090   2.368   4.204   7.162 -0.3122 -0.0342  0.2038
 4486SOL    HW125091   2.438   4.173   7.220  1.8137  1.0009 -1.8157
 4486SOL    HW225092   2.416   4.266   7.106  0.2308 -1.0006 -0.4126
 4487SOL     OW25093   3.965   1.651   3.188 -0.1414 -0.2552  0.2556
 4487SOL    HW125094   3.986   1.739   3.157  1.8023 -2.1125 -3.7280
 4487SOL    HW225095   3.999   1.651   3.278  0.5373 -2.7655 -0.0095
 4488SOL     OW25096   4.327   4.146   4.927  0.0704  0.0632  0.0926
 4488SOL    HW125097   4.295   4.235   4.913  1.3745  0.5778  0.3587
 4488SOL    HW225098   4.357   4.168   5.015 -0.5987 -0.2148  0.3889
 4489SOL     OW25099   2.111   3.696   1.303  0.1968  0.3563  0.1891
 4489SOL    HW125100   2.109   3.601   1.300  0.2578  0.3566  0.1486
 4489SOL    HW225101   2.149   3.704   1.391 -0.6267  0.3220  0.5450
 4490SOL     OW25102   2.167   0.747   9.492 -0.4130  0.2090 -0.2763
 4490SOL    HW125103   2.192   0.658   9.469  0.6025  0.2572  0.6464
 4490SOL    HW225104   2.141   0.739   9.584 -2.1869 -1.4907 -0.9343
 4491SOL     OW25105   3.377   0.243   2.775 -0.0899  0.4699  0.2578
 4491SOL    HW125106   3.288   0.259   2.805  0.1202 -0.1134  1.2020
 4491SOL    HW225107   3.430   0.287   2.841 -0.7397  2.4160 -0.5400
 4492SOL     OW25108   4.091   2.275   1.604  0.5944  0.4854  0.5338
 4492SOL    HW125109   4.057   2.190   1.634 -1.4304  2.2370  3.2254
 4492SOL    HW225110   4.010   2.325   1.603 -0.7435 -1.6722  1.7217
 4493SOL     OW25111   4.469   2.887   8.040 -0.2944  0.2448  0.1310
 4493SOL    HW125112   4.397   2.868   8.100 -0.1375 -0.7531 -0.0049
 4493SOL    HW225113   4.454   2.982   8.041  0.6864  0.3939  1.0333
 4494SOL     OW25114   2.396   4.164   5.087 -0.2320  0.2565  0.3261
 4494SOL    HW125115   2.379   4.108   5.162 -1.7053 -1.2588 -1.1367
 4494SOL    HW225116   2.322   4.224   5.083  0.7544  1.5405  1.3563
 4495SOL     OW25117   2.823   2.244  11.063 -0.1503 -0.4338  0.0411
 4495SOL    HW125118   2.847   2.336  11.078  0.0910 -0.6074  0.7386
 4495SOL    HW225119   2.831   2.222  11.156 -1.6064 -2.6273 -0.3686
 4496SOL     OW25120   2.700   0.456  13.972 -0.2114 -0.4950  0.1790
 4496SOL    HW125121   2.680   0.504  13.892 -2.3477 -0.1103  0.9589
 4496SOL    HW225122   2.665   0.368  13.966 -0.2662 -0.3995 -0.8447
 4497SOL     OW25123   2.918   1.354   8.340 -0.4353  0.2335  0.2891
 4497SOL    HW125124   2.956   1.358   8.428  2.3494 -1.3959 -0.8383
 4497SOL    HW225125   2.853   1.422   8.356 -0.0295  0.6036  0.3852
 4498SOL     OW25126   4.465   3.728   4.760  0.3325  0.8927  0.2188
 4498SOL    HW125127   4.378   3.739   4.797  0.0256  0.8869 -0.5030
 4498SOL    HW225128   4.500   3.814   4.782 -0.5993  1.6458 -1.2933
 4499SOL     OW25129   2.794   0.128   3.798 -0.0700 -0.2644 -0.5923
 4499SOL    HW125130   2.714   0.176   3.821  0.3033 -0.3932  0.9341
 4499SOL    HW225131   2.828   0.110   3.885 -2.7832  1.7586  0.9126
 4500SOL     OW25132   1.329   1.577   3.299  0.1438 -0.6106  0.1937
 4500SOL    HW125133   1.302   1.597   3.388  1.1338 -4.2211  1.2924
 4500SOL    HW225134   1.252   1.529   3.270 -1.1878  1.6746 -0.0452
 4501SOL     OW25135   1.664   2.415   4.701 -0.3313 -0.4715 -0.2601
 4501SOL    HW125136   1.741   2.369   4.736 -1.5557 -2.0792  0.3147
 4501SOL    HW225137   1.684   2.399   4.609  1.3429 -0.2378  0.0453
 4502SOL     OW25138   2.172   0.415   5.881 -0.2449  0.3625 -0.0464
 4502SOL    HW125139   2.087   0.419   5.926 -0.3140  2.4855 -0.3779
 4502SOL    HW225140   2.232   0.434   5.953  0.0708  1.1882 -0.5394
 4503SOL     OW25141   1.397   0.757   2.914  0.0900 -0.0409  0.0305
 4503SOL    HW125142   1.471   0.738   2.856 -2.7066  0.7914 -3.8059
 4503SOL    HW225143   1.451   0.816   2.967 -1.3216  2.1403 -0.9714
 4504SOL     OW25144   0.465   3.436   4.924 -0.3584  1.2083 -0.3426
 4504SOL    HW125145   0.517   3.361   4.893 -0.9711  0.7592 -0.2727
 4504SOL    HW225146   0.386   3.426   4.871 -0.4974 -0.1744  0.1392
 4505SOL     OW25147   2.449   1.885   8.962  0.2020 -0.1022 -0.4807
 4505SOL    HW125148   2.521   1.837   9.003  0.1686 -0.1934 -0.5297
 4505SOL    HW225149   2.372   1.833   8.985 -0.8643  1.9435  0.5948
 4506SOL     OW25150   4.102   4.165   7.024  0.7428  0.2418  0.2402
 4506SOL    HW125151   4.182   4.132   6.984  1.8836  0.0132  2.6791
 4506SOL    HW225152   4.134   4.225   7.092 -3.0191  0.7543  1.5879
 4507SOL     OW25153   0.286   4.175  10.943  0.2480 -0.4561 -0.7171
 4507SOL    HW125154   0.249   4.261  10.925  0.8610  0.4023  2.1081
 4507SOL    HW225155   0.329   4.196  11.026  0.7426 -2.3750 -0.4831
 4508SOL     OW25156   4.731   3.687   8.225 -0.0849 -0.5548 -0.1678
 4508SOL    HW125157   4.671   3.634   8.277  1.1666 -0.2861  1.5332
 4508SOL    HW225158   0.074   3.666   8.268 -0.8712 -1.4419  0.8997
 4509SOL     OW25159   2.112   3.225   6.286  0.2189  0.1898 -0.6922
 4509SOL    HW125160   2.139   3.164   6.218  1.1491 -0.1282 -0.0465
 4509SOL    HW225161   2.019   3.232   6.266 -0.4244  2.0358  2.9328
 4510SOL     OW25162   2.440   2.908   7.605 -0.1145  0.4077  0.7185
 4510SOL    HW125163   2.416   2.861   7.684 -0.3506  0.9396  0.9659
 4510SOL    HW225164   2.455   2.827   7.555  0.9872 -0.1806  2.0062
 4511SOL     OW25165   2.728   0.702  13.753 -0.4313  0.8900 -0.0392
 4511SOL    HW125166   2.661   0.643  13.717 -1.1092  2.7620 -1.8412
 4511SOL    HW225167   2.678   0.774  13.792  0.5654  1.1727  0.7005
 4512SOL     OW25168   0.016   4.635   8.369  0.7401 -0.0465  0.0062
 4512SOL    HW125169   0.019   4.662   8.461  1.1238  1.4586 -0.4485
 4512SOL    HW225170   4.663   4.645   8.347  0.9596  4.4815  1.0832
 4513SOL     OW25171   2.046   2.674   9.484 -0.2776  0.5117 -0.3486
 4513SOL    HW125172   2.111   2.695   9.416  1.4303  0.8712  1.4019
 4513SOL    HW225173   2.085   2.596   9.524 -0.7542  0.8792  0.8322
 4514SOL     OW25174   3.368   0.607   4.645 -0.5254  0.5308  0.4300
 4514SOL    HW125175   3.385   0.621   4.738 -1.5219 -0.5798  0.7786
 4514SOL    HW225176   3.415   0.524   4.655 -2.0818 -0.3163  0.6665
 4515SOL     OW25177   1.479   0.795   8.449 -0.2015  0.5034 -0.0952
 4515SOL    HW125178   1.482   0.877   8.400 -1.5085 -0.2115 -1.3927
 4515SOL    HW225179   1.431   0.740   8.387  0.9350  1.0447 -1.4320
 4516SOL     OW25180   1.184   0.413   6.478 -0.0737  0.1799  0.7310
 4516SOL    HW125181   1.115   0.348   6.494 -1.1418  0.5696 -2.2475
 4516SOL    HW225182   1.143   0.496   6.505 -0.2469 -0.4636  2.4543
 4517SOL     OW25183   1.058   1.270   8.484  0.0838 -0.4630  0.0557
 4517SOL    HW125184   0.983   1.281   8.426 -0.1486  0.2096  0.4823
 4517SOL    HW225185   1.067   1.361   8.513 -0.8393 -0.5747  0.6883
 4518SOL     OW25186   3.821   0.867   0.621 -0.9687 -0.2493  0.3817
 4518SOL    HW125187   3.752   0.933   0.622 -0.6872  0.0790 -2.5741
 4518SOL    HW225188   3.903   0.916   0.623  0.9545 -3.4861  0.6925
 4519SOL     OW25189   3.860   0.837  10.598  0.3387  0.1383  0.1281
 4519SOL    HW125190   3.807   0.873  10.527 -0.1716 -0.5946  0.1337
 4519SOL    HW225191   3.857   0.913  10.656  0.3561  0.2537 -0.0233
 4520SOL     OW25192   2.586   2.182  10.317  0.0438  0.0267  0.4062
 4520SOL    HW125193   2.559   2.216  10.402  0.2057  2.5126 -0.5580
 4520SOL    HW225194   2.566   2.246  10.248  1.0655 -0.0409  0.0449
 4521SOL     OW25195   2.691   4.193   5.125 -0.0400  0.1860 -0.0699
 4521SOL    HW125196   2.719   4.283   5.109  0.1051  0.0084 -0.8108
 4521SOL    HW225197   2.597   4.196   5.108 -0.2623 -1.5085  0.9005
 4522SOL     OW25198   0.837   0.631   5.308 -0.0667 -0.0374  0.1768
 4522SOL    HW125199   0.786   0.591   5.237  0.3769 -0.9163  0.3538
 4522SOL    HW225200   0.831   0.561   5.373 -0.2599 -0.5925 -0.4390
 4523SOL     OW25201   1.968   2.756  12.380  0.1706 -0.2993  0.0181
 4523SOL    HW125202   2.051   2.707  12.384 -0.0087 -0.8170 -2.2749
 4523SOL    HW225203   1.995   2.811  12.306  3.7655 -1.8771  0.1470
 4524SOL     OW25204   1.225   1.959  10.865 -0.0317  0.2184 -0.4015
 4524SOL    HW125205   1.288   2.020  10.828  1.1003 -1.1227 -0.6878
 4524SOL    HW225206   1.163   1.944  10.793 -1.3996  2.7068  0.2681
 4525SOL     OW25207   0.659   3.264   1.902 -0.3019 -0.0850  0.5354
 4525SOL    HW125208   0.729   3.293   1.960  0.9577 -2.1198  0.0013
 4525SOL    HW225209   0.698   3.251   1.815 -2.5085 -0.0448 -0.4698
 4526SOL     OW25210   4.706   3.161  15.338  0.1659 -0.1300  0.4357
 4526SOL    HW125211   0.015   3.243  15.332  0.2734 -0.1821  0.5796
 4526SOL    HW225212   0.015   3.113  15.405  1.5040 -1.3587 -1.4360
 4527SOL     OW25213   1.882   4.594   1.522 -0.0615  0.4205  0.3152
 4527SOL    HW125214   1.872   4.626   1.611 -0.7208 -1.5256  0.9271
 4527SOL    HW225215   1.937   4.661   1.480  1.0788 -0.4278  0.4670
 4528SOL     OW25216   4.182   1.157   6.828  0.2563  0.2126 -0.1217
 4528SOL    HW125217   4.154   1.204   6.749 -1.3261 -1.5336 -0.6011
 4528SOL    HW225218   4.113   1.184   6.889 -1.8257 -1.5660 -1.6848
 4529SOL     OW25219   0.643   2.099   5.651 -0.4874 -0.2453 -0.5843
 4529SOL    HW125220   0.571   2.042   5.624 -1.9717  1.7417 -0.8496
 4529SOL    HW225221   0.593   2.167   5.697  0.0702  0.3308 -0.8251
 4530SOL     OW25222   4.237   3.746   1.933 -0.5013  0.5515  0.3256
 4530SOL    HW125223   4.332   3.745   1.938 -0.4983  3.9095  1.0616
 4530SOL    HW225224   4.223   3.735   2.027 -1.8743 -2.4292 -0.2346
 4531SOL     OW25225   2.201   3.424   4.443 -0.0665  0.2394 -0.0517
 4531SOL    HW125226   2.171   3.367   4.372  0.2629 -1.1861  0.9516
 4531SOL    HW225227   2.186   3.515   4.417  1.6650  1.0317  1.7428
 4532SOL     OW25228   0.333   0.029   7.790 -0.5214 -0.5088 -0.6630
 4532SOL    HW125229   0.347   4.676   7.813  0.0264 -0.2950 -0.1162
 4532SOL    HW225230   0.245   0.029   7.753 -1.0962 -1.0601  0.6911
 4533SOL     OW25231   3.766   3.831   5.210  0.0444  0.1315  0.4636
 4533SOL    HW125232   3.775   3.757   5.269 -1.0764  0.4226  0.9863
 4533SOL    HW225233   3.671   3.828   5.200 -0.0960  0.3820  1.7236
 4534SOL     OW25234   1.297   2.217   7.514 -0.2809  0.6171  0.3942
 4534SOL    HW125235   1.260   2.301   7.484  0.0647  0.4594 -0.4696
 4534SOL    HW225236   1.302   2.164   7.434  0.9543  1.8137 -0.3325
 4535SOL     OW25237   3.357   3.072   4.465 -0.0639 -0.1255  0.3071
 4535SOL    HW125238   3.439   3.100   4.424 -0.6592  3.1790  1.3701
 4535SOL    HW225239   3.359   2.977   4.455  0.5287 -0.0311 -0.3958
 4536SOL     OW25240   0.888   0.473  14.529  0.5592  0.9335 -0.3731
 4536SOL    HW125241   0.860   0.555  14.489  1.3260  1.2154 -0.3251
 4536SOL    HW225242   0.983   0.483  14.531  0.5908  0.4985  0.2338
 4537SOL     OW25243   4.457   3.105   2.796  0.4114 -0.0771  0.0569
 4537SOL    HW125244   4.517   3.159   2.744 -0.4805  1.9338  1.1419
 4537SOL    HW225245   4.520   3.035   2.815  0.0321 -0.7797 -1.2893
 4538SOL     OW25246   4.409   2.246   4.054 -0.4472  0.4280  0.3424
 4538SOL    HW125247   4.487   2.250   3.999 -0.5690  2.0225  0.2764
 4538SOL    HW225248   4.396   2.341   4.061  0.4695  0.6043 -0.4733
 4539SOL     OW25249   2.283   0.774   2.387  0.8307 -0.4224 -0.0655
 4539SOL    HW125250   2.332   0.693   2.403 -2.7413 -2.6912 -0.5010
 4539SOL    HW225251   2.313   0.819   2.466 -1.7947 -0.2159  0.8018
 4540SOL     OW25252   2.763   4.611   3.312  0.5491 -0.2018 -0.3538
 4540SOL    HW125253   2.840   4.556   3.298  2.5834  2.1678  1.5746
 4540SOL    HW225254   2.764   4.608   3.407 -0.6917  0.0781 -0.3320
 4541SOL     OW25255   3.511   4.052   8.166 -0.1559  0.4212  0.1981
 4541SOL    HW125256   3.604   4.034   8.179 -0.3996 -1.1495 -0.2294
 4541SOL    HW225257   3.500   3.997   8.088  1.5120  0.2056  0.1303
 4542SOL     OW25258   4.029   2.606   4.220  0.2435 -0.7742  0.3250
 4542SOL    HW125259   4.083   2.681   4.194 -0.7312  0.5728  2.1876
 4542SOL    HW225260   4.092   2.569   4.282 -0.3111 -0.4753  1.0786
 4543SOL     OW25261   2.640   0.295   8.280 -0.1746  0.2829 -0.6413
 4543SOL    HW125262   2.566   0.234   8.287 -0.9233  1.3102  0.4353
 4543SOL    HW225263   2.616   0.358   8.348 -1.4670 -1.8594  0.9033
 4544SOL     OW25264   0.723   0.603   1.380  0.1575  0.3210 -0.8445
 4544SOL    HW125265   0.656   0.595   1.448  1.2070 -0.3002  0.1244
 4544SOL    HW225266   0.763   0.689   1.389 -1.2089  0.8196  0.3850
 4545SOL     OW25267   2.294   3.724   6.519  0.1389  0.3015 -0.0486
 4545SOL    HW125268   2.388   3.705   6.511  0.1838  0.3526  0.3335
 4545SOL    HW225269   2.254   3.649   6.476 -0.5566  0.6231  0.0359
 4546SOL     OW25270   2.144   3.814   3.464  0.1127  0.3068 -1.0330
 4546SOL    HW125271   2.076   3.758   3.429  0.3961 -0.0749 -0.9774
 4546SOL    HW225272   2.103   3.895   3.495 -0.5159  0.6371 -2.7378
 4547SOL     OW25273   2.407   0.695  10.763  0.1015  0.8064  0.5292
 4547SOL    HW125274   2.378   0.742  10.685 -0.4390 -0.9443 -0.3379
 4547SOL    HW225275   2.491   0.735  10.786 -0.1498  1.6964 -0.1364
 4548SOL     OW25276   4.411   2.965   6.139 -0.8691  0.5463 -0.2409
 4548SOL    HW125277   4.377   2.877   6.118  0.7637  0.0197 -0.6465
 4548SOL    HW225278   4.463   2.943   6.216  1.7723  2.2161 -1.5836
 4549SOL     OW25279   3.716   0.785   6.530  0.0609 -0.9928  0.5646
 4549SOL    HW125280   3.673   0.803   6.447  1.7973  0.0032 -0.1260
 4549SOL    HW225281   3.761   0.870   6.533 -3.1419  0.7527 -0.4576
 4550SOL     OW25282   3.829   0.370  13.842 -0.0608 -0.3527 -0.1445
 4550SOL    HW125283   3.885   0.296  13.868 -0.0271 -0.4675 -0.5533
 4550SOL    HW225284   3.776   0.339  13.769 -0.0234 -0.4642 -0.1247
 4551SOL     OW25285   4.428   0.947   3.950 -0.2981  0.0019 -0.9887
 4551SOL    HW125286   4.408   0.936   4.043 -1.5299 -0.6127 -1.3239
 4551SOL    HW225287   4.348   0.987   3.918  0.3338 -0.1436 -2.7261
 4552SOL     OW25288   4.580   1.212   8.881  0.7300 -0.3992 -0.2591
 4552SOL    HW125289   4.568   1.169   8.965 -1.5296 -1.0195 -0.9133
 4552SOL    HW225290   4.565   1.305   8.901 -0.2081 -0.5702 -0.1863
 4553SOL     OW25291   2.202   3.659   2.961 -0.1646  0.3789 -0.0498
 4553SOL    HW125292   2.293   3.629   2.965 -0.9817 -2.1385 -0.5854
 4553SOL    HW225293   2.164   3.577   2.994 -0.2359 -0.2391 -1.6880
 4554SOL     OW25294   3.962   2.641   7.492 -0.2737 -0.1495 -0.2386
 4554SOL    HW125295   3.999   2.585   7.424  0.4558 -0.5919  0.5095
 4554SOL    HW225296   3.897   2.693   7.446  0.5942  2.7314  1.8059
 4555SOL     OW25297   0.012   1.137   6.328  0.0266 -0.2955  0.0654
 4555SOL    HW125298   4.726   1.126   6.420  2.3364 -1.1990  0.5954
 4555SOL    HW225299   4.680   1.193   6.298 -0.1601 -0.8217 -0.4720
 4556SOL     OW25300   0.222   1.747   7.605 -0.5151 -0.4294 -0.0435
 4556SOL    HW125301   0.151   1.796   7.644 -0.5987  0.4692 -1.3264
 4556SOL    HW225302   0.238   1.694   7.683 -0.9641  1.9190  1.6192
 4557SOL     OW25303   3.579   0.555   2.786  0.1973  0.0813 -0.5123
 4557SOL    HW125304   3.484   0.544   2.783 -0.1151  2.2003  1.6099
 4557SOL    HW225305   3.601   0.511   2.704 -0.9943 -1.1691 -0.1580
 4558SOL     OW25306   1.576   4.358   8.355 -0.3912 -0.0196 -0.5816
 4558SOL    HW125307   1.667   4.360   8.324  0.1079 -0.6997  0.8383
 4558SOL    HW225308   1.540   4.304   8.285  0.0309  0.5033 -1.2135
 4559SOL     OW25309   2.777   0.918   6.229  0.0923  0.1977  0.0872
 4559SOL    HW125310   2.709   0.935   6.294 -0.7670  2.5319 -1.4538
 4559SOL    HW225311   2.850   0.923   6.291 -0.0614 -0.2967  0.3126
 4560SOL     OW25312   0.917   0.368   9.160  0.1771  0.0863  0.1184
 4560SOL    HW125313   0.849   0.435   9.148  0.6256  0.7449  1.3572
 4560SOL    HW225314   0.980   0.402   9.096  0.0410 -2.7505 -1.5481
 4561SOL     OW25315   0.174   2.900   6.275 -0.1460  0.0996 -0.0532
 4561SOL    HW125316   0.100   2.927   6.329  0.0564  2.1627 -0.8245
 4561SOL    HW225317   0.213   2.982   6.246 -1.4971 -0.0207 -2.2304
 4562SOL     OW25318   0.440   0.445   3.968 -0.2497  0.1164  0.6313
 4562SOL    HW125319   0.458   0.351   3.955  0.1933 -0.0229  2.3483
 4562SOL    HW225320   0.402   0.439   4.055  1.9592 -1.2120  1.4943
 4563SOL     OW25321   3.629   3.706   4.364 -0.1931  0.0591  0.0544
 4563SOL    HW125322   3.607   3.700   4.457  1.9202 -0.8676  0.4786
 4563SOL    HW225323   3.631   3.800   4.345 -1.6140  0.1684  0.4277
 4564SOL     OW25324   1.031   4.627   8.194 -0.3862 -0.5692 -0.3096
 4564SOL    HW125325   1.125   4.630   8.211 -0.3654 -0.4800 -0.4411
 4564SOL    HW225326   1.019   4.720   8.213  0.8329 -0.5011  0.1092
 4565SOL     OW25327   4.258   1.811   4.263 -0.2111 -0.6178 -0.0706
 4565SOL    HW125328   4.169   1.790   4.235 -0.8254 -0.7167  2.0040
 4565SOL    HW225329   4.329   1.775   4.210 -0.5708  2.4826 -2.7078
 4566SOL     OW25330   1.668   2.693   7.110  0.2902 -0.0301 -0.6963
 4566SOL    HW125331   1.689   2.692   7.017 -0.6996  1.7555 -0.9437
 4566SOL    HW225332   1.746   2.729   7.153 -1.4670  1.5984  1.1269
 4567SOL     OW25333   0.637   2.394   3.423 -0.4051 -0.3788 -0.2063
 4567SOL    HW125334   0.555   2.351   3.401 -1.7487  2.6496 -1.1835
 4567SOL    HW225335   0.597   2.475   3.456 -1.8555 -0.6599 -1.2798
 4568SOL     OW25336   0.358   0.766  10.682 -0.2407  0.2190 -0.3164
 4568SOL    HW125337   0.327   0.846  10.725 -1.7957  0.0968 -1.1943
 4568SOL    HW225338   0.280   0.723  10.646 -0.8833  1.7190 -0.7103
 4569SOL     OW25339   0.778   3.182   5.930 -0.0672 -0.2161 -0.6731
 4569SOL    HW125340   0.694   3.193   5.975  1.5348  0.8235  2.0147
 4569SOL    HW225341   0.795   3.090   5.948 -3.2010 -0.8159 -0.7940
 4570SOL     OW25342   0.106   0.840  13.519 -0.1910  0.0501 -0.1801
 4570SOL    HW125343   0.177   0.806  13.465  0.2923 -0.6866  0.9346
 4570SOL    HW225344   0.040   0.874  13.458 -0.2868  1.5140  0.7530
 4571SOL     OW25345   0.887   1.148   3.581  0.3767 -0.5694 -0.6159
 4571SOL    HW125346   0.805   1.161   3.534 -1.3388 -3.3803  1.6093
 4571SOL    HW225347   0.942   1.211   3.535  0.8176 -1.2259 -0.9880
 4572SOL     OW25348   3.465   3.767   7.097  0.2613  0.8710 -0.0876
 4572SOL    HW125349   3.548   3.809   7.117  1.0415  0.0633 -1.6426
 4572SOL    HW225350   3.409   3.826   7.148  0.5415 -0.2397  1.5111
 4573SOL     OW25351   2.353   3.000   4.888 -0.2138 -0.1780 -0.1954
 4573SOL    HW125352   2.361   2.924   4.945 -0.2401 -0.2093 -0.2335
 4573SOL    HW225353   2.300   3.062   4.937 -1.2464 -0.5590 -0.8354
 4574SOL     OW25354   0.695   3.872   5.126  0.3808  0.1837 -0.2246
 4574SOL    HW125355   0.777   3.879   5.078  1.2067 -0.6660  1.0802
 4574SOL    HW225356   0.704   3.948   5.184  1.3126 -0.8485  0.9660
 4575SOL     OW25357   1.672   2.553  15.443 -0.2939  0.9087  0.1779
 4575SOL    HW125358   1.672   2.574  15.350 -0.4450 -1.1233 -0.2869
 4575SOL    HW225359   1.720   2.620  15.490  0.0488  1.0965 -0.4470
 4576SOL     OW25360   4.386   1.606  13.556  0.1009 -0.1798  0.4270
 4576SOL    HW125361   4.342   1.525  13.579 -2.5422  1.3212  0.6273
 4576SOL    HW225362   4.317   1.640  13.500  0.9343  1.7271  0.5437
 4577SOL     OW25363   0.349   2.374   7.044 -0.3889  0.0827  0.0397
 4577SOL    HW125364   0.434   2.384   7.086  0.0623 -0.3323 -0.7693
 4577SOL    HW225365   0.371   2.378   6.951 -0.8271  1.6460  0.0026
 4578SOL     OW25366   4.146   1.884   3.694 -0.5588  0.7433  0.2166
 4578SOL    HW125367   4.223   1.928   3.658  0.6806 -2.1140 -0.5792
 4578SOL    HW225368   4.168   1.860   3.784 -0.8499 -0.0991  0.0634
 4579SOL     OW25369   2.096   2.141   7.985 -0.1847 -0.1464  0.2039
 4579SOL    HW125370   2.070   2.078   8.053  1.0880  0.4617  1.2607
 4579SOL    HW225371   2.162   2.088   7.940 -1.2955  0.1053 -1.7381
 4580SOL     OW25372   2.764   0.076   9.526 -0.0319  1.2938  0.4217
 4580SOL    HW125373   2.798   0.018   9.594  1.0248  1.0761 -0.2933
 4580SOL    HW225374   2.847   0.100   9.484 -0.3655  0.0087 -0.9690
 4581SOL     OW25375   0.297   4.547   3.617 -1.1927 -0.2957 -0.0788
 4581SOL    HW125376   0.261   4.521   3.702  0.5656 -0.2236  0.6917
 4581SOL    HW225377   0.390   4.562   3.636 -1.4003  0.2145  0.5553
 4582SOL     OW25378   0.021   1.966   6.347  0.4272 -0.2016 -0.0780
 4582SOL    HW125379   4.724   1.917   6.273 -0.6098  0.2977  0.1055
 4582SOL    HW225380   0.039   2.057   6.322  2.3290 -1.0345 -1.6646
 4583SOL     OW25381   3.426   2.183   6.625 -0.8602  0.2831  0.5258
 4583SOL    HW125382   3.401   2.095   6.595 -0.4962  1.4100 -3.0497
 4583SOL    HW225383   3.511   2.176   6.669 -0.7175 -0.3633  0.1596
 4584SOL     OW25384   0.313   3.499  16.508  0.3738  0.1980  0.1861
 4584SOL    HW125385   0.327   3.448  16.588  0.9724  0.2558  0.1127
 4584SOL    HW225386   0.340   3.432  16.446  0.4470  0.2085  0.2065
 4585SOL     OW25387   1.959   3.040  15.684 -0.0070  0.6626 -0.3095
 4585SOL    HW125388   2.023   3.075  15.745  2.3335 -4.2692  0.0763
 4585SOL    HW225389   1.953   3.107  15.617  1.5359  0.6875 -0.4196
 4586SOL     OW25390   0.212   1.323   4.575  0.1038  0.4966 -0.4392
 4586SOL    HW125391   0.214   1.231   4.603  0.4874  0.5797 -0.1952
 4586SOL    HW225392   0.123   1.332   4.539 -0.1470  1.2447  0.3911
 4587SOL     OW25393   1.935   1.189  13.458  0.4164 -0.1391 -0.2758
 4587SOL    HW125394   1.966   1.273  13.423  0.8469  0.1224  0.7433
 4587SOL    HW225395   2.008   1.129  13.445  1.5323  1.1116  0.3159
 4588SOL     OW25396   3.080   1.619   5.625  0.4027  0.2353  0.6618
 4588SOL    HW125397   3.017   1.625   5.553  0.0649 -0.8612  0.8621
 4588SOL    HW225398   3.082   1.525   5.642  1.4343  0.1004 -0.1934
 4589SOL     OW25399   2.484   1.988   9.977 -0.1337  0.1510 -0.2531
 4589SOL    HW125400   2.512   1.937  10.053  0.5801  2.6670  1.1628
 4589SOL    HW225401   2.429   1.925   9.929  1.7178 -1.8626  0.2971
 4590SOL     OW25402   1.344   4.170   6.508  0.3459  0.1697  0.0588
 4590SOL    HW125403   1.326   4.095   6.451  3.0127 -0.5119  0.1377
 4590SOL    HW225404   1.270   4.162   6.569 -0.4104  1.9232 -0.6253
 4591SOL     OW25405   1.365   3.077  12.913  0.3113  0.0639 -0.8497
 4591SOL    HW125406   1.449   3.077  12.960  0.5931  1.0890 -1.3664
 4591SOL    HW225407   1.341   3.169  12.904  0.3692  0.5003  3.1858
 4592SOL     OW25408   3.724   0.525  17.755  0.1212 -0.1713 -0.4418
 4592SOL    HW125409   3.674   0.506  17.676 -0.0116  1.1525 -0.6793
 4592SOL    HW225410   3.771   0.444   0.017  0.0163  0.0877  1.0621
 4593SOL     OW25411   4.626   3.957  14.505 -0.6380 -0.0288  0.3205
 4593SOL    HW125412   4.576   3.879  14.481  0.7272 -0.2106 -1.9548
 4593SOL    HW225413   4.604   3.963  14.598  0.1740  0.7824  0.4598
 4594SOL     OW25414   1.749   1.404   3.642 -0.5769  0.2591 -0.0709
 4594SOL    HW125415   1.695   1.482   3.629 -2.5365 -1.0646  0.0106
 4594SOL    HW225416   1.763   1.372   3.552  0.8612  1.5147 -0.2907
 4595SOL     OW25417   0.916   1.598   7.521 -0.3949  0.4003 -0.4280
 4595SOL    HW125418   0.966   1.598   7.603 -0.2741 -0.6336 -0.5079
 4595SOL    HW225419   0.948   1.513   7.492 -0.0758  1.3287 -2.8487
 4596SOL     OW25420   4.074   0.592   0.146 -0.1603 -0.0935  0.0322
 4596SOL    HW125421   4.090   0.500   0.124 -0.3015  0.4999 -2.5278
 4596SOL    HW225422   4.000   0.614   0.089  1.6179  0.5383 -2.0160
 4597SOL     OW25423   0.480   0.760  15.937  0.1581  0.0495  0.5584
 4597SOL    HW125424   0.422   0.836  15.936  1.0545  0.7547  1.6228
 4597SOL    HW225425   0.477   0.730  16.028  4.2891  1.3464  1.1301
 4598SOL     OW25426   0.768   3.379  16.878 -0.7948  0.4401  1.0532
 4598SOL    HW125427   0.775   3.361  16.971 -0.8663  0.7167  1.1129
 4598SOL    HW225428   0.699   3.445  16.867 -0.9992  0.1114  0.3520
 4599SOL     OW25429   2.668   3.291   2.159 -0.1502  0.3556  0.1487
 4599SOL    HW125430   2.731   3.298   2.231  1.0318  2.4486 -1.0820
 4599SOL    HW225431   2.588   3.334   2.190 -1.2340 -2.5838  1.4631
 4600SOL     OW25432   2.624   2.334   7.890 -0.0887 -0.2131  0.1085
 4600SOL    HW125433   2.589   2.335   7.979 -1.7364  0.3152 -0.5525
 4600SOL    HW225434   2.688   2.403   7.906  0.4452 -1.0553  1.5773
 4601SOL     OW25435   3.709   0.542   4.575  0.1687 -0.5323  0.6499
 4601SOL    HW125436   3.681   0.507   4.659  0.3249 -1.9591  0.1177
 4601SOL    HW225437   3.669   0.486   4.508 -2.6987  0.4357  1.5557
 4602SOL     OW25438   0.409   0.603   9.035  0.4185 -0.7392 -0.3491
 4602SOL    HW125439   0.424   0.636   8.946  1.9178 -0.1992  0.1023
 4602SOL    HW225440   0.479   0.540   9.050  0.8139 -0.6643 -1.9228
 4603SOL     OW25441   3.898   1.025   3.643  0.2703  0.3558  0.4447
 4603SOL    HW125442   3.816   0.987   3.675  0.2210 -0.9183 -1.1875
 4603SOL    HW225443   3.873   1.078   3.568 -2.4420 -1.0821  0.3495
 4604SOL     OW25444   0.975   2.438   5.951  0.0627  0.0748  0.3367
 4604SOL    HW125445   0.950   2.350   5.921  0.4803  0.2077 -0.3966
 4604SOL    HW225446   0.942   2.480   5.871  2.3375  0.7326 -0.2374
 4605SOL     OW25447   4.383   1.712   5.417 -0.5022  0.5146  0.3987
 4605SOL    HW125448   4.292   1.708   5.446  0.4071 -0.5992  3.1282
 4605SOL    HW225449   4.371   1.742   5.327 -0.1902  1.4420  0.6672
 4606SOL     OW25450   3.143   3.979  16.011 -0.0855 -0.0175 -1.0067
 4606SOL    HW125451   3.209   4.032  15.967  2.3402 -0.5996  1.9397
 4606SOL    HW225452   3.068   4.031  15.982 -0.7569 -1.7754 -2.4191
 4607SOL     OW25453   0.711   1.124   6.146 -0.2934 -0.5506  0.5310
 4607SOL    HW125454   0.681   1.178   6.220 -0.9159 -0.3157  0.1102
 4607SOL    HW225455   0.633   1.128   6.090 -0.1321  1.4746  0.4336
 4608SOL     OW25456   0.369   3.068  16.089  0.6587  0.0304  0.1004
 4608SOL    HW125457   0.399   3.045  16.177  0.4224  0.4143  0.2803
 4608SOL    HW225458   0.327   2.988  16.058  2.4850 -1.8515  2.4904
 4609SOL     OW25459   2.224   0.715   3.052 -0.0716  0.0606 -0.4614
 4609SOL    HW125460   2.291   0.682   3.112  0.2423  0.7586 -0.4220
 4609SOL    HW225461   2.274   0.788   3.014 -0.8772  0.5865 -0.5040
 4610SOL     OW25462   0.404   4.410   5.572 -0.3022 -0.5327 -0.5818
 4610SOL    HW125463   0.317   4.370   5.567  0.0454 -1.2954 -0.5404
 4610SOL    HW225464   0.461   4.338   5.599  0.4834 -0.2774 -1.5608
 4611SOL     OW25465   1.856   2.533   6.087  0.3042 -0.4034 -0.2479
 4611SOL    HW125466   1.861   2.442   6.058  3.1820 -0.4052  0.2260
 4611SOL    HW225467   1.762   2.543   6.102  0.0504 -0.8148 -1.5469
 4612SOL     OW25468   4.138   4.370   7.569 -0.4953 -0.4400 -0.3437
 4612SOL    HW125469   4.198   4.371   7.643  1.9095  1.1762 -2.2922
 4612SOL    HW225470   4.157   4.290   7.520  0.7035  0.9231 -2.1162
 4613SOL     OW25471   3.509   2.438   7.435  0.1911 -0.2277  0.6366
 4613SOL    HW125472   3.489   2.532   7.443  1.7261  0.3828 -2.7293
 4613SOL    HW225473   3.454   2.404   7.364  2.4675 -0.8513 -0.8295
 4614SOL     OW25474   1.741   1.985   6.462  0.2553 -0.1296  0.3096
 4614SOL    HW125475   1.787   1.986   6.546  1.0523 -2.7002 -0.1086
 4614SOL    HW225476   1.760   2.074   6.430  0.6938 -0.4561 -0.3572
 4615SOL     OW25477   0.294   1.707  16.486  0.1866 -0.4163  0.1854
 4615SOL    HW125478   0.383   1.742  16.492 -0.5153  1.6605 -1.1177
 4615SOL    HW225479   0.309   1.661  16.404 -1.3259 -1.3307  0.4315
 4616SOL     OW25480   2.842   2.619   4.624 -0.4032 -0.6058 -0.3308
 4616SOL    HW125481   2.830   2.645   4.533  0.3127 -0.5245 -0.4057
 4616SOL    HW225482   2.801   2.692   4.670 -0.8855 -0.8939 -0.3016
 4617SOL     OW25483   2.782   2.249  17.293  0.3100  0.2379 -0.2945
 4617SOL    HW125484   2.729   2.305  17.236  1.1898  0.7582 -0.6205
 4617SOL    HW225485   2.760   2.274  17.382 -2.2631  1.0903 -1.1886
 4618SOL     OW25486   2.649   3.334   2.472  0.3559 -0.2379 -0.1515
 4618SOL    HW125487   2.564   3.323   2.430 -0.7230  2.4075  1.3093
 4618SOL    HW225488   2.655   3.429   2.473 -0.0747 -0.2198  3.4393
 4619SOL     OW25489   2.956   0.081   8.045 -0.1799  0.2244  0.0192
 4619SOL    HW125490   2.941   0.158   8.099  2.0157 -0.6045  1.8434
 4619SOL    HW225491   3.047   0.107   8.026 -0.9131  1.3483 -1.9403
 4620SOL     OW25492   1.991   3.854   1.871 -0.0737  0.3806 -0.4691
 4620SOL    HW125493   2.075   3.807   1.868  0.6047  1.3707  2.5717
 4620SOL    HW225494   1.996   3.916   1.944 -1.8312 -0.3080  0.2398
 4621SOL     OW25495   4.468   3.383   3.905 -0.0359 -0.5921 -0.7179
 4621SOL    HW125496   4.469   3.426   3.990  2.1570 -0.3452 -0.8574
 4621SOL    HW225497   4.378   3.391   3.873 -0.1748  0.4477 -0.0704
 4622SOL     OW25498   0.890   0.620   3.533 -0.0552 -0.0593  0.5468
 4622SOL    HW125499   0.958   0.561   3.566 -0.4480  0.0239  1.4819
 4622SOL    HW225500   0.896   0.585   3.444 -0.0098  1.7773 -0.1779
 4623SOL     OW25501   1.530   2.098   1.625  0.7948 -0.6654 -0.2091
 4623SOL    HW125502   1.489   2.182   1.604 -0.0923 -1.4116 -1.4090
 4623SOL    HW225503   1.543   2.055   1.540  2.7614  0.7117 -0.6204
 4624SOL     OW25504   2.586   0.603  14.200 -0.6116 -0.5125  0.5244
 4624SOL    HW125505   2.612   0.527  14.149 -2.1826 -1.1702  0.7060
 4624SOL    HW225506   2.520   0.566  14.259 -0.4133 -0.3683  0.8383
 4625SOL     OW25507   0.128   4.667   2.455 -0.1152  0.5927  0.6685
 4625SOL    HW125508   0.179   4.589   2.434  2.0046  2.9021 -2.7920
 4625SOL    HW225509   0.183   4.729   2.406 -1.4666 -0.6826 -2.4681
 4626SOL     OW25510   2.856   3.717   6.199 -0.0529 -0.0749 -0.0216
 4626SOL    HW125511   2.938   3.750   6.160 -1.5253  2.2532 -1.1763
 4626SOL    HW225512   2.871   3.623   6.207  0.1320 -0.2099 -2.0646
 4627SOL     OW25513   2.869   2.796   2.754 -0.4585  0.6003  0.4594
 4627SOL    HW125514   2.902   2.801   2.843  1.6664 -0.1860 -0.2925
 4627SOL    HW225515   2.857   2.890   2.737 -0.2575  0.3302 -1.1978
 4628SOL     OW25516   2.792   3.389   7.677 -0.3363  0.1325 -0.4642
 4628SOL    HW125517   2.765   3.466   7.726  1.2343  0.9451 -0.9076
 4628SOL    HW225518   2.791   3.420   7.586  1.3055  2.3349  0.2852
 4629SOL     OW25519   2.654   0.758   0.686  0.2369 -0.0081 -0.2372
 4629SOL    HW125520   2.735   0.791   0.646  0.9579 -0.4457  0.8472
 4629SOL    HW225521   2.590   0.817   0.647 -1.9454 -3.0624 -1.2664
 4630SOL     OW25522   4.357   4.323   3.644 -0.0988  0.2567  0.1908
 4630SOL    HW125523   4.395   4.411   3.650  2.3194 -0.8223  0.3315
 4630SOL    HW225524   4.299   4.329   3.567 -0.5539 -2.1168  0.3419
 4631SOL     OW25525   1.441   0.623  14.156  0.0786  0.0082  0.1684
 4631SOL    HW125526   1.363   0.647  14.105  0.0721 -0.9279 -0.2673
 4631SOL    HW225527   1.473   0.568  14.084 -1.1739 -1.2413  0.5710
 4632SOL     OW25528   3.210   3.915   7.544 -0.1761  0.8159  0.4040
 4632SOL    HW125529   3.250   3.847   7.598 -1.5316  1.3440  2.0442
 4632SOL    HW225530   3.117   3.897   7.536 -0.5867  2.5813  1.2324
 4633SOL     OW25531   2.103   2.933  16.384 -0.1171 -0.5655 -0.2272
 4633SOL    HW125532   2.149   2.864  16.433 -0.0737 -0.3008  0.1010
 4633SOL    HW225533   2.021   2.890  16.361 -0.0420 -1.1479  0.5871
 4634SOL     OW25534   0.798   2.378   4.012  0.3132 -0.5315  0.2010
 4634SOL    HW125535   0.751   2.453   3.974  0.6685 -0.7759 -0.7154
 4634SOL    HW225536   0.888   2.408   4.007  0.8951 -1.8966  2.7221
 4635SOL     OW25537   2.780   0.621  13.317  0.4578 -0.2797  0.0895
 4635SOL    HW125538   2.864   0.607  13.273  1.3305  0.1812  1.5942
 4635SOL    HW225539   2.787   0.575  13.401  2.3919 -1.7311 -0.8483
 4636SOL     OW25540   1.410   4.465   8.603 -0.4949  0.1091  0.3353
 4636SOL    HW125541   1.404   4.545   8.552  2.0429 -1.5578 -2.5219
 4636SOL    HW225542   1.412   4.510   8.688  0.0926 -0.8947  0.8573
 4637SOL     OW25543   2.324   4.248   9.572  0.4478 -0.6980 -0.3777
 4637SOL    HW125544   2.307   4.197   9.651 -0.4173  1.1104  0.6008
 4637SOL    HW225545   2.248   4.306   9.562  1.3398  0.6324  0.5686
 4638SOL     OW25546   3.634   0.610  16.529 -0.0851 -0.4024  0.7532
 4638SOL    HW125547   3.702   0.624  16.595 -1.7695  0.4039  2.3209
 4638SOL    HW225548   3.598   0.698  16.519 -1.5406 -1.0740  0.1741
 4639SOL     OW25549   1.905   3.771   3.728  0.4524 -0.4819  0.3742
 4639SOL    HW125550   1.907   3.776   3.633 -2.2318  0.0080  0.3365
 4639SOL    HW225551   1.876   3.857   3.760  1.2625 -0.3847  0.8545
 4640SOL     OW25552   0.786   0.936   0.473 -0.7735 -0.0371 -0.3196
 4640SOL    HW125553   0.801   0.896   0.387 -0.2151  0.3156 -0.3894
 4640SOL    HW225554   0.750   0.868   0.529  0.2320 -0.9295 -0.7670
 4641SOL     OW25555   2.010   3.878  11.301  0.3911 -0.4386 -0.1852
 4641SOL    HW125556   2.074   3.894  11.231 -3.0480  1.0474 -2.9871
 4641SOL    HW225557   2.060   3.898  11.380  1.6095 -1.2794 -0.7552
 4642SOL     OW25558   4.345   0.024  17.212 -0.2795 -0.2442 -0.3093
 4642SOL    HW125559   4.268   4.724  17.253 -1.5592 -0.3316 -2.7947
 4642SOL    HW225560   4.396   4.689  17.180 -1.0714 -0.5963 -0.7634
 4643SOL     OW25561   2.619   3.159  14.817 -0.7125  0.1680  0.1343
 4643SOL    HW125562   2.685   3.097  14.847  1.0393  1.7239 -0.4540
 4643SOL    HW225563   2.670   3.205  14.750  1.4100 -1.4810  0.6245
 4644SOL     OW25564   1.726   1.491  10.401 -0.5055  0.8049  0.3481
 4644SOL    HW125565   1.730   1.398  10.420 -0.0542  0.3056 -2.2041
 4644SOL    HW225566   1.813   1.520  10.430  0.3844 -0.3219 -1.2201
 4645SOL     OW25567   3.541   3.057   0.736 -0.4818 -0.8509 -0.6604
 4645SOL    HW125568   3.511   3.129   0.680  1.7739  0.3737 -0.3277
 4645SOL    HW225569   3.455   3.027   0.764 -1.5433  2.6822 -0.1854
 4646SOL     OW25570   1.585   4.170  10.356  0.3105 -0.0331  0.4004
 4646SOL    HW125571   1.651   4.174  10.425 -0.8188  1.9747  1.3718
 4646SOL    HW225572   1.636   4.140  10.280 -1.3902 -1.0528 -0.3251
 4647SOL     OW25573   2.979   4.702  14.489 -0.0692 -0.0140 -0.1752
 4647SOL    HW125574   2.971   0.046  14.442  1.5961  0.2961  0.1047
 4647SOL    HW225575   2.948   4.727  14.576  0.3332  1.2771 -0.3978
 4648SOL     OW25576   3.070   1.078   5.493 -0.1027  0.1211 -0.2148
 4648SOL    HW125577   3.095   1.095   5.402  0.5086 -2.8336 -0.5779
 4648SOL    HW225578   2.989   1.033   5.470  0.7872 -1.4079 -0.3086
 4649SOL     OW25579   1.381   2.109   4.693  0.4109  0.2621  0.3622
 4649SOL    HW125580   1.329   2.044   4.739  1.0771 -2.0975 -2.2226
 4649SOL    HW225581   1.393   2.175   4.761  1.6209  0.2668  0.1473
 4650SOL     OW25582   4.296   3.384   6.050  0.0604 -0.0018 -0.3044
 4650SOL    HW125583   4.303   3.348   6.139  1.1339 -1.0816 -0.8218
 4650SOL    HW225584   4.371   3.342   6.007  1.8589  2.2143  0.6712
 4651SOL     OW25585   0.283   2.777   9.693 -0.2721 -0.3238  0.2874
 4651SOL    HW125586   0.212   2.725   9.655 -0.9491  1.2272 -0.5411
 4651SOL    HW225587   0.280   2.757   9.787 -3.3126 -1.6347 -0.0731
 4652SOL     OW25588   0.758   3.268   8.081 -0.3070 -0.1041  0.1621
 4652SOL    HW125589   0.705   3.347   8.082  0.4966  0.4502 -0.7396
 4652SOL    HW225590   0.801   3.266   7.995  0.5010  0.3255  0.5602
 4653SOL     OW25591   3.516   3.826   8.564 -0.1395 -0.3839  0.2851
 4653SOL    HW125592   3.604   3.805   8.597  0.4053 -0.9118 -1.5198
 4653SOL    HW225593   3.457   3.783   8.625 -0.0384 -1.3039 -0.2709
 4654SOL     OW25594   0.225   1.061   3.168 -0.4610  0.4804 -0.0544
 4654SOL    HW125595   0.261   1.009   3.096  1.5051  0.8772  0.6511
 4654SOL    HW225596   0.221   1.148   3.128  0.7586 -0.8379 -3.0412
 4655SOL     OW25597   1.048   3.906  13.555  0.0085 -0.0499 -0.0756
 4655SOL    HW125598   1.071   3.814  13.555 -3.3784 -0.9123  0.3913
 4655SOL    HW225599   0.986   3.909  13.482  0.9141  1.6343 -0.7854
 4656SOL     OW25600   0.545   0.616  16.937 -0.1222 -0.2296  0.3073
 4656SOL    HW125601   0.469   0.591  16.884 -0.1464 -3.0051  1.6423
 4656SOL    HW225602   0.600   0.667  16.877 -0.2489  1.3639  1.5343
 4657SOL     OW25603   3.823   2.144   5.477 -0.5110  0.0818 -0.4425
 4657SOL    HW125604   3.904   2.176   5.437  0.5874  1.2983  2.7057
 4657SOL    HW225605   3.848   2.052   5.477 -1.6734 -0.2384  0.2508
 4658SOL     OW25606   3.966   3.701  16.855 -0.2897 -0.2192 -0.2316
 4658SOL    HW125607   4.022   3.657  16.791 -1.3167 -2.2957  0.3089
 4658SOL    HW225608   4.022   3.697  16.932 -0.8410  2.2045  0.2734
 4659SOL     OW25609   4.620   1.155   6.605  0.1496 -0.2094 -0.7606
 4659SOL    HW125610   4.532   1.188   6.584 -0.3353 -0.9151  0.1664
 4659SOL    HW225611   4.645   1.211   6.678  1.6241 -1.8766 -0.0125
 4660SOL     OW25612   4.327   4.457   4.893  0.5042  0.5335 -0.1756
 4660SOL    HW125613   4.398   4.500   4.844  0.1035  0.7010 -0.6038
 4660SOL    HW225614   4.250   4.501   4.857  0.2446  0.0218 -0.2453
 4661SOL     OW25615   3.479   0.386   4.737  0.3008 -0.2398  0.7176
 4661SOL    HW125616   3.420   0.345   4.801 -3.1054  1.4240 -1.3291
 4661SOL    HW225617   3.548   0.320   4.742  1.0003  0.5898  1.9650
 4662SOL     OW25618   3.405   0.947   2.429  0.2556 -0.6318  0.4055
 4662SOL    HW125619   3.392   0.985   2.343  4.6158  1.0987  0.4938
 4662SOL    HW225620   3.452   0.866   2.409  0.1152 -0.5368 -0.2820
 4663SOL     OW25621   0.009   1.708   4.656  0.1100 -0.7890  0.0509
 4663SOL    HW125622   0.097   1.733   4.628 -0.4415  0.2918 -0.7311
 4663SOL    HW225623   4.739   1.778   4.721  0.1648  1.8503 -2.7671
 4664SOL     OW25624   4.149   2.939   0.586  0.0556 -0.3138 -0.2057
 4664SOL    HW125625   4.194   2.870   0.635 -0.1923 -1.1357 -1.1275
 4664SOL    HW225626   4.109   2.992   0.654 -0.0135  1.1891 -1.4237
 4665SOL     OW25627   0.266   3.986   8.303 -0.4417  0.6217 -0.1755
 4665SOL    HW125628   0.285   4.069   8.259  4.6917 -0.2074  0.5454
 4665SOL    HW225629   0.318   3.918   8.262  0.6535  2.2792 -1.5315
 4666SOL     OW25630   1.292   2.047   6.688 -0.7028 -0.2367  0.6977
 4666SOL    HW125631   1.355   2.042   6.761  1.5061 -0.5846 -1.2454
 4666SOL    HW225632   1.357   2.079   6.625 -1.8801 -0.1326 -0.4585
 4667SOL     OW25633   2.507   1.775   6.480  0.1792 -0.3005  0.2512
 4667SOL    HW125634   2.551   1.854   6.448 -0.5643 -0.2109 -0.5850
 4667SOL    HW225635   2.545   1.712   6.419  0.0413  1.6052 -1.8374
 4668SOL     OW25636   0.347   0.847   1.560  0.4507  0.3202  0.3958
 4668SOL    HW125637   0.417   0.786   1.585 -0.3632 -1.7010 -2.1515
 4668SOL    HW225638   0.379   0.858   1.470 -4.9878 -2.4393 -1.8868
 4669SOL     OW25639   3.933   1.464   1.984 -0.5014  0.5018 -0.0692
 4669SOL    HW125640   3.866   1.417   1.935 -0.4103  1.1929 -0.8528
 4669SOL    HW225641   3.884   1.536   2.023 -0.9197  0.6915 -0.9510
 4670SOL     OW25642   1.820   2.897  10.585  0.1146  0.4223  0.8222
 4670SOL    HW125643   1.904   2.852  10.586  0.9791  2.0536 -0.0993
 4670SOL    HW225644   1.801   2.904  10.679 -0.9697 -1.1367  0.7369
 4671SOL     OW25645   3.668   2.221  16.019 -0.3582  1.0104 -0.2855
 4671SOL    HW125646   3.606   2.200  15.950 -0.6867  0.7291  0.0923
 4671SOL    HW225647   3.738   2.168  15.982 -1.1762  0.5677 -1.2110
 4672SOL     OW25648   4.519   1.388  10.743 -0.4339  0.2773 -0.6358
 4672SOL    HW125649   4.557   1.313  10.698 -1.3861 -1.9548  2.3084
 4672SOL    HW225650   4.594   1.447  10.748 -0.9535  0.9490 -0.5980
 4673SOL     OW25651   0.406   2.576  13.855 -0.5778  0.2147  0.4553
 4673SOL    HW125652   0.401   2.515  13.782 -2.0440 -0.0689  0.7839
 4673SOL    HW225653   0.439   2.653  13.809 -1.2833  0.4302  0.3075
 4674SOL     OW25654   0.513   1.711   9.388  0.4272  0.2502 -0.5333
 4674SOL    HW125655   0.580   1.649   9.415 -0.5323  0.5789  2.5635
 4674SOL    HW225656   0.481   1.755   9.467 -2.9968  0.1344 -1.8565
 4675SOL     OW25657   1.218   4.255   8.241  0.5295  0.1638  0.2860
 4675SOL    HW125658   1.229   4.182   8.181 -0.4890  0.5193 -0.3322
 4675SOL    HW225659   1.226   4.324   8.175 -1.9332 -0.4727 -0.6761
 4676SOL     OW25660   0.752   2.929  17.251 -0.3091 -0.3282 -0.6512
 4676SOL    HW125661   0.831   2.960  17.207 -1.1282  2.9369  0.2053
 4676SOL    HW225662   0.750   2.839  17.216  3.5992 -1.1803  1.2357
 4677SOL     OW25663   4.126   0.980  17.041 -0.3852  0.0960  0.3682
 4677SOL    HW125664   4.089   0.907  17.091 -0.8694 -0.9234 -1.4748
 4677SOL    HW225665   4.215   0.946  17.033 -0.8973 -1.5462  1.5509
 4678SOL     OW25666   2.532   4.524   1.635 -0.1560 -0.3098 -0.5003
 4678SOL    HW125667   2.568   4.533   1.723 -1.7876  0.8346  0.0634
 4678SOL    HW225668   2.452   4.488   1.673  1.2707 -1.1165  1.7176
 4679SOL     OW25669   2.327   1.440   3.750  0.0905  0.1781  0.6378
 4679SOL    HW125670   2.287   1.467   3.833 -1.6709 -1.4578  0.3077
 4679SOL    HW225671   2.253   1.437   3.690 -0.7402 -1.2433  1.7256
 4680SOL     OW25672   2.445   1.228   4.803  0.2652 -0.7359 -0.2414
 4680SOL    HW125673   2.478   1.261   4.887 -0.9087  0.0951 -0.1128
 4680SOL    HW225674   2.513   1.257   4.742  0.5868 -1.2423 -0.1271
 4681SOL     OW25675   2.850   2.581   3.281 -0.1232  0.1793 -0.1136
 4681SOL    HW125676   2.907   2.536   3.219 -0.1401  1.5949 -1.1626
 4681SOL    HW225677   2.912   2.596   3.352 -2.1639  2.8969  1.1140
 4682SOL     OW25678   0.981   2.690   5.467 -0.5632 -0.4751  0.7811
 4682SOL    HW125679   1.064   2.661   5.505  0.3861  2.6505  1.0987
 4682SOL    HW225680   1.009   2.763   5.412  0.2844 -2.3366 -1.2752
 4683SOL     OW25681   2.171   3.598   2.439  0.2052  0.2730  0.5535
 4683SOL    HW125682   2.162   3.626   2.347  1.2105 -1.0195  0.0593
 4683SOL    HW225683   2.151   3.505   2.425  1.8642  0.1774 -1.1842
 4684SOL     OW25684   2.550   1.995   4.820 -0.1344  0.0271  0.8594
 4684SOL    HW125685   2.460   2.017   4.845 -0.7822  0.6309 -2.0101
 4684SOL    HW225686   2.578   1.948   4.899  0.6579 -0.5293  0.2413
 4685SOL     OW25687   2.026   2.214   5.493  0.8964  0.0174 -0.3310
 4685SOL    HW125688   1.943   2.175   5.466  0.1782  1.4791 -0.2627
 4685SOL    HW225689   2.091   2.145   5.500  0.1512 -0.4132  2.2696
 4686SOL     OW25690   3.664   1.232  13.021 -0.0521  0.3602  0.4355
 4686SOL    HW125691   3.669   1.318  12.980 -0.9347  0.4362  0.4893
 4686SOL    HW225692   3.665   1.180  12.941  2.4142  2.5722 -0.9837
 4687SOL     OW25693   4.574   0.774   1.613 -0.3656 -0.4204  0.0764
 4687SOL    HW125694   4.651   0.826   1.590 -0.6789 -0.1358 -0.3478
 4687SOL    HW225695   4.503   0.814   1.561 -1.3224 -2.7696 -0.4279
 4688SOL     OW25696   2.751   3.403   9.321  0.0568 -0.1402 -0.5915
 4688SOL    HW125697   2.703   3.376   9.242 -0.1404  1.0316 -0.8639
 4688SOL    HW225698   2.693   3.370   9.389  2.0314 -0.8256  0.7654
 4689SOL     OW25699   4.532   2.493   5.002 -0.0698 -0.0691 -0.7572
 4689SOL    HW125700   4.452   2.495   5.055  0.2745 -1.2615 -0.1990
 4689SOL    HW225701   4.504   2.514   4.913  0.5157  1.0766 -0.6643
 4690SOL     OW25702   1.970   0.428   6.049 -0.2415 -0.2128  0.3209
 4690SOL    HW125703   1.905   0.493   6.076 -2.8177 -3.5341  2.1371
 4690SOL    HW225704   2.001   0.399   6.135  0.1765 -2.3126 -0.5298
 4691SOL     OW25705   2.547   0.290   4.587  0.7477 -0.3003  0.2475
 4691SOL    HW125706   2.505   0.376   4.598  0.7443 -0.6980  3.1053
 4691SOL    HW225707   2.567   0.297   4.493  1.3608 -0.0446  0.3964
 4692SOL     OW25708   3.534   3.579   0.629 -0.3354  0.8066  0.2131
 4692SOL    HW125709   3.555   3.561   0.721 -1.5908  0.4700  0.4288
 4692SOL    HW225710   3.570   3.666   0.614  1.9007 -0.0356  0.7133
 4693SOL     OW25711   3.321   4.099   2.231  0.6057 -0.5125 -0.2072
 4693SOL    HW125712   3.257   4.143   2.287  0.7693  0.9116 -1.1424
 4693SOL    HW225713   3.372   4.048   2.293 -0.3717  0.2626  1.2302
 4694SOL     OW25714   2.944   1.085  14.762  0.0801 -0.2629 -0.8212
 4694SOL    HW125715   2.928   1.165  14.813 -1.4553 -2.1260  1.6523
 4694SOL    HW225716   2.892   1.112  14.686 -2.2595 -0.6467  0.6197
 4695SOL     OW25717   3.498   1.132   1.373 -0.1715  0.3340 -0.3174
 4695SOL    HW125718   3.508   1.191   1.448 -1.3959 -0.1291  0.2039
 4695SOL    HW225719   3.578   1.146   1.322 -0.3247 -3.3420 -1.5850
 4696SOL     OW25720   0.158   2.064   8.281 -0.2398 -0.0800  0.5715
 4696SOL    HW125721   0.095   2.127   8.247 -0.6662 -0.9336 -0.2197
 4696SOL    HW225722   0.220   2.064   8.208  0.3039 -0.6004  1.0359
 4697SOL     OW25723   2.186   2.901   5.460  0.0278  0.3150  0.2797
 4697SOL    HW125724   2.164   2.977   5.514  0.2750  1.9455 -1.9149
 4697SOL    HW225725   2.151   2.932   5.376  0.4469  0.5261  0.1805
 4698SOL     OW25726   1.686   4.132   1.052  0.0098  0.3433 -0.3586
 4698SOL    HW125727   1.707   4.122   0.959 -2.9031 -0.0753 -0.9706
 4698SOL    HW225728   1.765   4.175   1.084 -0.2920 -1.3991  2.7728
 4699SOL     OW25729   1.758   2.070   9.677 -0.4012  0.2777 -0.3656
 4699SOL    HW125730   1.664   2.073   9.692 -0.3960  1.0895 -0.5105
 4699SOL    HW225731   1.757   2.103   9.587  1.9111 -0.0350 -0.5064
 4700SOL     OW25732   2.080   3.946   1.202  0.0812  0.0860 -1.2100
 4700SOL    HW125733   2.056   3.979   1.289  1.0059 -0.0153 -0.9238
 4700SOL    HW225734   2.104   3.856   1.222 -3.7787 -0.8253 -0.5997
 4701SOL     OW25735   0.935   4.359   7.050 -0.4862 -0.4257  0.3666
 4701SOL    HW125736   0.867   4.293   7.057  0.3714 -1.5186 -1.4375
 4701SOL    HW225737   0.963   4.351   6.959 -2.9736 -1.4728 -0.3104
 4702SOL     OW25738   4.690   4.513   4.414  0.2728 -0.0061  0.2377
 4702SOL    HW125739   4.669   4.603   4.438  1.5179  0.3430  0.0113
 4702SOL    HW225740   4.692   4.518   4.318 -1.2801 -0.4663  0.1713
 4703SOL     OW25741   1.086   3.652   1.767  0.5464  0.4762  0.2687
 4703SOL    HW125742   1.175   3.685   1.776  0.5285  0.4570  0.5306
 4703SOL    HW225743   1.070   3.716   1.698  0.8157  0.2899  0.0313
 4704SOL     OW25744   0.231   2.411   4.664 -0.0507 -0.3143  0.0945
 4704SOL    HW125745   0.325   2.407   4.648 -0.2247 -0.0625 -0.9824
 4704SOL    HW225746   0.226   2.394   4.758 -1.7194  1.3851  0.3236
 4705SOL     OW25747   0.640   1.493   6.295 -0.3534  0.4866 -0.1290
 4705SOL    HW125748   0.710   1.543   6.337 -0.1747  0.8126 -0.8103
 4705SOL    HW225749   0.664   1.403   6.316 -0.8760  0.7619  1.6963
 4706SOL     OW25750   0.930   2.676   8.880  0.2723  0.8043 -0.1118
 4706SOL    HW125751   0.927   2.763   8.839 -0.4032  0.1115 -1.5361
 4706SOL    HW225752   0.926   2.696   8.973  0.0524  1.9106 -0.3610
 4707SOL     OW25753   3.286   0.150  11.174 -0.3869  0.3452 -0.1490
 4707SOL    HW125754   3.294   0.174  11.266 -0.8173  0.8588 -0.2491
 4707SOL    HW225755   3.357   0.087  11.164 -2.4411 -2.1038  0.6864
 4708SOL     OW25756   3.761   4.421   4.082 -0.0078 -0.4301 -0.3906
 4708SOL    HW125757   3.801   4.490   4.135  0.6516 -0.3478 -1.0015
 4708SOL    HW225758   3.821   4.352   4.110  0.6037  0.2786  0.0419
 4709SOL     OW25759   3.789   2.361   4.889 -0.0490 -0.8934  0.1464
 4709SOL    HW125760   3.769   2.334   4.978  0.4294 -2.6042 -0.2821
 4709SOL    HW225761   3.709   2.324   4.852  0.3426 -2.0005  0.4141
 4710SOL     OW25762   4.567   3.300  17.677 -0.2256  0.2051 -0.1595
 4710SOL    HW125763   4.536   3.214  17.707  0.6342  0.2086  0.7331
 4710SOL    HW225764   4.598   3.275  17.589  3.0122 -0.8880  1.2977
 4711SOL     OW25765   2.322   0.254   3.846 -0.2578 -0.4089  0.2726
 4711SOL    HW125766   2.266   0.225   3.774  0.5633 -2.9170  0.6397
 4711SOL    HW225767   2.286   0.207   3.921 -1.5277  2.1639  1.2511
 4712SOL     OW25768   3.241   4.511   3.219 -0.5654  0.0770 -0.0240
 4712SOL    HW125769   3.335   4.511   3.239 -0.3957  0.6397 -0.8085
 4712SOL    HW225770   3.225   4.606   3.218 -2.0762 -0.1569  1.0877
 4713SOL     OW25771   0.784   4.252  15.170 -0.3071  0.1654 -0.2380
 4713SOL    HW125772   0.864   4.303  15.157 -0.7502  1.0782  0.5860
 4713SOL    HW225773   0.793   4.203  15.088  0.0794 -1.2435  0.6428
 4714SOL     OW25774   0.280   1.532   8.561  0.0739  0.1151 -0.0847
 4714SOL    HW125775   0.239   1.584   8.630  2.1630 -0.3557  1.5512
 4714SOL    HW225776   0.245   1.576   8.485 -1.7816  0.2992  0.8889
 4715SOL     OW25777   2.289   2.282   2.281 -0.5307 -0.1018  0.7087
 4715SOL    HW125778   2.261   2.191   2.291 -0.0161 -0.4496 -1.0762
 4715SOL    HW225779   2.310   2.290   2.188 -0.1749  4.1536  1.1255
 4716SOL     OW25780   0.877   2.718   1.796  0.4244 -0.2440  0.6982
 4716SOL    HW125781   0.931   2.661   1.850  2.0270  0.1974 -0.4401
 4716SOL    HW225782   0.835   2.770   1.865  0.1783  1.6772 -0.8943
 4717SOL     OW25783   3.619   0.460   4.305 -0.1200  0.3933  0.5232
 4717SOL    HW125784   3.572   0.381   4.329  2.7082 -2.0791 -2.0919
 4717SOL    HW225785   3.550   0.526   4.310 -0.2375  0.2585  0.6757
 4718SOL     OW25786   1.311   2.891   2.898  0.5183 -0.1334 -0.3495
 4718SOL    HW125787   1.236   2.840   2.868 -0.0896  1.1441 -1.0168
 4718SOL    HW225788   1.309   2.883   2.994 -0.5583  2.0623 -0.1668
 4719SOL     OW25789   3.015   4.447   3.543  0.5312 -0.0558 -0.0921
 4719SOL    HW125790   3.064   4.523   3.513  3.2581 -1.1801  1.5523
 4719SOL    HW225791   3.079   4.376   3.542  0.8356  0.2081  0.5247
 4720SOL     OW25792   3.356   0.032   6.735 -0.2039 -0.1617  0.4386
 4720SOL    HW125793   3.294   0.047   6.664  1.3078 -0.1082 -0.8741
 4720SOL    HW225794   3.337   0.106   6.793 -1.2619 -1.4974  1.7834
 4721SOL     OW25795   1.360   1.396   9.872 -0.1293 -0.7204  0.4683
 4721SOL    HW125796   1.375   1.482   9.911 -1.1574  0.4796 -1.7539
 4721SOL    HW225797   1.429   1.381   9.808  0.4341  3.3670  0.1339
 4722SOL     OW25798   1.107   1.122   4.518  0.4669 -0.4149  0.5077
 4722SOL    HW125799   1.139   1.033   4.535  1.8426  0.4960  2.6682
 4722SOL    HW225800   1.190   1.165   4.497  0.5619  0.1091  1.9668
 4723SOL     OW25801   1.132   0.229   3.484  0.3929 -0.2972  0.1708
 4723SOL    HW125802   1.196   0.224   3.555 -0.5261  2.3697  1.1927
 4723SOL    HW225803   1.187   0.203   3.410  0.3533 -1.3836  0.5274
 4724SOL     OW25804   3.175   1.371  16.005  0.4710  0.2792  0.5340
 4724SOL    HW125805   3.214   1.337  15.925  0.3670 -0.9606  1.0081
 4724SOL    HW225806   3.103   1.418  15.963 -0.5785 -0.3078  1.6867
 4725SOL     OW25807   4.466   1.632  14.412  0.1634  0.8679  0.0351
 4725SOL    HW125808   4.520   1.708  14.393  1.6233 -0.2165 -0.1574
 4725SOL    HW225809   4.516   1.579  14.474 -0.6258 -0.5169 -0.5122
 4726SOL     OW25810   4.727   1.554  15.618  0.4466 -0.0756 -0.4664
 4726SOL    HW125811   0.013   1.499  15.544  0.2176 -1.7258  0.6834
 4726SOL    HW225812   4.644   1.585  15.583  0.4061  1.6666  1.1964
 4727SOL     OW25813   4.475   0.321  12.022 -0.0828  0.1599 -0.0089
 4727SOL    HW125814   4.462   0.416  12.015  0.4770 -0.1280 -4.9950
 4727SOL    HW225815   4.383   0.299  12.030  0.1688 -0.8004  0.2205
 4728SOL     OW25816   2.843   1.269   5.284 -0.2994 -0.3271 -0.3201
 4728SOL    HW125817   2.860   1.320   5.204 -1.0697 -0.6335 -0.6737
 4728SOL    HW225818   2.748   1.263   5.293 -0.4144  1.4406 -0.4245
 4729SOL     OW25819   1.989   2.569   8.035  0.5674 -0.5216 -0.7745
 4729SOL    HW125820   1.910   2.574   7.981 -0.9418 -2.0056  1.2715
 4729SOL    HW225821   2.047   2.621   7.980  1.0551  1.4535  1.6059
 4730SOL     OW25822   3.250   0.186   6.506  0.0546 -0.3408 -0.1962
 4730SOL    HW125823   3.316   0.202   6.439 -0.8356 -1.3648 -1.3463
 4730SOL    HW225824   3.246   0.266   6.558  1.3822  1.3630 -2.7331
 4731SOL     OW25825   1.884   2.850   4.533  0.2541  0.1595 -0.8551
 4731SOL    HW125826   1.968   2.815   4.560 -1.0062 -2.0123  0.2743
 4731SOL    HW225827   1.887   2.941   4.563 -0.9137  0.3448 -1.2844
 4732SOL     OW25828   4.370   1.030  16.509  0.2758  0.0686  0.4982
 4732SOL    HW125829   4.403   1.076  16.586  0.2101 -0.7067  0.9937
 4732SOL    HW225830   4.296   0.982  16.547 -1.0313  1.3678 -0.4065
 4733SOL     OW25831   3.013   2.398   1.533  0.2041 -0.4060  0.5597
 4733SOL    HW125832   2.934   2.428   1.577  0.1746  0.6627 -0.2326
 4733SOL    HW225833   2.997   2.423   1.443  0.5080  3.7666  1.6873
 4734SOL     OW25834   3.791   0.403   6.879  0.0851 -0.3342 -0.4767
 4734SOL    HW125835   3.807   0.458   6.802 -0.8081  1.5952  0.7124
 4734SOL    HW225836   3.879   0.367   6.891 -0.1312 -1.4448 -2.1982
 4735SOL     OW25837   1.508   1.538   7.287 -0.1574 -0.6398 -0.3324
 4735SOL    HW125838   1.447   1.598   7.245  0.9346  1.9784  1.8215
 4735SOL    HW225839   1.547   1.488   7.216  2.1628  0.9292 -0.1585
 4736SOL     OW25840   2.173   2.316   6.362 -0.0132 -0.9343  0.5764
 4736SOL    HW125841   2.115   2.329   6.287  0.7213 -0.4732  0.0860
 4736SOL    HW225842   2.109   2.337   6.429  0.3947 -1.8583  1.2431
 4737SOL     OW25843   3.106   2.543   4.192  0.5699 -0.0231 -0.6516
 4737SOL    HW125844   3.012   2.536   4.209  1.0057 -1.5431  1.1199
 4737SOL    HW225845   3.116   2.632   4.160  2.8648 -0.6936 -1.8187
 4738SOL     OW25846   2.092   0.179  14.218  0.3081 -0.3790 -0.2121
 4738SOL    HW125847   2.109   0.102  14.272 -2.3356  0.1576  1.3517
 4738SOL    HW225848   2.145   0.166  14.138  1.4126  2.0610  0.1309
 4739SOL     OW25849   1.391   0.567  17.441  0.2231  0.6884  0.4306
 4739SOL    HW125850   1.333   0.623  17.389 -0.7254 -1.3326 -0.7243
 4739SOL    HW225851   1.426   0.528  17.361 -1.3816 -1.9773  1.0267
 4740SOL     OW25852   0.427   0.638   2.280 -0.0620 -0.3904  0.0428
 4740SOL    HW125853   0.388   0.672   2.200  0.0421  1.3271  0.7202
 4740SOL    HW225854   0.423   0.721   2.328  1.2672 -0.2706 -0.0573
 4741SOL     OW25855   4.264   3.573   0.294 -0.5819  0.1080  0.0433
 4741SOL    HW125856   4.210   3.574   0.373 -1.4084 -0.2121 -0.5098
 4741SOL    HW225857   4.350   3.542   0.321 -0.7308 -1.4446 -1.2315
 4742SOL     OW25858   3.121   2.749   3.214  0.0462  0.5722  0.4089
 4742SOL    HW125859   3.194   2.798   3.176  0.8649 -1.1093 -0.2217
 4742SOL    HW225860   3.163   2.696   3.282 -0.0512  2.3807  1.8670
 4743SOL     OW25861   0.452   4.250  11.152  0.2251  0.2193 -0.7604
 4743SOL    HW125862   0.519   4.197  11.195  0.1629 -1.1153 -2.3063
 4743SOL    HW225863   0.502   4.300  11.088  1.5452  1.2332  1.0703
 4744SOL     OW25864   4.613   0.562   3.459  0.0404 -0.2538 -0.1999
 4744SOL    HW125865   4.673   0.487   3.456 -1.3720 -1.3421 -1.3413
 4744SOL    HW225866   4.615   0.595   3.369  0.5342  1.4114  0.4194
 4745SOL     OW25867   0.172   3.879   7.842  0.1704  0.3312 -0.1276
 4745SOL    HW125868   0.138   3.912   7.926  2.6803  0.1453  0.9531
 4745SOL    HW225869   0.106   3.813   7.822  2.7637 -2.0415 -0.6978
 4746SOL     OW25870   3.284   0.929   8.759 -0.7396  0.6445  0.1149
 4746SOL    HW125871   3.235   0.923   8.841  0.0813  1.5115  0.6767
 4746SOL    HW225872   3.366   0.960   8.796 -0.3150  2.2211 -2.1563
 4747SOL     OW25873   4.462   3.209   2.230 -0.4716  0.1647 -0.5182
 4747SOL    HW125874   4.446   3.298   2.199  1.6729 -0.3821 -3.1352
 4747SOL    HW225875   4.547   3.186   2.193 -1.2056 -0.9522 -1.5004
 4748SOL     OW25876   0.408   3.313  16.984 -0.4297  0.3257  0.0733
 4748SOL    HW125877   0.318   3.317  17.014 -0.2701  1.5016  0.4006
 4748SOL    HW225878   0.427   3.227  17.022 -0.2705 -0.2584 -1.3368
 4749SOL     OW25879   3.556   0.391   3.931  0.8781  0.1225 -0.1617
 4749SOL    HW125880   3.476   0.425   3.969  0.2214 -1.4150 -0.1733
 4749SOL    HW225881   3.545   0.412   3.838  0.2056 -0.9218 -0.3183
 4750SOL     OW25882   0.470   1.967   4.818  0.6256 -0.1856  0.2450
 4750SOL    HW125883   0.496   1.876   4.833  1.2570 -0.0307  0.1119
 4750SOL    HW225884   0.508   1.988   4.732 -0.7530  3.5498  0.5672
 4751SOL     OW25885   1.387   3.318  14.491  0.1714  0.9544  0.3033
 4751SOL    HW125886   1.469   3.364  14.507 -0.7060  2.2307  1.0842
 4751SOL    HW225887   1.409   3.266  14.413  0.1295  0.0671  0.8814
 4752SOL     OW25888   2.258   3.564   6.037  0.2783  1.1918  0.2347
 4752SOL    HW125889   2.291   3.653   6.031  0.4716  1.1650  0.8953
 4752SOL    HW225890   2.178   3.576   6.089  1.3072  2.4691  1.5260
 4753SOL     OW25891   2.747   0.833   8.366  0.1201 -0.0617 -0.1446
 4753SOL    HW125892   2.786   0.831   8.279  2.5321 -0.8024  0.9544
 4753SOL    HW225893   2.657   0.857   8.342 -0.2791 -2.6662 -1.1987
 4754SOL     OW25894   3.259   3.719   1.042  0.8936 -0.4322  0.0422
 4754SOL    HW125895   3.289   3.758   0.960  1.0320 -0.8221 -0.0892
 4754SOL    HW225896   3.282   3.788   1.105  0.3186 -0.7677  0.6237
 4755SOL     OW25897   3.046   3.791  10.100 -0.4837  0.3555 -0.4849
 4755SOL    HW125898   3.034   3.789  10.195  0.0770  1.4338 -0.3947
 4755SOL    HW225899   3.011   3.707  10.070  1.2846 -1.0312  1.3797
 4756SOL     OW25900   1.914   4.484   9.346 -0.8451 -0.3889 -0.2860
 4756SOL    HW125901   1.832   4.435   9.351 -0.8756 -0.1180  1.8572
 4756SOL    HW225902   1.880   4.573   9.344 -1.4117 -0.6044 -0.3368
 4757SOL     OW25903   4.536   3.781   7.036  0.7409  0.1277 -0.4859
 4757SOL    HW125904   4.612   3.837   7.053 -0.4225  2.2150 -2.1228
 4757SOL    HW225905   4.518   3.793   6.943 -0.2624  0.7287 -0.2152
 4758SOL     OW25906   1.855   3.799   8.341  0.1404  0.3920  0.3274
 4758SOL    HW125907   1.890   3.817   8.428 -2.4528 -0.0598  1.4656
 4758SOL    HW225908   1.849   3.704   8.338  0.5892  0.3820 -0.1846
 4759SOL     OW25909   1.875   4.671   6.556  0.9986 -0.0296 -0.2909
 4759SOL    HW125910   1.835   0.014   6.583  0.5232 -1.1133  2.2419
 4759SOL    HW225911   1.954   4.665   6.609  1.1250 -2.4762 -0.7265
 4760SOL     OW25912   2.753   3.653   3.372 -0.4199 -0.1544 -0.0142
 4760SOL    HW125913   2.662   3.622   3.368 -0.2035 -0.7605 -0.1602
 4760SOL    HW225914   2.790   3.625   3.288  1.0188  2.3074 -0.2071
 4761SOL     OW25915   1.862   3.995   0.080 -0.0086  0.6966  0.2523
 4761SOL    HW125916   1.824   3.991   0.167  0.8383  0.9467  0.6317
 4761SOL    HW225917   1.795   3.953   0.026  0.3022 -1.6345  1.6974
 4762SOL     OW25918   0.084   2.741   7.125  1.0909  0.4653 -0.0838
 4762SOL    HW125919   0.063   2.785   7.207  0.1313 -0.1748  0.0111
 4762SOL    HW225920   0.037   2.795   7.060 -1.3952 -0.1478  1.2161
 4763SOL     OW25921   2.778   2.388  11.351 -0.6800 -0.4585 -0.1767
 4763SOL    HW125922   2.688   2.420  11.355  0.2278  2.3204 -1.8699
 4763SOL    HW225923   2.817   2.422  11.270  3.1240 -0.6116  1.6115
 4764SOL     OW25924   1.715   1.237  14.876  0.7040 -0.5671  0.4544
 4764SOL    HW125925   1.738   1.310  14.933 -0.2037  0.6611 -0.7585
 4764SOL    HW225926   1.801   1.220  14.840  0.3673 -0.2055 -0.5102
 4765SOL     OW25927   1.418   0.265   1.392 -0.0452 -0.4404 -0.4222
 4765SOL    HW125928   1.325   0.266   1.415  0.0877  2.0327 -0.0513
 4765SOL    HW225929   1.444   0.173   1.397 -0.5670 -0.3936  3.3809
 4766SOL     OW25930   1.804   1.891   1.602 -0.1910  0.1375 -0.0141
 4766SOL    HW125931   1.850   1.809   1.582 -1.3294 -0.2737 -0.9768
 4766SOL    HW225932   1.753   1.904   1.522  1.7320  0.4849 -1.2125
 4767SOL     OW25933   1.809   2.710   2.099  0.4060  0.0238 -0.0849
 4767SOL    HW125934   1.830   2.618   2.083 -0.1086  0.4400 -3.2745
 4767SOL    HW225935   1.720   2.705   2.135  0.2027 -3.1484 -1.0806
 4768SOL     OW25936   2.376   1.194   0.622  0.1064  0.5192  0.1992
 4768SOL    HW125937   2.421   1.236   0.695  2.4207  2.7790 -2.4793
 4768SOL    HW225938   2.352   1.268   0.566  2.2071  1.4315  0.5052
 4769SOL     OW25939   4.693   2.580   7.539 -0.6954  0.1138 -0.1396
 4769SOL    HW125940   4.647   2.640   7.598  0.1644  0.1049  0.5459
 4769SOL    HW225941   4.631   2.514   7.508  1.6904 -1.4646 -1.5496
 4770SOL     OW25942   4.642   4.040   4.543  0.4863 -0.2453 -0.0772
 4770SOL    HW125943   4.572   3.986   4.506  0.3993 -0.4728  0.4160
 4770SOL    HW225944   4.595   4.123   4.557  1.0385 -0.2619  1.9157
 4771SOL     OW25945   2.723   4.642   5.471  0.4807 -0.0887 -0.5985
 4771SOL    HW125946   2.767   4.706   5.414  0.5034 -0.1939 -0.6995
 4771SOL    HW225947   2.767   4.560   5.449 -0.0177 -0.7909  0.9996
 4772SOL     OW25948   4.594   3.429   6.047 -0.2160 -0.1018  0.0854
 4772SOL    HW125949   4.598   3.337   6.019  2.0361 -0.8267  2.7109
 4772SOL    HW225950   4.673   3.462   6.005  0.8859  0.6496  2.7564
 4773SOL     OW25951   3.708   3.268  16.513  0.0700  0.3537 -0.0656
 4773SOL    HW125952   3.726   3.333  16.581  0.4070 -0.2154  0.3905
 4773SOL    HW225953   3.735   3.184  16.551 -1.9512 -0.6033 -0.7017
 4774SOL     OW25954   4.681   2.122   2.644  0.3189  0.3151  0.2552
 4774SOL    HW125955   4.692   2.115   2.739  0.1184 -2.2950  0.0979
 4774SOL    HW225956   4.732   2.044   2.622 -0.9676 -0.3079 -0.5186
 4775SOL     OW25957   2.409   1.850   4.145 -0.3781  0.4047  0.5418
 4775SOL    HW125958   2.441   1.768   4.106 -4.3967 -0.0564 -1.8041
 4775SOL    HW225959   2.382   1.817   4.231 -0.1115  0.1432  0.5256
 4776SOL     OW25960   0.676   1.059   4.078 -0.6238 -0.2072  0.2697
 4776SOL    HW125961   0.655   1.044   3.986 -1.4892 -0.1665  0.4526
 4776SOL    HW225962   0.604   1.117   4.106  0.7054  0.7365  1.7523
 4777SOL     OW25963   3.733   0.229  13.305 -0.1618  0.5973 -0.1749
 4777SOL    HW125964   3.668   0.175  13.260 -1.7059 -0.1659  2.9805
 4777SOL    HW225965   3.792   0.241  13.231  2.2990 -3.5725  1.0944
 4778SOL     OW25966   1.332   1.410  17.443  0.0306 -0.8121  0.1677
 4778SOL    HW125967   1.323   1.326  17.399  2.6252 -1.2325  0.3990
 4778SOL    HW225968   1.277   1.461  17.384  0.8660 -0.6472 -0.4742
 4779SOL     OW25969   2.155   3.427   8.777  0.5172  0.5560 -0.7225
 4779SOL    HW125970   2.141   3.441   8.683  1.1859 -3.0135 -1.3740
 4779SOL    HW225971   2.077   3.377   8.802  1.1444 -0.5812 -1.0129
 4780SOL     OW25972   0.749   4.450   9.060 -0.4255 -0.1789 -1.3022
 4780SOL    HW125973   0.689   4.462   8.987 -1.1707 -1.9573 -0.9582
 4780SOL    HW225974   0.724   4.371   9.107 -1.7802  0.5849 -0.7649
 4781SOL     OW25975   2.964   0.026   4.712  0.3705  0.3466 -0.1411
 4781SOL    HW125976   2.903   0.096   4.688 -1.8564 -0.1613  3.9696
 4781SOL    HW225977   2.967   4.714   4.631  0.5608  0.2813 -0.0928
 4782SOL     OW25978   0.400   3.566   4.526  0.3495  0.0319 -0.7084
 4782SOL    HW125979   0.325   3.626   4.531  1.0959  1.0521 -1.7610
 4782SOL    HW225980   0.396   3.543   4.434 -2.8997 -0.5041 -0.4405
 4783SOL     OW25981   0.263   4.089   2.851  0.0294  0.1601  0.0300
 4783SOL    HW125982   0.247   4.173   2.894 -0.9561  0.1203 -0.2607
 4783SOL    HW225983   0.178   4.079   2.808  0.0304  0.0614  0.0509
 4784SOL     OW25984   0.021   1.047   4.922  0.3069 -0.3068  0.2882
 4784SOL    HW125985   0.031   0.996   5.002  0.6084 -0.1948  0.3204
 4784SOL    HW225986   4.706   0.981   4.878  1.6332 -1.9572  1.0955
 4785SOL     OW25987   1.057   1.448   6.242  0.0354  0.2618 -0.1523
 4785SOL    HW125988   1.148   1.419   6.236 -0.6921 -2.5925  2.6204
 4785SOL    HW225989   1.019   1.387   6.179  1.2455  1.0559 -1.6546
 4786SOL     OW25990   3.322   2.907   2.194  0.0252  0.1210  0.3119
 4786SOL    HW125991   3.238   2.867   2.215 -0.6614  0.9291 -0.8635
 4786SOL    HW225992   3.290   2.983   2.144  1.2647  0.7681  0.5003
 4787SOL     OW25993   1.937   0.502  12.365  0.0139  0.9803  0.1836
 4787SOL    HW125994   1.914   0.545  12.447 -0.6255 -0.0387  0.5361
 4787SOL    HW225995   1.960   0.581  12.317 -0.1804  0.1568 -1.2458
 4788SOL     OW25996   2.259   2.395  11.698  0.2253  0.3658  0.1636
 4788SOL    HW125997   2.301   2.310  11.711 -1.0775 -0.4674 -1.2679
 4788SOL    HW225998   2.194   2.373  11.632  0.1574  3.2922 -0.7460
 4789SOL     OW25999   1.038   1.423  10.531  0.1855 -0.4954 -0.0928
 4789SOL    HW126000   0.949   1.402  10.502  0.0403  1.2242 -0.8638
 4789SOL    HW226001   1.079   1.337  10.544  1.9773  0.1310 -1.5894
 4790SOL     OW26002   4.580   4.418   9.168  0.1620  0.3758  0.0143
 4790SOL    HW126003   4.631   4.489   9.208  1.9451 -0.3688 -0.9135
 4790SOL    HW226004   4.518   4.470   9.117 -0.7261 -0.6772  0.0320
 4791SOL     OW26005   1.383   2.212   4.415  0.4502  0.1358  0.1824
 4791SOL    HW126006   1.438   2.290   4.417 -1.0886  1.3320 -3.4934
 4791SOL    HW226007   1.350   2.196   4.503 -0.9052  0.5901 -0.2390
 4792SOL     OW26008   4.246   0.060  14.465  0.0197 -0.1124 -0.4408
 4792SOL    HW126009   4.244   0.150  14.498  0.8917  0.4939 -2.0919
 4792SOL    HW226010   4.201   0.024  14.542 -1.5158  2.8521  0.0643
 4793SOL     OW26011   4.623   1.777   8.857  0.2797  0.0293  0.1343
 4793SOL    HW126012   4.664   1.721   8.923 -0.6204  0.2889  0.9140
 4793SOL    HW226013   4.694   1.840   8.846  0.5495 -0.1223  0.9927
 4794SOL     OW26014   2.819   1.568   8.710  0.1965  0.2863  0.1183
 4794SOL    HW126015   2.778   1.505   8.770 -0.8379 -0.0156 -0.9015
 4794SOL    HW226016   2.774   1.651   8.725  0.0357  0.3620 -0.7558
 4795SOL     OW26017   2.929   0.680  10.092  0.1323 -0.4197  0.4128
 4795SOL    HW126018   2.959   0.657  10.004 -2.2944  0.8478 -0.7383
 4795SOL    HW226019   2.978   0.612  10.139 -0.4171 -0.0858  1.4736
 4796SOL     OW26020   1.498   1.890   5.189 -0.8028  0.0958 -0.1109
 4796SOL    HW126021   1.588   1.867   5.165 -0.6295  2.8108 -2.0665
 4796SOL    HW226022   1.504   1.986   5.195 -0.5095  0.0252  0.7946
 4797SOL     OW26023   1.443   1.824  15.964  0.3506  0.2215  0.3500
 4797SOL    HW126024   1.424   1.861  16.051 -0.4988 -0.6187  0.5239
 4797SOL    HW226025   1.435   1.895  15.900  0.9252  0.3777  0.4549
 4798SOL     OW26026   3.460   3.027   2.736  0.3398  0.2149  0.6355
 4798SOL    HW126027   3.501   2.941   2.726  3.0353  1.5755  0.1557
 4798SOL    HW226028   3.376   3.005   2.776  0.9248 -1.8078  0.7473
 4799SOL     OW26029   3.444   1.546   0.434 -0.1014  0.0699 -0.6045
 4799SOL    HW126030   3.420   1.627   0.481 -0.8536 -0.4219 -0.1491
 4799SOL    HW226031   3.482   1.589   0.358 -0.1015 -1.4150 -1.4272
 4800SOL     OW26032   0.917   4.661   5.575  0.4768 -0.8134  0.4961
 4800SOL    HW126033   0.864   4.583   5.559 -0.5642  0.2956 -1.4461
 4800SOL    HW226034   0.860   4.724   5.618  2.2822 -0.2429  2.0260
 4801SOL     OW26035   1.842   0.618   6.845 -0.4244 -0.2966 -0.9508
 4801SOL    HW126036   1.752   0.632   6.874  0.0611  1.9446 -0.5983
 4801SOL    HW226037   1.879   0.637   6.931  1.1657  2.5218 -2.2611
 4802SOL     OW26038   0.577   3.410   1.597 -0.1876 -0.2330  0.4991
 4802SOL    HW126039   0.563   3.321   1.630  1.9214 -0.2267  1.4134
 4802SOL    HW226040   0.660   3.432   1.639 -0.6619  0.5076  1.0425
 4803SOL     OW26041   1.703   1.241  15.468 -0.4381 -0.5412 -0.0398
 4803SOL    HW126042   1.694   1.288  15.551 -0.3495 -1.2851  0.3861
 4803SOL    HW226043   1.647   1.297  15.414  2.4767  0.2074 -2.3084
 4804SOL     OW26044   0.478   2.081  17.748  0.3515 -0.0043 -0.3508
 4804SOL    HW126045   0.514   2.010   0.046  0.6579  0.9774  0.7450
 4804SOL    HW226046   0.484   2.033  17.665  0.4529 -0.4883 -0.0626
 4805SOL     OW26047   2.278   3.882  10.025  0.1212 -0.6341  0.1628
 4805SOL    HW126048   2.279   3.804   9.970 -1.2792  0.0144 -0.7830
 4805SOL    HW226049   2.364   3.874  10.066 -0.7292  0.3361  2.1129
 4806SOL     OW26050   2.273   0.733   4.770 -0.5682 -0.0146  0.1267
 4806SOL    HW126051   2.237   0.710   4.856 -0.3629 -1.4921 -0.1736
 4806SOL    HW226052   2.309   0.820   4.783 -2.2304  0.8841 -1.2877
 4807SOL     OW26053   2.879   2.823   1.237  0.0553 -0.3705 -0.4091
 4807SOL    HW126054   2.949   2.882   1.209  0.6848 -0.9256  0.0071
 4807SOL    HW226055   2.800   2.871   1.211 -1.8156 -2.2815  1.8411
 4808SOL     OW26056   1.931   1.622   3.582  0.3536 -0.1365  0.5136
 4808SOL    HW126057   1.906   1.666   3.664  1.1862  1.5271 -0.1136
 4808SOL    HW226058   1.885   1.682   3.523 -1.5226 -2.0599  0.0545
 4809SOL     OW26059   2.168   4.706  14.899 -0.1792 -0.2632  0.1875
 4809SOL    HW126060   2.213   4.621  14.892  0.2905 -0.2647  2.9919
 4809SOL    HW226061   2.087   4.689  14.850  0.1934 -1.4186 -0.0334
 4810SOL     OW26062   0.272   1.088   6.703 -0.0000 -0.2105 -0.1560
 4810SOL    HW126063   0.201   1.151   6.717 -0.9879 -0.8939 -2.0953
 4810SOL    HW226064   0.226   1.004   6.701 -3.7553  1.8484 -0.3063
 4811SOL     OW26065   4.301   4.088  10.320  0.6819 -0.7648 -0.6716
 4811SOL    HW126066   4.298   4.065  10.413 -1.4887  0.3450 -0.4477
 4811SOL    HW226067   4.311   4.003  10.279  0.4473 -1.6351  1.0774
 4812SOL     OW26068   2.856   1.824   4.021 -0.6394 -0.2422 -0.1432
 4812SOL    HW126069   2.814   1.748   3.981  1.6430 -0.6021 -1.8374
 4812SOL    HW226070   2.823   1.906   3.985 -1.4129  0.0128  1.1074
 4813SOL     OW26071   3.790   0.996  11.744  0.0556 -0.0507 -0.3685
 4813SOL    HW126072   3.699   0.996  11.713 -0.3065  2.6083  0.6853
 4813SOL    HW226073   3.810   0.903  11.729 -1.3053 -0.1962 -1.2595
 4814SOL     OW26074   3.886   2.851   2.264  0.1087 -0.5574 -0.4520
 4814SOL    HW126075   3.793   2.843   2.287 -0.6513  2.2709 -2.5065
 4814SOL    HW226076   3.896   2.796   2.186  0.5812 -1.1847  0.0539
 4815SOL     OW26077   4.241   3.608  10.040 -0.0204  0.7594 -0.2467
 4815SOL    HW126078   4.234   3.582  10.131 -1.4162  1.7624 -0.0841
 4815SOL    HW226079   4.149   3.628  10.023  0.1243  2.8172  1.4435
 4816SOL     OW26080   4.349   0.794   3.502 -0.5915  0.1733 -0.3813
 4816SOL    HW126081   4.324   0.703   3.483 -2.3347  0.5558  0.0808
 4816SOL    HW226082   4.293   0.812   3.577 -1.2002  0.2389 -0.8466
 4817SOL     OW26083   1.051   1.022   8.274  0.7199 -0.2104 -0.3044
 4817SOL    HW126084   1.123   1.081   8.296 -0.1631  0.1861  1.5260
 4817SOL    HW226085   1.038   0.976   8.357 -0.7226 -1.1479 -1.0515
 4818SOL     OW26086   2.948   3.524   2.922 -0.2687 -0.7705  0.0040
 4818SOL    HW126087   2.981   3.497   2.836  0.2207  0.9946 -0.3573
 4818SOL    HW226088   2.997   3.606   2.924 -4.3903  1.7228 -2.1145
 4819SOL     OW26089   0.131   4.500   2.055  1.0320 -0.1669  0.0875
 4819SOL    HW126090   0.056   4.469   2.003  1.4043 -1.8501  0.5587
 4819SOL    HW226091   0.095   4.577   2.098  0.0574 -1.3007  1.3148
 4820SOL     OW26092   0.827   0.748  15.408 -0.7625 -0.1784 -0.4128
 4820SOL    HW126093   0.910   0.729  15.363 -0.2061  0.3642  0.3820
 4820SOL    HW226094   0.806   0.664  15.448  1.4383 -0.4857  0.0847
 4821SOL     OW26095   2.640   4.033  15.480 -0.5219 -0.0402 -1.1900
 4821SOL    HW126096   2.597   4.044  15.565  2.2844  4.3846 -0.3435
 4821SOL    HW226097   2.723   4.073  15.505 -0.6917  0.1441 -0.9204
 4822SOL     OW26098   2.953   1.378   9.008 -0.1550 -0.2215  0.0096
 4822SOL    HW126099   3.008   1.302   8.993 -0.2353 -0.4555  0.9117
 4822SOL    HW226100   3.005   1.422   9.075  1.5054 -1.1009 -0.6925
 4823SOL     OW26101   1.505   3.173  16.199 -0.2437  0.3817 -0.1771
 4823SOL    HW126102   1.497   3.189  16.105 -1.2918 -2.6275 -0.5960
 4823SOL    HW226103   1.593   3.201  16.223  0.0462 -2.6923  2.3448
 4824SOL     OW26104   3.918   3.319  15.482  0.0954 -0.1983  0.3167
 4824SOL    HW126105   3.842   3.304  15.426  0.5398 -0.2533 -0.2753
 4824SOL    HW226106   3.982   3.254  15.453  1.4730  1.1485  0.3260
 4825SOL     OW26107   2.006   0.856   5.941  0.0177  0.0242  0.4239
 4825SOL    HW126108   1.945   0.802   5.993  0.6411 -0.9292  0.1622
 4825SOL    HW226109   2.087   0.805   5.941 -0.7590 -1.2229  1.0253
 4826SOL     OW26110   1.241   2.844   6.708 -0.5761 -0.6485  0.2397
 4826SOL    HW126111   1.203   2.766   6.667  0.1932 -1.9597  1.9857
 4826SOL    HW226112   1.325   2.847   6.662  0.8220  0.1779  2.8469
 4827SOL     OW26113   0.759   0.865   2.772 -0.4073 -1.1935 -0.1989
 4827SOL    HW126114   0.766   0.771   2.754  0.1345 -1.3967  1.1039
 4827SOL    HW226115   0.845   0.878   2.811 -0.2890  0.9158 -1.1704
 4828SOL     OW26116   3.763   1.161   1.255  0.1730 -0.2637  0.0903
 4828SOL    HW126117   3.780   1.239   1.203  1.7105 -0.8346 -0.2515
 4828SOL    HW226118   3.848   1.139   1.293 -0.2100  1.7041  2.0867
 4829SOL     OW26119   2.840   1.118  14.512  0.3698  0.1544  0.5072
 4829SOL    HW126120   2.753   1.078  14.507  0.5429 -0.1136 -0.4914
 4829SOL    HW226121   2.883   1.072  14.439 -1.6067  0.0297 -0.5919
 4830SOL     OW26122   2.184   0.786   7.545  0.1312  0.0373 -0.0593
 4830SOL    HW126123   2.270   0.817   7.573  1.5178 -2.4745 -1.4899
 4830SOL    HW226124   2.128   0.851   7.587  1.9148 -1.1793  4.2236
 4831SOL     OW26125   0.385   3.108   3.553 -0.4868  0.6060  0.4183
 4831SOL    HW126126   0.312   3.054   3.523  1.4961  0.1229 -3.5318
 4831SOL    HW226127   0.435   3.064   3.621 -1.6538 -0.2958  0.6987
 4832SOL     OW26128   4.436   0.543  17.700 -0.6616 -0.0443  0.1714
 4832SOL    HW126129   4.464   0.630  17.731  1.4004 -1.0741  1.1757
 4832SOL    HW226130   4.375   0.526   0.016  0.1146 -2.4444  0.2423
 4833SOL     OW26131   0.944   3.200   2.257 -0.7311  0.5215  0.5453
 4833SOL    HW126132   0.862   3.176   2.300 -0.1766 -1.1711  0.6596
 4833SOL    HW226133   0.920   3.273   2.201  1.4659  0.4710 -0.4789
 4834SOL     OW26134   0.992   4.050   5.238 -0.2728 -0.0078  0.5266
 4834SOL    HW126135   0.937   4.118   5.277  0.6312  0.6756  0.6032
 4834SOL    HW226136   1.071   4.065   5.291  1.0979 -1.3869 -1.1527
 4835SOL     OW26137   0.875   1.041  15.678  0.1930  0.6970  0.8232
 4835SOL    HW126138   0.800   0.984  15.692  1.2664 -1.1695 -0.8642
 4835SOL    HW226139   0.943   0.996  15.729 -1.1825 -1.8164  0.4454
 4836SOL     OW26140   1.056   0.456   2.668 -0.2625  0.0229 -0.3777
 4836SOL    HW126141   1.131   0.478   2.724 -1.3180 -0.5655  1.2673
 4836SOL    HW226142   1.089   0.464   2.579 -0.2968 -1.3119 -0.5205
 4837SOL     OW26143   2.313   1.449   2.312 -0.6212 -0.0740  0.6043
 4837SOL    HW126144   2.312   1.545   2.311  0.8182 -0.0654  0.0172
 4837SOL    HW226145   2.307   1.440   2.407  0.4344  0.4476  0.7216
 4838SOL     OW26146   1.007   3.452  13.152  0.0692  0.1901 -0.0925
 4838SOL    HW126147   1.030   3.386  13.217 -0.6293 -0.3949 -0.4319
 4838SOL    HW226148   0.942   3.408  13.096 -0.1887  1.2481 -0.6389
 4839SOL     OW26149   4.687   1.449  12.586 -0.4019 -0.0780  0.1120
 4839SOL    HW126150   4.644   1.422  12.668  1.1498 -0.2507  0.8688
 4839SOL    HW226151   0.014   1.504  12.628 -0.2081 -0.6979  0.6216
 4840SOL     OW26152   0.572   1.994  13.077  0.1736  0.1105  0.1646
 4840SOL    HW126153   0.514   1.917  13.078  1.6118 -0.9419  1.5540
 4840SOL    HW226154   0.654   1.954  13.048 -1.6953 -1.7891 -2.5535
 4841SOL     OW26155   4.483   2.271   6.049  0.1679 -0.3994  0.1680
 4841SOL    HW126156   4.541   2.208   6.007  1.0258 -0.7884  1.9469
 4841SOL    HW226157   4.528   2.351   6.021  1.8586 -1.5724 -0.4762
 4842SOL     OW26158   3.107   0.849   2.259 -0.0232 -0.4110  0.3475
 4842SOL    HW126159   3.087   0.937   2.228  1.2643 -0.7772 -1.4921
 4842SOL    HW226160   3.019   0.813   2.250  0.4584 -1.7494  0.9924
 4843SOL     OW26161   2.399   3.288   4.918  0.3003 -0.2851 -0.0261
 4843SOL    HW126162   2.357   3.364   4.878 -1.5723 -1.3684 -0.1278
 4843SOL    HW226163   2.469   3.329   4.969  0.9240 -0.4738 -0.7310
 4844SOL     OW26164   0.156   3.375   2.432 -0.0880  0.2379  0.5312
 4844SOL    HW126165   0.178   3.284   2.411 -1.1540 -0.1546  1.1424
 4844SOL    HW226166   0.227   3.391   2.495  1.6759 -1.9353 -0.8970
 4845SOL     OW26167   0.277   2.325  11.015 -0.4034  0.3403 -0.2366
 4845SOL    HW126168   0.284   2.362  11.103  2.3798 -0.9323  0.1003
 4845SOL    HW226169   0.249   2.240  11.048 -1.2095  0.6888 -0.0405
 4846SOL     OW26170   4.574   2.316   3.069 -0.1055  0.0514  0.4910
 4846SOL    HW126171   4.636   2.389   3.071  1.7106 -1.4756 -0.1983
 4846SOL    HW226172   4.627   2.260   3.126 -1.0917 -1.2675  0.1202
 4847SOL     OW26173   2.322   1.235  10.304 -0.2886  0.2198 -0.2750
 4847SOL    HW126174   2.348   1.175  10.234  4.7567  3.7247 -1.4065
 4847SOL    HW226175   2.367   1.199  10.380  0.0689 -1.1217 -1.1249
 4848SOL     OW26176   1.366   4.528   5.914 -0.0023  0.3137 -0.0705
 4848SOL    HW126177   1.384   4.521   6.008 -1.3858 -2.9514 -0.0421
 4848SOL    HW226178   1.272   4.506   5.917  0.3717 -1.4099 -0.8775
 4849SOL     OW26179   3.112   2.472  16.497  0.2641 -0.2892  0.0587
 4849SOL    HW126180   3.125   2.566  16.483  2.4172 -0.1952  2.6269
 4849SOL    HW226181   3.203   2.444  16.508  0.1776  0.3592  2.4209
 4850SOL     OW26182   2.764   3.195  16.060  0.2137  0.4241 -0.9421
 4850SOL    HW126183   2.709   3.132  16.107  1.2676 -0.7063 -1.2291
 4850SOL    HW226184   2.792   3.248  16.135  1.2199 -0.7099 -0.5199
 4851SOL     OW26185   0.627   0.331   9.304 -0.4912 -0.1134 -0.3397
 4851SOL    HW126186   0.689   0.277   9.353  0.2384  0.6305 -0.4452
 4851SOL    HW226187   0.621   0.405   9.364 -1.7699 -2.6423  2.6577
 4852SOL     OW26188   3.046   4.661   8.931 -0.4014 -0.3156 -1.0232
 4852SOL    HW126189   3.112   4.719   8.971 -0.1630  0.0408 -1.9274
 4852SOL    HW226190   2.963   4.690   8.968 -1.0720 -0.5640 -2.3294
 4853SOL     OW26191   3.875   2.273  16.587  0.6998  0.5417 -0.0109
 4853SOL    HW126192   3.795   2.258  16.637 -0.7569 -0.4439 -2.6261
 4853SOL    HW226193   3.843   2.343  16.530  1.0855  2.0429  1.6407
 4854SOL     OW26194   2.598   2.735   5.056  0.2203 -0.6733 -0.5352
 4854SOL    HW126195   2.654   2.679   5.110 -0.0907  0.0959  0.6026
 4854SOL    HW226196   2.663   2.793   5.015 -1.1303 -0.1272 -1.9071
 4855SOL     OW26197   2.407   2.990   1.462  0.1670 -0.2005 -0.0812
 4855SOL    HW126198   2.495   2.966   1.432 -1.1094 -1.4321 -2.8396
 4855SOL    HW226199   2.427   3.034   1.544  0.3188 -0.0041 -0.2216
 4856SOL     OW26200   2.187   4.555  10.110 -0.2196 -0.3614 -0.0799
 4856SOL    HW126201   2.095   4.564  10.136  0.2841 -0.1000  1.5714
 4856SOL    HW226202   2.191   4.606  10.029  2.2971 -0.1789  0.1869
 4857SOL     OW26203   1.366   0.717   5.585 -0.2261 -0.6890 -0.4091
 4857SOL    HW126204   1.321   0.798   5.560 -0.3412 -0.5161  0.3452
 4857SOL    HW226205   1.450   0.758   5.608 -1.5817  2.0450 -0.2628
 4858SOL     OW26206   2.431   0.946   2.545  0.2610  0.3018  0.0649
 4858SOL    HW126207   2.452   0.983   2.459 -0.6356 -3.3450 -1.7395
 4858SOL    HW226208   2.507   0.978   2.593  1.1563  0.3439 -1.3550
 4859SOL     OW26209   0.525   4.200   6.691  0.2442  0.3857  0.5659
 4859SOL    HW126210   0.443   4.228   6.651  0.2156  0.3056  0.5699
 4859SOL    HW226211   0.547   4.275   6.747  0.4347  0.6300  0.1711
 4860SOL     OW26212   2.408   0.902   5.582  0.2524  0.4548  0.5873
 4860SOL    HW126213   2.414   0.874   5.674  1.3797 -0.6290  0.1803
 4860SOL    HW226214   2.411   0.819   5.536 -2.3241  0.7527 -0.0886
 4861SOL     OW26215   1.846   0.095   4.841  0.7994 -0.1229 -0.1618
 4861SOL    HW126216   1.892   0.111   4.759 -1.9347  1.0987 -1.4459
 4861SOL    HW226217   1.877   0.010   4.873  0.8191  0.0981  0.4025
 4862SOL     OW26218   2.799   3.679  16.758  0.2917 -0.3920 -0.0229
 4862SOL    HW126219   2.760   3.757  16.717 -0.1487 -0.5157  0.1634
 4862SOL    HW226220   2.728   3.615  16.756  1.5278 -1.7730 -0.0372
 4863SOL     OW26221   1.252   4.595   0.668 -0.7471  0.0465  0.2890
 4863SOL    HW126222   1.281   4.600   0.759  2.9023  1.0049 -0.9411
 4863SOL    HW226223   1.253   4.686   0.638  0.7778  0.1605  0.6826
 4864SOL     OW26224   2.936   4.303   8.783 -0.1473 -0.2441  0.2485
 4864SOL    HW126225   2.974   4.384   8.747 -1.5273  0.0333 -0.5885
 4864SOL    HW226226   2.984   4.296   8.865  0.2446  0.0144  0.0428
 4865SOL     OW26227   4.132   0.322   1.356  0.1725  0.3015 -0.0504
 4865SOL    HW126228   4.077   0.388   1.313 -0.5429  0.1699  0.6719
 4865SOL    HW226229   4.175   0.269   1.289  0.3960  0.0506  0.2913
 4866SOL     OW26230   2.117   2.257   8.574  0.1071  0.4042 -0.0053
 4866SOL    HW126231   2.039   2.300   8.610 -0.1009  0.5523 -0.6222
 4866SOL    HW226232   2.093   2.248   8.481 -0.7146  0.5538  0.1879
 4867SOL     OW26233   0.897   3.257   6.867 -0.0791 -0.0358  0.1415
 4867SOL    HW126234   0.963   3.314   6.907  1.3898  0.0264 -2.3203
 4867SOL    HW226235   0.951   3.216   6.800  0.1599  0.4932  0.0036
 4868SOL     OW26236   0.190   4.257   0.651  0.0889  0.1867 -0.2595
 4868SOL    HW126237   0.161   4.229   0.564  1.4777  0.1617 -0.7150
 4868SOL    HW226238   0.203   4.171   0.690  0.8664 -0.0601 -1.0873
 4869SOL     OW26239   4.033   1.539  14.628 -0.1163  0.5263 -0.2865
 4869SOL    HW126240   3.974   1.596  14.578  1.1958 -0.0157 -2.4462
 4869SOL    HW226241   4.072   1.597  14.693  0.7921 -1.6524  1.1036
 4870SOL     OW26242   2.695   1.393   4.640  0.1021 -0.5744 -0.0286
 4870SOL    HW126243   2.779   1.421   4.602 -0.7642  0.3239 -1.2924
 4870SOL    HW226244   2.643   1.386   4.560  0.1144  2.3854 -0.3221
 4871SOL     OW26245   1.047   2.901   8.204  0.4538 -0.5795  0.9542
 4871SOL    HW126246   1.143   2.905   8.201  0.4064 -0.7933 -0.8195
 4871SOL    HW226247   1.037   2.851   8.285 -1.3016  0.8871  1.6480
 4872SOL     OW26248   1.345   0.928   2.279  0.1543 -0.6026  0.3789
 4872SOL    HW126249   1.418   0.986   2.301  1.1887 -1.7163 -0.1468
 4872SOL    HW226250   1.337   0.868   2.352 -0.8414  1.1623  1.7290
 4873SOL     OW26251   1.405   4.023   3.677 -0.1320  0.7495 -0.1750
 4873SOL    HW126252   1.343   3.952   3.667  0.0844  0.8476 -2.2521
 4873SOL    HW226253   1.482   3.984   3.636  0.9582 -0.0742  2.6519
 4874SOL     OW26254   2.681   0.143   9.199 -0.9049 -0.6908 -0.4412
 4874SOL    HW126255   2.623   0.170   9.269 -1.5616 -2.7977 -0.1847
 4874SOL    HW226256   2.654   0.202   9.128  1.0603  0.1811 -0.4891
 4875SOL     OW26257   2.150   1.817   5.002  0.0445 -0.1427 -0.0869
 4875SOL    HW126258   2.101   1.778   5.074  1.4253  1.0075  1.4737
 4875SOL    HW226259   2.165   1.742   4.945 -0.1325 -0.3903  0.1928
 4876SOL     OW26260   3.822   1.201  13.303 -0.2436  0.3058 -0.0699
 4876SOL    HW126261   3.801   1.108  13.302  0.0537  0.2349  0.1209
 4876SOL    HW226262   3.788   1.215  13.214  1.0013  1.4085 -0.3735
 4877SOL     OW26263   3.545   2.462   6.249  0.4211 -0.6645  0.1187
 4877SOL    HW126264   3.490   2.444   6.173 -1.0084 -4.0530  1.9540
 4877SOL    HW226265   3.540   2.557   6.262 -1.3798 -0.3796 -2.5617
 4878SOL     OW26266   4.503   4.039   2.691 -0.6847  0.0091 -0.5920
 4878SOL    HW126267   4.515   4.074   2.603  0.0216  1.1330 -0.0629
 4878SOL    HW226268   4.596   4.031   2.714 -0.8205 -1.5167 -0.5908
 4879SOL     OW26269   0.475   3.832   9.628 -0.3542 -0.2904 -0.7325
 4879SOL    HW126270   0.435   3.898   9.572  1.8169 -0.0091 -1.9798
 4879SOL    HW226271   0.559   3.806   9.589 -0.4427 -2.6088  0.6108
 4880SOL     OW26272   3.551   4.033  15.681 -0.4255  0.1361 -0.6711
 4880SOL    HW126273   3.609   4.076  15.744  1.0947  1.4953 -3.0244
 4880SOL    HW226274   3.514   3.964  15.736  1.3500  0.9596  1.5485
 4881SOL     OW26275   0.343   0.810   5.463 -0.3795  0.6638  0.3824
 4881SOL    HW126276   0.264   0.772   5.424  1.1728  0.9769 -3.1287
 4881SOL    HW226277   0.371   0.881   5.405  0.1797 -0.3185 -0.5483
 4882SOL     OW26278   2.689   2.720   6.513  0.2790 -0.2648 -0.3588
 4882SOL    HW126279   2.624   2.682   6.454 -3.0124  0.3817  2.8078
 4882SOL    HW226280   2.718   2.648   6.569  0.4774 -0.3938 -0.6301
 4883SOL     OW26281   0.566   0.072   1.945  0.0675 -0.1672  0.0324
 4883SOL    HW126282   0.519   4.728   1.949  0.7907 -0.5764 -0.1304
 4883SOL    HW226283   0.637   0.052   2.006  0.4274 -0.2655 -0.4169
 4884SOL     OW26284   3.826   0.899   4.620 -0.6763  0.2265  0.0109
 4884SOL    HW126285   3.741   0.856   4.633  0.3591 -2.7120 -2.8596
 4884SOL    HW226286   3.807   0.989   4.647  1.5627  0.3724  1.0835
 4885SOL     OW26287   4.445   3.875   9.757  0.3951  0.6881  0.2494
 4885SOL    HW126288   4.447   3.860   9.663  1.0478 -1.7532  0.6469
 4885SOL    HW226289   4.459   3.968   9.773  2.8361  0.3625 -0.0034
 4886SOL     OW26290   2.610   2.023  12.745 -0.1848  0.6087 -0.0398
 4886SOL    HW126291   2.583   2.064  12.827 -2.8183  1.6157 -1.4296
 4886SOL    HW226292   2.662   1.957  12.791 -2.1180 -0.8521  0.0217
 4887SOL     OW26293   0.252   0.043  15.337 -0.4002 -0.7027 -0.4584
 4887SOL    HW126294   0.188   0.074  15.272 -0.0111  2.0405  0.4622
 4887SOL    HW226295   0.271   4.695  15.302 -0.5329 -0.5531 -0.9141
 4888SOL     OW26296   0.654   3.560   7.013  0.0392  0.1277  0.2275
 4888SOL    HW126297   0.617   3.647   6.998 -0.0758 -0.0227 -0.3595
 4888SOL    HW226298   0.744   3.583   6.989 -0.9484  1.5344 -2.0248
 4889SOL     OW26299   0.985   0.439  12.008 -0.2389  0.7759  0.4977
 4889SOL    HW126300   0.913   0.377  12.012 -0.6423  1.2619  0.7796
 4889SOL    HW226301   0.941   0.509  12.056 -0.4378 -0.0564  1.5132
 4890SOL     OW26302   1.067   2.210  17.409  0.0862  0.5813  0.2312
 4890SOL    HW126303   1.144   2.229  17.355  1.1032  0.8914  1.7657
 4890SOL    HW226304   1.101   2.244  17.493 -2.3536  0.8189  1.1131
 4891SOL     OW26305   0.871   1.689  17.220  0.4283  0.4029 -0.2924
 4891SOL    HW126306   0.857   1.594  17.223 -1.4197  0.6841 -0.2572
 4891SOL    HW226307   0.786   1.727  17.244  0.7794  2.1832 -1.8329
 4892SOL     OW26308   1.243   2.641   5.503  0.2303 -0.2776  0.1370
 4892SOL    HW126309   1.309   2.659   5.571 -0.8429  1.2747  0.7749
 4892SOL    HW226310   1.285   2.687   5.430  1.1422 -2.0639 -0.4814
 4893SOL     OW26311   0.249   0.418   2.636 -0.1281  0.5559 -0.0177
 4893SOL    HW126312   0.205   0.494   2.598 -0.2702 -0.5741 -2.0919
 4893SOL    HW226313   0.328   0.401   2.585  0.1051  0.2235  0.4500
 4894SOL     OW26314   0.550   0.513   3.526  0.1945 -0.1695 -0.2138
 4894SOL    HW126315   0.615   0.549   3.465  0.9607  0.0596  0.7246
 4894SOL    HW226316   0.606   0.449   3.570 -0.8577 -1.9128 -1.4333
 4895SOL     OW26317   4.683   0.187   3.222  0.2597 -0.4492  0.4876
 4895SOL    HW126318   4.713   0.100   3.195 -1.8645 -1.4292  1.3314
 4895SOL    HW226319   4.604   0.200   3.170  1.4637 -0.6175 -1.4114
 4896SOL     OW26320   4.265   1.118  11.317 -0.4707 -0.5496 -0.7998
 4896SOL    HW126321   4.204   1.082  11.382 -0.9830  0.0200 -0.9606
 4896SOL    HW226322   4.349   1.115  11.363 -1.8401 -0.2015  1.7277
 4897SOL     OW26323   3.085   2.094   1.525 -0.1470 -0.2554  0.4828
 4897SOL    HW126324   3.070   2.153   1.599  0.3165 -2.3013  2.2205
 4897SOL    HW226325   2.999   2.084   1.485  0.4702  1.9869 -1.3536
 4898SOL     OW26326   2.486   3.932   2.634  0.5305  0.3514  0.0131
 4898SOL    HW126327   2.394   3.913   2.655  1.0241  0.3628  2.1762
 4898SOL    HW226328   2.520   3.983   2.707  0.5376 -0.8574  0.8510
 4899SOL     OW26329   1.336   1.246   4.462 -0.2191 -0.3971  0.0133
 4899SOL    HW126330   1.359   1.336   4.485  0.3824 -1.0383  1.9292
 4899SOL    HW226331   1.384   1.224   4.383 -0.6544 -1.8000  0.1509
 4900SOL     OW26332   2.958   2.459   8.207  0.2332  0.2101 -0.4361
 4900SOL    HW126333   2.968   2.540   8.258 -1.8016  0.3381 -0.2263
 4900SOL    HW226334   2.955   2.392   8.276 -0.9039 -0.0709 -0.7496
 4901SOL     OW26335   0.056   1.959   9.527 -0.4477 -0.3588  0.3925
 4901SOL    HW126336   4.722   1.934   9.584  0.6710 -2.1184  1.0307
 4901SOL    HW226337   0.115   2.003   9.588  1.0638 -0.9471 -0.6715
 4902SOL     OW26338   0.369   2.757   4.078 -0.3694  0.5018  0.2288
 4902SOL    HW126339   0.463   2.757   4.060 -0.7141  2.7029 -1.5257
 4902SOL    HW226340   0.329   2.784   3.996 -0.2838 -2.3272 -0.7350
 4903SOL     OW26341   1.300   0.969   5.447  0.4019 -0.5653 -0.2265
 4903SOL    HW126342   1.213   0.967   5.487  0.1181  0.1311 -0.8197
 4903SOL    HW226343   1.281   0.973   5.354 -2.2823  1.8342  0.4370
 4904SOL     OW26344   2.156   1.020  13.405  0.2333 -0.0531 -0.2915
 4904SOL    HW126345   2.177   0.931  13.377  1.5093  1.2060 -3.3330
 4904SOL    HW226346   2.209   1.025  13.485 -0.5099  1.5645  0.1094
 4905SOL     OW26347   2.392   0.754   9.769  0.4464  0.6300 -0.1511
 4905SOL    HW126348   2.414   0.723   9.857  0.7918 -1.9338 -1.1376
 4905SOL    HW226349   2.347   0.837   9.788 -0.1203  0.3953 -0.4553
 4906SOL     OW26350   2.675   2.201   2.828 -0.0814  0.1202 -0.0103
 4906SOL    HW126351   2.671   2.231   2.737 -0.6245 -2.5184 -0.8638
 4906SOL    HW226352   2.648   2.276   2.880  0.7587 -0.1277  0.7728
 4907SOL     OW26353   1.039   2.498  17.364 -0.0788 -0.2341  0.3357
 4907SOL    HW126354   0.996   2.464  17.443  1.2423  0.0824  1.1885
 4907SOL    HW226355   0.961   2.513  17.310 -0.6584 -0.7966  1.0050
 4908SOL     OW26356   2.041   2.353   6.604 -0.5447  0.2909 -0.6055
 4908SOL    HW126357   2.025   2.440   6.641  1.7304  0.0815  0.8882
 4908SOL    HW226358   2.033   2.301   6.683  1.3000 -1.3022 -1.4803
 4909SOL     OW26359   0.864   3.140   0.003 -0.1197  0.3976  0.8597
 4909SOL    HW126360   0.949   3.166  17.722 -1.2868  1.6756 -0.9785
 4909SOL    HW226361   0.809   3.168  17.685 -0.2817 -1.4863  0.2757
 4910SOL     OW26362   4.157   3.155   2.430  0.2064 -0.0862 -0.0912
 4910SOL    HW126363   4.079   3.193   2.470  0.6048  0.0826  0.5424
 4910SOL    HW226364   4.196   3.235   2.395 -1.7670  1.1152  0.4460
 4911SOL     OW26365   3.146   4.061  11.486 -0.5120 -0.6397  0.0613
 4911SOL    HW126366   3.195   4.014  11.553 -0.0699  1.6146  1.2827
 4911SOL    HW226367   3.073   4.002  11.463 -0.8909  0.5613 -1.8277
 4912SOL     OW26368   4.323   0.587   4.614  0.9536  0.5495 -0.2078
 4912SOL    HW126369   4.288   0.569   4.527  3.2961  0.9374 -1.2400
 4912SOL    HW226370   4.336   0.682   4.609  2.4062  0.3302 -0.8100
 4913SOL     OW26371   3.251   0.170  15.441  0.0496 -0.0796 -0.5706
 4913SOL    HW126372   3.195   0.197  15.514  0.1285 -1.6867  0.0646
 4913SOL    HW226373   3.209   0.090  15.410 -3.1058  1.3022  0.1152
 4914SOL     OW26374   4.111   2.857   7.178  1.0034 -0.6565  0.1815
 4914SOL    HW126375   4.134   2.948   7.192  1.5181 -0.4958 -1.6052
 4914SOL    HW226376   4.096   2.853   7.083  1.4950 -0.6765  0.1053
 4915SOL     OW26377   4.622   2.176  13.542  0.6013 -0.2121  0.3398
 4915SOL    HW126378   4.670   2.249  13.502  2.2648 -1.8388 -0.6420
 4915SOL    HW226379   4.614   2.110  13.473  1.5506 -0.4735  0.4682
 4916SOL     OW26380   1.555   4.115   8.193 -0.0082 -0.0907  0.3329
 4916SOL    HW126381   1.485   4.080   8.138 -1.4130  1.7224  0.9978
 4916SOL    HW226382   1.564   4.029   8.235  0.8876 -0.3961 -0.4808
 4917SOL     OW26383   0.453   4.701   0.119 -0.0505 -0.4568 -0.2579
 4917SOL    HW126384   0.374   0.003   0.082 -1.6561 -1.3496  2.1951
 4917SOL    HW226385   0.517   4.733   0.055  1.1696  0.7790  1.5648
 4918SOL     OW26386   0.994   3.982  14.687  0.0449  0.2842 -0.1301
 4918SOL    HW126387   0.961   3.933  14.612 -1.8213 -0.1688  0.9999
 4918SOL    HW226388   0.945   4.063  14.674  0.8925  0.9977  1.1091
 4919SOL     OW26389   4.579   2.828   1.330 -0.5034  0.1880  0.1151
 4919SOL    HW126390   4.574   2.809   1.236 -1.3479 -1.1771  0.4411
 4919SOL    HW226391   4.543   2.916   1.343  2.4282  1.4090 -0.1122
 4920SOL     OW26392   2.665   2.348  12.446  0.3449 -0.0365 -0.2103
 4920SOL    HW126393   2.673   2.393  12.530  1.0573  1.1151 -0.8813
 4920SOL    HW226394   2.672   2.263  12.488  0.6188 -0.7040 -1.6208
 4921SOL     OW26395   4.277   1.986   2.909  0.0021 -0.2036 -0.0322
 4921SOL    HW126396   4.224   2.004   2.832  0.3012  2.6375  0.4288
 4921SOL    HW226397   4.364   1.976   2.872  0.7768  1.2279  1.4169
 4922SOL     OW26398   0.525   1.717   2.569  0.0599 -0.1038 -0.0816
 4922SOL    HW126399   0.545   1.670   2.488  0.1436 -0.9573  0.4489
 4922SOL    HW226400   0.458   1.663   2.611  0.3440 -1.8745 -1.9495
 4923SOL     OW26401   3.266   1.303   4.240 -0.1345  0.5926 -0.4577
 4923SOL    HW126402   3.346   1.252   4.250 -1.6533 -1.9962 -1.6748
 4923SOL    HW226403   3.302   1.384   4.276 -0.0464  0.2366  0.2436
 4924SOL     OW26404   4.116   3.904   8.219 -0.1087 -0.4725 -0.4850
 4924SOL    HW126405   4.081   3.954   8.145  0.5791  1.0135  0.1994
 4924SOL    HW226406   4.037   3.863   8.255  0.0211  0.9876  1.4650
 4925SOL     OW26407   3.465   2.251  12.917  0.0548 -0.0229 -0.3924
 4925SOL    HW126408   3.395   2.309  12.948  1.0749  0.6739  0.6371
 4925SOL    HW226409   3.468   2.280  12.826 -0.9729 -1.2294 -0.8052
 4926SOL     OW26410   4.009   0.929   8.281  0.0418  0.3715 -0.3238
 4926SOL    HW126411   3.921   0.933   8.320 -0.6730  0.3960 -1.9674
 4926SOL    HW226412   4.032   1.022   8.290  0.7171 -0.0197  2.1487
 4927SOL     OW26413   3.752   0.952   8.389 -0.0407  0.1660  0.0991
 4927SOL    HW126414   3.682   0.913   8.337  0.5492  0.3361 -0.8205
 4927SOL    HW226415   3.709   0.957   8.475 -0.1321  2.9876 -0.1305
 4928SOL     OW26416   4.649   2.018  17.606 -0.6767 -0.0609 -0.1153
 4928SOL    HW126417   4.692   2.082  17.663 -0.0765 -2.4809  2.1088
 4928SOL    HW226418   4.695   2.025  17.522 -2.9582 -0.7949 -1.4160
 4929SOL     OW26419   1.583   2.566   6.111  0.2515 -0.0106  0.2423
 4929SOL    HW126420   1.552   2.560   6.021  0.4039 -0.4751  0.2191
 4929SOL    HW226421   1.515   2.617   6.154 -0.6152 -1.3336  0.4244
 4930SOL     OW26422   2.861   0.228  11.241 -0.4757 -0.3392  0.4484
 4930SOL    HW126423   2.852   0.149  11.186 -2.3180  0.6367 -0.6330
 4930SOL    HW226424   2.773   0.235  11.278  0.0205 -1.4727  1.8794
 4931SOL     OW26425   2.076   3.706   7.824  0.1615  0.0366 -0.3574
 4931SOL    HW126426   2.156   3.755   7.844  0.3278 -0.0988 -0.6857
 4931SOL    HW226427   2.092   3.686   7.732 -1.1920  0.7553 -0.7537
 4932SOL     OW26428   1.660   1.128  11.521  0.4533 -0.1176 -0.3747
 4932SOL    HW126429   1.637   1.198  11.582 -1.9399 -0.1043 -1.3282
 4932SOL    HW226430   1.728   1.175  11.472  0.8502 -0.4825 -0.1861
 4933SOL     OW26431   3.454   4.478   2.331 -0.1309 -0.0820 -0.0148
 4933SOL    HW126432   3.479   4.553   2.384 -1.3511  1.3518 -1.4622
 4933SOL    HW226433   3.481   4.407   2.390  0.1586 -0.4915 -0.6420
 4934SOL     OW26434   2.237   1.800   6.553 -0.1746 -0.2100 -0.3690
 4934SOL    HW126435   2.330   1.805   6.528 -0.1933 -2.2257 -0.8804
 4934SOL    HW226436   2.211   1.872   6.495 -1.3090 -1.2243 -1.1257
 4935SOL     OW26437   1.533   3.648   4.786 -0.0113 -0.0809  0.7430
 4935SOL    HW126438   1.472   3.660   4.859 -0.7281  1.4978 -0.1134
 4935SOL    HW226439   1.575   3.566   4.811 -3.0657 -1.5060  1.2614
 4936SOL     OW26440   2.465   4.095  17.000 -0.4837  0.3356  0.2064
 4936SOL    HW126441   2.485   4.049  17.081  0.9983 -1.6365 -1.2578
 4936SOL    HW226442   2.537   4.158  16.994 -1.2427  1.5720  4.7251
 4937SOL     OW26443   3.844   1.676   7.290  0.0523  0.4436 -0.0460
 4937SOL    HW126444   3.919   1.628   7.325 -0.1156  0.8480  0.8639
 4937SOL    HW226445   3.882   1.718   7.213 -0.3793 -0.0845 -0.5486
 4938SOL     OW26446   1.553   2.115   3.061  0.5058  0.2284  0.5258
 4938SOL    HW126447   1.467   2.085   3.093  0.8575 -2.8165 -1.3749
 4938SOL    HW226448   1.548   2.206   3.090  1.9844  0.6627 -0.5909
 4939SOL     OW26449   2.212   3.788   1.533 -0.2004 -0.3716  1.0199
 4939SOL    HW126450   2.239   3.787   1.625  4.1998  1.6904 -0.2301
 4939SOL    HW226451   2.296   3.826   1.505 -1.7494  3.3806  1.4839
 4940SOL     OW26452   1.827   3.496   9.604 -0.2782 -0.5199  0.0562
 4940SOL    HW126453   1.851   3.429   9.539 -0.9103 -0.4911 -0.2022
 4940SOL    HW226454   1.783   3.560   9.547 -0.6480 -0.0172  0.9165
 4941SOL     OW26455   3.532   0.930  11.705  0.0047  0.1196 -0.1165
 4941SOL    HW126456   3.508   0.887  11.786 -2.6989  0.2906 -0.8330
 4941SOL    HW226457   3.479   0.890  11.636 -1.3778 -0.2260  1.1625
 4942SOL     OW26458   3.740   4.555   9.884  0.2780  0.0199 -0.2135
 4942SOL    HW126459   3.794   4.510   9.949  1.3699  1.1211 -0.3539
 4942SOL    HW226460   3.671   4.595   9.937  1.7972  0.9027  1.0561
 4943SOL     OW26461   4.642   2.631  10.811  0.5010  0.4739  0.7111
 4943SOL    HW126462   4.623   2.713  10.764 -1.2790 -0.2315  0.2031
 4943SOL    HW226463   4.584   2.578  10.756  0.0014  2.0608 -0.2996
 4944SOL     OW26464   4.023   2.730   6.175 -0.1930 -0.3174 -0.5061
 4944SOL    HW126465   4.093   2.689   6.125 -1.5467 -1.0460 -1.7891
 4944SOL    HW226466   3.945   2.680   6.150 -0.1832 -0.8921  0.6192
 4945SOL     OW26467   4.142   4.018   5.239 -0.3186 -0.3353 -0.0449
 4945SOL    HW126468   4.216   4.071   5.268  1.6313 -2.1604 -1.6916
 4945SOL    HW226469   4.186   3.989   5.159  2.0478  0.4417  0.9829
 4946SOL     OW26470   0.132   4.465   0.808 -0.1732 -0.7044 -0.5061
 4946SOL    HW126471   0.066   4.522   0.770 -0.1793  1.5113  2.8697
 4946SOL    HW226472   0.168   4.416   0.733 -1.0292  1.4155 -2.2980
 4947SOL     OW26473   1.172   3.073   6.857  0.6374  0.0471  0.2638
 4947SOL    HW126474   1.103   3.027   6.904  1.7064 -0.2917  1.5090
 4947SOL    HW226475   1.191   3.014   6.785  0.0124 -0.9332  0.9007
 4948SOL     OW26476   4.109   3.261  11.071  0.4010  0.1604 -0.0430
 4948SOL    HW126477   4.150   3.293  11.151 -1.7659  1.6508  0.4559
 4948SOL    HW226478   4.020   3.249  11.103 -0.3112  1.6077 -1.4939
 4949SOL     OW26479   3.513   3.452   2.860 -0.0774 -0.2107  0.0769
 4949SOL    HW126480   3.524   3.489   2.947 -0.0339 -0.8452  0.3430
 4949SOL    HW226481   3.605   3.439   2.836 -0.1752  2.6320 -1.8643
 4950SOL     OW26482   4.536   1.044   4.326  0.3873 -0.4235  0.0132
 4950SOL    HW126483   4.619   1.087   4.306 -1.6105  4.4288  1.9332
 4950SOL    HW226484   4.481   1.122   4.337  0.7792  0.1444 -2.0426
 4951SOL     OW26485   4.436   0.502   2.647 -0.1172  0.3670 -0.9511
 4951SOL    HW126486   4.435   0.418   2.602  1.6606 -0.6897  0.9484
 4951SOL    HW226487   4.481   0.547   2.575  1.9247  0.7130  0.5212
 4952SOL     OW26488   2.842   4.327   6.301 -0.3360  0.8850 -0.2626
 4952SOL    HW126489   2.844   4.314   6.396 -1.7107 -0.0377 -0.3572
 4952SOL    HW226490   2.891   4.248   6.279  1.5830  1.7230  1.0199
 4953SOL     OW26491   0.572   3.451  17.175 -0.5060  0.6072  0.2608
 4953SOL    HW126492   0.502   3.440  17.111  0.5480  0.0579 -0.7929
 4953SOL    HW226493   0.592   3.357  17.175 -0.6388  0.5644  2.3508
 4954SOL     OW26494   3.853   0.427  10.962 -0.1733 -0.8172 -0.0872
 4954SOL    HW126495   3.781   0.389  11.013 -1.4220 -0.0343 -1.2573
 4954SOL    HW226496   3.828   0.400  10.874 -1.2713  1.6988 -0.5469
 4955SOL     OW26497   2.037   2.865   3.885  0.1867 -0.2284 -0.1081
 4955SOL    HW126498   2.029   2.959   3.868 -0.5372 -0.5065 -1.3698
 4955SOL    HW226499   2.053   2.864   3.979 -0.4145  0.1094  0.0012
 4956SOL     OW26500   1.136   0.221   1.951 -0.0148 -0.6224 -0.0520
 4956SOL    HW126501   1.041   0.219   1.950  0.0194 -1.3830 -1.3740
 4956SOL    HW226502   1.168   0.164   2.021  0.4863  0.9802  1.0159
 4957SOL     OW26503   4.342   3.133   8.134  0.5494  0.3172  0.2609
 4957SOL    HW126504   4.256   3.095   8.149  0.4208 -0.0373 -1.3096
 4957SOL    HW226505   4.328   3.223   8.105 -0.8779  0.0751  0.2008
 4958SOL     OW26506   3.860   1.183  14.398 -0.3993  0.0078  0.1509
 4958SOL    HW126507   3.934   1.143  14.444 -0.2114  1.0044  0.7024
 4958SOL    HW226508   3.791   1.120  14.417  0.3125 -1.7615 -3.0798
 4959SOL     OW26509   4.315   2.787   2.562  0.0306 -0.1754 -0.1041
 4959SOL    HW126510   4.220   2.787   2.550  0.0954  0.6887 -0.5802
 4959SOL    HW226511   4.344   2.855   2.502  0.3961 -1.7696 -1.7595
 4960SOL     OW26512   1.694   3.912   0.558 -0.6097  0.3035 -0.2479
 4960SOL    HW126513   1.693   3.968   0.480 -1.6883  0.6222  0.0022
 4960SOL    HW226514   1.655   3.834   0.521  0.9702  0.3950 -2.1373
 4961SOL     OW26515   3.199   3.854   0.643  1.5419 -0.3005 -0.4540
 4961SOL    HW126516   3.147   3.915   0.591  0.2241 -1.2461 -0.2435
 4961SOL    HW226517   3.134   3.786   0.662  0.7266  0.6456  0.1425
 4962SOL     OW26518   1.939   4.592  11.017  0.0617  0.5808  0.0183
 4962SOL    HW126519   1.866   4.530  11.011 -0.7586  1.6287 -1.0258
 4962SOL    HW226520   1.988   4.578  10.936  0.9289  0.2432  0.5998
 4963SOL     OW26521   2.932   3.557   3.199  0.5587  0.2741 -0.1554
 4963SOL    HW126522   3.026   3.575   3.203  0.1677  2.0431  1.1839
 4963SOL    HW226523   2.913   3.569   3.106 -0.3137  1.1687  0.1258
 4964SOL     OW26524   0.613   4.313   8.809  0.0811  0.1366  0.2475
 4964SOL    HW126525   0.582   4.350   8.726  1.3671  2.5721  0.8638
 4964SOL    HW226526   0.694   4.277   8.774 -0.8801  3.2546 -5.2509
 4965SOL     OW26527   1.628   1.791   5.425 -0.3425  1.2665  0.6454
 4965SOL    HW126528   1.581   1.844   5.360  0.6698  0.1657 -0.9539
 4965SOL    HW226529   1.601   1.703   5.399 -2.4479  2.0489  0.1288
 4966SOL     OW26530   4.532   1.320   1.058  0.2205  0.0030 -0.4565
 4966SOL    HW126531   4.572   1.244   1.099  1.3436  1.2357  0.7700
 4966SOL    HW226532   4.532   1.294   0.966  2.0561 -0.1344 -0.4219
 4967SOL     OW26533   2.719   0.274  16.520  0.3249  0.1504 -0.1896
 4967SOL    HW126534   2.644   0.225  16.485 -0.1055  0.4117  0.3724
 4967SOL    HW226535   2.782   0.205  16.542 -0.1092 -0.6296 -1.3844
 4968SOL     OW26536   2.768   3.805   1.222  0.0205  0.0011  0.2281
 4968SOL    HW126537   2.849   3.855   1.236 -1.5966  2.4196  1.1223
 4968SOL    HW226538   2.702   3.870   1.199  1.0108  0.8573 -0.2066
 4969SOL     OW26539   2.870   0.828   8.126 -0.4753 -0.0111  0.1725
 4969SOL    HW126540   2.897   0.739   8.107 -1.2787 -0.5883  1.7032
 4969SOL    HW226541   2.952   0.870   8.102 -1.9935  2.3345 -0.9055
 4970SOL     OW26542   1.653   2.911   4.754 -0.0026 -0.2092  0.7264
 4970SOL    HW126543   1.647   2.825   4.796  3.1308 -0.9770 -0.3924
 4970SOL    HW226544   1.739   2.944   4.779 -0.2635  0.0366  1.3044
 4971SOL     OW26545   4.043   3.306   2.959  0.0732 -0.1051 -0.2122
 4971SOL    HW126546   3.956   3.272   2.938  1.0232 -1.5029 -1.8371
 4971SOL    HW226547   4.091   3.279   2.881 -0.1971 -3.8928  0.9186
 4972SOL     OW26548   1.342   2.245   6.944 -0.3834 -0.2891 -0.5000
 4972SOL    HW126549   1.377   2.164   6.908 -1.4715 -1.1476  0.3462
 4972SOL    HW226550   1.407   2.297   6.899  0.8757 -1.7153 -0.3338
 4973SOL     OW26551   0.534   0.533   8.629 -0.5952  0.2636 -0.1008
 4973SOL    HW126552   0.565   0.520   8.539 -1.9811 -0.4913 -0.4660
 4973SOL    HW226553   0.476   0.457   8.623  0.0446 -0.1718 -0.8625
 4974SOL     OW26554   1.824   2.149   9.428 -0.4433  0.1740  0.2123
 4974SOL    HW126555   1.756   2.213   9.406  0.0034  1.4911  2.7575
 4974SOL    HW226556   1.900   2.181   9.378  0.7379 -0.3596  1.6717
 4975SOL     OW26557   1.036   1.968   6.758  0.1097 -0.3207  0.3119
 4975SOL    HW126558   1.058   1.877   6.776  0.6729 -0.3144 -0.3470
 4975SOL    HW226559   1.123   2.006   6.749  0.1188 -0.2412  0.7253
 4976SOL     OW26560   1.305   3.559  17.648 -0.2523 -0.1292  0.2704
 4976SOL    HW126561   1.295   3.498  17.722  0.4574 -0.5609  0.0053
 4976SOL    HW226562   1.396   3.542  17.625 -0.4764  1.0052 -1.4122
 4977SOL     OW26563   2.343   4.320   2.342  0.3158  0.2297  0.0862
 4977SOL    HW126564   2.399   4.296   2.416  2.3290  0.8135 -1.2396
 4977SOL    HW226565   2.376   4.404   2.309  0.7244  0.2120  0.4519
 4978SOL     OW26566   1.061   1.957   7.331 -0.0918 -0.4481  0.2086
 4978SOL    HW126567   1.055   1.881   7.389  0.6597 -0.0558  0.8016
 4978SOL    HW226568   0.999   2.022   7.365 -0.3842 -0.5588 -0.1069
 4979SOL     OW26569   2.260   2.419   2.969 -0.2484  0.4257  0.2385
 4979SOL    HW126570   2.213   2.470   3.035 -1.4326 -0.8468  0.3776
 4979SOL    HW226571   2.280   2.336   3.013  0.1899  0.1283 -0.5058
 4980SOL     OW26572   0.748   0.233  15.926  0.1989  1.0725  0.2944
 4980SOL    HW126573   0.671   0.254  15.979 -0.5655 -2.4967  0.5930
 4980SOL    HW226574   0.824   0.236  15.984  1.4459 -0.5343 -1.2557
 4981SOL     OW26575   4.258   0.877   2.153  0.3960 -0.4044 -0.1011
 4981SOL    HW126576   4.269   0.826   2.233 -1.0055 -0.3704  0.1022
 4981SOL    HW226577   4.175   0.852   2.114  0.9910  1.1819 -2.4131
 4982SOL     OW26578   3.116   2.275   3.577  0.6150 -0.4079  0.2324
 4982SOL    HW126579   3.197   2.311   3.613 -0.6374  0.7167  1.9902
 4982SOL    HW226580   3.141   2.195   3.531  1.0422  1.3058 -2.5226
 4983SOL     OW26581   0.165   2.714   7.412 -0.4633  0.3766  1.1035
 4983SOL    HW126582   0.079   2.675   7.426  0.1635 -0.5045  2.5309
 4983SOL    HW226583   0.212   2.658   7.474 -0.8870 -0.5711  0.5696
 4984SOL     OW26584   3.665   3.228   7.359  0.3307  0.3616 -0.3101
 4984SOL    HW126585   3.583   3.181   7.375  1.4727 -1.0082  1.5536
 4984SOL    HW226586   3.727   3.187   7.420 -2.6589 -2.1325  1.0582
 4985SOL     OW26587   1.655   0.621  14.728 -0.2392 -0.4877 -0.2588
 4985SOL    HW126588   1.717   0.576  14.786  1.4702 -0.8696 -2.3886
 4985SOL    HW226589   1.567   0.603  14.762 -0.0491  1.2587  1.1036
 4986SOL     OW26590   4.514   3.845   6.769 -0.1482  0.4250 -0.3648
 4986SOL    HW126591   4.518   3.904   6.693  2.3633  0.1768 -0.4033
 4986SOL    HW226592   4.525   3.761   6.725 -0.1003  0.4560 -0.4118
 4987SOL     OW26593   2.747   3.473  15.964 -0.2967  0.5122  0.0244
 4987SOL    HW126594   2.677   3.408  15.964  0.7691 -0.6186  1.4184
 4987SOL    HW226595   2.811   3.415  16.006 -0.5730  1.3308  1.5810
 4988SOL     OW26596   1.947   2.411   0.923  0.7370 -0.1874 -0.3113
 4988SOL    HW126597   2.022   2.463   0.952  0.6786 -0.2055 -0.1260
 4988SOL    HW226598   1.976   2.360   0.848 -1.4729  0.4213 -1.5767
 4989SOL     OW26599   3.390   3.582   2.656 -0.0816 -0.2071 -0.0671
 4989SOL    HW126600   3.439   3.543   2.728  0.7772  0.3197 -0.3658
 4989SOL    HW226601   3.339   3.505   2.631 -1.0217  1.6936 -4.1066
 4990SOL     OW26602   1.132   0.244  10.451  0.0399 -0.0945  0.0118
 4990SOL    HW126603   1.129   0.184  10.526 -0.7492 -1.6984 -1.2865
 4990SOL    HW226604   1.041   0.265  10.430 -0.8362 -2.4442  1.4763
 4991SOL     OW26605   2.361   2.313   8.312 -0.0266  0.3505 -0.4045
 4991SOL    HW126606   2.345   2.383   8.376  1.8138 -0.6904  1.1936
 4991SOL    HW226607   2.275   2.274   8.328  1.1787 -1.1853  2.3590
 4992SOL     OW26608   3.329   0.468   7.803  0.0142 -0.3098 -0.0242
 4992SOL    HW126609   3.310   0.490   7.712  1.6436  0.5024 -0.1598
 4992SOL    HW226610   3.345   0.551   7.846 -0.6962 -1.8847  3.2599
 4993SOL     OW26611   4.321   1.737  17.748 -0.3929  0.0344 -0.3935
 4993SOL    HW126612   4.261   1.669  17.717  0.5126 -1.1634  0.4737
 4993SOL    HW226613   4.340   1.787  17.669  0.5028  0.0720 -0.1565
 4994SOL     OW26614   0.385   1.509   3.909 -0.1875  0.3055 -0.1783
 4994SOL    HW126615   0.291   1.528   3.917 -0.5438 -0.8625 -1.5586
 4994SOL    HW226616   0.398   1.442   3.976  0.0318  1.2997  0.7771
 4995SOL     OW26617   3.790   3.407   3.313 -0.1813 -0.1630  0.2284
 4995SOL    HW126618   3.801   3.312   3.323 -0.2525 -0.0622  1.2206
 4995SOL    HW226619   3.856   3.448   3.369 -1.6980  1.2461  0.9558
 4996SOL     OW26620   0.939   2.079   6.389 -0.3432  0.5880  0.1142
 4996SOL    HW126621   0.974   2.143   6.327  2.7134 -1.5495 -0.3491
 4996SOL    HW226622   1.017   2.033   6.418 -1.5673 -2.1233 -0.8432
 4997SOL     OW26623   0.612   2.750   6.532 -0.3714 -0.2983  0.1842
 4997SOL    HW126624   0.539   2.741   6.471  1.3876 -1.7016 -1.7377
 4997SOL    HW226625   0.678   2.696   6.489  0.5321  0.7338  0.2532
 4998SOL     OW26626   2.215   0.767   4.251 -0.1439 -0.2656  0.5850
 4998SOL    HW126627   2.296   0.789   4.204  0.7295 -1.0414  1.7422
 4998SOL    HW226628   2.199   0.855   4.287 -1.8374 -0.9024  1.3478
 4999SOL     OW26629   0.246   2.681  13.499  0.0491  0.0803 -0.0199
 4999SOL    HW126630   0.284   2.632  13.426  0.8559  0.1666  0.3326
 4999SOL    HW226631   0.320   2.675  13.559 -0.2229  4.0864  0.7229
 5000SOL     OW26632   0.013   1.659  17.336 -0.1022 -0.3532 -0.1297
 5000SOL    HW126633   4.666   1.649  17.298 -1.5072  0.6163  2.7911
 5000SOL    HW226634   0.026   1.586  17.397 -1.8813 -0.8955 -0.4230
 5001SOL     OW26635   4.371   2.717   1.780  0.2088  0.3753 -0.3166
 5001SOL    HW126636   4.334   2.805   1.779  2.3025  1.2499 -0.3827
 5001SOL    HW226637   4.293   2.672   1.815  1.6748 -1.8787  0.0772
 5002SOL     OW26638   1.214   0.996   2.873  0.2136 -0.2477  0.5164
 5002SOL    HW126639   1.224   0.981   2.779 -2.0362 -0.0831  0.2477
 5002SOL    HW226640   1.263   0.918   2.899  1.5769  0.5431  0.3232
 5003SOL     OW26641   2.863   1.676   0.581 -0.2108  1.0095  0.1670
 5003SOL    HW126642   2.780   1.643   0.613 -0.0639  2.9166  2.5783
 5003SOL    HW226643   2.883   1.610   0.515 -0.1910  0.3147  0.8657
 5004SOL     OW26644   4.244   2.916  12.969  0.2988 -0.0573  0.4162
 5004SOL    HW126645   4.283   2.841  12.924  1.4251 -0.3258  1.8073
 5004SOL    HW226646   4.237   2.891  13.062 -1.1566 -3.9610 -0.7294
 5005SOL     OW26647   0.913   3.808   0.135 -0.0713 -0.3057  0.3897
 5005SOL    HW126648   0.852   3.744   0.098  1.2626  0.2769 -2.7943
 5005SOL    HW226649   0.992   3.764   0.104 -0.0422 -0.7695  1.1019
 5006SOL     OW26650   4.144   3.527  10.711 -0.4956 -0.2464  0.0393
 5006SOL    HW126651   4.206   3.503  10.642  0.5201 -2.1516  1.6015
 5006SOL    HW226652   4.123   3.445  10.756  0.6406 -1.8040 -2.3007
 5007SOL     OW26653   0.862   2.962  14.007 -0.2609 -0.7219  0.5178
 5007SOL    HW126654   0.898   2.960  14.095  0.9201 -1.4599  0.0205
 5007SOL    HW226655   0.939   2.993  13.959 -1.6252  1.6792 -0.1298
 5008SOL     OW26656   3.095   2.032   3.190  0.2544  0.5743 -0.0414
 5008SOL    HW126657   3.019   2.088   3.175  0.6447  0.6575 -1.7703
 5008SOL    HW226658   3.074   1.963   3.127  0.7505 -0.4867  0.9746
 5009SOL     OW26659   3.634   3.584   4.801  0.5040  0.0058 -0.0290
 5009SOL    HW126660   3.600   3.547   4.719 -0.2382 -0.1754  0.3611
 5009SOL    HW226661   3.593   3.519   4.859 -0.1061 -0.0026 -0.4654
 5010SOL     OW26662   2.566   2.835   5.980  0.1960 -0.7947 -0.7287
 5010SOL    HW126663   2.498   2.812   6.044  1.1034 -1.5743 -0.0420
 5010SOL    HW226664   2.527   2.914   5.943  0.3883  0.4628  1.7890
 5011SOL     OW26665   1.518   3.959   7.720 -0.4445 -0.1892 -0.4061
 5011SOL    HW126666   1.546   4.029   7.660 -2.4449  0.0904 -1.0320
 5011SOL    HW226667   1.593   3.958   7.779 -1.3936 -1.7191  0.7723
 5012SOL     OW26668   0.520   3.734   5.558  0.7510 -0.0133  0.1869
 5012SOL    HW126669   0.555   3.723   5.470  0.1875 -0.3121 -0.0039
 5012SOL    HW226670   0.439   3.684   5.546  0.9433  0.0362 -1.3969
 5013SOL     OW26671   1.075   4.724   5.878 -0.0778  0.0272 -0.2884
 5013SOL    HW126672   1.112   4.672   5.807 -0.7578 -0.6282 -0.1715
 5013SOL    HW226673   1.097   0.072   5.844  1.3494 -0.0045  0.5770
 5014SOL     OW26674   1.829   0.401   9.287 -0.1853  0.5862  0.1050
 5014SOL    HW126675   1.789   0.331   9.237 -2.4669  1.2486  1.0217
 5014SOL    HW226676   1.768   0.472   9.269  0.0030 -0.1588 -3.3806
 5015SOL     OW26677   0.387   1.058   6.307 -0.0996  0.9616  0.3848
 5015SOL    HW126678   0.347   1.145   6.299 -0.7049  0.7453  1.0055
 5015SOL    HW226679   0.432   1.068   6.391  2.7743  1.6018 -1.2532
 5016SOL     OW26680   1.869   0.042   4.424 -0.6920 -0.5716  0.2178
 5016SOL    HW126681   1.922   4.708   4.455  0.7905  0.6984  0.6930
 5016SOL    HW226682   1.919   0.120   4.448 -1.6089  0.7434 -2.0812
 5017SOL     OW26683   0.870   4.130  10.003 -0.0505  0.3979 -0.2535
 5017SOL    HW126684   0.872   4.118  10.098  0.2562 -2.3182 -0.5913
 5017SOL    HW226685   0.774   4.129   9.998 -0.0227  1.5043 -0.8304
 5018SOL     OW26686   3.034   1.451   9.954  0.1866 -0.8810  0.0845
 5018SOL    HW126687   3.021   1.446  10.049  0.0711 -1.3384  0.0443
 5018SOL    HW226688   3.008   1.364   9.922 -3.2762 -0.2832  1.2650
 5019SOL     OW26689   4.285   0.920   0.311 -0.1457 -0.2978 -0.1728
 5019SOL    HW126690   4.264   0.909   0.218  1.7477  0.5124 -0.6938
 5019SOL    HW226691   4.320   1.009   0.310  1.1541 -0.7956  0.7057
 5020SOL     OW26692   2.817   4.221  12.571  0.1955 -0.4674 -0.5521
 5020SOL    HW126693   2.814   4.316  12.579  0.3700 -0.4185 -1.0306
 5020SOL    HW226694   2.784   4.217  12.481  0.6554 -1.4679 -0.6729
 5021SOL     OW26695   1.617   1.521  17.257 -0.1141 -0.2271  0.2024
 5021SOL    HW126696   1.606   1.574  17.178  0.7705 -2.3913 -1.3653
 5021SOL    HW226697   1.663   1.580  17.317  1.0352 -3.0457  2.1428
 5022SOL     OW26698   2.702   1.510   5.736  0.3751  0.0351 -0.1017
 5022SOL    HW126699   2.747   1.440   5.688 -0.4351 -0.8014  0.3586
 5022SOL    HW226700   2.731   1.508   5.828  0.9761  0.1521 -0.2876
 5023SOL     OW26701   2.730   1.025  12.073  0.6105 -0.5909  0.6117
 5023SOL    HW126702   2.809   1.054  12.119 -0.4059  1.7772  0.8896
 5023SOL    HW226703   2.766   0.981  11.997 -0.6654 -0.9697  0.2192
 5024SOL     OW26704   0.300   1.754   4.597 -0.8047  0.4214  0.0046
 5024SOL    HW126705   0.373   1.693   4.601 -0.6791  0.5466 -0.3874
 5024SOL    HW226706   0.325   1.809   4.523 -0.8371 -2.5255 -2.1989
 5025SOL     OW26707   2.319   4.646   5.882 -0.4503 -0.3151  0.1799
 5025SOL    HW126708   2.382   4.659   5.810  0.8713 -0.8017  1.2612
 5025SOL    HW226709   2.368   4.689   5.952 -2.0997  1.0605  0.5013
 5026SOL     OW26710   4.682   3.005   7.188  0.3046  0.3754 -0.0940
 5026SOL    HW126711   4.607   3.014   7.128  0.4779 -0.4597 -0.4289
 5026SOL    HW226712   4.640   3.032   7.270 -2.7621  1.3695 -1.9535
 5027SOL     OW26713   2.295   0.042  16.805  0.5166 -0.6701  0.0840
 5027SOL    HW126714   2.216   0.000  16.838 -0.7739  0.9356 -0.9987
 5027SOL    HW226715   2.298   0.016  16.713 -0.7509 -2.2259  0.4860
 5028SOL     OW26716   2.209   4.610   2.281  0.0253  0.0002 -0.2395
 5028SOL    HW126717   2.221   4.705   2.276 -2.9649  0.3988  0.5251
 5028SOL    HW226718   2.207   4.595   2.375 -0.0425 -1.2345 -0.4495
 5029SOL     OW26719   0.003   0.198   2.903  0.1654 -0.0293 -0.7913
 5029SOL    HW126720   4.672   0.262   2.913  1.5246  0.7533  3.6749
 5029SOL    HW226721   0.070   0.227   2.964 -1.8573 -0.1438  1.4486
 5030SOL     OW26722   4.036   1.953  11.586  0.1424  0.2883  0.2533
 5030SOL    HW126723   3.959   1.926  11.635 -0.2376  2.1649  0.6956
 5030SOL    HW226724   4.113   1.934  11.640  0.1701 -0.5530 -0.0860
 5031SOL     OW26725   4.020   2.586   2.124  0.2376  0.2181  0.2658
 5031SOL    HW126726   4.110   2.554   2.120  0.4257  0.8016 -0.2565
 5031SOL    HW226727   3.994   2.575   2.033  0.9443 -1.3555  0.2677
 5032SOL     OW26728   2.485   0.085   7.285  0.4242  0.0734  0.2181
 5032SOL    HW126729   2.444   0.139   7.352  1.0367 -0.2470  0.8525
 5032SOL    HW226730   2.501   0.157   7.224 -0.4805  0.4196  0.3797
 5033SOL     OW26731   1.406   1.261  14.892 -0.3770  0.5489  0.4977
 5033SOL    HW126732   1.380   1.214  14.971 -0.4635 -1.6501 -0.8452
 5033SOL    HW226733   1.501   1.253  14.904 -0.3827 -1.5709 -0.9838
 5034SOL     OW26734   3.996   0.201   3.581 -0.9206 -0.0873  0.0492
 5034SOL    HW126735   4.015   0.224   3.490  0.7524  1.7865  0.8822
 5034SOL    HW226736   3.938   0.125   3.572  0.3219 -1.0672  0.3828
 5035SOL     OW26737   4.283   4.225  15.050  0.2653  0.0474  0.1537
 5035SOL    HW126738   4.364   4.254  15.008 -0.4101  1.3267 -0.2472
 5035SOL    HW226739   4.270   4.292  15.116 -3.3284 -0.9391  0.4250
 5036SOL     OW26740   1.792   0.802   9.154  0.0342 -0.0382  0.0801
 5036SOL    HW126741   1.779   0.894   9.178 -0.3061  0.4879 -2.1359
 5036SOL    HW226742   1.884   0.797   9.180 -0.3321 -0.5348  1.3067
 5037SOL     OW26743   4.426   4.590   3.102  0.1703  0.5549 -0.2006
 5037SOL    HW126744   4.393   4.649   3.034 -1.7607  0.1302  0.3739
 5037SOL    HW226745   4.421   4.505   3.058  2.3021  0.0689  0.4857
 5038SOL     OW26746   4.370   2.576  10.723  0.0451  0.5484  0.1198
 5038SOL    HW126747   4.355   2.513  10.793  1.2479 -0.1414 -0.2395
 5038SOL    HW226748   4.307   2.646  10.737 -0.2299  0.0954  1.0986
 5039SOL     OW26749   2.028   0.511   5.521 -0.0706  0.1821 -0.0959
 5039SOL    HW126750   2.080   0.559   5.585  0.7998  2.3246 -2.4366
 5039SOL    HW226751   2.085   0.437   5.499  2.7859  2.0157  1.1161
 5040SOL     OW26752   2.847   2.120  13.010  0.4177  0.4180 -0.3420
 5040SOL    HW126753   2.823   2.037  12.970  2.3294  0.4006 -1.4671
 5040SOL    HW226754   2.763   2.165  13.016 -0.1602 -0.4300 -2.0497
 5041SOL     OW26755   0.633   2.378   7.220  0.0862  0.0459  0.0169
 5041SOL    HW126756   0.596   2.331   7.295 -0.0120 -0.3360 -0.2709
 5041SOL    HW226757   0.712   2.326   7.207  0.5448  1.4255 -2.6119
 5042SOL     OW26758   3.833   4.566   0.395 -0.3471 -0.2005 -0.2104
 5042SOL    HW126759   3.776   4.508   0.345 -0.7007 -0.7363  0.8253
 5042SOL    HW226760   3.911   4.557   0.339 -0.2044 -0.6875  0.0712
 5043SOL     OW26761   2.450   2.496   4.525  0.9318  0.2935 -0.6709
 5043SOL    HW126762   2.460   2.496   4.620 -1.1643 -0.5816 -0.4366
 5043SOL    HW226763   2.454   2.589   4.502 -0.3644  0.5330  0.0446
 5044SOL     OW26764   0.957   4.346   5.254 -0.2118 -0.1489 -0.2962
 5044SOL    HW126765   0.997   4.421   5.210 -0.7870  0.4304  0.1729
 5044SOL    HW226766   0.906   4.299   5.189 -2.2597  1.4112  0.1988
 5045SOL     OW26767   0.544   2.892   6.194  0.3167 -0.2390  0.2620
 5045SOL    HW126768   0.616   2.894   6.257  1.1986  0.3316 -0.7747
 5045SOL    HW226769   0.587   2.886   6.108  0.9076 -0.2039  0.5528
 5046SOL     OW26770   0.948   2.459  10.916 -0.1287  0.3478 -0.5676
 5046SOL    HW126771   0.875   2.520  10.927  1.6833  1.9597  2.1673
 5046SOL    HW226772   1.003   2.496  10.984 -2.4500 -0.0828  1.5386
 5047SOL     OW26773   0.381   3.726   7.320  0.0723  0.0003  0.2196
 5047SOL    HW126774   0.327   3.753   7.245  2.2507  0.7870 -1.0786
 5047SOL    HW226775   0.425   3.651   7.281 -0.0614 -0.0068  0.0838
 5048SOL     OW26776   2.965   4.615   1.867 -0.0217  0.0168 -0.7053
 5048SOL    HW126777   3.016   4.647   1.941 -0.3029  1.3412 -1.0814
 5048SOL    HW226778   2.943   4.685   1.805 -1.1750  0.6243  0.3845
 5049SOL     OW26779   2.563   1.095   1.649  0.1321 -0.0677 -0.7726
 5049SOL    HW126780   2.621   1.021   1.666  0.0843  0.6133  2.3235
 5049SOL    HW226781   2.583   1.152   1.723  0.3488  1.1524 -1.7641
 5050SOL     OW26782   3.993   0.624   6.165 -0.3533 -0.5021  0.7169
 5050SOL    HW126783   3.976   0.631   6.259 -0.4093  3.2302  0.4602
 5050SOL    HW226784   3.958   0.544   6.126  1.4196 -0.8396 -0.1659
 5051SOL     OW26785   0.514   0.423   5.615 -0.0039 -0.5510 -0.4406
 5051SOL    HW126786   0.548   0.366   5.546  3.7308  1.4520 -0.2226
 5051SOL    HW226787   0.541   0.507   5.580 -0.5773 -1.1004 -2.1744
 5052SOL     OW26788   2.647   3.928   3.899 -0.6266 -0.0704  0.1255
 5052SOL    HW126789   2.688   3.876   3.830  0.2802  0.1462  0.5008
 5052SOL    HW226790   2.584   3.980   3.849 -1.1934  0.1413  1.0658
 5053SOL     OW26791   2.974   0.262   6.352 -0.1962 -0.0997 -0.4032
 5053SOL    HW126792   2.879   0.264   6.361  0.0359 -2.9106  2.4598
 5053SOL    HW226793   2.998   0.311   6.431 -0.4086 -0.6100 -0.0310
 5054SOL     OW26794   4.638   0.919   5.155  0.0310 -0.5074  0.3028
 5054SOL    HW126795   4.565   0.980   5.146  0.4084 -0.1514 -0.3891
 5054SOL    HW226796   4.593   0.835   5.167  1.4868 -1.5129 -1.1585
 5055SOL     OW26797   3.885   1.246   8.519 -0.5489  0.3091 -0.6072
 5055SOL    HW126798   3.899   1.315   8.454  0.8100  0.3926 -0.2291
 5055SOL    HW226799   3.867   1.173   8.460  0.1559  0.3485 -0.8664
 5056SOL     OW26800   2.081   3.192   3.400 -0.0894  0.0230  0.0658
 5056SOL    HW126801   2.073   3.160   3.310 -0.8515 -0.4671  0.3093
 5056SOL    HW226802   1.990   3.219   3.410  0.2753  0.5521  1.9406
 5057SOL     OW26803   0.354   3.672  12.721 -0.2231 -0.2033  0.1168
 5057SOL    HW126804   0.389   3.598  12.772 -2.3618 -1.6391 -0.4706
 5057SOL    HW226805   0.423   3.737  12.733 -0.2302  0.3715 -2.9206
 5058SOL     OW26806   1.328   3.361   9.288 -0.4171 -0.1419  0.3841
 5058SOL    HW126807   1.318   3.266   9.279  0.1426 -0.1073 -0.5554
 5058SOL    HW226808   1.346   3.358   9.382  1.5566  0.9207  0.0258
 5059SOL     OW26809   1.002   3.061   2.821  0.8716 -0.2440 -0.5742
 5059SOL    HW126810   1.011   3.049   2.726  0.2195  2.2381 -0.9413
 5059SOL    HW226811   1.091   3.089   2.844  0.8822 -0.1957 -0.6737
 5060SOL     OW26812   4.553   0.020   5.800  0.0166  0.3301  0.0212
 5060SOL    HW126813   4.640   0.046   5.831  0.1260 -1.4508  1.1993
 5060SOL    HW226814   4.514   0.107   5.794  0.7501  0.8767  3.0418
 5061SOL     OW26815   0.095   3.991  11.270  0.1660  0.7684  0.6382
 5061SOL    HW126816   0.057   4.054  11.209 -0.4507 -0.1488  0.0702
 5061SOL    HW226817   0.101   3.908  11.222 -2.0956  1.4356 -0.8250
 5062SOL     OW26818   4.399   4.117  10.036  0.8853 -0.1545 -0.0629
 5062SOL    HW126819   4.386   4.143  10.127  2.1954 -2.1549  0.7079
 5062SOL    HW226820   4.374   4.025  10.045 -0.6131  0.4344  1.9571
 5063SOL     OW26821   2.982   3.668   0.603 -0.2603 -0.2871 -0.6453
 5063SOL    HW126822   2.925   3.597   0.634  2.3243 -2.1515 -0.1054
 5063SOL    HW226823   2.916   3.730   0.573 -0.0333 -0.0678 -0.6884
 5064SOL     OW26824   2.452   2.659   7.778 -0.2003 -0.4566  0.3863
 5064SOL    HW126825   2.487   2.606   7.706  2.7489  0.0895  1.4428
 5064SOL    HW226826   2.512   2.647   7.851 -0.4048 -1.0668  0.4566
 5065SOL     OW26827   1.777   4.258   7.061 -0.6423  0.1543  0.0850
 5065SOL    HW126828   1.854   4.315   7.054 -0.4794 -0.2584 -1.4349
 5065SOL    HW226829   1.712   4.327   7.045 -0.3822  0.1833 -0.8184
 5066SOL     OW26830   2.294   3.415  14.544 -0.3045 -0.0385  0.2209
 5066SOL    HW126831   2.332   3.408  14.456  0.9576  1.8407  0.6272
 5066SOL    HW226832   2.234   3.342  14.554 -0.3269 -0.1378 -0.5824
 5067SOL     OW26833   2.436   3.309   7.141  0.1684  0.5135 -0.4551
 5067SOL    HW126834   2.505   3.257   7.100  0.6083 -0.3307  1.3634
 5067SOL    HW226835   2.452   3.318   7.235 -1.6120 -2.1453  0.1304
 5068SOL     OW26836   0.120   2.968   0.770 -0.1321  0.5399 -0.1594
 5068SOL    HW126837   0.110   3.050   0.819  1.3868 -0.2323  1.4407
 5068SOL    HW226838   0.096   2.910   0.843  1.0226  1.0567  0.6269
 5069SOL     OW26839   0.363   2.360   8.901  0.5278  0.3009  0.5027
 5069SOL    HW126840   0.427   2.388   8.965  2.3160 -1.3239 -0.5746
 5069SOL    HW226841   0.330   2.280   8.942  2.5719  0.0837  1.6742
 5070SOL     OW26842   0.243   0.981  10.829  0.4215  0.2644  0.0764
 5070SOL    HW126843   0.196   0.901  10.854  2.4865 -0.7530  0.6545
 5070SOL    HW226844   0.180   1.042  10.790  1.2486  0.4642 -0.9301
 5071SOL     OW26845   0.299   4.724  17.538  0.2059  0.3205  0.3861
 5071SOL    HW126846   0.222   0.012  17.488 -1.4064  1.0822  3.2741
 5071SOL    HW226847   0.341   0.069  17.550  0.8939 -0.1551  1.2907
 5072SOL     OW26848   1.154   3.662   3.835  0.0002  0.7054 -0.1299
 5072SOL    HW126849   1.182   3.702   3.918  1.8589  1.9918 -1.3725
 5072SOL    HW226850   1.119   3.578   3.864 -0.9973  0.6299 -1.6015
 5073SOL     OW26851   1.317   4.208   1.039  0.3973 -0.1481 -0.9719
 5073SOL    HW126852   1.261   4.258   0.979  1.4431 -2.0214 -3.5491
 5073SOL    HW226853   1.347   4.135   0.985  0.7107 -0.3490 -0.5275
 5074SOL     OW26854   4.134   3.024   3.877 -0.4444  0.1227 -0.4476
 5074SOL    HW126855   4.098   3.112   3.863 -1.2519  0.3207  2.8849
 5074SOL    HW226856   4.206   3.047   3.937 -0.3390  0.5398 -0.7340
 5075SOL     OW26857   1.770   1.394   5.520  0.2795  0.2005  0.1489
 5075SOL    HW126858   1.738   1.389   5.610  1.7157 -1.1102  0.5819
 5075SOL    HW226859   1.788   1.301   5.509 -0.8224 -0.0298  0.3230
 5076SOL     OW26860   3.401   3.857   6.042 -0.3448  0.3088 -0.0719
 5076SOL    HW126861   3.348   3.896   6.112 -1.6089  0.5190 -1.1531
 5076SOL    HW226862   3.467   3.926   6.037  0.1780 -0.2039 -0.2423
 5077SOL     OW26863   1.497   1.136   5.542  0.0795  0.0432 -0.4874
 5077SOL    HW126864   1.492   1.207   5.478  0.0891  1.4191  1.0173
 5077SOL    HW226865   1.425   1.083   5.507 -2.3430  1.4734  2.3322
 5078SOL     OW26866   0.190   4.349  14.684 -0.8050 -0.4719  0.0902
 5078SOL    HW126867   0.170   4.256  14.675 -1.8169 -0.2878  0.4630
 5078SOL    HW226868   0.104   4.390  14.684 -0.3177  0.5425 -1.5268
 5079SOL     OW26869   4.622   2.545   6.938 -0.3590 -0.4532 -0.0504
 5079SOL    HW126870   4.617   2.537   7.034  0.5857 -1.6949 -0.1070
 5079SOL    HW226871   4.590   2.635   6.931  1.8498  0.3701  0.4719
 5080SOL     OW26872   0.868   1.617  12.647  0.1386  0.2644 -0.0594
 5080SOL    HW126873   0.814   1.580  12.577  0.1952  0.8768 -0.4188
 5080SOL    HW226874   0.910   1.536  12.678  0.3189  0.6816  0.7818
 5081SOL     OW26875   1.987   3.189   2.682 -0.2281 -0.3519  0.0425
 5081SOL    HW126876   1.961   3.240   2.758 -1.4002 -1.4782  0.4001
 5081SOL    HW226877   2.069   3.235   2.667 -0.1794 -0.3958  0.1765
 5082SOL     OW26878   1.010   1.379   4.670 -0.0406 -0.2268 -0.1250
 5082SOL    HW126879   1.024   1.417   4.583  1.0084 -1.1149 -0.3400
 5082SOL    HW226880   1.031   1.287   4.655  0.3772 -0.0315 -0.7434
 5083SOL     OW26881   4.412   1.761   7.984 -0.2081  0.2030 -0.1178
 5083SOL    HW126882   4.338   1.701   7.979 -0.9101  1.0992 -0.3778
 5083SOL    HW226883   4.472   1.716   7.924  1.2196  0.7459  0.9051
 5084SOL     OW26884   0.799   1.168  12.800  0.3809  0.3046 -0.7469
 5084SOL    HW126885   0.804   1.089  12.854 -0.7518 -0.2814 -1.4952
 5084SOL    HW226886   0.796   1.125  12.714 -1.4525  0.5391 -0.8015
 5085SOL     OW26887   3.802   1.571  16.169 -0.3191  0.7975 -0.2110
 5085SOL    HW126888   3.798   1.477  16.186 -1.3807  1.1526  1.4767
 5085SOL    HW226889   3.746   1.564  16.092 -2.6406 -2.6057  1.7957
 5086SOL     OW26890   4.031   1.252   1.060 -0.3609  0.2682  0.0794
 5086SOL    HW126891   4.052   1.163   1.089  1.8642  0.6542 -0.2973
 5086SOL    HW226892   4.111   1.278   1.014  1.2393 -2.1330  1.5413
 5087SOL     OW26893   1.525   0.765   3.615  0.1997 -0.1380  0.5353
 5087SOL    HW126894   1.447   0.754   3.669  0.5827 -0.2717  1.0630
 5087SOL    HW226895   1.592   0.711   3.657 -0.7896 -0.1357  2.1023
 5088SOL     OW26896   3.373   2.969   5.815 -0.5126  0.0885 -0.1831
 5088SOL    HW126897   3.308   2.977   5.745  0.4918 -1.2978 -1.2730
 5088SOL    HW226898   3.356   3.051   5.860  0.0829  0.2855 -0.3238
 5089SOL     OW26899   0.303   4.172   6.290  0.0772  0.0734 -0.3566
 5089SOL    HW126900   0.240   4.244   6.296  0.2339  0.0263  1.6431
 5089SOL    HW226901   0.370   4.231   6.255 -1.9884  1.3158 -2.2402
 5090SOL     OW26902   1.758   3.076   8.340 -0.2342 -0.3996  0.6505
 5090SOL    HW126903   1.700   3.151   8.347  0.0511 -0.3261  2.1490
 5090SOL    HW226904   1.779   3.054   8.431  0.4058  0.5553  0.7300
 5091SOL     OW26905   0.875   4.328   4.162  0.0437 -0.5487 -0.7794
 5091SOL    HW126906   0.926   4.247   4.164  0.2698 -0.4025 -0.5595
 5091SOL    HW226907   0.944   4.389   4.189  0.1316 -1.1166  0.2853
 5092SOL     OW26908   0.260   3.265  12.887  0.2141  0.6612 -0.2711
 5092SOL    HW126909   0.185   3.321  12.866 -0.3561  0.2918  0.8169
 5092SOL    HW226910   0.232   3.238  12.974  0.3480 -0.7422 -0.6565
 5093SOL     OW26911   1.608   2.361   6.931  0.1563  0.0449 -0.2777
 5093SOL    HW126912   1.563   2.407   7.003  0.1723 -1.3137  0.6002
 5093SOL    HW226913   1.696   2.369   6.968 -0.7126  1.0311  1.6315
 5094SOL     OW26914   0.720   3.039  17.511 -0.3624  0.1751  0.6920
 5094SOL    HW126915   0.698   2.978  17.440 -0.4425 -0.2751  1.1023
 5094SOL    HW226916   0.778   2.989  17.569 -1.1513 -1.2536  0.2628
 5095SOL     OW26917   1.826   4.110  10.471  0.1097  0.1575  0.3388
 5095SOL    HW126918   1.922   4.103  10.472  0.1311  0.7949  1.9802
 5095SOL    HW226919   1.788   4.024  10.490 -1.1278  0.4752 -0.7338
 5096SOL     OW26920   3.296   4.380   6.981  0.2218  0.5582  0.7571
 5096SOL    HW126921   3.256   4.450   6.930 -0.6902 -0.9611 -0.6370
 5096SOL    HW226922   3.245   4.301   6.962  0.2109  0.3962  1.4581
 5097SOL     OW26923   2.964   0.252   6.773  0.4677  0.4929  0.1741
 5097SOL    HW126924   3.019   0.248   6.851 -0.3288 -1.5903  0.6294
 5097SOL    HW226925   2.913   0.171   6.779  0.8008  0.4045  1.6679
 5098SOL     OW26926   4.716   1.877   2.512 -0.0244 -0.4171  0.4908
 5098SOL    HW126927   0.046   1.829   2.467 -1.1278 -2.3443  0.8528
 5098SOL    HW226928   4.662   1.911   2.441 -2.3975 -2.3224  1.4023
 5099SOL     OW26929   2.847   1.481   2.161  0.5040 -1.0738  0.0300
 5099SOL    HW126930   2.782   1.543   2.127  0.5644 -1.2070 -0.3299
 5099SOL    HW226931   2.860   1.424   2.085  0.5128 -0.3842 -0.4850
 5100SOL     OW26932   3.589   4.391   4.980 -0.0665  0.0286 -0.2305
 5100SOL    HW126933   3.622   4.330   5.047  0.0106  0.0884 -0.2141
 5100SOL    HW226934   3.568   4.472   5.027 -1.3002 -0.3303 -0.1723
 5101SOL     OW26935   3.448   1.825   2.958  0.5635 -0.1102 -0.0464
 5101SOL    HW126936   3.522   1.788   2.911 -0.7635  1.3208 -3.2861
 5101SOL    HW226937   3.459   1.920   2.954  1.9800 -0.2176  1.7140
 5102SOL     OW26938   4.335   4.061   1.194 -0.2545 -0.7348  0.2727
 5102SOL    HW126939   4.312   4.121   1.265 -0.5472 -1.1586  0.5328
 5102SOL    HW226940   4.273   3.989   1.208 -2.5845  1.0158 -0.8868
 5103SOL     OW26941   2.384   0.257   2.813 -0.4684  0.4202 -0.5912
 5103SOL    HW126942   2.304   0.309   2.821  0.3477  1.5938 -0.0346
 5103SOL    HW226943   2.413   0.268   2.903  0.3715 -1.8106 -0.5950
 5104SOL     OW26944   1.451   0.806   8.004  0.1367 -0.4561 -0.2724
 5104SOL    HW126945   1.356   0.819   7.997  0.0973 -0.2641  0.5782
 5104SOL    HW226946   1.472   0.749   8.079  1.9402  2.3944  1.3935
 5105SOL     OW26947   1.984   0.009   0.488 -0.4448  0.0709 -0.2958
 5105SOL    HW126948   1.930   0.077   0.447  1.7654  2.4164  0.7035
 5105SOL    HW226949   2.074   0.023   0.458 -0.5304 -0.0926 -0.6276
 5106SOL     OW26950   3.184   3.191   7.981 -0.0466 -0.2972  0.3107
 5106SOL    HW126951   3.100   3.181   8.024 -0.3676 -3.2017 -0.9998
 5106SOL    HW226952   3.238   3.187   8.060 -1.0255 -1.1822  0.9265
 5107SOL     OW26953   4.555   1.787   1.262 -0.2818  0.1110 -0.0420
 5107SOL    HW126954   4.535   1.804   1.354 -0.2645  1.9103 -0.3613
 5107SOL    HW226955   4.492   1.716   1.248 -1.4114  0.7535  1.8103
 5108SOL     OW26956   2.461   0.890  11.009  0.1790  0.2569 -0.0825
 5108SOL    HW126957   2.459   0.980  11.042 -3.9338 -0.1701  0.8684
 5108SOL    HW226958   2.556   0.880  11.013  0.1196 -0.4514 -0.3737
 5109SOL     OW26959   2.713   4.184   7.659  0.1337  0.5312 -0.4348
 5109SOL    HW126960   2.782   4.187   7.592  0.8376 -0.1527  0.2470
 5109SOL    HW226961   2.765   4.145   7.730  0.0956 -0.7193 -1.0938
 5110SOL     OW26962   2.336   1.037   9.797  0.7035 -0.1289  0.1806
 5110SOL    HW126963   2.294   1.096   9.860  2.0868  0.6902  0.3317
 5110SOL    HW226964   2.286   1.056   9.718 -2.4419  0.7457  2.3413
 5111SOL     OW26965   3.770   4.333  12.510  0.3768  0.7615  0.4320
 5111SOL    HW126966   3.702   4.378  12.561 -0.5062  0.4046 -0.4163
 5111SOL    HW226967   3.801   4.285  12.587  1.4122  0.8855  0.0834
 5112SOL     OW26968   3.445   0.652  11.283  0.2236 -0.2074  0.1799
 5112SOL    HW126969   3.353   0.633  11.304  0.0997 -0.2328 -0.3725
 5112SOL    HW226970   3.480   0.564  11.266 -1.8723 -0.5503 -2.4247
 5113SOL     OW26971   1.163   4.117   5.481 -0.6310  0.1503 -0.1095
 5113SOL    HW126972   1.144   4.084   5.569 -0.2351  0.1288 -0.0357
 5113SOL    HW226973   1.134   4.206   5.502  0.1765  0.6289 -1.0542
 5114SOL     OW26974   2.315   3.406   3.517 -0.0677 -0.1258  0.0666
 5114SOL    HW126975   2.306   3.316   3.550 -2.6639  1.6944  4.3080
 5114SOL    HW226976   2.226   3.438   3.508  0.3967  0.6624 -1.7745
 5115SOL     OW26977   1.278   0.870  11.889  0.0779  0.1024  0.1495
 5115SOL    HW126978   1.228   0.864  11.807  0.9847 -2.1329 -0.2256
 5115SOL    HW226979   1.324   0.950  11.863 -0.6155  0.1529 -0.9452
 5116SOL     OW26980   0.677   2.583   4.972 -0.3610  0.4347 -0.6429
 5116SOL    HW126981   0.603   2.546   4.924  0.3139 -1.0555 -0.5317
 5116SOL    HW226982   0.687   2.531   5.051 -1.5020 -0.6055 -1.1838
 5117SOL     OW26983   1.087   0.748   5.363  0.1891 -0.3017  0.0043
 5117SOL    HW126984   1.010   0.692   5.362  0.9228 -1.3010 -0.3117
 5117SOL    HW226985   1.094   0.777   5.454 -2.6261 -3.1854  1.1170
 5118SOL     OW26986   3.773   3.239   6.726  0.5274 -0.0970 -0.0521
 5118SOL    HW126987   3.778   3.207   6.636 -0.4826 -2.3908  0.7078
 5118SOL    HW226988   3.809   3.166   6.776  0.2589  0.2301  0.6220
 5119SOL     OW26989   4.283   1.540   5.986 -0.3114 -0.1402  0.4607
 5119SOL    HW126990   4.203   1.500   6.020  1.7916 -2.2732  2.9195
 5119SOL    HW226991   4.310   1.468   5.930  1.3657  1.9258 -1.3348
 5120SOL     OW26992   0.487   0.769   5.074 -0.1749  0.4253  0.2829
 5120SOL    HW126993   0.527   0.852   5.101  0.0798  0.3300  0.1907
 5120SOL    HW226994   0.562   0.711   5.063  0.0951  0.7061  0.6328
 5121SOL     OW26995   2.034   3.426   5.032 -0.2363  0.3269 -0.3730
 5121SOL    HW126996   2.011   3.500   4.975  1.6778  0.6978 -0.6610
 5121SOL    HW226997   1.952   3.401   5.075  0.2939  0.8395  0.9326
 5122SOL     OW26998   2.770   0.926   1.684  0.2000  0.3665  0.9067
 5122SOL    HW126999   2.846   0.879   1.649 -1.8874 -2.6442  0.3470
 5122SOL    HW227000   2.728   0.854   1.732 -1.0376  0.6458  0.2468
 5123SOL     OW27001   3.215   3.067  13.232  0.1074  0.2149 -0.7647
 5123SOL    HW127002   3.310   3.069  13.234  0.0453  1.0843  2.4392
 5123SOL    HW227003   3.190   3.123  13.306 -0.4936 -2.3563  0.9464
 5124SOL     OW27004   1.019   2.094   4.914 -0.1069  0.0064  0.9810
 5124SOL    HW127005   0.997   2.056   4.999 -1.2050  1.3702  1.3179
 5124SOL    HW227006   0.993   2.185   4.930  0.9307  0.3497  0.7518
 5125SOL     OW27007   4.397   0.390   8.232 -0.1862 -0.0738  0.1650
 5125SOL    HW127008   4.319   0.349   8.195 -0.6869  1.9846 -1.0499
 5125SOL    HW227009   4.351   0.474   8.231 -0.7206 -0.3450  1.1192
 5126SOL     OW27010   0.637   2.442  11.178 -0.1080  0.3922  0.0007
 5126SOL    HW127011   0.704   2.387  11.218 -0.3475  0.4023  0.4095
 5126SOL    HW227012   0.593   2.380  11.120  1.2434 -0.0740 -0.5199
 5127SOL     OW27013   3.367   2.717   8.131  0.0382 -0.0381  0.2195
 5127SOL    HW127014   3.279   2.721   8.093  0.7454 -2.0425 -1.6557
 5127SOL    HW227015   3.374   2.622   8.141 -0.1624  0.0257  0.9521
 5128SOL     OW27016   3.754   3.732   3.447  0.6941  0.4454  0.2139
 5128SOL    HW127017   3.771   3.747   3.354  0.0374  1.1831  0.2148
 5128SOL    HW227018   3.783   3.811   3.492 -1.2179  2.5662 -2.3082
 5129SOL     OW27019   0.932   3.526   5.320 -0.4000  0.0474  0.3627
 5129SOL    HW127020   1.001   3.499   5.259 -0.9259  0.4826 -0.4227
 5129SOL    HW227021   0.964   3.616   5.328  2.3575 -0.7756 -1.2468
 5130SOL     OW27022   3.318   2.262   1.536 -0.2299  0.6243  0.7604
 5130SOL    HW127023   3.270   2.342   1.558  1.3926  2.1085 -1.0680
 5130SOL    HW227024   3.240   2.211   1.515 -0.1769  1.1429 -0.6644
 5131SOL     OW27025   2.235   4.038   4.676  0.1311  0.7378  0.1111
 5131SOL    HW127026   2.299   4.092   4.629  1.8768  1.1568  2.9652
 5131SOL    HW227027   2.225   3.971   4.608  0.3196  0.9009 -0.0805
 5132SOL     OW27028   3.389   0.492   5.289 -0.5622  0.0055  0.3042
 5132SOL    HW127029   3.317   0.491   5.226 -1.1437  0.4135  0.9630
 5132SOL    HW227030   3.387   0.402   5.323 -3.1096  0.1251  0.4648
 5133SOL     OW27031   0.984   1.684   1.942 -0.8273  0.1273  0.0542
 5133SOL    HW127032   0.945   1.618   1.886  0.2747 -1.0741  0.7126
 5133SOL    HW227033   0.955   1.660   2.030  2.5870 -0.5060  1.0156
 5134SOL     OW27034   0.525   3.454   5.818 -0.4926  0.6451 -0.0664
 5134SOL    HW127035   0.484   3.537   5.842 -0.7669  0.3995  0.3168
 5134SOL    HW227036   0.527   3.408   5.901 -2.5976  0.7395  0.0373
 5135SOL     OW27037   3.402   4.314   7.600  0.3355 -0.6610 -0.0970
 5135SOL    HW127038   3.492   4.300   7.570  0.8423 -0.1629  1.1889
 5135SOL    HW227039   3.376   4.227   7.628 -1.4466 -0.2819 -0.5961
 5136SOL     OW27040   1.730   0.667   4.663 -0.3534  0.2635 -0.1593
 5136SOL    HW127041   1.733   0.634   4.753 -0.3721 -0.8838 -0.5861
 5136SOL    HW227042   1.698   0.756   4.679  1.6650  0.7617  1.1294
 5137SOL     OW27043   1.056   0.026   6.920  0.8495  0.7471  0.0894
 5137SOL    HW127044   1.055   4.735   7.010 -1.4930 -2.3283 -0.9795
 5137SOL    HW227045   1.009   0.109   6.925  1.0221  0.8025  0.7437
 5138SOL     OW27046   3.693   2.204   5.130  0.1171  0.3303  0.6824
 5138SOL    HW127047   3.645   2.171   5.206  1.5841 -1.1280  0.9773
 5138SOL    HW227048   3.782   2.208   5.165  1.2396 -2.0299 -1.9155
 5139SOL     OW27049   1.344   1.042   8.514 -0.1738 -0.3247  0.0936
 5139SOL    HW127050   1.358   0.947   8.512 -2.0050 -0.5516 -3.3660
 5139SOL    HW227051   1.275   1.059   8.578  0.8227  0.5303  0.9477
 5140SOL     OW27052   2.284   2.798   2.066  0.0174  0.0670 -0.0350
 5140SOL    HW127053   2.374   2.831   2.059  0.3359 -0.6779  0.6554
 5140SOL    HW227054   2.280   2.785   2.160  1.2500 -1.6736 -0.2320
 5141SOL     OW27055   3.555   1.698   9.797 -0.9355  0.1480 -0.0355
 5141SOL    HW127056   3.550   1.702   9.893 -0.2288 -2.6713  0.1413
 5141SOL    HW227057   3.624   1.760   9.772 -1.4743  1.1159  0.8807
 5142SOL     OW27058   3.157   1.616   4.011 -0.3413  0.4976  0.1480
 5142SOL    HW127059   3.092   1.546   4.021 -0.0088  0.3459  1.2871
 5142SOL    HW227060   3.142   1.622   3.917  1.0867 -1.0279 -0.1660
 5143SOL     OW27061   2.667   3.871  13.362  0.5364 -0.1448  0.1581
 5143SOL    HW127062   2.622   3.790  13.338 -2.1337  0.6845  2.4746
 5143SOL    HW227063   2.600   3.932  13.333 -1.3239 -1.9560  0.6953
 5144SOL     OW27064   2.015   0.777   7.302 -0.2218  0.1159 -0.6957
 5144SOL    HW127065   2.046   0.847   7.359 -1.3060  0.7310 -0.8554
 5144SOL    HW227066   1.996   0.702   7.358  0.3013 -0.0515 -0.7428
 5145SOL     OW27067   4.195   0.477   4.857 -0.0829  0.0319 -0.1037
 5145SOL    HW127068   4.229   0.511   4.774 -0.1058 -1.0104 -0.5463
 5145SOL    HW227069   4.103   0.482   4.831  0.2879 -0.9833 -1.6287
 5146SOL     OW27070   4.708   1.072  11.004 -0.0738 -0.1371  0.5231
 5146SOL    HW127071   4.722   1.066  11.099  2.4173 -0.5691  0.1334
 5146SOL    HW227072   0.010   1.157  10.989  2.3471 -1.2375  0.8620
 5147SOL     OW27073   0.204   0.910  11.833  0.2657  0.4558  0.4410
 5147SOL    HW127074   0.206   0.825  11.877  1.2289 -0.2327 -0.9469
 5147SOL    HW227075   0.112   0.925  11.813  0.4385  0.1353 -0.5728
 5148SOL     OW27076   4.576   0.214  14.075 -0.1941  0.0760 -0.0864
 5148SOL    HW127077   4.548   0.129  14.109 -2.8787  1.2022  0.4804
 5148SOL    HW227078   4.557   0.207  13.982  2.2424 -0.3448 -0.5701
 5149SOL     OW27079   0.479   3.215   7.696  0.8082  0.2930 -0.0142
 5149SOL    HW127080   0.573   3.204   7.708  0.9659  0.3430 -1.1560
 5149SOL    HW227081   0.472   3.235   7.602  0.0282  0.3372  0.0563
 5150SOL     OW27082   4.553   2.946   9.830 -0.1211  0.1679 -0.4359
 5150SOL    HW127083   4.621   3.013   9.819 -2.5065  2.3115 -2.3122
 5150SOL    HW227084   4.550   2.945   9.925  0.0230 -1.2001 -0.4475
 5151SOL     OW27085   3.072   4.067   6.580 -0.0996 -0.1804 -0.3831
 5151SOL    HW127086   3.069   4.162   6.582  0.2616 -0.1527 -1.0391
 5151SOL    HW227087   3.163   4.041   6.561  0.4565 -0.7927  2.9993
 5152SOL     OW27088   3.926   4.085   4.662 -0.4350 -0.1209  0.0799
 5152SOL    HW127089   3.982   4.037   4.600 -0.3967 -0.4272  0.3475
 5152SOL    HW227090   3.984   4.076   4.738 -0.6343 -3.5098 -0.1660
 5153SOL     OW27091   4.287   1.160  14.102  0.2736 -0.0481  0.1551
 5153SOL    HW127092   4.344   1.091  14.136  1.6334  1.3066  0.6331
 5153SOL    HW227093   4.246   1.122  14.024 -1.1469  0.5312  0.6269
 5154SOL     OW27094   4.626   1.904  16.695  0.8803 -0.2366 -0.1930
 5154SOL    HW127095   4.637   1.906  16.790 -1.7275 -1.5553  0.1141
 5154SOL    HW227096   4.629   1.996  16.668 -0.9905  0.4297  1.9836
 5155SOL     OW27097   0.944   1.815  16.277 -0.2551 -0.3252  0.1411
 5155SOL    HW127098   0.938   1.897  16.327  1.0614 -0.0736 -0.1123
 5155SOL    HW227099   1.017   1.818  16.215  1.5027  2.4265  2.3370
 5156SOL     OW27100   2.392   0.294   2.186 -0.0473 -0.0172 -0.2718
 5156SOL    HW127101   2.472   0.283   2.136 -0.7288 -1.2991 -1.0914
 5156SOL    HW227102   2.394   0.214   2.239  0.5056 -0.7252 -1.3696
 5157SOL     OW27103   3.589   1.506   1.237  0.3512  0.2438 -0.1827
 5157SOL    HW127104   3.521   1.482   1.173 -0.0154 -1.3390  0.7904
 5157SOL    HW227105   3.664   1.476   1.186 -1.0263  0.2391 -2.2078
 5158SOL     OW27106   2.894   2.196   3.104 -0.5914 -0.8598  0.2779
 5158SOL    HW127107   2.807   2.215   3.069  0.1814 -0.2069 -1.2796
 5158SOL    HW227108   2.940   2.279   3.086  0.0011 -0.7905  2.1129
 5159SOL     OW27109   2.922   2.457  13.555  0.7068 -0.1107  0.4717
 5159SOL    HW127110   2.890   2.547  13.549  1.8789  0.2322 -0.6199
 5159SOL    HW227111   3.011   2.475  13.585  0.6618  2.2625 -0.8304
 5160SOL     OW27112   3.108   1.338   0.226  0.0020 -0.2935  0.3088
 5160SOL    HW127113   3.197   1.358   0.199 -0.3148 -0.1212 -0.6057
 5160SOL    HW227114   3.135   1.251   0.257  0.6493 -0.0986  0.2981
 5161SOL     OW27115   0.919   4.442   6.474  0.2819 -0.2617 -0.0130
 5161SOL    HW127116   0.929   4.536   6.486  0.3257 -0.0069 -2.0980
 5161SOL    HW227117   0.998   4.402   6.512  1.1917  0.7616 -0.8512
 5162SOL     OW27118   1.136   0.265   2.312 -0.3474  0.0537 -0.2407
 5162SOL    HW127119   1.200   0.204   2.276 -0.4155 -0.2021  0.0680
 5162SOL    HW227120   1.096   0.219   2.386  1.3613 -2.1725 -0.7066
 5163SOL     OW27121   1.018   1.655   1.172 -0.0518  0.3510 -0.6560
 5163SOL    HW127122   0.939   1.697   1.208  0.2684  0.7068 -0.3692
 5163SOL    HW227123   1.061   1.736   1.143  1.0767  0.1879  0.5676
 5164SOL     OW27124   0.512   3.822  13.368 -0.1081  0.3157  0.1398
 5164SOL    HW127125   0.454   3.894  13.395  0.6643  0.5919  1.0567
 5164SOL    HW227126   0.585   3.873  13.332  0.6377 -1.1672 -0.4150
 5165SOL     OW27127   2.056   0.418  11.560 -0.2225 -0.8801 -0.4486
 5165SOL    HW127128   1.965   0.389  11.567  0.0853 -1.1746  2.4210
 5165SOL    HW227129   2.092   0.348  11.505  1.8907 -0.7074  0.7089
 5166SOL     OW27130   3.014   4.167   2.946  0.3272  0.0286  0.1484
 5166SOL    HW127131   3.109   4.155   2.945  0.0495 -2.0419 -1.2844
 5166SOL    HW227132   2.984   4.116   3.021  0.7403  0.0299  0.3138
 5167SOL     OW27133   2.182   0.907   2.162  0.2757  0.4162 -0.2060
 5167SOL    HW127134   2.201   0.996   2.194 -1.5191 -0.6356  3.7993
 5167SOL    HW227135   2.231   0.850   2.221 -0.1149  0.5316  0.2297
 5168SOL     OW27136   3.759   3.694   5.982  0.1092  0.4275  0.0770
 5168SOL    HW127137   3.699   3.627   5.949  1.1777 -0.5356  0.1066
 5168SOL    HW227138   3.714   3.777   5.965  0.4525  0.5848 -0.0613
 5169SOL     OW27139   4.473   1.677  16.820 -0.5756 -0.1411  0.2579
 5169SOL    HW127140   4.455   1.771  16.808  1.1994  0.0733 -0.5971
 5169SOL    HW227141   4.391   1.638  16.790 -0.3296  0.3413 -1.0245
 5170SOL     OW27142   1.162   2.622   4.202 -0.0748  0.2398 -0.5188
 5170SOL    HW127143   1.199   2.590   4.284  1.1798 -1.2599 -1.6785
 5170SOL    HW227144   1.144   2.716   4.214  1.1846  0.2505  1.1862
 5171SOL     OW27145   3.479   2.088   5.254 -0.1046 -0.0316 -0.1448
 5171SOL    HW127146   3.429   2.016   5.292  0.7820 -0.0905  0.9461
 5171SOL    HW227147   3.457   2.084   5.162 -0.8201  0.4515  0.0082
 5172SOL     OW27148   3.301   4.255   8.791 -0.2442  0.2572 -0.0307
 5172SOL    HW127149   3.256   4.278   8.872 -1.2799  0.7867 -0.7544
 5172SOL    HW227150   3.380   4.301   8.817 -1.2200  1.2451  1.1905
 5173SOL     OW27151   1.667   0.046   3.068  0.4700 -0.4638  0.1026
 5173SOL    HW127152   1.673   0.141   3.070 -0.4598 -0.4061  0.0403
 5173SOL    HW227153   1.606   0.022   3.138 -0.1659  0.5927 -0.0862
 5174SOL     OW27154   2.624   2.019  10.599  0.2757 -0.3574  0.1909
 5174SOL    HW127155   2.555   2.072  10.558  1.6698  0.9773 -0.4545
 5174SOL    HW227156   2.585   1.932  10.590  0.2761 -0.1330 -2.1801
 5175SOL     OW27157   1.939   4.474   7.564 -0.4027  0.1736 -0.1480
 5175SOL    HW127158   1.954   4.525   7.644  1.0312 -0.3578 -0.0884
 5175SOL    HW227159   2.019   4.492   7.514 -0.2479  0.0200  0.0434
 5176SOL     OW27160   2.366   0.931   6.219  0.6440 -0.2429 -0.0253
 5176SOL    HW127161   2.308   0.942   6.143 -0.8224 -1.0855  0.9576
 5176SOL    HW227162   2.332   1.011   6.257 -2.4333 -0.2881 -2.6587
 5177SOL     OW27163   3.270   3.087   7.708  0.1355  0.0826 -0.4056
 5177SOL    HW127164   3.192   3.032   7.709  1.2980 -1.6144 -2.5094
 5177SOL    HW227165   3.251   3.151   7.776  0.6369 -0.6877  0.4494
 5178SOL     OW27166   0.643   0.379   0.161  0.2797 -0.3521  0.0166
 5178SOL    HW127167   0.696   0.335   0.226 -0.5719  0.2215  1.1014
 5178SOL    HW227168   0.562   0.397   0.209  0.3221  0.2351 -0.1290
 5179SOL     OW27169   1.316   1.161  12.354 -0.2765  0.1212  0.3296
 5179SOL    HW127170   1.358   1.234  12.400 -0.8517  0.0746  0.9214
 5179SOL    HW227171   1.224   1.184  12.350 -0.1865  0.6443  1.4288
 5180SOL     OW27172   3.285   2.266   8.507 -0.9197  0.8522 -0.2428
 5180SOL    HW127173   3.365   2.249   8.556 -1.9534 -0.7629  0.8475
 5180SOL    HW227174   3.313   2.237   8.420  0.4073 -0.2852  0.5737
 5181SOL     OW27175   1.947   1.896   9.510  0.6496 -0.1487 -0.3169
 5181SOL    HW127176   2.035   1.931   9.522 -0.1768  1.4679  1.1316
 5181SOL    HW227177   1.896   1.978   9.508  1.0311  0.1158  0.8562
 5182SOL     OW27178   2.443   0.549  11.652 -0.2369 -0.0033  0.3523
 5182SOL    HW127179   2.440   0.455  11.668  0.2681 -0.7432 -3.9270
 5182SOL    HW227180   2.532   0.577  11.674 -0.3049  0.8068 -0.4094
 5183SOL     OW27181   2.069   0.048   7.847 -0.3228 -0.0301  0.3731
 5183SOL    HW127182   2.024   4.706   7.868  1.8489 -1.0570  0.9855
 5183SOL    HW227183   2.062   0.047   7.752  1.3407  0.0816  0.2508
 5184SOL     OW27184   0.517   1.006  10.959  0.0670 -0.0928  0.4671
 5184SOL    HW127185   0.498   1.061  11.035  1.4124  0.9149  0.0696
 5184SOL    HW227186   0.427   0.998  10.928  0.2303  0.4779 -0.1593
 5185SOL     OW27187   2.720   4.166   0.427 -0.2119 -0.2954 -0.2285
 5185SOL    HW127188   2.670   4.232   0.474  1.1610  0.2544  0.4367
 5185SOL    HW227189   2.679   4.089   0.466  0.6508 -0.4467  0.3915
 5186SOL     OW27190   2.562   2.637   1.783 -0.2214 -0.8217  0.0726
 5186SOL    HW127191   2.528   2.722   1.754 -0.6940 -1.4661 -1.2606
 5186SOL    HW227192   2.486   2.610   1.835 -0.6026 -1.1752 -0.6690
 5187SOL     OW27193   4.574   2.025   3.856  0.6268  0.0815 -0.5467
 5187SOL    HW127194   4.608   2.108   3.888 -0.1535  0.1774  0.0376
 5187SOL    HW227195   4.651   1.985   3.815 -0.5817 -0.5318 -2.2133
 5188SOL     OW27196   0.978   3.551   8.094 -0.4081 -0.4926  0.0460
 5188SOL    HW127197   0.914   3.531   8.027  0.1815  3.1043 -1.5991
 5188SOL    HW227198   0.932   3.626   8.132 -0.2795 -0.5118  0.2395
 5189SOL     OW27199   0.324   2.038   2.719 -0.2835  0.5011  0.2329
 5189SOL    HW127200   0.250   2.033   2.780 -1.1298  0.9242 -0.7450
 5189SOL    HW227201   0.297   2.099   2.650  1.3634  0.3099 -0.5803
 5190SOL     OW27202   2.846   0.533   8.588 -0.3009 -0.1902 -0.5003
 5190SOL    HW127203   2.771   0.484   8.623 -1.0052  0.5538 -0.9653
 5190SOL    HW227204   2.903   0.541   8.664  0.3300 -1.8153 -0.8085
 5191SOL     OW27205   4.442   0.503  17.424 -0.4292 -0.4041 -0.7963
 5191SOL    HW127206   4.420   0.410  17.415 -0.0987 -0.4802 -0.8064
 5191SOL    HW227207   4.453   0.523  17.517 -1.6167 -0.9790 -0.5289
 5192SOL     OW27208   2.187   4.551   5.239 -0.4183  0.2117 -0.1799
 5192SOL    HW127209   2.181   4.459   5.212  2.3806  0.0464 -0.2661
 5192SOL    HW227210   2.140   4.555   5.322 -1.8895 -1.9043 -0.9071
 5193SOL     OW27211   1.694   1.310   7.334  0.1538  0.3354  0.3953
 5193SOL    HW127212   1.788   1.319   7.324  0.0921  0.8425  0.2679
 5193SOL    HW227213   1.663   1.398   7.356 -0.4572 -0.0173  0.9295
 5194SOL     OW27214   3.978   0.342   7.559 -0.1724  0.6440  0.3330
 5194SOL    HW127215   3.903   0.377   7.512 -1.5786 -1.2780  1.1407
 5194SOL    HW227216   3.988   0.264   7.506  0.2851  0.6073  0.4765
 5195SOL     OW27217   2.901   1.852   1.327  0.2018  0.2902  0.2517
 5195SOL    HW127218   2.929   1.823   1.240  0.8659  2.0282 -0.1220
 5195SOL    HW227219   2.906   1.948   1.325  1.4440  0.2118 -0.6865
 5196SOL     OW27220   2.169   2.030   2.269 -0.4489 -0.1684 -0.0940
 5196SOL    HW127221   2.158   2.014   2.363 -0.4224  0.9094  0.1019
 5196SOL    HW227222   2.081   2.022   2.232 -0.5827  2.0088 -0.2920
 5197SOL     OW27223   3.076   1.104   8.691  0.0192 -0.2317  0.3250
 5197SOL    HW127224   3.158   1.055   8.690  0.7685  1.0062  1.7029
 5197SOL    HW227225   3.037   1.057   8.618 -0.5398 -0.6401  0.8754
 5198SOL     OW27226   2.927   0.929   3.513  0.2333 -0.2367 -0.1727
 5198SOL    HW127227   2.968   0.957   3.431  1.9256  0.1399  0.7943
 5198SOL    HW227228   2.859   0.996   3.521  1.5046  1.0671 -0.2888
 5199SOL     OW27229   1.968   0.218   5.273 -0.0787 -0.7201 -0.3024
 5199SOL    HW127230   1.924   0.221   5.358  0.5870  1.0288 -0.0201
 5199SOL    HW227231   2.058   0.206   5.301  0.5573  1.0357 -1.5687
 5200SOL     OW27232   2.050   3.186  13.868 -0.0630 -0.3770 -0.2515
 5200SOL    HW127233   2.020   3.214  13.954 -2.2972  1.1579 -1.5577
 5200SOL    HW227234   2.007   3.241  13.803 -1.9158  1.1721  2.3114
 5201SOL     OW27235   2.035   1.252   8.423  0.5568 -0.6588 -0.4839
 5201SOL    HW127236   2.027   1.271   8.330 -1.3331 -0.2747 -0.2414
 5201SOL    HW227237   1.942   1.271   8.437  0.7610 -0.5049  0.6645
 5202SOL     OW27238   4.510   4.467   1.210  0.1216 -0.0062  0.4118
 5202SOL    HW127239   4.456   4.399   1.167  1.0607 -0.3017 -0.3002
 5202SOL    HW227240   4.461   4.491   1.289 -0.8730  0.9715 -0.4950
 5203SOL     OW27241   2.034   3.702   5.583 -0.5499 -0.2422  0.3174
 5203SOL    HW127242   2.053   3.664   5.669  0.1606 -0.2969  0.1407
 5203SOL    HW227243   1.939   3.707   5.592 -0.8149 -1.5014 -1.8334
 5204SOL     OW27244   4.370   0.132   6.662  0.1659  0.7432 -0.4210
 5204SOL    HW127245   4.388   0.199   6.728 -1.0309  0.3542  0.3146
 5204SOL    HW227246   4.435   0.143   6.593  1.5733  0.9011  0.9391
 5205SOL     OW27247   3.057   1.058   5.208 -0.0337 -0.1846  0.0229
 5205SOL    HW127248   2.986   1.121   5.199  0.1437  0.1581  1.1108
 5205SOL    HW227249   3.118   1.104   5.152 -0.4364  0.0420 -0.2303
 5206SOL     OW27250   1.593   2.592  13.048 -0.1205 -0.2246 -0.4179
 5206SOL    HW127251   1.580   2.625  12.959  2.2834  0.6387 -0.4302
 5206SOL    HW227252   1.686   2.614  13.054 -0.1967 -0.2569  0.8215
 5207SOL     OW27253   0.626   2.127   8.640 -0.0845 -0.6505 -0.3056
 5207SOL    HW127254   0.534   2.154   8.643 -0.2571 -1.0070 -2.0045
 5207SOL    HW227255   0.675   2.199   8.680 -0.1497 -0.4823 -0.5255
 5208SOL     OW27256   4.149   0.540   1.133  0.0245  0.6881 -0.4216
 5208SOL    HW127257   4.237   0.509   1.111  0.8587  0.9199  2.6021
 5208SOL    HW227258   4.096   0.546   1.052 -2.4903  0.3820  1.1979
 5209SOL     OW27259   0.798   1.621   4.959 -0.2422  0.2057 -0.4500
 5209SOL    HW127260   0.793   1.599   4.866  1.3594  0.0053 -0.4866
 5209SOL    HW227261   0.704   1.618   4.979 -0.5594 -0.5055 -2.0317
 5210SOL     OW27262   0.761   0.902   4.721  0.2770  0.1639  0.0721
 5210SOL    HW127263   0.676   0.943   4.736  1.1499  1.4107  1.5935
 5210SOL    HW227264   0.793   0.947   4.643 -2.4776  1.1373 -0.4734
 5211SOL     OW27265   2.203   1.143   5.117  0.1022  0.4246  0.3743
 5211SOL    HW127266   2.255   1.124   5.195 -3.1292  0.9609  2.6666
 5211SOL    HW227267   2.240   1.075   5.061  0.0169 -1.2825  2.3585
 5212SOL     OW27268   2.962   2.528  12.304 -0.1122 -0.4287  0.6091
 5212SOL    HW127269   2.939   2.508  12.213  0.2969  1.2142  0.1517
 5212SOL    HW227270   2.988   2.442  12.337 -0.0860 -0.0708  1.5138
 5213SOL     OW27271   1.303   4.693   1.850 -0.1095 -0.6349 -0.0995
 5213SOL    HW127272   1.273   4.682   1.940  1.7768 -3.0904  0.2277
 5213SOL    HW227273   1.287   4.612   1.802 -0.6404 -0.0985 -0.8385
 5214SOL     OW27274   1.340   3.427   3.697 -0.4063 -0.2189  0.0091
 5214SOL    HW127275   1.324   3.510   3.741 -0.2501  0.6706 -1.6118
 5214SOL    HW227276   1.307   3.366   3.763  1.5340 -2.4893 -1.1045
 5215SOL     OW27277   4.224   2.510   3.057  0.7067  0.2452 -0.0620
 5215SOL    HW127278   4.309   2.553   3.046  0.5319  0.7767  0.6667
 5215SOL    HW227279   4.237   2.422   3.021  0.1062  0.1889 -0.1469
 5216SOL     OW27280   0.962   3.923  11.555 -0.1496 -0.0388  0.2209
 5216SOL    HW127281   1.035   3.930  11.494 -0.6038 -1.1326 -0.4566
 5216SOL    HW227282   0.915   4.002  11.530  1.5480  0.3789 -1.6114
 5217SOL     OW27283   4.259   4.215   9.794 -0.0139 -0.2772 -0.1636
 5217SOL    HW127284   4.316   4.169   9.855  1.5125 -1.4399 -2.5049
 5217SOL    HW227285   4.171   4.179   9.806 -0.6625  0.8101 -1.7225
 5218SOL     OW27286   1.459   0.410   2.815 -0.4944  0.0280  0.4446
 5218SOL    HW127287   1.400   0.413   2.891  0.4972 -0.6976  1.2433
 5218SOL    HW227288   1.436   0.325   2.777 -1.4410  0.3132  0.3810
 5219SOL     OW27289   0.903   3.596   8.627 -0.3714  0.2660  0.4152
 5219SOL    HW127290   0.818   3.551   8.623  0.3464 -1.0052 -0.4051
 5219SOL    HW227291   0.870   3.682   8.600  1.2492  1.0040  0.8311
 5220SOL     OW27292   0.701   2.546  13.438 -0.0017 -0.0387 -0.2249
 5220SOL    HW127293   0.719   2.489  13.512 -0.7821 -1.1839 -0.9216
 5220SOL    HW227294   0.712   2.486  13.364 -1.2894 -0.6468  0.0774
 5221SOL     OW27295   4.081   2.410   9.030 -0.4527  0.0290 -0.1332
 5221SOL    HW127296   4.092   2.504   9.020 -0.1377 -0.0609 -0.6423
 5221SOL    HW227297   4.094   2.396   9.124 -0.6274  3.8543  0.4602
 5222SOL     OW27298   2.843   2.255  10.102 -0.3430 -0.0523 -0.0754
 5222SOL    HW127299   2.832   2.189  10.170 -0.8219 -1.1222 -1.1924
 5222SOL    HW227300   2.794   2.230  10.023  1.7358  0.8742 -1.6550
 5223SOL     OW27301   2.768   1.154   4.233  0.1737 -0.2715 -0.3672
 5223SOL    HW127302   2.703   1.181   4.168 -0.5443 -0.7485  0.1634
 5223SOL    HW227303   2.836   1.222   4.228 -2.1843  2.1438  0.7555
 5224SOL     OW27304   1.981   4.580   2.138  0.0295 -0.0503  0.2972
 5224SOL    HW127305   2.043   4.613   2.203 -0.6012 -2.3060  2.0222
 5224SOL    HW227306   1.997   4.486   2.143  3.8291  0.6344  1.0522
 5225SOL     OW27307   1.752   3.405   8.175  0.2254 -0.1654  0.1907
 5225SOL    HW127308   1.822   3.458   8.136 -0.1648  0.4129  0.2789
 5225SOL    HW227309   1.727   3.444   8.259 -1.6801 -0.2905 -0.3348
 5226SOL     OW27310   0.754   4.192   4.504  0.5554  0.7531 -0.2309
 5226SOL    HW127311   0.840   4.218   4.473  0.2204  1.8107 -0.2735
 5226SOL    HW227312   0.750   4.098   4.523  1.5539  1.0186  1.3375
 5227SOL     OW27313   3.987   3.862   2.346 -0.4557 -0.5317  0.7034
 5227SOL    HW127314   3.932   3.933   2.377  0.4253  1.8374 -3.1599
 5227SOL    HW227315   3.992   3.812   2.428 -0.3561  1.3184  1.8353
 5228SOL     OW27316   2.935   0.692   2.567  0.3247  0.0447 -0.8714
 5228SOL    HW127317   2.963   0.783   2.555 -0.8597  0.5187 -0.0465
 5228SOL    HW227318   2.839   0.687   2.565  0.3307 -0.3868 -0.1721
 5229SOL     OW27319   3.961   4.492  13.722 -0.3209 -0.2775  0.0190
 5229SOL    HW127320   3.947   4.455  13.635  1.2640 -1.8573  0.4264
 5229SOL    HW227321   3.895   4.561  13.727  0.8274  0.8493 -0.3990
 5230SOL     OW27322   3.244   3.561   7.225  0.5403  0.0241  0.1316
 5230SOL    HW127323   3.312   3.529   7.166 -0.3079  1.0228 -1.3983
 5230SOL    HW227324   3.174   3.548   7.161  0.5841  0.2985  0.0297
 5231SOL     OW27325   2.596   0.926  10.491  0.0946 -0.2070 -0.4971
 5231SOL    HW127326   2.690   0.947  10.494 -0.3936  1.6990  1.3435
 5231SOL    HW227327   2.591   0.840  10.533  1.2707 -0.4561 -0.8588
 5232SOL     OW27328   4.539   2.186   5.382 -0.1278  0.6711 -0.6578
 5232SOL    HW127329   4.515   2.110   5.434 -1.4919  0.6692 -1.2812
 5232SOL    HW227330   4.574   2.245   5.448 -0.3066  0.7760 -0.6562
 5233SOL     OW27331   0.156   0.849   6.650  0.5068  0.1874 -0.3170
 5233SOL    HW127332   0.153   0.860   6.555  0.1517 -2.1939 -0.5843
 5233SOL    HW227333   0.197   0.765   6.671 -0.3830  0.0375  0.8867
 5234SOL     OW27334   4.063   2.070   6.337  0.1340  0.2459 -0.1426
 5234SOL    HW127335   4.017   2.059   6.254  2.0471  0.5605 -1.2286
 5234SOL    HW227336   4.042   2.163   6.351  0.1806  0.1606  0.5236
 5235SOL     OW27337   1.290   4.493  11.376 -0.1058  0.1225 -0.4287
 5235SOL    HW127338   1.359   4.532  11.430  1.4508 -1.3072 -1.3944
 5235SOL    HW227339   1.224   4.482  11.445 -2.1059  0.1230 -2.3693
 5236SOL     OW27340   3.492   4.611   9.970  0.0174 -0.2011 -0.0682
 5236SOL    HW127341   3.417   4.669   9.980  0.6364  0.4457  0.8557
 5236SOL    HW227342   3.444   4.537   9.933  0.8866 -0.3452 -0.9028
 5237SOL     OW27343   4.184   2.020   1.908  0.7704 -0.2151  0.3644
 5237SOL    HW127344   4.268   2.000   1.868  0.4463  0.7283 -0.8108
 5237SOL    HW227345   4.142   1.936   1.887 -1.1970  0.3897  1.8522
 5238SOL     OW27346   2.584   0.031   2.919  0.3663  0.0735  0.1890
 5238SOL    HW127347   2.669   4.739   2.951  0.2659 -0.5121 -0.1056
 5238SOL    HW227348   2.593   0.023   2.824  0.6421 -0.1749  0.2366
 5239SOL     OW27349   2.653   4.651   8.195 -0.1969 -0.3763  0.3752
 5239SOL    HW127350   2.671   4.630   8.103  0.8293  0.2562  0.4357
 5239SOL    HW227351   2.607   4.568   8.210  0.3994 -1.2120 -2.3400
 5240SOL     OW27352   3.669   2.419   4.353  0.2716 -0.0555 -0.2652
 5240SOL    HW127353   3.698   2.455   4.269  3.8990  0.0133  1.0082
 5240SOL    HW227354   3.728   2.344   4.363 -0.6217 -0.5975  0.8328
 5241SOL     OW27355   0.051   2.232   8.114 -0.3048  0.7377  0.2634
 5241SOL    HW127356   0.102   2.283   8.050  0.5299  0.4608  0.7099
 5241SOL    HW227357   4.698   2.239   8.091 -0.4691 -1.4828  0.2067
 5242SOL     OW27358   4.572   4.278   0.341  0.0703 -0.0167  0.6081
 5242SOL    HW127359   4.665   4.300   0.346  0.0619 -0.1650  1.3744
 5242SOL    HW227360   4.564   4.182   0.342 -1.1222  0.1191  3.2275
 5243SOL     OW27361   1.261   0.073  16.270 -0.1308 -0.3896 -0.3776
 5243SOL    HW127362   1.249   0.000  16.208  0.5924 -1.2850  0.5363
 5243SOL    HW227363   1.216   0.043  16.349 -0.9134 -0.4780 -0.8600
 5244SOL     OW27364   2.209   2.056   8.761 -0.0547 -0.3246  0.1498
 5244SOL    HW127365   2.147   2.103   8.817  1.1410 -0.3492  1.4877
 5244SOL    HW227366   2.186   2.098   8.678 -1.7050 -0.0704  0.7345
 5245SOL     OW27367   2.756   3.325   2.719  0.3285 -0.0047  0.0657
 5245SOL    HW127368   2.709   3.316   2.636 -1.9608 -1.5530  1.5123
 5245SOL    HW227369   2.819   3.392   2.694  0.9125 -0.9431 -0.9746
 5246SOL     OW27370   3.344   0.654  13.512  0.5787 -0.6257  0.2281
 5246SOL    HW127371   3.299   0.660  13.596  1.0978 -1.4016  0.5586
 5246SOL    HW227372   3.395   0.574  13.523 -0.9744 -1.8688 -1.5594
 5247SOL     OW27373   3.494   3.520   5.645 -0.4556 -1.6314  0.6011
 5247SOL    HW127374   3.466   3.537   5.735 -2.7151 -0.9514 -0.2111
 5247SOL    HW227375   3.546   3.596   5.621 -1.1737 -1.3947 -0.1829
 5248SOL     OW27376   3.903   1.158   4.944  0.0596  0.1151  0.0490
 5248SOL    HW127377   3.991   1.160   4.906 -0.8881  0.9022 -2.0778
 5248SOL    HW227378   3.929   1.146   5.036 -2.6813 -0.3739  0.7784
 5249SOL     OW27379   2.246   0.025   0.267 -0.5104 -0.3269 -0.8032
 5249SOL    HW127380   2.244   0.113   0.305  0.0451 -0.3151 -0.8049
 5249SOL    HW227381   2.341   0.021   0.261 -0.3402  1.1633  0.9290
 5250SOL     OW27382   0.901   3.644   6.920 -0.1827 -0.3555 -0.2268
 5250SOL    HW127383   0.972   3.600   6.967 -0.0575  0.7472  0.6284
 5250SOL    HW227384   0.936   3.634   6.832 -0.6722  1.1966 -0.5985
 5251SOL     OW27385   3.847   3.030   6.871 -0.3137  0.6338 -0.5441
 5251SOL    HW127386   3.862   3.083   6.949 -0.3142  0.1681 -0.2276
 5251SOL    HW227387   3.784   2.969   6.909  1.1045  0.2822  1.2280
 5252SOL     OW27388   1.835   2.479   9.882 -0.0414  0.1550 -0.0044
 5252SOL    HW127389   1.820   2.553   9.940 -0.0352 -0.1120  0.3347
 5252SOL    HW227390   1.795   2.512   9.801 -3.0060  1.3216  1.9143
 5253SOL     OW27391   4.307   3.852   2.726  0.5203 -0.4808  0.3778
 5253SOL    HW127392   4.354   3.811   2.654 -1.2917 -1.8771 -0.0006
 5253SOL    HW227393   4.360   3.931   2.716  0.4749 -0.4886  0.0770
 5254SOL     OW27394   4.514   3.499  10.773 -0.3328  0.2848  0.3535
 5254SOL    HW127395   4.537   3.510  10.865 -0.0963  1.4309  0.1540
 5254SOL    HW227396   4.503   3.404  10.764 -1.8039  0.5099 -0.2328
 5255SOL     OW27397   2.462   4.522   5.179 -0.1753  0.0615  0.2340
 5255SOL    HW127398   2.478   4.552   5.090  0.3087 -0.9549 -0.0256
 5255SOL    HW227399   2.380   4.567   5.200 -0.9219 -0.2601 -1.9203
 5256SOL     OW27400   4.211   3.498   2.607 -0.8671 -0.1219 -0.1222
 5256SOL    HW127401   4.305   3.507   2.623 -1.0138  0.6121  0.3640
 5256SOL    HW227402   4.214   3.468   2.516  1.1050  1.0195 -0.4164
 5257SOL     OW27403   0.720   0.696   4.424 -0.3122  0.0911  0.0123
 5257SOL    HW127404   0.692   0.760   4.359 -1.8103 -0.4894  0.0814
 5257SOL    HW227405   0.803   0.733   4.454 -0.5640  1.2132 -0.6713
 5258SOL     OW27406   0.267   2.600  16.685 -0.2040  0.7324 -0.0507
 5258SOL    HW127407   0.308   2.639  16.762 -0.6493  1.9533 -0.4147
 5258SOL    HW227408   0.209   2.540  16.732  0.4179  0.0765 -0.1325
 5259SOL     OW27409   4.057   1.964   8.137  0.5881 -0.5219  0.2103
 5259SOL    HW127410   3.973   1.968   8.090  0.8334 -1.5124 -0.3037
 5259SOL    HW227411   4.103   2.040   8.100 -1.7158  0.9356  0.3054
 5260SOL     OW27412   2.350   1.308  13.265  0.1487 -0.2840 -0.4100
 5260SOL    HW127413   2.318   1.395  13.240 -1.1755  0.2236  3.0439
 5260SOL    HW227414   2.286   1.247  13.229 -1.8636  0.7426  1.4009
 5261SOL     OW27415   1.036   1.593   1.494 -0.2004  0.3921 -0.5107
 5261SOL    HW127416   1.090   1.651   1.441  0.5377 -0.3902 -0.6078
 5261SOL    HW227417   1.056   1.514   1.444 -0.3979 -0.4723  0.7575
 5262SOL     OW27418   0.791   0.568   2.706  0.0080 -0.3824  0.4355
 5262SOL    HW127419   0.771   0.576   2.613  0.0485  0.9057  0.5311
 5262SOL    HW227420   0.882   0.539   2.701  0.8322  2.0885  0.7848
 5263SOL     OW27421   2.801   1.990   7.431  0.5576  0.4521 -0.1144
 5263SOL    HW127422   2.707   2.007   7.434  0.7584  1.5261  0.1237
 5263SOL    HW227423   2.828   2.079   7.452 -0.0681  0.1655  1.9673
 5264SOL     OW27424   1.574   2.710   7.987 -0.0281  0.1812  0.3935
 5264SOL    HW127425   1.483   2.723   7.961 -0.2171  1.6441  1.8464
 5264SOL    HW227426   1.578   2.771   8.061  3.6566  0.5342 -0.0678
 5265SOL     OW27427   3.084   1.759   4.334 -0.4273  0.3985 -0.0134
 5265SOL    HW127428   2.992   1.734   4.324 -0.2281  0.6609 -2.5806
 5265SOL    HW227429   3.072   1.812   4.413  0.4363 -2.6703  2.1523
 5266SOL     OW27430   1.040   0.217   6.576 -0.0241 -0.1840  0.2429
 5266SOL    HW127431   1.012   0.259   6.657 -0.3105 -0.2692  0.1916
 5266SOL    HW227432   0.959   0.225   6.524 -1.2619  2.3630  2.5639
 5267SOL     OW27433   0.863   1.382  11.817 -0.0757 -0.4615  0.4628
 5267SOL    HW127434   0.779   1.416  11.789 -1.0407 -1.8550  1.6684
 5267SOL    HW227435   0.843   1.392  11.910  0.5802  3.2228  0.2002
 5268SOL     OW27436   2.903   4.041   6.362 -0.1410 -0.4550 -0.5694
 5268SOL    HW127437   2.956   4.024   6.285  0.5911  1.1274 -0.4146
 5268SOL    HW227438   2.971   4.052   6.429 -1.1206 -0.3800  0.4100
 5269SOL     OW27439   3.744   3.805   7.129 -0.3959  0.0967  0.7122
 5269SOL    HW127440   3.794   3.844   7.201  1.5601 -0.1263 -0.5416
 5269SOL    HW227441   3.810   3.820   7.062 -2.2372  1.0288 -0.9126
 5270SOL     OW27442   0.581   2.869   4.620  0.4366 -0.0382 -0.5532
 5270SOL    HW127443   0.647   2.938   4.623 -0.3351  0.7381 -1.4511
 5270SOL    HW227444   0.501   2.919   4.610 -0.0569 -1.0784 -1.9036
 5271SOL     OW27445   2.073   1.591   3.200 -0.6491 -0.5552  0.1214
 5271SOL    HW127446   2.150   1.543   3.231  0.4912  2.0044  1.2431
 5271SOL    HW227447   2.098   1.573   3.109  0.5925 -0.2037  0.3852
 5272SOL     OW27448   1.826   4.400  12.779  0.0033 -0.2584 -0.4312
 5272SOL    HW127449   1.785   4.478  12.742  0.1233  1.4287  3.0003
 5272SOL    HW227450   1.918   4.421  12.767  0.2071 -0.3196  0.9991
 5273SOL     OW27451   0.696   4.228   7.961 -0.2653 -0.2476 -0.0070
 5273SOL    HW127452   0.725   4.178   7.885  1.3626  1.2868 -0.4063
 5273SOL    HW227453   0.770   4.216   8.020 -0.2536  0.4027  0.1147
 5274SOL     OW27454   4.204   4.345  14.765  0.2130 -0.2619  0.4650
 5274SOL    HW127455   4.133   4.284  14.746  0.9816 -0.4479 -1.8066
 5274SOL    HW227456   4.276   4.286  14.785  0.5916 -0.4707 -1.5131
 5275SOL     OW27457   1.169   0.719   7.765  0.0941  0.0681  0.3317
 5275SOL    HW127458   1.160   0.810   7.792  2.2246  0.9975 -2.0617
 5275SOL    HW227459   1.264   0.712   7.761  0.1127  0.3261  0.3314
 5276SOL     OW27460   4.471   1.765   4.767 -0.9561 -0.2564  0.4666
 5276SOL    HW127461   4.484   1.773   4.673  0.8704 -3.6617  0.4012
 5276SOL    HW227462   4.500   1.673   4.768  0.4618  0.1668 -1.9731
 5277SOL     OW27463   4.247   0.336  14.460 -0.5563 -0.0902  0.6005
 5277SOL    HW127464   4.215   0.378  14.380  0.4534 -0.4286  0.0187
 5277SOL    HW227465   4.163   0.330  14.505 -0.7688  0.8720  0.3237
 5278SOL     OW27466   2.874   0.911  10.503  0.2211 -0.0214 -0.0509
 5278SOL    HW127467   2.881   0.817  10.485 -1.7530 -0.3097  0.8039
 5278SOL    HW227468   2.954   0.946  10.462 -0.6219  2.2508  0.2328
 5279SOL     OW27469   4.342   1.436  14.156 -0.0265 -1.2213 -0.0545
 5279SOL    HW127470   4.432   1.405  14.148  0.4946  1.0149 -3.0050
 5279SOL    HW227471   4.284   1.361  14.141 -0.7327 -1.3830  3.6477
 5280SOL     OW27472   0.990   0.449   7.374 -0.2534  0.3051 -0.7136
 5280SOL    HW127473   0.900   0.459   7.405  0.5167  0.3870  1.4895
 5280SOL    HW227474   1.023   0.537   7.394  1.5778 -0.6129  0.3268
 5281SOL     OW27475   2.557   2.408   7.610  0.3674 -0.0636 -0.2526
 5281SOL    HW127476   2.518   2.339   7.663  0.7125 -0.5728 -0.6586
 5281SOL    HW227477   2.629   2.437   7.665 -1.5064  1.3832  1.4460
 5282SOL     OW27478   3.889   3.851   6.684  0.4569 -0.6989  0.1848
 5282SOL    HW127479   3.832   3.796   6.631  0.6637 -0.4414 -0.3045
 5282SOL    HW227480   3.838   3.911   6.739 -1.1032 -1.8095 -0.0749
 5283SOL     OW27481   2.760   2.259  17.562  0.3275  0.1239 -0.1142
 5283SOL    HW127482   2.756   2.282  17.655 -0.5801 -0.8731  0.0889
 5283SOL    HW227483   2.783   2.166  17.562  0.1995  0.0920  1.6711
 5284SOL     OW27484   2.378   3.388  14.290 -0.0345  0.0826 -0.4456
 5284SOL    HW127485   2.413   3.477  14.285  1.4203 -0.4145  1.1660
 5284SOL    HW227486   2.378   3.360  14.198 -0.0426 -0.6425 -0.2187
 5285SOL     OW27487   0.860   3.979   8.261 -0.0826 -0.3949 -0.4342
 5285SOL    HW127488   0.774   4.016   8.283  0.9589  0.1313  2.6562
 5285SOL    HW227489   0.923   4.023   8.317 -1.2823  0.0974  0.5169
 5286SOL     OW27490   1.723   1.911   8.383 -0.1107 -0.7098  0.0318
 5286SOL    HW127491   1.683   1.933   8.299  2.2164  0.5625 -0.7477
 5286SOL    HW227492   1.765   1.995   8.403 -1.0457 -0.3463  0.4706
 5287SOL     OW27493   3.750   0.098   4.177 -0.9872 -0.1250  0.0374
 5287SOL    HW127494   3.691   0.124   4.248 -3.0373  0.3506 -1.8275
 5287SOL    HW227495   3.821   0.161   4.188 -0.0252 -0.9938 -1.2603
 5288SOL     OW27496   2.331   2.932   9.098  0.5291 -0.1977 -0.0265
 5288SOL    HW127497   2.424   2.915   9.116  1.6011  0.5100 -4.6741
 5288SOL    HW227498   2.321   2.887   9.014  1.3243 -2.8809  1.3321
 5289SOL     OW27499   1.211   1.598  16.150 -1.1418  0.2450  0.3983
 5289SOL    HW127500   1.200   1.693  16.144 -1.3990  0.1173 -1.0241
 5289SOL    HW227501   1.282   1.583  16.089 -1.5082  1.8569 -0.4223
 5290SOL     OW27502   2.008   0.497   8.291  0.1213 -0.5945 -0.0383
 5290SOL    HW127503   2.048   0.483   8.377 -1.7461 -3.1632  0.4139
 5290SOL    HW227504   1.921   0.460   8.303 -0.5340  1.3521  1.1895
 5291SOL     OW27505   1.169   3.104   5.616 -0.0118 -0.3459  0.0777
 5291SOL    HW127506   1.151   3.047   5.691 -1.0518  0.5505  0.5044
 5291SOL    HW227507   1.226   3.054   5.557 -0.5357  0.6451 -1.2694
 5292SOL     OW27508   0.544   4.235   4.226 -0.3293 -0.3111 -0.3493
 5292SOL    HW127509   0.628   4.197   4.249  0.3683  0.2980 -1.8922
 5292SOL    HW227510   0.570   4.310   4.173  0.0830 -0.9484 -1.0532
 5293SOL     OW27511   3.344   4.418   1.790  0.1346  0.1787 -0.0384
 5293SOL    HW127512   3.387   4.502   1.777 -1.8441  1.5295  2.2083
 5293SOL    HW227513   3.337   4.407   1.885  1.9599 -1.0032 -0.0526
 5294SOL     OW27514   1.585   3.479   1.443  0.2062 -0.7640 -0.8457
 5294SOL    HW127515   1.619   3.472   1.354 -1.0103  2.0746 -1.5390
 5294SOL    HW227516   1.666   3.469   1.494  2.3524 -1.3265 -4.3887
 5295SOL     OW27517   1.552   4.298  12.617  0.2528  0.4266  0.0285
 5295SOL    HW127518   1.573   4.213  12.656 -0.9804 -0.2110 -0.6628
 5295SOL    HW227519   1.456   4.302  12.607  0.2966  3.3742  0.8182
 5296SOL     OW27520   1.722   3.376   9.345  0.0965  0.2879 -0.2472
 5296SOL    HW127521   1.791   3.334   9.293 -1.2844 -1.7445 -0.4194
 5296SOL    HW227522   1.676   3.432   9.282 -1.7981 -0.6328  0.3358
 5297SOL     OW27523   1.400   1.157   8.274 -0.1877  0.7366  0.1910
 5297SOL    HW127524   1.489   1.122   8.281 -0.4427 -0.0790 -0.5425
 5297SOL    HW227525   1.358   1.134   8.356 -0.3502  1.7340  0.3824
 5298SOL     OW27526   0.953   2.928   1.630  0.6467  0.5848  0.5435
 5298SOL    HW127527   1.045   2.941   1.655  0.6617 -2.2080  1.9077
 5298SOL    HW227528   0.925   2.851   1.679  1.0326 -0.5031 -0.9567
 5299SOL     OW27529   2.591   3.123  15.580  0.0390  0.4246  0.1639
 5299SOL    HW127530   2.674   3.077  15.592 -0.2131  0.4613  2.0054
 5299SOL    HW227531   2.520   3.059  15.582 -0.8995  1.5269  1.4084
 5300SOL     OW27532   4.300   4.379   7.774 -0.5188 -0.6363  0.1724
 5300SOL    HW127533   4.386   4.366   7.735  0.0301  2.4070  0.3818
 5300SOL    HW227534   4.308   4.468   7.810 -0.3122  0.4102 -2.4787
 5301SOL     OW27535   3.423   3.609   0.160 -0.4397 -0.0027 -0.0241
 5301SOL    HW127536   3.479   3.629   0.085 -3.1559 -1.5154 -2.4801
 5301SOL    HW227537   3.480   3.628   0.234 -0.9964  0.1561  0.3694
 5302SOL     OW27538   3.184   3.684  14.307 -0.0893 -0.3606 -0.5796
 5302SOL    HW127539   3.225   3.665  14.223  0.2849 -1.7926 -0.0779
 5302SOL    HW227540   3.263   3.716  14.351  0.8180 -0.3757 -2.2191
 5303SOL     OW27541   0.379   0.620   7.534 -0.3182  0.1751 -0.1731
 5303SOL    HW127542   0.403   0.599   7.624 -1.2395  1.5873  0.3940
 5303SOL    HW227543   0.427   0.702   7.520 -2.6960  1.2178 -2.1769
 5304SOL     OW27544   2.940   1.380   2.820 -0.3750  0.1309  0.3150
 5304SOL    HW127545   2.860   1.352   2.863 -0.6186  1.4246  0.6847
 5304SOL    HW227546   2.972   1.292   2.800 -1.3298 -0.5902  1.9503
 5305SOL     OW27547   4.184   1.664   2.934  0.2047 -0.1916  0.2195
 5305SOL    HW127548   4.115   1.714   2.977 -0.7771 -0.8440 -0.5930
 5305SOL    HW227549   4.129   1.605   2.883  2.3341 -1.0293 -1.1008
 5306SOL     OW27550   1.716   1.107   7.102  0.0342  0.1671  0.2213
 5306SOL    HW127551   1.638   1.089   7.050  2.0654 -1.2680 -2.3126
 5306SOL    HW227552   1.693   1.168   7.172 -2.0081 -1.2959  0.8284
 5307SOL     OW27553   0.340   4.371   2.203  0.6942  0.3434 -0.1802
 5307SOL    HW127554   0.259   4.413   2.176  0.7267  0.1454 -0.5889
 5307SOL    HW227555   0.370   4.332   2.121 -1.2333 -0.2797 -0.5824
 5308SOL     OW27556   1.638   2.934   6.483  0.0402 -0.0682  0.2906
 5308SOL    HW127557   1.724   2.968   6.455 -0.8944  1.4114 -0.8101
 5308SOL    HW227558   1.631   2.997   6.555 -0.9949  1.1666 -0.8831
 5309SOL     OW27559   2.669   3.286   9.572 -0.4984  0.3740 -0.2545
 5309SOL    HW127560   2.753   3.270   9.615  0.2911  1.1490 -1.4838
 5309SOL    HW227561   2.630   3.320   9.652 -1.6374  0.8658 -1.0223
 5310SOL     OW27562   4.442   1.137   0.200 -0.4501  0.1233  0.4289
 5310SOL    HW127563   4.453   1.225   0.236 -2.4431  0.8805 -0.8608
 5310SOL    HW227564   4.419   1.161   0.110 -0.0621  0.6362  0.4668
 5311SOL     OW27565   0.842   1.792   7.358  0.6245 -0.1442  0.0494
 5311SOL    HW127566   0.875   1.724   7.418 -0.0465 -1.8000 -1.4798
 5311SOL    HW227567   0.752   1.768   7.380  0.5517  0.7020  0.6497
 5312SOL     OW27568   3.627   0.779   2.088 -0.4033 -0.3319 -0.3376
 5312SOL    HW127569   3.640   0.810   2.178  2.0537 -1.9136 -0.1392
 5312SOL    HW227570   3.600   0.688   2.102  1.6645 -1.1667 -1.7844
 5313SOL     OW27571   3.334   1.694  17.478  0.0885 -0.2699  0.6866
 5313SOL    HW127572   3.327   1.621  17.416 -0.4613  1.5180 -1.3586
 5313SOL    HW227573   3.428   1.695  17.498  0.4101  1.2351 -0.8632
 5314SOL     OW27574   4.364   0.242  17.716  0.1149  0.3879 -0.0601
 5314SOL    HW127575   4.421   0.295  17.660 -0.1027  1.9978  1.2740
 5314SOL    HW227576   4.427   0.204   0.021  1.4194  0.3096 -1.4646
 5315SOL     OW27577   0.884   0.152  17.360  0.3460 -0.6492 -0.0221
 5315SOL    HW127578   0.942   0.123  17.430  5.6782  3.4465 -2.7810
 5315SOL    HW227579   0.906   0.241  17.330  1.5601 -0.3613  1.7457
 5316SOL     OW27580   0.170   0.039   7.590  0.5698 -0.1183  0.1089
 5316SOL    HW127581   0.168   0.132   7.568  2.1305 -0.4334 -1.4477
 5316SOL    HW227582   0.083   0.009   7.564  0.2861  1.3509 -0.6294
 5317SOL     OW27583   3.333   4.271   4.104 -0.2049 -0.5161  0.3856
 5317SOL    HW127584   3.400   4.274   4.035  1.0332 -0.7027  1.5892
 5317SOL    HW227585   3.398   4.256   4.172  2.3424 -0.2165 -2.0128
 5318SOL     OW27586   3.202   1.540   2.960 -0.4872 -0.6175 -0.1544
 5318SOL    HW127587   3.269   1.562   3.024 -0.3633 -0.8897 -0.1918
 5318SOL    HW227588   3.260   1.497   2.897 -0.7491 -0.8334 -0.2495
 5319SOL     OW27589   2.242   2.548   0.741 -0.2067 -0.4369 -0.6793
 5319SOL    HW127590   2.319   2.605   0.745 -1.1973  0.8127  0.7287
 5319SOL    HW227591   2.237   2.512   0.653  1.0577 -0.3826 -0.7685
 5320SOL     OW27592   0.629   0.221   4.675 -0.3209 -0.0107  0.7193
 5320SOL    HW127593   0.642   0.300   4.623  2.3069 -0.1878  1.1165
 5320SOL    HW227594   0.534   0.220   4.663 -0.3986  1.6846  1.2326
 5321SOL     OW27595   3.447   0.615   0.185  0.7990  0.2933 -0.2892
 5321SOL    HW127596   3.461   0.526   0.151 -2.7116 -0.3999  0.0631
 5321SOL    HW227597   3.376   0.590   0.244  1.9231 -0.2936  0.8167
 5322SOL     OW27598   3.853   1.000   6.536  0.7030 -0.1258  0.0776
 5322SOL    HW127599   3.932   0.977   6.585  1.9701  0.6227 -1.5801
 5322SOL    HW227600   3.820   1.078   6.579  2.9652 -0.0868  1.7409
 5323SOL     OW27601   2.413   3.147   9.975  0.0763  0.6206  0.0838
 5323SOL    HW127602   2.457   3.072  10.016 -1.1908  0.9872  2.1069
 5323SOL    HW227603   2.333   3.157  10.026 -0.5404  1.4032 -1.0492
 5324SOL     OW27604   1.220   1.867   6.473 -0.5812 -0.3295 -0.2298
 5324SOL    HW127605   1.292   1.806   6.489 -0.1588  0.1763 -0.2037
 5324SOL    HW227606   1.257   1.944   6.516  2.1075 -2.5231  1.3990
 5325SOL     OW27607   0.867   0.684  12.085 -0.2165  0.0542  0.1099
 5325SOL    HW127608   0.789   0.717  12.129 -0.7102 -0.7852 -0.1295
 5325SOL    HW227609   0.940   0.686  12.146 -0.5957 -1.1506  0.5988
 5326SOL     OW27610   3.147   2.971  11.976  0.1687 -0.9933  1.0303
 5326SOL    HW127611   3.146   3.012  12.062  1.3017 -2.4552  1.7408
 5326SOL    HW227612   3.190   2.886  11.988 -2.5683 -2.8297 -1.9676
 5327SOL     OW27613   1.379   3.404   9.556  0.2592 -0.3008 -0.5264
 5327SOL    HW127614   1.415   3.471   9.613  0.8117 -2.6689  1.9111
 5327SOL    HW227615   1.447   3.338   9.570 -0.6188 -1.0890  0.0287
 5328SOL     OW27616   0.775   4.557   3.004  0.0834 -0.0531  0.5607
 5328SOL    HW127617   0.718   4.529   2.933  1.2583  0.6403 -0.6686
 5328SOL    HW227618   0.848   4.583   2.948  1.3796 -1.4003  1.6076
 5329SOL     OW27619   1.290   2.149   3.537 -0.2013 -0.1282  0.0958
 5329SOL    HW127620   1.199   2.129   3.515  0.2845 -0.6606 -1.4566
 5329SOL    HW227621   1.290   2.244   3.549 -1.1936  0.0524 -1.3472
 5330SOL     OW27622   1.633   3.125   9.237 -0.6125 -0.0117 -0.1212
 5330SOL    HW127623   1.669   3.105   9.324 -0.8215  0.1121 -0.0057
 5330SOL    HW227624   1.622   3.219   9.248 -1.3608 -0.0235 -0.8177
 5331SOL     OW27625   4.622   4.155   4.171  0.1754  0.3341  0.6036
 5331SOL    HW127626   4.679   4.199   4.234 -0.3691 -0.3033  1.5490
 5331SOL    HW227627   4.676   4.162   4.092  2.5734  3.3851  2.5145
 5332SOL     OW27628   4.470   3.474   2.155  0.4873 -0.0638  0.4543
 5332SOL    HW127629   4.559   3.484   2.190  0.8647  0.0918 -0.5501
 5332SOL    HW227630   4.458   3.556   2.107 -1.1453 -1.4617 -1.5172
 5333SOL     OW27631   2.294   1.131   8.319 -0.0382 -0.0419 -0.1563
 5333SOL    HW127632   2.335   1.218   8.312 -3.1812  1.5160  0.6614
 5333SOL    HW227633   2.217   1.153   8.372 -1.3213 -1.3972 -1.4326
 5334SOL     OW27634   2.042   4.259  14.564  0.4562  0.0109 -0.2599
 5334SOL    HW127635   2.126   4.282  14.602  0.6702 -0.3777 -0.4992
 5334SOL    HW227636   2.017   4.184  14.618 -0.3925 -0.8092 -1.7953
 5335SOL     OW27637   1.992   2.853   1.549 -0.0719  0.4170 -0.2615
 5335SOL    HW127638   2.025   2.885   1.466 -0.5916  1.1780 -0.1746
 5335SOL    HW227639   1.967   2.935   1.593 -0.2571  0.1730  0.0914
 5336SOL     OW27640   1.913   4.516   8.449 -0.5625  0.0279  0.0190
 5336SOL    HW127641   1.895   4.591   8.393  1.4224  0.0138 -0.6368
 5336SOL    HW227642   1.894   4.439   8.394 -0.2875  0.3575 -0.5442
 5337SOL     OW27643   0.911   3.550  13.709  0.1498 -0.7977  0.2109
 5337SOL    HW127644   0.831   3.589  13.744  0.8326  0.1017  0.7816
 5337SOL    HW227645   0.899   3.584  13.620  0.3567  0.1675  0.5426
 5338SOL     OW27646   4.183   0.424  16.253 -0.1112 -0.2527  0.0466
 5338SOL    HW127647   4.260   0.387  16.296 -1.5035 -1.5082  1.4832
 5338SOL    HW227648   4.172   0.370  16.175  2.3432 -1.2968  0.4341
 5339SOL     OW27649   0.287   3.394   4.696  0.3231  0.5087  0.0806
 5339SOL    HW127650   0.346   3.423   4.627 -0.2918 -0.6518 -0.9270
 5339SOL    HW227651   0.221   3.352   4.642  0.7786 -0.7162  0.4708
 5340SOL     OW27652   1.169   0.223   7.601  0.0833  0.0480 -0.0227
 5340SOL    HW127653   1.085   0.200   7.561  2.0877 -4.0148 -1.8580
 5340SOL    HW227654   1.136   0.299   7.648  0.5609  1.2156 -1.6015
 5341SOL     OW27655   4.425   1.682  12.760 -0.4294 -0.3367 -0.2583
 5341SOL    HW127656   4.490   1.702  12.827 -0.5236  0.3818 -0.3780
 5341SOL    HW227657   4.450   1.736  12.685 -1.5061 -1.0763 -1.1503
 5342SOL     OW27658   0.988   3.906   5.023  0.5254  0.0230 -0.1669
 5342SOL    HW127659   0.994   3.960   5.102  0.9527 -0.5210  0.1745
 5342SOL    HW227660   1.034   3.970   4.969  0.6413 -1.1966 -1.5006
 5343SOL     OW27661   2.619   1.178  12.615  0.2840 -0.0705 -0.5703
 5343SOL    HW127662   2.581   1.169  12.703  2.8369 -0.5589  0.4885
 5343SOL    HW227663   2.536   1.163  12.570 -1.1921 -0.4469  2.2342
 5344SOL     OW27664   4.278   3.413  10.510  0.3555 -0.1674  0.0649
 5344SOL    HW127665   4.280   3.405  10.414 -0.0764  0.0166  0.0425
 5344SOL    HW227666   4.255   3.323  10.534  0.9316 -0.9297 -2.1909
 5345SOL     OW27667   1.676   2.817  16.499  0.5901 -0.0112  0.4909
 5345SOL    HW127668   1.685   2.875  16.423  0.9490 -1.3498 -0.4941
 5345SOL    HW227669   1.724   2.867  16.565  4.1927  1.4065 -3.2042
 5346SOL     OW27670   0.683   0.554  15.899 -0.2153 -0.0873 -0.0783
 5346SOL    HW127671   0.630   0.626  15.932  0.1429  1.0671 -1.9816
 5346SOL    HW227672   0.669   0.541  15.805  2.7364 -0.8352 -0.4163
 5347SOL     OW27673   4.450   1.532   1.234  0.2840  0.0478 -0.6081
 5347SOL    HW127674   4.484   1.464   1.176 -1.3336 -0.0648 -1.4227
 5347SOL    HW227675   4.361   1.500   1.248  0.3730 -0.3952 -1.0557
 5348SOL     OW27676   1.922   0.738   5.431 -0.1138 -0.4914  0.2135
 5348SOL    HW127677   1.880   0.772   5.510  1.0588 -1.3521  1.2095
 5348SOL    HW227678   1.957   0.653   5.461 -0.9640 -0.4401  1.3734
 5349SOL     OW27679   1.414   3.404   6.696  0.1409 -0.1758 -0.3218
 5349SOL    HW127680   1.434   3.414   6.603 -0.5496  1.5748 -0.2805
 5349SOL    HW227681   1.502   3.399   6.734  0.1097 -1.4850 -0.4076
 5350SOL     OW27682   0.642   2.125   9.584 -0.4691 -0.5156 -0.7035
 5350SOL    HW127683   0.593   2.154   9.661  1.1000  2.0112 -0.6482
 5350SOL    HW227684   0.567   2.097   9.531 -0.4149 -0.0588 -1.0213
 5351SOL     OW27685   0.906   2.161   5.832 -0.0339 -0.3746 -0.6291
 5351SOL    HW127686   0.917   2.070   5.860  1.8787 -0.5896 -2.0438
 5351SOL    HW227687   0.822   2.155   5.786 -1.2727  1.8443  1.3755
 5352SOL     OW27688   4.653   0.896   0.238  0.1208 -0.2259 -0.0355
 5352SOL    HW127689   4.670   0.858   0.324 -2.0890  0.4551  0.7219
 5352SOL    HW227690   4.604   0.976   0.260 -0.5640 -1.5139  3.1880
 5353SOL     OW27691   0.596   3.039  10.630  0.1407  0.3422 -0.2923
 5353SOL    HW127692   0.645   3.108  10.674  0.9393 -0.3464 -0.0990
 5353SOL    HW227693   0.510   3.081  10.638 -0.9323 -1.3893 -2.6745
 5354SOL     OW27694   0.083   2.604  15.806  0.4465 -0.1188  0.2183
 5354SOL    HW127695   4.737   2.577  15.839  0.5410  0.5262  0.9689
 5354SOL    HW227696   0.121   2.518  15.787  1.1392  0.2300  0.0306
 5355SOL     OW27697   3.814   3.952  12.679 -0.3015  0.1690 -0.0597
 5355SOL    HW127698   3.859   4.037  12.678  0.2851 -0.1432  0.0789
 5355SOL    HW227699   3.738   3.970  12.736 -0.0699  1.9409 -0.2941
 5356SOL     OW27700   0.907   3.938   4.317  0.0817  0.1474  0.1037
 5356SOL    HW127701   0.886   3.917   4.407 -0.7480  1.1966  0.1600
 5356SOL    HW227702   1.002   3.945   4.326 -0.2242  0.7185  2.7882
 5357SOL     OW27703   3.351   0.762  12.364  0.1616  0.1060 -0.4423
 5357SOL    HW127704   3.336   0.713  12.445 -2.2856 -1.8728 -2.0852
 5357SOL    HW227705   3.364   0.694  12.298 -1.0145  0.9123 -1.4980
 5358SOL     OW27706   3.994   3.574   5.825 -0.1948 -0.5290  0.1836
 5358SOL    HW127707   4.016   3.544   5.913  1.2788  0.8797  0.2973
 5358SOL    HW227708   3.940   3.651   5.839  1.0385  0.0541  1.6992
 5359SOL     OW27709   3.212   3.374  14.504  0.3326 -0.8207 -0.5763
 5359SOL    HW127710   3.192   3.374  14.410  0.3744  1.2870 -0.5825
 5359SOL    HW227711   3.269   3.450  14.514  0.7490 -1.1979 -0.1290
 5360SOL     OW27712   2.693   2.919   4.069  0.5177  0.1978 -0.1239
 5360SOL    HW127713   2.781   2.956   4.077 -0.1219  1.3323  1.6332
 5360SOL    HW227714   2.661   2.981   4.003  0.3773  0.9230  0.6259
 5361SOL     OW27715   1.066   3.209   3.097  0.0937  0.3851 -0.5029
 5361SOL    HW127716   1.066   3.115   3.081 -0.9019  0.3842 -0.4777
 5361SOL    HW227717   1.027   3.238   3.015  1.1259 -0.8993 -1.4417
 5362SOL     OW27718   2.982   2.255   8.693  0.7797 -0.2798 -0.2118
 5362SOL    HW127719   2.979   2.170   8.648  0.0264 -1.0350  1.2780
 5362SOL    HW227720   2.971   2.232   8.785 -1.2624 -0.6552 -0.5412
 5363SOL     OW27721   0.136   3.518   5.626 -0.5975  0.2236  0.2045
 5363SOL    HW127722   0.129   3.612   5.647  0.0624 -0.0770  1.7102
 5363SOL    HW227723   0.194   3.526   5.550 -0.4587 -4.2125 -0.1292
 5364SOL     OW27724   3.167   3.275   6.209  0.4111 -0.4988  0.2178
 5364SOL    HW127725   3.198   3.193   6.247  1.4413 -0.4483 -0.5179
 5364SOL    HW227726   3.119   3.244   6.132 -1.3670 -0.1992  1.1797
 5365SOL     OW27727   2.749   3.490   6.663  0.0572  0.1539 -0.5601
 5365SOL    HW127728   2.801   3.419   6.702  0.1724  0.4470 -0.1833
 5365SOL    HW227729   2.670   3.450   6.626 -0.4788  1.2335 -0.5848
 5366SOL     OW27730   4.679   4.157   3.382  0.1977  0.2559 -0.2756
 5366SOL    HW127731   4.612   4.135   3.446  0.2393 -0.1383 -0.3679
 5366SOL    HW227732   0.009   4.196   3.434  1.2618  1.0201 -2.2768
 5367SOL     OW27733   0.015   0.536  11.815 -0.0636 -0.0739  0.3883
 5367SOL    HW127734   0.076   0.485  11.762 -0.6572  0.2656 -0.6330
 5367SOL    HW227735   0.083   0.587  11.858 -0.6772  1.0964 -0.0188
 5368SOL     OW27736   4.444   1.962   2.709 -0.5416  0.1483  0.0113
 5368SOL    HW127737   4.414   2.007   2.630 -0.6340  0.2128  0.0825
 5368SOL    HW227738   4.537   1.964   2.687 -0.6712  2.6360 -0.3465
 5369SOL     OW27739   3.327   2.861   6.554  0.4635 -0.2921 -0.3545
 5369SOL    HW127740   3.260   2.796   6.576  0.3095  0.1015  0.3420
 5369SOL    HW227741   3.338   2.906   6.638 -1.7045 -0.9085  0.2612
 5370SOL     OW27742   2.026   2.807   9.921  0.3071  0.0587 -0.5353
 5370SOL    HW127743   1.975   2.876   9.964  3.1786  2.4228 -0.9212
 5370SOL    HW227744   2.028   2.832   9.829 -2.3875 -1.6254 -1.0644
 5371SOL     OW27745   1.073   3.603   4.233  0.4459  0.2825 -0.4862
 5371SOL    HW127746   1.147   3.644   4.188  0.8700 -1.3815 -1.2644
 5371SOL    HW227747   1.003   3.626   4.173 -2.2172 -0.0873  2.4694
 5372SOL     OW27748   3.276   3.055  17.364 -0.4656 -0.4073 -0.1811
 5372SOL    HW127749   3.304   2.973  17.405  0.5499  0.3198  0.5742
 5372SOL    HW227750   3.234   3.020  17.285 -0.8084 -2.3077  0.8580
 5373SOL     OW27751   0.454   2.460   4.846 -0.7035 -0.7208 -0.5754
 5373SOL    HW127752   0.513   2.386   4.834  0.9937  0.6269 -0.4891
 5373SOL    HW227753   0.381   2.416   4.891 -2.1918 -1.2017 -3.4680
 5374SOL     OW27754   0.682   3.013   0.221  0.3418 -0.0582  0.1716
 5374SOL    HW127755   0.747   3.075   0.187  0.6447 -1.8992 -2.5422
 5374SOL    HW227756   0.679   3.048   0.310 -1.3899  0.1218  0.0412
 5375SOL     OW27757   3.411   0.540  17.315  0.3440 -0.5723  0.4091
 5375SOL    HW127758   3.369   0.610  17.365 -0.5745 -0.8588  0.0414
 5375SOL    HW227759   3.353   0.537  17.239  0.1847 -0.2462  0.5150
 5376SOL     OW27760   0.873   2.976   3.744 -0.4206 -0.3047 -0.1374
 5376SOL    HW127761   0.904   3.051   3.693 -0.6821 -0.6668 -0.8307
 5376SOL    HW227762   0.955   2.928   3.747  0.3682  0.8650 -2.6861
 5377SOL     OW27763   3.265   0.488  17.086  0.2167  0.4263 -0.6224
 5377SOL    HW127764   3.197   0.488  17.154  0.0689 -1.4024 -0.7711
 5377SOL    HW227765   3.206   0.491  17.011 -0.9315  0.4663  0.2664
 5378SOL     OW27766   2.611   3.332   3.572 -0.2656 -0.3443  0.1939
 5378SOL    HW127767   2.534   3.388   3.559 -0.0158 -0.3845 -1.4345
 5378SOL    HW227768   2.671   3.386   3.624  0.1045 -1.1423  0.6027
 5379SOL     OW27769   2.932   4.552   4.545 -0.5409  0.1029 -0.0822
 5379SOL    HW127770   3.010   4.505   4.573  1.4679  2.8281 -1.0872
 5379SOL    HW227771   2.909   4.522   4.458  0.3265  0.1513 -0.3321
 5380SOL     OW27772   2.711   4.593   6.509  0.3263  0.6360  0.0369
 5380SOL    HW127773   2.686   4.577   6.418 -0.8359  3.6130 -0.1643
 5380SOL    HW227774   2.625   4.602   6.549  0.5851 -0.9255  0.9216
 5381SOL     OW27775   3.492   1.000  10.846  0.4650 -0.3264  0.0635
 5381SOL    HW127776   3.461   0.986  10.936 -0.0146 -0.2568 -0.0935
 5381SOL    HW227777   3.511   0.909  10.822  1.2655 -0.5550  1.5284
 5382SOL     OW27778   4.354   4.284   1.035  0.2713  0.9984  0.3729
 5382SOL    HW127779   4.386   4.270   0.945  1.6601 -0.5207  1.0973
 5382SOL    HW227780   4.360   4.203   1.086  0.3834 -0.2858 -1.6689
 5383SOL     OW27781   1.591   2.975   3.378  0.3164  0.1867 -0.6068
 5383SOL    HW127782   1.511   2.923   3.368  0.1769  0.2928 -0.0045
 5383SOL    HW227783   1.622   2.946   3.463 -0.1510 -3.1172 -1.5351
 5384SOL     OW27784   0.362   2.543   8.122 -0.0719 -0.1592  0.4574
 5384SOL    HW127785   0.364   2.636   8.140 -1.6162 -0.2305  0.9643
 5384SOL    HW227786   0.387   2.553   8.030  1.0328  3.2079  1.1479
 5385SOL     OW27787   1.536   3.679   7.127  0.6869  0.4867  0.4262
 5385SOL    HW127788   1.623   3.640   7.132  0.6354  0.1383 -1.1861
 5385SOL    HW227789   1.531   3.702   7.034  1.2492  2.1363  0.8033
 5386SOL     OW27790   3.075   1.279  10.782  0.3980 -0.4504  0.0802
 5386SOL    HW127791   3.025   1.198  10.780 -1.4754  0.6675  1.5175
 5386SOL    HW227792   3.099   1.270  10.874  2.1501 -0.5093 -0.3909
 5387SOL     OW27793   2.402   4.036   5.322 -0.4297 -0.2446 -0.2117
 5387SOL    HW127794   2.329   4.016   5.381 -0.6056  0.3616 -0.2227
 5387SOL    HW227795   2.402   3.954   5.272 -0.0527 -0.0967 -0.4553
 5388SOL     OW27796   4.259   0.535  14.704 -0.2616 -0.4780  0.0169
 5388SOL    HW127797   4.212   0.518  14.786  0.7990 -1.1966  0.4822
 5388SOL    HW227798   4.219   0.476  14.639  1.2834 -0.0903 -1.2657
 5389SOL     OW27799   0.257   2.265   2.185 -0.1009 -0.1023 -0.3773
 5389SOL    HW127800   0.300   2.319   2.118 -2.8382  1.8741 -0.5568
 5389SOL    HW227801   0.333   2.213   2.209  0.2150 -0.0477 -1.2666
 5390SOL     OW27802   4.610   1.154  17.363  0.2879  0.0668  0.5426
 5390SOL    HW127803   4.536   1.216  17.361  0.2842  0.0490  0.0922
 5390SOL    HW227804   4.585   1.116  17.279  2.8279  2.5653 -1.3553
 5391SOL     OW27805   1.403   0.538  13.888 -0.4164  0.0048  0.0895
 5391SOL    HW127806   1.330   0.499  13.839  0.7500 -0.8445 -0.9638
 5391SOL    HW227807   1.448   0.583  13.817  0.6172 -0.3385  0.5262
 5392SOL     OW27808   3.138   2.958  15.617 -0.0138  0.1271 -0.4500
 5392SOL    HW127809   3.171   3.014  15.547  1.6939 -1.9049 -1.2619
 5392SOL    HW227810   3.060   3.008  15.641 -0.3049 -0.7494  0.4409
 5393SOL     OW27811   4.583   0.744   8.144 -0.5599 -0.4833  0.7245
 5393SOL    HW127812   4.505   0.773   8.096 -2.7483 -0.3159  4.4454
 5393SOL    HW227813   4.656   0.767   8.086 -2.4587  2.5465 -0.5327
 5394SOL     OW27814   1.722   3.373   8.641  0.0423  0.8364  0.1591
 5394SOL    HW127815   1.806   3.358   8.684 -0.2005  0.0957  0.3748
 5394SOL    HW227816   1.662   3.334   8.704 -1.1692  0.8659 -0.9600
 5395SOL     OW27817   1.141   0.860   4.202  0.5217  0.2467 -0.1593
 5395SOL    HW127818   1.144   0.911   4.121  0.5476 -1.4273 -1.2113
 5395SOL    HW227819   1.134   0.768   4.177  0.1258  1.1442 -3.4089
 5396SOL     OW27820   4.224   1.716   3.950 -0.2197 -0.5587  0.5124
 5396SOL    HW127821   4.296   1.666   3.989 -0.9039 -2.8743 -1.1790
 5396SOL    HW227822   4.167   1.647   3.917 -1.3437  2.1471 -3.1535
 5397SOL     OW27823   1.171   3.676  13.102  0.3671  0.4522 -0.4314
 5397SOL    HW127824   1.133   3.742  13.159  0.7452 -0.6614  1.1290
 5397SOL    HW227825   1.118   3.601  13.129  2.9197 -0.7109  1.3595
 5398SOL     OW27826   3.601   2.141   3.964  0.1368  0.2218 -0.3901
 5398SOL    HW127827   3.565   2.229   3.949  0.6712  0.5942  0.4478
 5398SOL    HW227828   3.526   2.107   4.012 -0.0589  0.5875 -0.4307
 5399SOL     OW27829   1.132   1.093   8.683 -0.2725  0.1044  0.3424
 5399SOL    HW127830   1.088   1.144   8.751  1.5678  0.4904  1.2416
 5399SOL    HW227831   1.098   1.146   8.612  1.4943  1.0824  0.2414
 5400SOL     OW27832   2.667   2.116   1.613 -0.2160  0.0061 -0.0946
 5400SOL    HW127833   2.622   2.031   1.608 -1.1416  0.4285  1.0796
 5400SOL    HW227834   2.595   2.168   1.648 -0.7207 -0.9200  0.2454
 5401SOL     OW27835   0.581   4.148   5.077  0.1114  0.1105  0.3950
 5401SOL    HW127836   0.545   4.235   5.094 -0.4145  0.5614 -3.0760
 5401SOL    HW227837   0.606   4.118   5.165  2.0326 -1.5509 -0.7030
 5402SOL     OW27838   4.629   3.459   4.835 -0.0112  0.5288 -0.5128
 5402SOL    HW127839   4.564   3.528   4.818 -2.1307 -1.0649  1.0465
 5402SOL    HW227840   4.577   3.378   4.836  0.5673  0.1369 -2.2891
 5403SOL     OW27841   2.335   3.240   6.735 -0.6334  0.1680  0.0462
 5403SOL    HW127842   2.416   3.250   6.686 -1.0284  2.1475 -0.1992
 5403SOL    HW227843   2.333   3.305   6.805  2.1213 -1.1288  1.2959
 5404SOL     OW27844   2.872   4.322   3.746  0.2576  0.3117 -0.4203
 5404SOL    HW127845   2.896   4.241   3.701  0.3222 -0.5864  1.2550
 5404SOL    HW227846   2.914   4.391   3.695 -0.7076  1.8182  0.8411
 5405SOL     OW27847   1.814   1.871   7.772  0.4116  0.3314 -0.1425
 5405SOL    HW127848   1.901   1.837   7.752  0.2922  0.1644 -0.3766
 5405SOL    HW227849   1.821   1.959   7.735 -1.8309 -0.7185 -3.0833
 5406SOL     OW27850   4.684   2.137   5.854 -0.3226  0.3155 -0.7249
 5406SOL    HW127851   4.679   2.061   5.913 -0.5635 -0.0904 -1.2743
 5406SOL    HW227852   0.028   2.128   5.808  2.0083  0.9627  3.3165
 5407SOL     OW27853   1.515   0.446   4.174  0.7028  0.3623 -0.0655
 5407SOL    HW127854   1.602   0.419   4.143  0.4564 -0.9989  0.4504
 5407SOL    HW227855   1.471   0.367   4.142 -1.1308  0.7758  1.4637
 5408SOL     OW27856   1.532   4.623   5.485 -0.0301  0.3425 -0.1370
 5408SOL    HW127857   1.582   4.705   5.485  0.0680  0.2842 -0.0142
 5408SOL    HW227858   1.597   4.555   5.465 -1.8921 -1.4176 -0.1633
 5409SOL     OW27859   2.203   2.740   8.404 -0.2555  0.1824  0.5744
 5409SOL    HW127860   2.278   2.770   8.353 -0.0989 -0.5122  0.3888
 5409SOL    HW227861   2.243   2.668   8.452 -1.6420 -1.1246 -0.2138
 5410SOL     OW27862   0.807   0.094   2.222  0.5731 -0.2727  0.2926
 5410SOL    HW127863   0.814   0.013   2.172 -1.5748 -1.3278  1.6817
 5410SOL    HW227864   0.842   0.153   2.156 -0.3212 -1.2316 -1.0293
 5411SOL     OW27865   4.241   0.337   2.274 -0.0873 -0.4266 -0.8654
 5411SOL    HW127866   4.314   0.348   2.212  0.7203  0.1665  0.1968
 5411SOL    HW227867   4.259   0.248   2.304  0.6336  0.1559  0.4224
 5412SOL     OW27868   4.217   3.365   4.235 -0.0028  0.3458  0.4715
 5412SOL    HW127869   4.147   3.369   4.301 -0.8243  0.9411 -0.4449
 5412SOL    HW227870   4.257   3.452   4.242  0.8200 -0.0825  1.1627
 5413SOL     OW27871   1.508   2.414  17.263  0.2591 -0.1369 -0.4575
 5413SOL    HW127872   1.577   2.459  17.214 -1.6595  0.7234 -2.3495
 5413SOL    HW227873   1.435   2.448  17.211 -0.0611  1.1610  0.8548
 5414SOL     OW27874   4.073   1.023   2.480 -0.6762 -0.2146 -0.8202
 5414SOL    HW127875   4.013   1.051   2.549  0.0517  0.5373 -0.4874
 5414SOL    HW227876   4.142   1.089   2.479  0.7088 -1.6826 -0.1687
 5415SOL     OW27877   0.632   4.482  11.268 -0.4465  0.0361 -0.4126
 5415SOL    HW127878   0.590   4.568  11.256 -1.0050 -0.1778 -0.0000
 5415SOL    HW227879   0.657   4.448  11.182 -0.3428 -0.9664  0.0151
 5416SOL     OW27880   3.793   0.765   1.855  0.4744  0.0998  0.2553
 5416SOL    HW127881   3.836   0.692   1.809  2.4330  0.5803  1.3449
 5416SOL    HW227882   3.702   0.739   1.840  0.9549 -0.1911 -2.1575
 5417SOL     OW27883   2.486   2.222   5.598 -0.7177  0.3698 -0.0569
 5417SOL    HW127884   2.416   2.282   5.624 -0.7423  0.2390  0.1689
 5417SOL    HW227885   2.447   2.138   5.621 -2.0073  0.1473 -3.0411
 5418SOL     OW27886   0.363   3.466   4.272 -0.2493  0.1166 -0.1597
 5418SOL    HW127887   0.456   3.445   4.261 -0.3718 -0.3311 -0.3578
 5418SOL    HW227888   0.312   3.386   4.260 -1.0200  0.9103 -2.2490
 5419SOL     OW27889   2.580   2.422   2.976  0.0947  0.0299 -0.3300
 5419SOL    HW127890   2.491   2.445   2.952  1.2147  4.6149 -0.0300
 5419SOL    HW227891   2.587   2.470   3.058  0.0320  0.1580 -0.4001
 5420SOL     OW27892   4.459   0.073   6.167 -0.5224 -0.0695  0.1205
 5420SOL    HW127893   4.368   0.072   6.196 -1.2138 -0.4504 -2.0198
 5420SOL    HW227894   4.473   0.162   6.136  4.2036 -1.3103 -1.3466
 5421SOL     OW27895   4.143   1.157  11.760  0.5299 -0.1966  0.0133
 5421SOL    HW127896   4.169   1.231  11.815  2.4470  0.2405 -1.4897
 5421SOL    HW227897   4.097   1.099  11.821  0.4617 -0.2678 -0.1061
 5422SOL     OW27898   1.502   3.474   9.822 -0.5967  0.0116  0.4037
 5422SOL    HW127899   1.524   3.504   9.910  1.1665  0.0656 -0.0736
 5422SOL    HW227900   1.581   3.427   9.796 -0.1217  1.4406 -0.6825
 5423SOL     OW27901   3.888   1.691   8.258 -0.5822  0.2349 -0.1353
 5423SOL    HW127902   3.817   1.736   8.212  0.1087  0.7467 -0.6983
 5423SOL    HW227903   3.849   1.605   8.276 -1.7929  0.9329  0.6014
 5424SOL     OW27904   4.430   1.424   8.280  0.0359 -0.7498  0.4378
 5424SOL    HW127905   4.483   1.450   8.356  0.5969  0.3510 -0.3273
 5424SOL    HW227906   4.351   1.383   8.315 -1.0965  0.3002 -0.8671
 5425SOL     OW27907   1.914   3.885   6.262  0.2146 -0.2441 -0.0844
 5425SOL    HW127908   1.845   3.851   6.204 -0.2183  1.3096 -0.4938
 5425SOL    HW227909   1.912   3.979   6.241 -0.4882 -0.1747  0.3074
 5426SOL     OW27910   0.914   4.086   8.674  0.4611 -0.3206 -0.7015
 5426SOL    HW127911   0.844   4.069   8.611 -1.5472 -0.7238  1.6639
 5426SOL    HW227912   0.917   4.182   8.663 -0.8632 -0.3368 -1.1886
 5427SOL     OW27913   0.265   2.402   6.254 -0.1681 -0.0147 -0.0761
 5427SOL    HW127914   0.300   2.445   6.332 -1.6780  0.2706  0.4431
 5427SOL    HW227915   0.306   2.444   6.179  0.9051 -1.8596 -0.5216
 5428SOL     OW27916   3.199   2.580   1.315 -0.0584  0.1115  0.5752
 5428SOL    HW127917   3.198   2.501   1.370 -0.6889 -0.7078 -0.6343
 5428SOL    HW227918   3.247   2.543   1.241  0.0914  1.0762  0.1976
 5429SOL     OW27919   1.154   0.878   4.665 -0.1096 -0.1800  0.6296
 5429SOL    HW127920   1.229   0.824   4.691  0.6414  0.5626 -0.0194
 5429SOL    HW227921   1.116   0.895   4.751 -2.9495 -0.0843 -0.6240
 5430SOL     OW27922   4.650   0.300   5.506 -0.1543 -0.0142  1.0563
 5430SOL    HW127923   4.670   0.216   5.464 -2.5997  0.5048 -1.1534
 5430SOL    HW227924   4.736   0.325   5.539  0.2909 -0.9460  0.6186
 5431SOL     OW27925   4.222   3.360   5.498  0.2193  0.2565 -0.5073
 5431SOL    HW127926   4.170   3.343   5.576  1.8713  1.6390  0.8997
 5431SOL    HW227927   4.234   3.455   5.503 -0.7406  0.4337 -1.5698
 5432SOL     OW27928   0.826   1.452  12.113  0.8731  0.0692  0.0983
 5432SOL    HW127929   0.781   1.485  12.191  0.1877  1.9390 -1.1124
 5432SOL    HW227930   0.878   1.530  12.093  0.0265  0.7873  0.7101
 5433SOL     OW27931   1.358   1.665   5.609 -0.5167  0.0555 -0.2279
 5433SOL    HW127932   1.352   1.678   5.514  0.6187 -1.1727 -0.4832
 5433SOL    HW227933   1.306   1.586   5.620 -0.1148 -0.1917 -0.0852
 5434SOL     OW27934   3.787   3.284   8.442 -0.0428 -0.4840 -0.2977
 5434SOL    HW127935   3.768   3.194   8.416 -0.0441 -0.5592 -0.0366
 5434SOL    HW227936   3.703   3.301   8.486 -0.3123  0.3567 -1.1288
 5435SOL     OW27937   2.742   3.819   7.592 -0.3580 -0.6120  0.2432
 5435SOL    HW127938   2.709   3.807   7.503  0.8431 -1.6661 -0.0701
 5435SOL    HW227939   2.835   3.812   7.573 -0.3144 -0.1556  0.2991
 5436SOL     OW27940   1.544   2.075  11.068 -0.0751 -0.4268 -0.5642
 5436SOL    HW127941   1.583   1.988  11.061  0.6444 -0.1519  0.0775
 5436SOL    HW227942   1.487   2.071  10.991 -1.2489 -0.7389  0.3168
 5437SOL     OW27943   0.100   1.249   5.849  0.1982  0.0695 -0.9423
 5437SOL    HW127944   0.191   1.246   5.820  1.1096  1.7412  1.6834
 5437SOL    HW227945   0.100   1.332   5.898 -1.6815 -0.5738  0.1260
 5438SOL     OW27946   4.006   2.028  16.903  0.3179  0.1819  0.2370
 5438SOL    HW127947   3.916   2.051  16.926  0.0571 -1.7741  1.1828
 5438SOL    HW227948   4.051   2.097  16.951 -0.7017  0.3929  0.9012
 5439SOL     OW27949   2.917   2.295   1.861  0.2310 -0.1452  0.1519
 5439SOL    HW127950   2.901   2.360   1.792  2.1529 -0.1820 -0.3366
 5439SOL    HW227951   2.978   2.339   1.921  0.6380  0.8807 -1.0094
 5440SOL     OW27952   2.951   4.032   8.146  0.3005  0.0522  0.2127
 5440SOL    HW127953   2.945   4.114   8.098 -1.6462  1.5693  3.0742
 5440SOL    HW227954   2.879   3.984   8.104 -0.2394  1.5717 -0.5942
 5441SOL     OW27955   3.049   1.160   2.684  0.0581 -0.8478  0.0683
 5441SOL    HW127956   3.003   1.076   2.687 -2.3622  0.4621 -0.8246
 5441SOL    HW227957   3.090   1.139   2.601  1.1871 -1.5162  0.7964
 5442SOL     OW27958   2.802   1.449   7.732 -0.0239  0.2690  0.0783
 5442SOL    HW127959   2.752   1.504   7.672 -2.2034 -2.4294 -0.6366
 5442SOL    HW227960   2.854   1.397   7.671  1.0351 -1.6240  2.6077
 5443SOL     OW27961   1.903   4.169   5.827  0.1111  0.1838  0.4523
 5443SOL    HW127962   1.977   4.111   5.809 -0.3117 -0.0423 -0.5619
 5443SOL    HW227963   1.913   4.184   5.921 -1.4707  0.9594  0.5012
 5444SOL     OW27964   3.051   3.607  11.920  0.3744 -0.2326 -0.6643
 5444SOL    HW127965   3.013   3.546  11.983 -0.8378 -0.5044 -1.6570
 5444SOL    HW227966   3.133   3.620  11.967 -0.8472  1.6448  0.9293
 5445SOL     OW27967   3.450   3.756  17.626  0.3149 -0.5425 -0.1449
 5445SOL    HW127968   3.537   3.718  17.622  0.6485  0.3788 -1.5867
 5445SOL    HW227969   3.420   3.729  17.539  1.1880 -2.6730  0.2267
 5446SOL     OW27970   2.369   3.242   8.566 -0.0319 -0.5964  0.1368
 5446SOL    HW127971   2.299   3.266   8.504  2.4857  2.5686 -1.4593
 5446SOL    HW227972   2.395   3.329   8.595  0.6807 -0.3890 -1.1186
 5447SOL     OW27973   4.209   1.934  15.240 -0.3919  0.7592 -0.2411
 5447SOL    HW127974   4.222   2.023  15.206  0.9115  1.4907  2.1743
 5447SOL    HW227975   4.122   1.940  15.279 -0.3021  1.1065 -0.0865
 5448SOL     OW27976   1.024   2.701   7.750  0.3154  0.4496 -0.1422
 5448SOL    HW127977   1.105   2.653   7.733 -0.1866 -0.6692  0.6496
 5448SOL    HW227978   1.011   2.692   7.844 -1.3499 -0.5703 -0.4599
 5449SOL     OW27979   0.488   0.401   0.665  0.1509 -0.0347 -0.2946
 5449SOL    HW127980   0.541   0.430   0.591 -1.4217  1.3652 -0.8700
 5449SOL    HW227981   0.553   0.343   0.704  0.4740  0.9570  0.6308
 5450SOL     OW27982   0.141   1.807  15.545 -0.2384 -0.4629 -0.3875
 5450SOL    HW127983   0.062   1.761  15.572 -0.1527 -0.3852 -0.0138
 5450SOL    HW227984   0.117   1.829  15.455  0.0903  0.7197 -0.1787
 5451SOL     OW27985   2.482   2.988   9.734 -0.4514 -0.0124  0.8006
 5451SOL    HW127986   2.559   2.934   9.716  0.8606  1.3523  2.3491
 5451SOL    HW227987   2.498   3.025   9.821  0.8960 -1.4528  1.1614
 5452SOL     OW27988   0.120   0.156   1.434  0.3406 -0.1077 -0.2016
 5452SOL    HW127989   0.034   0.148   1.475  0.3745  0.6337  0.0107
 5452SOL    HW227990   0.090   0.198   1.354  2.0328  0.1346 -0.7083
 5453SOL     OW27991   4.138   1.041   9.247 -0.0242  0.4804 -0.2074
 5453SOL    HW127992   4.090   1.064   9.167  1.0784  0.7251 -0.7968
 5453SOL    HW227993   4.147   0.950   9.220 -0.1688  0.2301  0.5925
 5454SOL     OW27994   4.179   1.490   0.377  0.2679  0.4022 -0.3287
 5454SOL    HW127995   4.176   1.545   0.455  0.0202  0.8558 -0.6557
 5454SOL    HW227996   4.142   1.407   0.409  0.8890 -0.2371 -1.2671
 5455SOL     OW27997   0.724   3.051   7.433  0.1610  0.9513  0.4721
 5455SOL    HW127998   0.672   3.042   7.353  3.0445 -1.7863 -1.0950
 5455SOL    HW227999   0.806   3.020   7.395  0.5550  0.5687  1.6395
 5456SOL     OW28000   4.429   0.737   7.572  0.5994  0.4952  0.1239
 5456SOL    HW128001   4.486   0.756   7.498  0.4017 -0.4694 -0.2824
 5456SOL    HW228002   4.418   0.644   7.551  0.7219 -0.1548  2.9104
 5457SOL     OW28003   1.327   2.630   6.220 -0.7359  0.3714 -0.4984
 5457SOL    HW128004   1.259   2.567   6.242  2.4964 -2.4512  1.3157
 5457SOL    HW228005   1.272   2.704   6.193  0.2950  0.4375 -2.4485
 5458SOL     OW28006   4.517   3.763   5.992  0.2670  0.1335 -0.1991
 5458SOL    HW128007   4.604   3.803   5.994  0.4286 -0.1573 -1.2698
 5458SOL    HW228008   4.515   3.736   6.083 -0.3595  0.1338 -0.2158
 5459SOL     OW28009   1.962   2.709   7.709 -0.7468 -0.7002  0.0256
 5459SOL    HW128010   1.998   2.633   7.664 -0.3510 -0.6938  0.3360
 5459SOL    HW228011   2.025   2.718   7.780  0.4553  0.9274 -1.2485
 5460SOL     OW28012   2.804   0.214   4.627 -0.6012  0.2752  0.5600
 5460SOL    HW128013   2.712   0.241   4.626  0.0196  2.3657  0.0613
 5460SOL    HW228014   2.818   0.195   4.534 -1.9635 -0.7019  0.5623
 5461SOL     OW28015   1.615   4.642   8.353  0.2719  0.2729  0.4925
 5461SOL    HW128016   1.563   4.665   8.277  1.7874  2.2148  0.0380
 5461SOL    HW228017   1.569   4.567   8.391  0.5536 -0.3352 -0.3645
 5462SOL     OW28018   2.036   0.874  13.707  0.2311 -0.1570  0.1084
 5462SOL    HW128019   2.065   0.962  13.681  0.6613 -0.1729  0.5189
 5462SOL    HW228020   1.987   0.900  13.785  1.0074  0.4368  0.3996
 5463SOL     OW28021   0.193   1.668   8.788  0.4988  0.1700  0.1443
 5463SOL    HW128022   0.156   1.755   8.804 -0.0386 -0.3264  1.6056
 5463SOL    HW228023   0.160   1.615   8.861 -1.4782  0.1158 -0.8015
 5464SOL     OW28024   0.061   0.333   5.214  0.4404 -0.2647  0.3853
 5464SOL    HW128025   4.706   0.350   5.211  0.3291 -0.6438  1.6697
 5464SOL    HW228026   0.077   0.243   5.185 -0.2383 -0.8938  1.9332
 5465SOL     OW28027   3.238   0.200   7.619  0.4328  0.3808 -0.0835
 5465SOL    HW128028   3.321   0.166   7.653 -0.6126 -1.7571  0.3602
 5465SOL    HW228029   3.180   0.123   7.622  1.5458 -0.6260 -3.3723
 5466SOL     OW28030   1.013   0.223   4.006  0.2663  0.2868 -0.2731
 5466SOL    HW128031   0.977   0.147   3.960 -1.3806  0.4918  0.6959
 5466SOL    HW228032   0.938   0.281   4.013  1.4510  1.5506  1.8006
 5467SOL     OW28033   0.771   0.022   0.492  0.5889 -0.1635 -0.2348
 5467SOL    HW128034   0.852   4.711   0.486  0.7831  0.1455 -0.1661
 5467SOL    HW228035   0.749   0.032   0.584 -1.6543  0.2002 -0.8062
 5468SOL     OW28036   2.043   0.471  14.236  0.5043 -0.1855  0.2111
 5468SOL    HW128037   2.132   0.505  14.231 -0.4241  2.5255  2.0674
 5468SOL    HW228038   2.059   0.377  14.249 -0.9376 -0.5180 -0.3363
 5469SOL     OW28039   1.786   2.527   5.178 -0.3907 -0.1926 -0.2524
 5469SOL    HW128040   1.877   2.527   5.151 -0.5944 -2.2846 -0.8925
 5469SOL    HW228041   1.762   2.619   5.165 -0.1076  0.0833  1.2231
 5470SOL     OW28042   4.398   1.745  12.381  0.6153  0.3723 -0.0996
 5470SOL    HW128043   4.444   1.663  12.359  2.1927  0.8290  1.4950
 5470SOL    HW228044   4.456   1.779  12.449  0.8687 -0.9524  0.3489
 5471SOL     OW28045   3.572   1.666   0.178  0.1925  0.2039 -0.7240
 5471SOL    HW128046   3.569   1.743   0.122  1.6564 -0.0815 -1.1835
 5471SOL    HW228047   3.615   1.692   0.259 -1.4109 -0.7653  0.4561
 5472SOL     OW28048   1.215   4.520   3.016 -0.5579 -0.9428 -0.4246
 5472SOL    HW128049   1.224   4.615   3.027  0.8883 -1.1434  0.1255
 5472SOL    HW228050   1.292   4.483   3.059 -0.8949 -0.7548  0.3573
 5473SOL     OW28051   4.536   2.738  13.180  0.0975 -0.1679 -0.1745
 5473SOL    HW128052   4.456   2.747  13.233 -1.2663  1.5472 -2.5228
 5473SOL    HW228053   4.606   2.721  13.242  0.3241  1.7802  0.0950
 5474SOL     OW28054   4.147   0.026  10.312 -0.2627  0.8602 -0.2018
 5474SOL    HW128055   4.073   0.049  10.255  1.7403 -0.0491 -3.1611
 5474SOL    HW228056   4.137   0.096  10.376  0.1854 -1.6116  2.5744
 5475SOL     OW28057   3.622   0.684   6.954  0.0841  0.1926 -0.5813
 5475SOL    HW128058   3.579   0.688   6.869 -1.2902 -0.4299  0.0797
 5475SOL    HW228059   3.712   0.672   6.925  0.6483  1.5818  0.5756
 5476SOL     OW28060   1.448   0.219   7.139  0.0117 -0.2969  0.3678
 5476SOL    HW128061   1.378   0.246   7.079  1.7521  1.7487 -0.7410
 5476SOL    HW228062   1.519   0.202   7.077  0.2400  1.0197  0.2721
 5477SOL     OW28063   2.268   1.884   2.747 -0.1327 -0.1279  0.3007
 5477SOL    HW128064   2.359   1.852   2.744 -0.9283 -2.1693 -2.2609
 5477SOL    HW228065   2.287   1.963   2.797  1.8904 -1.6957  1.9836
 5478SOL     OW28066   2.812   3.999  17.293 -0.3872  0.2188 -0.1344
 5478SOL    HW128067   2.836   3.919  17.339 -2.3437  1.2511  2.6794
 5478SOL    HW228068   2.877   4.062  17.324 -1.0510  1.8095 -1.9861
 5479SOL     OW28069   0.866   2.116  10.087  0.2161  0.2859  0.4183
 5479SOL    HW128070   0.955   2.082  10.095  0.1396 -0.0973 -0.4308
 5479SOL    HW228071   0.882   2.208  10.068 -3.0018  0.9755  1.1873
 5480SOL     OW28072   1.428   0.768  16.199  0.1797 -0.0217  0.2193
 5480SOL    HW128073   1.378   0.719  16.133  2.8347  2.4259 -3.5994
 5480SOL    HW228074   1.421   0.709  16.274 -0.1111  0.9762  0.9803
 5481SOL     OW28075   2.296   3.617  16.365 -0.2146 -0.0892 -0.2437
 5481SOL    HW128076   2.220   3.667  16.395  0.3902 -0.5907  2.1603
 5481SOL    HW228077   2.263   3.528  16.370 -2.3595  0.5630 -2.8096
 5482SOL     OW28078   3.778   1.876   4.303 -0.1090 -0.5125  0.4791
 5482SOL    HW128079   3.750   1.955   4.257  2.9253  0.3803  0.1382
 5482SOL    HW228080   3.701   1.852   4.355  1.8097  0.1765  3.6205
 5483SOL     OW28081   1.350   4.136   8.459  0.3255 -0.2783  0.2113
 5483SOL    HW128082   1.323   4.195   8.389  0.3654  0.2906  0.6734
 5483SOL    HW228083   1.421   4.191   8.493 -1.3442  2.5466 -0.9429
 5484SOL     OW28084   2.242   3.559   5.190  0.0220  0.0665 -0.3445
 5484SOL    HW128085   2.161   3.525   5.153  0.7234 -1.1780 -0.7515
 5484SOL    HW228086   2.242   3.530   5.282 -3.6237  0.5179 -0.2226
 5485SOL     OW28087   2.868   4.693   0.743 -0.4861  0.7067  0.2163
 5485SOL    HW128088   2.951   4.654   0.769 -0.6002  0.9266  0.9052
 5485SOL    HW228089   2.873   0.041   0.782 -1.0276 -0.0831  2.0479
 5486SOL     OW28090   0.088   4.183   5.935 -0.6211  0.1329 -0.6793
 5486SOL    HW128091   0.172   4.137   5.923 -0.8933 -0.2048 -1.2733
 5486SOL    HW228092   0.091   4.216   6.025 -0.3352  0.0635 -0.6624
 5487SOL     OW28093   0.889   3.704  15.800 -0.2711  0.5266 -0.2075
 5487SOL    HW128094   0.808   3.697  15.852 -0.4922 -1.3391 -0.8040
 5487SOL    HW228095   0.909   3.796  15.819 -0.8607  0.7905 -0.8540
 5488SOL     OW28096   4.076   4.297  16.546  0.1430 -0.1167 -0.5466
 5488SOL    HW128097   4.129   4.302  16.626 -1.0085 -0.4497  0.2234
 5488SOL    HW228098   4.075   4.201  16.539  0.4744  0.0696 -3.1482
 5489SOL     OW28099   2.586   3.362   5.831 -0.2214 -0.9140  0.1594
 5489SOL    HW128100   2.647   3.436   5.831 -0.1831 -0.9545 -1.6755
 5489SOL    HW228101   2.548   3.367   5.743  2.8062  2.2126 -0.9705
 5490SOL     OW28102   3.607   1.884   2.629 -0.2475  0.4520  0.1760
 5490SOL    HW128103   3.658   1.845   2.699 -0.1258  1.1720  0.4883
 5490SOL    HW228104   3.636   1.975   2.635  1.0252 -0.1235  2.4033
 5491SOL     OW28105   2.195   2.324   8.924 -0.4452 -0.0050  0.1561
 5491SOL    HW128106   2.231   2.255   8.980 -1.0943 -0.3993  0.0779
 5491SOL    HW228107   2.274   2.352   8.877 -0.6602 -0.5883 -0.5420
 5492SOL     OW28108   1.606   1.890   5.973 -0.4431  0.0849  0.0984
 5492SOL    HW128109   1.581   1.803   6.003 -0.6128 -0.3472 -1.3041
 5492SOL    HW228110   1.529   1.929   5.931 -0.6057  1.5820  1.7984
 5493SOL     OW28111   4.586   3.720   7.573  0.1113 -0.4095  0.3829
 5493SOL    HW128112   4.646   3.695   7.503 -0.2244  2.3475 -0.8927
 5493SOL    HW228113   4.600   3.814   7.585 -0.3069 -0.3583  0.4656
 5494SOL     OW28114   0.927   0.560  16.062  0.0432 -0.5738  0.3242
 5494SOL    HW128115   0.846   0.562  16.011  0.7679  0.2904 -0.8003
 5494SOL    HW228116   0.904   0.635  16.117  0.1117 -0.8537  0.7287
 5495SOL     OW28117   3.237   0.116   9.102 -0.0159 -0.6118  1.0381
 5495SOL    HW128118   3.268   0.190   9.051 -1.6822 -0.6343 -0.0208
 5495SOL    HW228119   3.149   0.149   9.120 -0.7748 -0.9943 -2.0040
 5496SOL     OW28120   4.193   4.368   7.205 -0.0108 -0.4315  0.5308
 5496SOL    HW128121   4.145   4.419   7.270 -2.0819 -0.8407 -0.6747
 5496SOL    HW228122   4.281   4.361   7.241  0.1271  2.7081  0.8183
 5497SOL     OW28123   3.065   1.080   7.029 -0.2255 -0.5592  0.8958
 5497SOL    HW128124   3.056   1.002   6.975 -0.5497  0.1657 -0.0990
 5497SOL    HW228125   3.020   1.064   7.111  0.4221 -1.6677  1.0269
 5498SOL     OW28126   2.390   4.410  17.555  0.1927 -0.1506  0.4337
 5498SOL    HW128127   2.304   4.370  17.540  0.0682  1.8904 -4.2580
 5498SOL    HW228128   2.438   4.327  17.563 -0.2922 -0.4003  0.7262
 5499SOL     OW28129   3.780   0.935   8.054 -0.2689 -0.2626  0.2085
 5499SOL    HW128130   3.758   1.011   8.107 -1.8771  0.0227 -0.8631
 5499SOL    HW228131   3.863   0.918   8.099  0.0778 -0.4714 -0.5069
 5500SOL     OW28132   3.938   1.000   2.270  0.7972 -0.0132 -0.2256
 5500SOL    HW128133   3.884   0.924   2.291 -0.7632  0.3678 -2.8852
 5500SOL    HW228134   3.994   1.002   2.348 -0.9914 -1.9486  1.1018
 5501SOL     OW28135   0.620   2.602  10.439 -0.3999 -0.4497 -0.0682
 5501SOL    HW128136   0.572   2.527  10.472 -0.1043 -0.1931  0.9382
 5501SOL    HW228137   0.693   2.604  10.500  0.8916  1.1560 -1.6546
 5502SOL     OW28138   1.418   1.932   8.015  0.2705  0.1876  1.1486
 5502SOL    HW128139   1.379   2.019   8.015  2.3767  1.1292 -1.5581
 5502SOL    HW228140   1.391   1.898   8.101  1.1513 -0.9237  0.9846
 5503SOL     OW28141   2.599   0.434   7.466  0.1811 -0.2031  0.5617
 5503SOL    HW128142   2.543   0.495   7.513  1.3207 -0.1478  1.8553
 5503SOL    HW228143   2.536   0.369   7.436  0.1679 -1.2166  2.8477
 5504SOL     OW28144   2.327   3.153   7.615  0.4889  0.6658  0.0323
 5504SOL    HW128145   2.366   3.068   7.595  1.7003  1.2130  0.0816
 5504SOL    HW228146   2.347   3.167   7.707  3.4425 -0.2914 -0.4673
 5505SOL     OW28147   0.024   2.837   1.758  0.2199  0.7709  0.6855
 5505SOL    HW128148   4.699   2.883   1.812  0.1419  1.6519 -0.1618
 5505SOL    HW228149   4.722   2.751   1.750  1.2179  0.2335  1.1752
 5506SOL     OW28150   2.422   0.190   3.105  0.7316 -0.2232 -0.3604
 5506SOL    HW128151   2.467   0.128   3.048  2.1782  1.3563 -0.9341
 5506SOL    HW228152   2.439   0.146   3.188 -0.4189 -0.7996 -0.4313
 5507SOL     OW28153   4.343   1.998   2.406 -0.0974  0.2125  0.3193
 5507SOL    HW128154   4.421   1.982   2.353  1.1532 -1.2942  2.6653
 5507SOL    HW228155   4.307   1.910   2.396 -1.2422  0.5518  1.4950
 5508SOL     OW28156   2.326   1.013   7.356  0.2055 -0.2372 -1.0653
 5508SOL    HW128157   2.392   0.944   7.353  1.1646  0.5869  1.4250
 5508SOL    HW228158   2.320   1.004   7.451  1.6344  0.0800 -0.9449
 5509SOL     OW28159   0.273   4.703   6.033  0.0040 -0.0183 -0.0359
 5509SOL    HW128160   0.240   4.651   6.107  0.3212 -0.5902 -0.2915
 5509SOL    HW228161   0.367   4.717   6.051  0.4574 -0.4281 -2.1262
 5510SOL     OW28162   1.821   0.289   8.597 -0.6034  0.1729 -0.6216
 5510SOL    HW128163   1.890   0.223   8.593 -1.3579 -0.7700  1.9616
 5510SOL    HW228164   1.801   0.285   8.691 -0.5141 -1.6628 -0.6808
 5511SOL     OW28165   1.636   4.248   6.318 -0.6984 -0.1553  0.5518
 5511SOL    HW128166   1.584   4.314   6.363  0.9537  2.7852 -1.7961
 5511SOL    HW228167   1.583   4.237   6.239 -0.7439 -0.6460  0.6452
 5512SOL     OW28168   3.121   0.574   5.851 -0.0306  0.2023  0.3691
 5512SOL    HW128169   3.027   0.576   5.834  0.0063 -2.8138 -0.1867
 5512SOL    HW228170   3.149   0.645   5.794 -1.2695  1.6652  1.6024
 5513SOL     OW28171   2.957   0.792   1.575 -0.1230 -0.6712  0.1530
 5513SOL    HW128172   3.025   0.778   1.641  0.4054 -0.5341 -0.3680
 5513SOL    HW228173   3.003   0.775   1.493 -0.6026 -1.3113  0.0134
 5514SOL     OW28174   3.474   4.140   3.815 -0.5925 -0.4776  0.2190
 5514SOL    HW128175   3.463   4.226   3.856  1.7502  0.3320 -0.8983
 5514SOL    HW228176   3.458   4.158   3.723  0.5630 -1.0565 -0.0824
 5515SOL     OW28177   4.123   2.805   1.994  0.1098 -0.4412  0.0688
 5515SOL    HW128178   4.089   2.749   2.064 -2.8841  0.7636 -0.3916
 5515SOL    HW228179   4.068   2.786   1.918  0.3289  0.1167 -0.2297
 5516SOL     OW28180   0.657   4.297   3.140 -0.0063  0.4170 -0.3162
 5516SOL    HW128181   0.713   4.221   3.158 -0.4135  0.0198 -0.7300
 5516SOL    HW228182   0.673   4.304   3.046 -1.3715 -1.3134 -0.6761
 5517SOL     OW28183   4.605   2.054   5.057 -0.2270 -0.2865  0.4144
 5517SOL    HW128184   4.516   2.072   5.086 -1.3588 -0.7608 -2.7828
 5517SOL    HW228185   4.609   1.958   5.053 -0.9874 -0.3252  0.6953
 5518SOL     OW28186   0.212   0.591   2.903 -0.2298  0.2577  0.2022
 5518SOL    HW128187   0.254   0.548   2.828 -2.4419 -1.6750  0.0771
 5518SOL    HW228188   0.235   0.534   2.976 -1.6484  1.4374  1.5694
 5519SOL     OW28189   0.000   0.615  17.654  0.2482  0.1302  0.5599
 5519SOL    HW128190   4.646   0.597  17.662  0.0027  1.8516  1.6750
 5519SOL    HW228191   0.012   0.685  17.718 -2.0122  0.9230  0.1045
 5520SOL     OW28192   3.643   4.643   4.768  0.4029 -0.0708  0.1922
 5520SOL    HW128193   3.570   4.684   4.815 -0.7125  0.3452 -1.9200
 5520SOL    HW228194   3.688   4.582   4.826 -0.6892  0.4844  1.6383
 5521SOL     OW28195   0.095   1.378  11.971  0.3766 -0.9028  0.0891
 5521SOL    HW128196   0.190   1.368  11.960  0.3646 -0.9712  0.0480
 5521SOL    HW228197   0.105   1.429  12.051  0.4960  1.1588 -1.2278
 5522SOL     OW28198   0.596   1.931   6.259 -0.2592  0.4343 -0.1225
 5522SOL    HW128199   0.610   2.024   6.278 -0.7823  0.6526 -0.8323
 5522SOL    HW228200   0.690   1.910   6.266 -0.2418  0.1885 -1.1882
 5523SOL     OW28201   2.044   2.813   8.644 -0.2782 -0.4328 -0.4445
 5523SOL    HW128202   2.074   2.780   8.559 -1.8339 -3.4263  0.1571
 5523SOL    HW228203   2.063   2.740   8.703  0.7777 -0.2364 -0.5489
 5524SOL     OW28204   3.930   1.129   0.250 -0.2403  0.3737 -0.0811
 5524SOL    HW128205   3.974   1.115   0.334  0.8745 -0.5663 -0.8267
 5524SOL    HW228206   3.845   1.155   0.285  0.0965 -2.3594  2.7554
 5525SOL     OW28207   2.243   1.907   3.845  0.8284 -0.3330 -0.8726
 5525SOL    HW128208   2.281   1.991   3.869 -1.7631  0.0131  2.0808
 5525SOL    HW228209   2.196   1.915   3.762 -0.9088 -1.5492 -0.0198
 5526SOL     OW28210   0.573   3.851   3.911 -0.2037  0.7193 -0.1314
 5526SOL    HW128211   0.535   3.884   3.829  0.0790  2.6626  0.5235
 5526SOL    HW228212   0.527   3.887   3.986 -0.8799  0.4667 -0.4239
 5527SOL     OW28213   4.511   1.505   1.556  0.2468 -0.3194 -0.0290
 5527SOL    HW128214   4.480   1.594   1.570  2.5245  0.3767  0.6741
 5527SOL    HW228215   4.467   1.469   1.633  0.8007  0.2233  0.5451
 5528SOL     OW28216   0.545   2.421   6.170  0.3083  0.4354 -0.1798
 5528SOL    HW128217   0.570   2.360   6.239 -0.3282  1.6727  1.1396
 5528SOL    HW228218   0.628   2.466   6.152 -0.3035  1.5407 -0.2734
 5529SOL     OW28219   2.838   2.667   0.296 -0.2253 -0.1900  0.1811
 5529SOL    HW128220   2.916   2.721   0.282 -0.8252  0.5081 -0.4520
 5529SOL    HW228221   2.794   2.688   0.214  1.2094  0.7895 -0.3287
 5530SOL     OW28222   0.836   2.591   0.024  0.1089 -0.0450 -0.4746
 5530SOL    HW128223   0.741   2.579   0.035 -0.2041 -0.4931 -3.5652
 5530SOL    HW228224   0.868   2.539  17.706 -1.0082 -2.5072  0.7798
 5531SOL     OW28225   1.603   1.648   1.855  0.8594 -0.5375 -0.2232
 5531SOL    HW128226   1.645   1.598   1.785  0.8979 -1.3772  0.3986
 5531SOL    HW228227   1.551   1.705   1.798 -1.6510 -2.1015  0.5287
 5532SOL     OW28228   1.707   2.251  16.470  0.4814 -0.0574  0.4521
 5532SOL    HW128229   1.794   2.257  16.431 -0.4861 -0.5552 -1.7378
 5532SOL    HW228230   1.691   2.344  16.457  1.2472  0.3637  2.4528
 5533SOL     OW28231   2.845   3.239   1.462  0.1357 -0.8321  0.6494
 5533SOL    HW128232   2.884   3.315   1.505 -2.9366 -0.8461  3.5131
 5533SOL    HW228233   2.919   3.182   1.484 -0.2043 -1.7307 -0.5770
 5534SOL     OW28234   2.496   0.116   1.522 -0.1475  0.2803 -0.0579
 5534SOL    HW128235   2.560   0.147   1.585  0.2591 -0.2046 -0.2381
 5534SOL    HW228236   2.518   0.023   1.530  2.8479  1.1548  1.6495
 5535SOL     OW28237   1.978   3.458  16.543  0.0844  0.0556  0.8455
 5535SOL    HW128238   1.906   3.453  16.606  0.3196  2.5930  1.3200
 5535SOL    HW228239   1.997   3.366  16.526 -0.1470  0.0007  0.8812
 5536SOL     OW28240   0.089   3.232   3.501  0.1340  0.0824  0.9350
 5536SOL    HW128241   0.128   3.315   3.527  1.2916  0.1131 -0.8981
 5536SOL    HW228242   4.738   3.258   3.520 -0.3533 -1.5732  0.8610
 5537SOL     OW28243   0.376   2.706   7.217 -0.5474 -0.1534  0.1670
 5537SOL    HW128244   0.309   2.712   7.285  0.4695  0.7900  1.0879
 5537SOL    HW228245   0.456   2.678   7.262 -0.8159 -0.7023  0.2981
 5538SOL     OW28246   3.702   0.452   7.158 -0.1224  1.1943 -0.3968
 5538SOL    HW128247   3.761   0.490   7.093 -0.4168 -1.4190 -2.1783
 5538SOL    HW228248   3.630   0.439   7.097  1.0410 -2.4910 -0.9955
 5539SOL     OW28249   3.497   3.904   6.385 -0.0867  0.1610  0.7461
 5539SOL    HW128250   3.570   3.936   6.437  0.1130  0.5990  0.1981
 5539SOL    HW228251   3.469   3.985   6.343 -1.1889  0.0470  1.2619
 5540SOL     OW28252   0.779   4.149   9.661 -0.1784 -0.2933  0.3286
 5540SOL    HW128253   0.790   4.230   9.612 -2.3163  0.4251  1.0233
 5540SOL    HW228254   0.688   4.135   9.634 -0.0110 -1.6632  0.4700
 5541SOL     OW28255   1.773   2.111   3.619  0.1936  0.1014 -1.0585
 5541SOL    HW128256   1.735   2.042   3.564 -1.4311  0.6907 -0.6535
 5541SOL    HW228257   1.724   2.189   3.594  0.5536 -0.2527 -2.9266
 5542SOL     OW28258   1.771   2.896  12.964 -0.2158 -0.6793 -0.0426
 5542SOL    HW128259   1.748   2.852  12.882 -0.6654  0.8771 -0.7492
 5542SOL    HW228260   1.834   2.832  12.997  0.9651 -0.2245 -1.3907
 5543SOL     OW28261   3.495   1.064   6.460  0.2047 -0.0027 -0.1817
 5543SOL    HW128262   3.429   1.013   6.508 -1.3438 -0.4027 -2.7084
 5543SOL    HW228263   3.545   1.098   6.534  2.9486 -4.0193 -0.2227
 5544SOL     OW28264   4.576   3.967   4.822  0.1235 -0.7183 -0.1060
 5544SOL    HW128265   4.670   3.966   4.805  0.0088  2.0471 -0.9153
 5544SOL    HW228266   4.570   4.022   4.901 -0.1096  0.0444 -0.6574
 5545SOL     OW28267   3.003   3.952   1.229  0.1177  0.2600 -0.0721
 5545SOL    HW128268   3.016   3.951   1.323  0.0250  3.2141 -0.0251
 5545SOL    HW228269   3.095   3.948   1.205  0.5868  3.6748  1.2387
 5546SOL     OW28270   4.636   1.694   6.579 -0.5230  0.4296  0.0771
 5546SOL    HW128271   4.589   1.614   6.555  1.0085 -0.5352  0.2628
 5546SOL    HW228272   4.628   1.675   6.673  0.3856 -1.3772 -0.2118
 5547SOL     OW28273   2.601   2.503  16.665  0.4979  0.0381  0.5236
 5547SOL    HW128274   2.605   2.408  16.653  2.7499  0.3555 -1.2292
 5547SOL    HW228275   2.576   2.506  16.758 -0.6051  0.8179  0.1977
 5548SOL     OW28276   1.006   1.267   5.544 -0.7790 -0.1708  0.3045
 5548SOL    HW128277   1.093   1.306   5.553 -0.5696 -0.6473  0.3273
 5548SOL    HW228278   0.955   1.346   5.527  1.8683  0.9881 -2.3641
 5549SOL     OW28279   3.275   2.488   2.645 -0.3295  0.2545  0.5431
 5549SOL    HW128280   3.192   2.493   2.692  0.2736 -2.1090  1.8601
 5549SOL    HW228281   3.252   2.516   2.556 -0.6753 -0.9116  0.2625
 5550SOL     OW28282   4.479   1.500  11.169 -0.0736 -0.4993 -0.0884
 5550SOL    HW128283   4.444   1.414  11.148 -0.5126 -0.7637  1.7081
 5550SOL    HW228284   4.571   1.474  11.176  0.3688  0.9574 -0.4701
 5551SOL     OW28285   1.422   3.668   5.043 -0.1473  0.1892 -0.4692
 5551SOL    HW128286   1.383   3.696   5.125  4.3883 -2.1238  2.4586
 5551SOL    HW228287   1.436   3.576   5.062  2.4380  0.4454 -1.0865
 5552SOL     OW28288   2.075   2.741   6.537  0.2262  0.6951  0.5352
 5552SOL    HW128289   2.003   2.704   6.486  0.7114  3.0656 -1.8355
 5552SOL    HW228290   2.148   2.681   6.521 -0.7861 -0.7001  1.0538
 5553SOL     OW28291   4.724   0.023  10.993 -0.1928  0.4660 -0.0228
 5553SOL    HW128292   4.708   0.027  11.087  0.1805 -0.8283  0.0941
 5553SOL    HW228293   4.638   4.737  10.960 -0.5182  0.7631  0.5919
 5554SOL     OW28294   0.019   0.807   2.434 -0.0050  0.0341 -0.6889
 5554SOL    HW128295   0.028   0.859   2.354  0.8111  3.0637  1.3702
 5554SOL    HW228296   0.096   0.830   2.486 -1.1540  0.4273  0.8509
 5555SOL     OW28297   4.056   3.988   2.776  0.3160 -0.1043 -0.3382
 5555SOL    HW128298   4.117   4.061   2.764 -0.2133  0.4641  0.4592
 5555SOL    HW228299   4.107   3.911   2.751  2.2663  0.6062  1.5068
 5556SOL     OW28300   4.684   4.707   3.799 -0.4059  0.1305  0.0490
 5556SOL    HW128301   0.034   4.728   3.828 -0.5784 -0.2472  0.8502
 5556SOL    HW228302   4.675   0.027   3.724 -1.3627  2.0301  1.6811
 5557SOL     OW28303   3.334   1.696   1.849 -0.3182 -0.3007  0.2809
 5557SOL    HW128304   3.251   1.740   1.863 -1.0893 -1.7500  0.3471
 5557SOL    HW228305   3.315   1.627   1.785 -0.1118  1.8006 -2.0015
 5558SOL     OW28306   4.253   1.463   7.869 -0.2283  0.9418 -0.2988
 5558SOL    HW128307   4.330   1.448   7.924 -0.5938  2.3053  0.6070
 5558SOL    HW228308   4.248   1.373   7.837  1.6331 -0.0166  2.1233
 5559SOL     OW28309   0.845   2.113   6.932 -0.9306 -0.2899 -0.3256
 5559SOL    HW128310   0.756   2.084   6.911 -1.6704  0.6525  1.5143
 5559SOL    HW228311   0.904   2.056   6.882  0.0068  2.3628 -2.2170
 5560SOL     OW28312   1.453   4.568   7.761  0.0154 -0.5941  0.0606
 5560SOL    HW128313   1.371   4.594   7.718  1.7120  1.5679 -1.8655
 5560SOL    HW228314   1.494   4.503   7.704  0.2266  0.9199 -1.5321
 5561SOL     OW28315   4.712   1.566   1.380 -0.0648 -0.5381  0.1982
 5561SOL    HW128316   4.647   1.591   1.314 -0.3228  0.1273  0.6991
 5561SOL    HW228317   4.652   1.527   1.444 -1.8285 -1.3025 -1.8810
 5562SOL     OW28318   2.205   3.008   5.865 -0.4627  0.1183 -0.1783
 5562SOL    HW128319   2.142   2.941   5.892  0.0646 -0.4514 -0.3758
 5562SOL    HW228320   2.261   2.969   5.798 -0.6610  2.3603 -1.6703
 5563SOL     OW28321   2.498   1.294  17.385 -0.5369  0.5407  0.7668
 5563SOL    HW128322   2.536   1.339  17.460 -1.5535  0.0503  1.5737
 5563SOL    HW228323   2.442   1.233  17.432  0.0438  1.2626  2.3941
 5564SOL     OW28324   2.923   1.025   1.922 -0.2588  0.3230 -0.7132
 5564SOL    HW128325   2.966   1.044   1.839  0.4296 -0.2577 -0.4903
 5564SOL    HW228326   2.835   1.053   1.898 -0.6635 -1.1483 -0.9824
 5565SOL     OW28327   3.699   0.250   6.249  0.1006 -0.1448  0.6797
 5565SOL    HW128328   3.702   0.262   6.344 -2.2669  0.2796  0.7205
 5565SOL    HW228329   3.686   0.155   6.239  1.8312 -0.4383  1.1678
 5566SOL     OW28330   2.886   0.540   4.635 -0.0649  0.0197 -0.3510
 5566SOL    HW128331   2.950   0.469   4.643 -0.2183 -0.3613 -2.5412
 5566SOL    HW228332   2.829   0.524   4.711 -0.3470  1.4715 -0.2588
 5567SOL     OW28333   1.009   1.339   7.489  0.6059  0.3976 -0.1947
 5567SOL    HW128334   0.962   1.267   7.530  0.0356  1.0711  0.3307
 5567SOL    HW228335   1.058   1.296   7.419  1.8492  1.8940 -0.2668
 5568SOL     OW28336   2.207   1.168   7.717 -0.4159 -0.1694 -0.1094
 5568SOL    HW128337   2.292   1.173   7.761  0.1020 -0.2426 -1.0892
 5568SOL    HW228338   2.237   1.214   7.638  1.0275 -0.0773  0.4917
 5569SOL     OW28339   4.218   3.475   3.807  0.0622  0.4369 -0.0347
 5569SOL    HW128340   4.223   3.548   3.868 -0.5450 -0.9123  1.6222
 5569SOL    HW228341   4.215   3.526   3.726  0.6710  2.4817  1.2320
 5570SOL     OW28342   2.802   2.960   6.592 -0.4310  0.2445 -0.2587
 5570SOL    HW128343   2.708   2.940   6.595 -0.3717 -0.1479 -1.1519
 5570SOL    HW228344   2.839   2.900   6.528 -0.8426 -0.0853 -0.1887
 5571SOL     OW28345   2.817   1.763  13.144 -0.3418  0.2334  0.0572
 5571SOL    HW128346   2.755   1.775  13.215 -2.1727  0.8817 -1.6266
 5571SOL    HW228347   2.891   1.777  13.203 -0.5259  0.2372  0.2851
 5572SOL     OW28348   0.603   1.812   3.650 -0.3935  0.7843 -0.5436
 5572SOL    HW128349   0.660   1.872   3.601  0.5538  0.4390  0.1274
 5572SOL    HW228350   0.632   1.729   3.613 -0.5995  0.2650  0.4729
 5573SOL     OW28351   0.301   4.018   3.414 -0.2574 -0.0617 -0.0974
 5573SOL    HW128352   0.329   4.109   3.409  0.3193 -0.2021  0.5680
 5573SOL    HW228353   0.302   3.987   3.324  1.0282 -1.1130  0.2761
 5574SOL     OW28354   2.346   4.302  14.682 -0.1826  0.4307  0.1573
 5574SOL    HW128355   2.417   4.337  14.735 -0.9200 -1.1954  2.2235
 5574SOL    HW228356   2.400   4.283  14.606  0.6186  1.9543  0.3418
 5575SOL     OW28357   2.051   4.135  12.476 -0.4367 -0.1019 -0.3209
 5575SOL    HW128358   1.970   4.186  12.477  0.1497  0.8114 -0.2916
 5575SOL    HW228359   2.039   4.073  12.549  0.9595  1.9358  1.6306
 5576SOL     OW28360   3.919   3.864  14.911 -0.0429  0.1099 -0.3730
 5576SOL    HW128361   3.982   3.806  14.952  0.8177  0.4671 -1.1848
 5576SOL    HW228362   3.938   3.951  14.945 -1.6712 -0.4377  1.8985
 5577SOL     OW28363   0.547   1.318   2.973 -0.1101  0.0915  0.3203
 5577SOL    HW128364   0.551   1.259   3.049 -2.8352 -0.0639  0.3438
 5577SOL    HW228365   0.501   1.260   2.913 -1.4942  1.2165  0.2893
 5578SOL     OW28366   3.711   2.142   2.599  0.6042  0.3086 -0.2034
 5578SOL    HW128367   3.744   2.189   2.675  2.2156 -1.3581  0.1251
 5578SOL    HW228368   3.649   2.204   2.560  0.3655 -1.4850 -2.6523
 5579SOL     OW28369   2.972   1.553  10.718  0.2723 -0.2449  0.4292
 5579SOL    HW128370   2.986   1.468  10.677 -0.0983 -0.2479  0.3094
 5579SOL    HW228371   3.015   1.535  10.802 -0.7638 -0.0604  1.0036
 5580SOL     OW28372   2.823   0.634   1.174  0.2740  0.1230  0.8608
 5580SOL    HW128373   2.861   0.632   1.086  2.0170 -0.6739  1.6398
 5580SOL    HW228374   2.880   0.573   1.220  0.2143 -0.7155 -0.1865
 5581SOL     OW28375   3.718   3.199   6.103 -0.3989 -0.4634 -0.5318
 5581SOL    HW128376   3.635   3.176   6.145 -0.0856 -3.1342 -1.3726
 5581SOL    HW228377   3.726   3.293   6.121  0.8253 -0.8402  0.9676
 5582SOL     OW28378   0.485   4.093   8.693 -0.5078  0.3167 -0.1482
 5582SOL    HW128379   0.451   4.065   8.778 -1.3768  2.3288  0.1709
 5582SOL    HW228380   0.485   4.189   8.702 -2.0695  0.3422 -0.3237
 5583SOL     OW28381   4.034   1.882  16.693  0.2018  0.2783  0.2231
 5583SOL    HW128382   4.008   1.933  16.770 -1.7823  0.1675 -0.3655
 5583SOL    HW228383   4.127   1.863  16.707  0.2055  1.4172  1.7454
 5584SOL     OW28384   2.693   4.354   8.867 -0.3324  0.3023 -0.4537
 5584SOL    HW128385   2.718   4.282   8.925  2.1825  1.8214  0.3753
 5584SOL    HW228386   2.767   4.348   8.807  0.5391 -0.2383  0.6712
 5585SOL     OW28387   1.526   3.151   2.099  0.4960 -0.3978  0.0235
 5585SOL    HW128388   1.448   3.095   2.097  0.9282 -0.9278 -1.4701
 5585SOL    HW228389   1.598   3.106   2.056 -0.9030 -0.5764 -2.1211
 5586SOL     OW28390   2.352   4.596  16.149  0.1914  0.2692  0.9739
 5586SOL    HW128391   2.321   4.664  16.090 -2.4555 -1.5682  0.2690
 5586SOL    HW228392   2.348   4.511  16.105  1.2419  1.5472 -1.5874
 5587SOL     OW28393   2.091   4.196   3.334  0.1110 -0.0355  0.4131
 5587SOL    HW128394   2.165   4.247   3.368  0.0324  0.4965 -0.1985
 5587SOL    HW228395   2.073   4.137   3.407 -0.4099  0.6478  0.8361
 5588SOL     OW28396   3.010   1.428   7.954 -0.1598  0.1398 -0.2276
 5588SOL    HW128397   3.052   1.490   8.014  1.6552 -0.2419 -1.1317
 5588SOL    HW228398   2.978   1.477   7.878  0.2249 -0.0801 -0.5311
 5589SOL     OW28399   1.362   1.746   4.129  0.0661  0.7017 -0.0348
 5589SOL    HW128400   1.375   1.841   4.139  0.8590  0.4196  1.5216
 5589SOL    HW228401   1.279   1.726   4.171 -1.3467  2.1998 -2.1119
 5590SOL     OW28402   3.589   4.392   1.517 -0.4398 -0.0762 -0.0838
 5590SOL    HW128403   3.510   4.359   1.475 -0.3314 -0.0571 -0.3017
 5590SOL    HW228404   3.619   4.440   1.441 -1.2107  1.6194  0.6775
 5591SOL     OW28405   1.761   3.508  16.725  0.2943  0.1682 -0.0449
 5591SOL    HW128406   1.708   3.573  16.770 -0.6264 -0.4307 -0.2543
 5591SOL    HW228407   1.721   3.422  16.738  1.5429 -0.2876  0.8387
 5592SOL     OW28408   0.095   1.870   9.892 -0.0509  0.0515 -0.1742
 5592SOL    HW128409   0.121   1.875   9.984 -0.3787 -0.5581 -0.0468
 5592SOL    HW228410   0.034   1.944   9.884 -1.7334 -1.4912 -1.6901
 5593SOL     OW28411   2.759   4.098   1.925 -0.1940  0.3054  0.1635
 5593SOL    HW128412   2.704   4.172   1.899 -1.6226 -1.8260 -2.8042
 5593SOL    HW228413   2.722   4.035   1.864 -1.1307  0.7508  0.2632
 5594SOL     OW28414   4.237   2.588   7.857  0.0573  0.5992  0.3630
 5594SOL    HW128415   4.300   2.582   7.929 -0.0686 -2.5120  0.2421
 5594SOL    HW228416   4.247   2.679   7.829 -2.8315  0.8955  0.2755
 5595SOL     OW28417   4.031   1.037  14.566  0.2309  0.3069 -0.0151
 5595SOL    HW128418   4.024   1.128  14.594  0.8353  0.0562  0.9421
 5595SOL    HW228419   4.055   0.990  14.646  0.4396  0.3551 -0.0493
 5596SOL     OW28420   3.933   4.411   1.901 -0.0766 -0.3968  0.4741
 5596SOL    HW128421   3.881   4.378   1.975  2.0080 -0.3477  1.9780
 5596SOL    HW228422   3.868   4.434   1.834  0.4454  0.9203  0.4125
 5597SOL     OW28423   3.555   4.043  12.787  0.4174 -0.3448 -0.1042
 5597SOL    HW128424   3.539   4.105  12.716 -1.0285 -1.3071 -0.6026
 5597SOL    HW228425   3.504   3.963  12.775 -0.7890  0.1891  1.4314
 5598SOL     OW28426   4.414   0.812   0.875 -0.4886 -0.3324 -0.2958
 5598SOL    HW128427   4.496   0.827   0.827 -1.6712  3.5769 -1.0769
 5598SOL    HW228428   4.410   0.718   0.859 -1.1485 -0.1369 -1.2638
 5599SOL     OW28429   3.149   1.755   4.810 -0.1078 -0.1513  0.2154
 5599SOL    HW128430   3.241   1.751   4.787 -0.7834 -1.3303 -2.3274
 5599SOL    HW228431   3.111   1.685   4.757  0.6186  0.3445 -0.9445
 5600SOL     OW28432   0.017   4.058  13.085  0.0287  0.1595  0.0628
 5600SOL    HW128433   0.093   4.007  13.055 -1.7208 -3.4466  1.7136
 5600SOL    HW228434   0.033   4.126  13.020  2.0885 -0.7491 -0.3672
 5601SOL     OW28435   0.216   2.563   9.386 -0.0491  0.8277  0.5589
 5601SOL    HW128436   0.297   2.566   9.438  0.3526 -0.7687  0.0109
 5601SOL    HW228437   0.207   2.652   9.351 -1.7278  0.1556 -0.6964
 5602SOL     OW28438   4.204   4.607   4.353 -0.0149  0.0743  0.2295
 5602SOL    HW128439   4.168   4.519   4.354 -1.0238  0.4761 -0.5893
 5602SOL    HW228440   4.162   4.657   4.422 -1.8252  0.3721 -1.1026
 5603SOL     OW28441   2.155   0.127   2.134 -0.9694  0.0448 -0.2238
 5603SOL    HW128442   2.065   0.146   2.105 -0.5990  2.6104  0.2951
 5603SOL    HW228443   2.190   0.211   2.162 -0.7542  0.8250 -2.8735
 5604SOL     OW28444   3.986   1.804   2.736  0.7520  0.4887 -0.3994
 5604SOL    HW128445   3.975   1.712   2.759 -4.7379  1.4091  0.6609
 5604SOL    HW228446   4.049   1.800   2.664  0.6285  1.1233 -0.5450
 5605SOL     OW28447   4.435   0.914   6.639 -0.2370 -0.4269 -0.6634
 5605SOL    HW128448   4.524   0.949   6.640 -0.2493 -0.4090 -0.2041
 5605SOL    HW228449   4.428   0.866   6.557  1.0368 -0.8975 -0.4917
 5606SOL     OW28450   3.681   0.176   4.761 -0.1614 -0.3539  0.0128
 5606SOL    HW128451   3.772   0.185   4.733 -0.1805 -0.5488 -0.1129
 5606SOL    HW228452   3.678   0.081   4.746 -1.0486 -0.3703  0.2817
 5607SOL     OW28453   3.231   3.930   3.408  0.6667  0.4057 -0.2516
 5607SOL    HW128454   3.139   3.954   3.405  0.5772 -0.0545 -1.5117
 5607SOL    HW228455   3.247   3.904   3.498  0.5884 -1.5512 -0.8026
 5608SOL     OW28456   2.841   3.034   4.374  0.2371 -0.6955 -0.0939
 5608SOL    HW128457   2.837   3.014   4.467  0.3393  1.4777  0.3679
 5608SOL    HW228458   2.753   3.011   4.347  0.0570 -1.9952  1.6371
 5609SOL     OW28459   0.976   3.154   3.538 -0.1639  0.2473  0.0080
 5609SOL    HW128460   1.064   3.124   3.515 -0.7380 -2.1058  0.8513
 5609SOL    HW228461   0.974   3.241   3.500  2.8896 -0.3795 -1.6021
 5610SOL     OW28462   1.499   1.157  10.546  0.5894 -0.0565  0.2775
 5610SOL    HW128463   1.478   1.153  10.453  2.2524 -1.1716 -0.0630
 5610SOL    HW228464   1.410   1.164  10.581  1.2090 -0.7584  2.0011
 5611SOL     OW28465   2.614   3.361   5.067 -0.3081  0.1755 -0.1878
 5611SOL    HW128466   2.634   3.368   5.160  0.7708  2.0207 -0.5313
 5611SOL    HW228467   2.674   3.428   5.034 -0.9202  1.7296  1.8308
 5612SOL     OW28468   0.324   3.879   6.567  0.4316 -0.1342  0.3795
 5612SOL    HW128469   0.319   3.789   6.534 -1.6729 -0.9027  2.7570
 5612SOL    HW228470   0.409   3.887   6.524  0.0089 -0.9735 -0.6212
 5613SOL     OW28471   0.531   3.875   4.165 -0.1843 -0.4868 -0.3632
 5613SOL    HW128472   0.520   3.899   4.257 -1.1332 -2.4755  0.0562
 5613SOL    HW228473   0.455   3.817   4.156 -0.9427  1.0365 -3.8414
 5614SOL     OW28474   2.221   1.941  13.053  0.3971 -0.2387  0.3444
 5614SOL    HW128475   2.139   1.961  13.008 -0.5162  0.0504  2.1189
 5614SOL    HW228476   2.215   1.847  13.035 -0.6561  0.0454 -0.8291
 5615SOL     OW28477   1.000   2.842   2.215 -0.8415  0.2430 -0.1066
 5615SOL    HW128478   1.052   2.792   2.278  0.0963  0.8031 -0.4362
 5615SOL    HW228479   0.924   2.870   2.265 -0.1144 -0.2246  1.2583
 5616SOL     OW28480   3.980   3.965  12.466  0.4349  0.5647  0.0693
 5616SOL    HW128481   4.046   3.998  12.527 -0.3626  1.1938  0.5779
 5616SOL    HW228482   3.907   3.950  12.525  0.6575 -0.9755 -0.0312
 5617SOL     OW28483   4.300   4.150  16.348 -0.1827  0.3949 -0.5480
 5617SOL    HW128484   4.376   4.182  16.298  0.4437 -0.1201  0.0779
 5617SOL    HW228485   4.326   4.170  16.437 -0.4976 -2.3878  0.1713
 5618SOL     OW28486   3.532   3.373   7.677  0.3963 -0.3094  0.1838
 5618SOL    HW128487   3.592   3.408   7.611 -0.0111  0.5718  0.2885
 5618SOL    HW228488   3.452   3.409   7.640  2.0932  1.9319 -1.2984
 5619SOL     OW28489   2.222   0.649  14.625 -0.6075  0.2063 -0.0308
 5619SOL    HW128490   2.214   0.615  14.714 -0.2461  3.7240  1.3736
 5619SOL    HW228491   2.216   0.566  14.578 -0.0124  0.0835  0.1105
 5620SOL     OW28492   1.777   2.740   6.859  0.4623 -0.2245 -0.3965
 5620SOL    HW128493   1.732   2.708   6.781 -0.3308 -0.7002  0.2649
 5620SOL    HW228494   1.784   2.833   6.840 -1.7629 -0.0515 -0.3756
 5621SOL     OW28495   0.707   2.516   2.966  0.7135  0.0683 -0.2187
 5621SOL    HW128496   0.790   2.524   2.918  2.0435  0.5092  2.1420
 5621SOL    HW228497   0.736   2.473   3.046  0.9580 -0.4218 -0.5711
 5622SOL     OW28498   3.884   0.626   8.005  0.3348 -0.1422  0.1122
 5622SOL    HW128499   3.859   0.574   8.080  2.1292 -2.8156 -1.1619
 5622SOL    HW228500   3.840   0.583   7.932 -0.3377  2.1112 -0.8365
 5623SOL     OW28501   4.727   2.647   5.615 -0.3850  0.2537  0.1150
 5623SOL    HW128502   4.717   2.726   5.670 -1.8455 -0.7759  1.3316
 5623SOL    HW228503   0.083   2.649   5.610 -0.5098  0.1004 -2.2580
 5624SOL     OW28504   2.197   1.549  13.406 -0.0452  0.4187  0.1197
 5624SOL    HW128505   2.232   1.622  13.457 -0.3416  2.1099 -2.0780
 5624SOL    HW228506   2.240   1.567  13.322  0.6210 -2.5840 -0.1798
 5625SOL     OW28507   3.078   0.633   2.826 -0.0494  0.4886  0.2661
 5625SOL    HW128508   3.002   0.620   2.883  0.4622 -0.2416  0.7989
 5625SOL    HW228509   3.047   0.675   2.746 -1.1209 -3.1895 -1.2697
 5626SOL     OW28510   0.103   2.798   2.073  0.4352  0.0306 -0.3342
 5626SOL    HW128511   0.126   2.743   2.148  1.9812 -1.8135 -2.1753
 5626SOL    HW228512   0.021   2.759   2.042  1.3698  0.6954 -3.6712
 5627SOL     OW28513   3.607   1.690   5.805 -0.1758  0.0687  0.0269
 5627SOL    HW128514   3.578   1.754   5.741  0.1724  0.5722  0.3684
 5627SOL    HW228515   3.654   1.627   5.750  1.1192  0.7423  0.3470
 5628SOL     OW28516   3.467   2.726   7.409 -0.0170  0.2958  0.5132
 5628SOL    HW128517   3.470   2.767   7.495 -0.2458  0.8197  0.2677
 5628SOL    HW228518   3.553   2.743   7.370 -0.3439 -0.0579 -0.3505
 5629SOL     OW28519   1.088   2.940   5.844 -0.3805 -0.4742  0.0633
 5629SOL    HW128520   1.129   2.854   5.857  2.8190  1.2747  1.5564
 5629SOL    HW228521   1.011   2.910   5.797 -0.7855  1.1296 -0.3119
 5630SOL     OW28522   0.177   4.020   4.875 -0.3914 -0.2284 -0.3521
 5630SOL    HW128523   0.213   3.974   4.950  1.5778  0.1924 -1.0425
 5630SOL    HW228524   0.101   4.059   4.918 -0.0995 -0.1338  0.0737
 5631SOL     OW28525   3.499   0.217  17.106 -0.1348  0.4516 -0.2792
 5631SOL    HW128526   3.492   0.126  17.077 -2.6831  0.2824  0.8705
 5631SOL    HW228527   3.409   0.240  17.129 -0.6327 -0.3808 -1.3740
 5632SOL     OW28528   0.712   2.459   7.917 -0.9738 -0.3788 -0.5186
 5632SOL    HW128529   0.699   2.388   7.979  0.1359  0.0429  0.1980
 5632SOL    HW228530   0.711   2.530   7.982  0.2469 -1.1640  0.3451
 5633SOL     OW28531   0.778   0.831   7.900 -0.5470 -0.1279  0.6488
 5633SOL    HW128532   0.803   0.766   7.966 -0.9847 -1.0176 -0.0622
 5633SOL    HW228533   0.811   0.910   7.941  0.5158 -0.4113  0.3254
 5634SOL     OW28534   1.991   0.792   2.028 -0.3680  0.4870 -0.4326
 5634SOL    HW128535   2.029   0.844   2.099  2.3606 -1.7135 -0.3027
 5634SOL    HW228536   1.993   0.705   2.067 -2.1495  0.4028 -0.5259
 5635SOL     OW28537   1.083   1.713   3.977  0.2303 -0.6496  0.0709
 5635SOL    HW128538   1.106   1.723   4.070  0.5994  0.1259 -0.1008
 5635SOL    HW228539   1.147   1.646   3.954  1.8513  0.5679  0.9926
 5636SOL     OW28540   3.683   0.080   2.246 -0.0099  0.0754 -0.3705
 5636SOL    HW128541   3.636   0.034   2.176 -1.3372  2.8878 -1.3341
 5636SOL    HW228542   3.757   0.022   2.260  1.5873  2.0510 -0.5803
 5637SOL     OW28543   2.935   3.449   5.959 -0.2249  0.4931  0.1033
 5637SOL    HW128544   2.987   3.464   5.880  0.3104  0.4435  0.4489
 5637SOL    HW228545   2.862   3.507   5.939  0.4674  1.6666  0.9736
 5638SOL     OW28546   0.262   3.734   4.825 -0.3883 -0.2905  0.8042
 5638SOL    HW128547   0.208   3.734   4.746  1.8235 -0.6945 -0.6855
 5638SOL    HW228548   0.201   3.681   4.877 -1.7213  1.0802  0.6312
 5639SOL     OW28549   1.850   1.946   7.030 -1.0200 -0.0831  0.2803
 5639SOL    HW128550   1.830   1.866   7.079 -0.1826 -0.9442 -0.7697
 5639SOL    HW228551   1.945   1.933   7.033 -1.1918 -1.4899 -0.0703
 5640SOL     OW28552   1.342   0.304  16.151  0.1396 -0.0451  0.3343
 5640SOL    HW128553   1.343   0.216  16.190 -0.5009 -0.6433 -0.9964
 5640SOL    HW228554   1.252   0.330  16.168 -0.3645 -0.4526 -1.8110
 5641SOL     OW28555   2.511   0.467   4.116  0.2412  0.1505 -0.3241
 5641SOL    HW128556   2.506   0.547   4.063  0.0742 -0.5711 -1.4120
 5641SOL    HW228557   2.542   0.403   4.051 -2.2122  1.1311 -2.4705
 5642SOL     OW28558   0.437   3.019  16.348  0.2214 -0.2488  0.3452
 5642SOL    HW128559   0.515   3.063  16.381  0.4819 -0.3951 -0.0813
 5642SOL    HW228560   0.426   2.950  16.414  2.9766 -1.5046 -0.5192
 5643SOL     OW28561   0.009   1.614   7.125 -0.1356  0.0695  0.0549
 5643SOL    HW128562   0.070   1.553   7.167  0.8744  0.6060 -0.6486
 5643SOL    HW228563   0.054   1.698   7.126  0.0011 -0.0059  0.4409
 5644SOL     OW28564   3.620   3.726  14.746 -0.6214 -0.0619  0.0257
 5644SOL    HW128565   3.697   3.752  14.695  0.5829 -2.5032  0.5594
 5644SOL    HW228566   3.551   3.773  14.700 -0.6404 -0.6073 -0.5169
 5645SOL     OW28567   4.187   1.422   3.203  0.7309 -0.2340 -0.0278
 5645SOL    HW128568   4.103   1.450   3.239  1.1819  0.6541  0.3492
 5645SOL    HW228569   4.238   1.503   3.211  3.7271 -2.3514  2.4667
 5646SOL     OW28570   0.238   3.351   6.779 -0.1377 -0.5266  0.2017
 5646SOL    HW128571   0.186   3.432   6.778 -2.5934 -2.0809  0.5354
 5646SOL    HW228572   0.239   3.327   6.872 -0.9912  1.3615  0.6887
 5647SOL     OW28573   1.626   3.486   7.759 -0.2405 -0.5076  0.4101
 5647SOL    HW128574   1.656   3.443   7.679 -2.1003  1.0745 -1.1077
 5647SOL    HW228575   1.582   3.564   7.727 -0.6797 -0.9783 -0.1382
 5648SOL     OW28576   1.047   3.318   7.494 -0.0491 -0.1174 -0.1305
 5648SOL    HW128577   1.020   3.407   7.475  1.0067 -0.4921 -3.4256
 5648SOL    HW228578   1.128   3.330   7.545 -1.0980  2.7689  0.8257
 5649SOL     OW28579   3.811   1.276   7.934  0.0144  0.3051 -0.1958
 5649SOL    HW128580   3.849   1.351   7.887 -0.3761  0.9426  0.4974
 5649SOL    HW228581   3.739   1.257   7.873  0.2946  0.9588 -0.7409
 5650SOL     OW28582   2.210   4.091  16.913  0.4687  0.8877  0.5698
 5650SOL    HW128583   2.229   4.115  16.823  0.2245  0.2236  0.3424
 5650SOL    HW228584   2.299   4.077  16.944  1.3388  0.2336 -2.2499
 5651SOL     OW28585   4.267   3.643   3.602 -0.2948 -0.3207 -0.7706
 5651SOL    HW128586   4.358   3.672   3.603 -0.9946  1.8559 -1.2369
 5651SOL    HW228587   4.253   3.623   3.509  0.9531  0.4545 -1.1213
 5652SOL     OW28588   2.181   4.399   2.742 -0.4193  0.5523 -0.1672
 5652SOL    HW128589   2.237   4.449   2.801 -0.1664  0.0057  0.0637
 5652SOL    HW228590   2.232   4.318   2.730 -0.6514 -0.0958  3.3975
 5653SOL     OW28591   0.538   4.618   3.695 -0.0565 -0.2465  0.3956
 5653SOL    HW128592   0.534   4.589   3.786 -1.3009  1.1698  0.7789
 5653SOL    HW228593   0.629   4.598   3.673  0.6255  2.9240  0.3528
 5654SOL     OW28594   0.005   2.182   7.116  0.0342 -0.5696  0.3534
 5654SOL    HW128595   0.084   2.145   7.155  0.3293  0.0700  0.3603
 5654SOL    HW228596   0.019   2.167   7.022  0.1742 -1.6293  0.5479
 5655SOL     OW28597   4.377   0.445   7.046 -0.4031 -0.1825 -0.2403
 5655SOL    HW128598   4.385   0.525   7.098  2.1324 -0.7900  0.2952
 5655SOL    HW228599   4.293   0.409   7.077 -0.1735 -1.1465 -0.7265
 5656SOL     OW28600   1.261   1.403   2.733 -0.8864  0.1753 -0.2988
 5656SOL    HW128601   1.309   1.470   2.684 -0.6809  0.6562  0.5731
 5656SOL    HW228602   1.179   1.400   2.684 -0.5127  0.5226 -0.9532
 5657SOL     OW28603   4.497   4.059   1.586 -0.1302 -0.0138  0.2398
 5657SOL    HW128604   4.543   4.051   1.503 -3.0018  0.1864 -1.3505
 5657SOL    HW228605   4.512   3.972   1.623  2.1751 -0.7820 -2.5204
 5658SOL     OW28606   0.862   0.370  11.119 -0.3811 -0.2213 -0.5629
 5658SOL    HW128607   0.861   0.464  11.100 -0.0390 -0.0169  0.3868
 5658SOL    HW228608   0.925   0.364  11.191  0.2870  0.0836 -1.1220
 5659SOL     OW28609   3.219   0.392   8.666  0.1574  0.0030 -0.2165
 5659SOL    HW128610   3.289   0.457   8.669  0.4258 -0.4034  2.2014
 5659SOL    HW228611   3.206   0.389   8.571  2.1843 -2.1674 -0.4345
 5660SOL     OW28612   2.808   3.954   4.779  0.4172  0.2365  0.0376
 5660SOL    HW128613   2.789   4.038   4.736 -0.4988 -0.0005 -0.0223
 5660SOL    HW228614   2.841   3.906   4.703 -2.5953  1.3600 -1.9864
 5661SOL     OW28615   2.156   4.198   1.613  0.4589 -0.3407 -0.5930
 5661SOL    HW128616   2.085   4.245   1.656  3.0865  2.8038  0.3495
 5661SOL    HW228617   2.215   4.168   1.682 -0.2640 -0.5659 -0.0829
 5662SOL     OW28618   1.267   3.697   4.087  0.2802  0.2499 -0.0016
 5662SOL    HW128619   1.252   3.792   4.090  2.4565  0.5550  0.9746
 5662SOL    HW228620   1.360   3.679   4.096  0.5164  0.6076 -1.7282
 5663SOL     OW28621   0.111   2.011  10.539  0.2810  0.0585 -0.3726
 5663SOL    HW128622   0.078   2.097  10.513 -0.4371  0.0773  0.5893
 5663SOL    HW228623   0.198   2.045  10.557  1.2727 -2.6256 -0.1235
 5664SOL     OW28624   4.030   0.710   6.678  0.2387  0.2143  0.5731
 5664SOL    HW128625   4.049   0.787   6.624 -1.3502 -0.6257 -1.2136
 5664SOL    HW228626   4.112   0.662   6.664  0.4012  0.7286 -0.3089
 5665SOL     OW28627   1.296   4.322  16.890  0.0095  0.3537 -0.3276
 5665SOL    HW128628   1.286   4.403  16.941  2.4855 -1.0006  2.2921
 5665SOL    HW228629   1.294   4.366  16.805  1.6622 -3.0421 -2.0883
 5666SOL     OW28630   1.517   3.003  12.709 -0.1941 -0.3676 -0.4841
 5666SOL    HW128631   1.452   3.019  12.778  0.3074  1.5675 -0.4382
 5666SOL    HW228632   1.474   2.935  12.657  1.4206 -0.1000 -2.1696
 5667SOL     OW28633   1.698   2.302   6.656 -0.0636  0.4309  0.2866
 5667SOL    HW128634   1.654   2.344   6.730 -0.3473 -0.0419  0.3833
 5667SOL    HW228635   1.740   2.234   6.709 -0.7608  0.4140  0.8154
 5668SOL     OW28636   1.872   1.860   8.028  0.6269 -0.1796 -0.0259
 5668SOL    HW128637   1.849   1.821   7.944 -3.3166 -0.9428  1.4212
 5668SOL    HW228638   1.809   1.932   8.027  1.8697  0.9043 -0.2301
 5669SOL     OW28639   3.943   2.282   5.182 -0.4962  0.2260  0.1822
 5669SOL    HW128640   3.999   2.249   5.252 -1.1903 -1.3842 -0.0324
 5669SOL    HW228641   4.010   2.320   5.125 -1.0334 -0.5433 -0.9656
 5670SOL     OW28642   2.117   4.418   8.588 -0.6364 -0.3040  0.0588
 5670SOL    HW128643   2.108   4.360   8.664  1.2077  0.5455  0.9308
 5670SOL    HW228644   2.024   4.422   8.566 -0.8369  0.2856  0.9730
 5671SOL     OW28645   4.561   4.178   2.466  0.6596 -0.4260 -0.5593
 5671SOL    HW128646   4.515   4.189   2.383 -2.2358  0.1995  1.1220
 5671SOL    HW228647   4.580   4.270   2.480 -1.0574 -0.1780  0.1850
 5672SOL     OW28648   1.502   0.447   7.942  0.0324 -0.0893  0.5121
 5672SOL    HW128649   1.543   0.517   7.994  1.7829 -1.8402  1.4856
 5672SOL    HW228650   1.467   0.502   7.872  2.2459  0.0378 -0.4847
 5673SOL     OW28651   3.686   1.984   3.299  0.3843  0.0115 -0.2128
 5673SOL    HW128652   3.676   1.903   3.349 -1.4008 -0.6912 -1.7374
 5673SOL    HW228653   3.604   1.972   3.250 -1.1194  0.2929  2.2059
 5674SOL     OW28654   3.783   1.291   6.644 -0.9059 -0.0035 -0.4785
 5674SOL    HW128655   3.695   1.270   6.673 -0.7223  0.9936  0.7711
 5674SOL    HW228656   3.829   1.269   6.725 -1.8221  1.5124  0.4611
 5675SOL     OW28657   4.685   3.752   2.910 -0.2558  0.0057 -0.0575
 5675SOL    HW128658   4.596   3.716   2.913  0.4361 -1.6015  1.6788
 5675SOL    HW228659   4.736   3.672   2.919 -2.7348 -1.8311 -2.4029
 5676SOL     OW28660   0.115   1.103   5.255  0.0909 -0.4383  0.4857
 5676SOL    HW128661   0.082   1.018   5.225  1.0030 -0.7443  0.3312
 5676SOL    HW228662   0.039   1.158   5.238 -1.2031 -2.4274 -0.3036
 5677SOL     OW28663   1.789   1.330   9.223  0.5338  0.4399  0.2704
 5677SOL    HW128664   1.847   1.374   9.161 -0.7420 -0.6609 -1.7051
 5677SOL    HW228665   1.718   1.314   9.161 -1.6875  0.7556  2.7444
 5678SOL     OW28666   3.352   1.324  14.969  0.3518 -0.0829 -0.3392
 5678SOL    HW128667   3.292   1.375  14.913  1.0455  0.6877 -0.3827
 5678SOL    HW228668   3.425   1.385  14.964  0.0526  0.0373 -3.2054
 5679SOL     OW28669   4.575   1.850   2.033  0.5816  0.5197 -0.1541
 5679SOL    HW128670   4.641   1.784   2.014 -0.2837  0.0023 -1.3482
 5679SOL    HW228671   4.513   1.798   2.084  1.5985  0.6903  1.2514
 5680SOL     OW28672   4.019   3.011  15.951  0.7064  0.2660 -0.4062
 5680SOL    HW128673   4.063   3.067  16.015 -0.0351 -2.4978  2.5108
 5680SOL    HW228674   3.988   3.076  15.888 -2.5842 -0.8391  0.0915
 5681SOL     OW28675   4.430   2.774   4.142  0.1273  0.0278 -0.0940
 5681SOL    HW128676   4.410   2.814   4.057 -2.9849  2.0613  1.5958
 5681SOL    HW228677   4.356   2.805   4.195 -0.6802 -1.9401 -0.0551
 5682SOL     OW28678   4.064   3.764  10.562  0.0908  0.2565  1.5287
 5682SOL    HW128679   4.082   3.677  10.597  0.5804  0.1043  0.9099
 5682SOL    HW228680   3.969   3.760  10.565 -0.0156  1.0074 -0.6808
 5683SOL     OW28681   1.739   1.646   6.576  0.2005  0.5242 -0.0491
 5683SOL    HW128682   1.773   1.723   6.622 -1.4976  0.7709  0.8145
 5683SOL    HW228683   1.660   1.636   6.629 -0.8501 -0.8642 -1.8692
 5684SOL     OW28684   1.396   2.881  16.467 -0.1538 -0.2924 -0.2484
 5684SOL    HW128685   1.425   2.910  16.380 -1.6307 -0.8411 -0.9281
 5684SOL    HW228686   1.473   2.835  16.500 -0.5388 -0.3938  0.5230
 5685SOL     OW28687   1.094   4.292   2.900 -0.7772 -0.0658  0.1102
 5685SOL    HW128688   1.151   4.322   2.829 -0.3855 -2.1540 -0.4536
 5685SOL    HW228689   1.111   4.360   2.966 -1.4632 -0.7046  0.9437
 5686SOL     OW28690   0.119   1.328   6.726  0.4486 -0.3735  0.1611
 5686SOL    HW128691   0.129   1.336   6.820  0.1074 -1.2550  0.2758
 5686SOL    HW228692   0.186   1.388   6.694  1.3313 -0.2729  2.2387
 5687SOL     OW28693   1.890   3.357   5.537  0.6095  0.2146 -0.2346
 5687SOL    HW128694   1.806   3.312   5.538  0.4723  0.4705 -0.1330
 5687SOL    HW228695   1.865   3.441   5.575 -1.5205 -1.1391  1.3404
 5688SOL     OW28696   0.179   2.232   5.974  0.2354  0.1035  0.2881
 5688SOL    HW128697   0.155   2.306   5.918 -2.4388 -1.4813 -0.6666
 5688SOL    HW228698   0.114   2.239   6.045  0.5341  2.3453  0.3352
 5689SOL     OW28699   4.662   1.222   8.355  0.3727 -0.1236  0.1671
 5689SOL    HW128700   4.656   1.249   8.447  0.0498 -0.9465  0.3853
 5689SOL    HW228701   4.592   1.274   8.315 -0.4636 -2.3333 -1.2459
 5690SOL     OW28702   4.581   1.991   2.288 -0.1689  0.3421 -0.3446
 5690SOL    HW128703   4.593   2.071   2.237 -1.1900 -1.1750 -2.9327
 5690SOL    HW228704   4.618   1.938   2.218 -1.7932 -0.2516 -0.7566
 5691SOL     OW28705   3.001   3.022   7.682 -0.3471  0.0443 -0.5191
 5691SOL    HW128706   2.964   2.935   7.668 -2.6912  1.5877 -3.9473
 5691SOL    HW228707   2.945   3.051   7.754 -0.8954  1.9813 -1.7436
 5692SOL     OW28708   2.316   2.316  15.446  0.2309 -0.1410  0.1209
 5692SOL    HW128709   2.345   2.231  15.481  0.7012 -0.1693 -0.3407
 5692SOL    HW228710   2.296   2.303  15.354  0.1703 -0.6160  0.2005
 5693SOL     OW28711   2.298   0.614   2.607  0.1772 -0.3923  0.6749
 5693SOL    HW128712   2.218   0.665   2.597 -0.3350 -0.9426  2.0125
 5693SOL    HW228713   2.256   0.535   2.642  0.1070 -1.4345 -1.7588
 5694SOL     OW28714   4.306   1.793   8.317 -0.3102  0.0214 -0.0225
 5694SOL    HW128715   4.325   1.790   8.223 -0.4136  0.4475 -0.0539
 5694SOL    HW228716   4.357   1.870   8.341  0.3294 -0.4180  0.0467
 5695SOL     OW28717   1.533   0.759  14.537  0.2828 -0.3462 -0.2535
 5695SOL    HW128718   1.570   0.720  14.616 -0.0231 -1.5823 -0.7331
 5695SOL    HW228719   1.595   0.733  14.468 -0.6030  2.7631 -2.2260
 5696SOL     OW28720   2.121   1.065   3.782 -0.2307  0.7261  0.0422
 5696SOL    HW128721   2.044   1.035   3.830 -0.9014  2.1790 -0.1441
 5696SOL    HW228722   2.080   1.136   3.733  2.8327  0.9210 -2.2487
 5697SOL     OW28723   1.620   3.208  10.118  0.0238 -0.1574 -0.1868
 5697SOL    HW128724   1.554   3.238  10.181 -1.7750 -0.8480 -1.7419
 5697SOL    HW228725   1.594   3.117  10.104  0.5472 -0.2474 -0.6078
 5698SOL     OW28726   2.466   3.406   5.586 -0.5014 -0.1298  0.4532
 5698SOL    HW128727   2.377   3.384   5.558  0.3200 -1.0759 -1.4641
 5698SOL    HW228728   2.467   3.488   5.634 -0.8070  0.7010 -0.9480
 5699SOL     OW28729   0.187   2.178   4.010 -0.3815 -0.1623  0.1238
 5699SOL    HW128730   0.117   2.184   4.075 -0.4556 -1.2084  0.1382
 5699SOL    HW228731   0.248   2.241   4.047 -0.5743 -0.5437  1.0796
 5700SOL     OW28732   3.266   0.840   9.929 -0.1719  0.3865  0.1345
 5700SOL    HW128733   3.171   0.848   9.939 -0.4592 -2.1269 -0.6940
 5700SOL    HW228734   3.288   0.885   9.848  1.5374 -1.4466 -0.3913
 5701SOL     OW28735   3.093   1.336   3.199 -0.3773  0.2087  0.1659
 5701SOL    HW128736   3.064   1.417   3.242 -0.7041  0.2775 -0.1825
 5701SOL    HW228737   3.144   1.368   3.125 -0.5602  0.3242  0.0876
 5702SOL     OW28738   1.920   0.257   1.114  0.6197 -0.1034  0.4247
 5702SOL    HW128739   1.875   0.336   1.144 -0.9294 -0.2649 -1.4546
 5702SOL    HW228740   1.901   0.189   1.178  0.2965  0.6321  1.1054
 5703SOL     OW28741   2.433   4.119  15.250 -0.1334  0.2843  0.0281
 5703SOL    HW128742   2.497   4.112  15.321 -2.2102 -1.2944  1.7852
 5703SOL    HW228743   2.482   4.134  15.170  0.9040 -3.1094  0.0014
 5704SOL     OW28744   0.369   2.895   8.624  0.0487 -0.1249 -0.0521
 5704SOL    HW128745   0.391   2.804   8.645  1.5637  0.0361 -0.9625
 5704SOL    HW228746   0.454   2.935   8.646 -0.6989 -0.0567  2.7625
 5705SOL     OW28747   3.329   0.132   5.575 -0.4539 -0.0318 -0.4568
 5705SOL    HW128748   3.332   0.149   5.481 -0.0720  1.7317 -0.1254
 5705SOL    HW228749   3.419   0.155   5.598 -0.5256  1.5738 -1.7575
 5706SOL     OW28750   0.028   4.547   9.311 -0.1502  0.1707 -0.3902
 5706SOL    HW128751   0.090   4.485   9.272 -1.9717 -0.6180 -2.0592
 5706SOL    HW228752   0.074   4.569   9.391  1.3915  1.4812 -1.6346
 5707SOL     OW28753   0.368   3.858  10.362  0.2508 -0.0563 -0.3724
 5707SOL    HW128754   0.412   3.898  10.437  0.4259  1.4858 -1.3004
 5707SOL    HW228755   0.384   3.921  10.292 -0.9098 -0.5966 -1.1244
 5708SOL     OW28756   3.477   3.501   5.244  0.6751  0.1888  0.5102
 5708SOL    HW128757   3.391   3.499   5.288  0.6454 -1.1647  0.3908
 5708SOL    HW228758   3.539   3.503   5.317 -0.1674 -0.2892  1.2478
 5709SOL     OW28759   4.469   0.999   3.388  0.4774 -0.0298  0.3813
 5709SOL    HW128760   4.408   1.044   3.329  1.1420 -0.7375 -0.8305
 5709SOL    HW228761   4.408   0.929   3.411 -1.1289  0.3717 -2.6637
 5710SOL     OW28762   0.204   4.512   3.925 -0.4947 -0.2392 -0.5574
 5710SOL    HW128763   0.296   4.493   3.940 -0.8736 -1.0709  0.7820
 5710SOL    HW228764   0.196   4.592   3.977 -2.4722 -0.7988  0.0058
 5711SOL     OW28765   1.300   0.932   3.266 -0.2489  0.3456 -0.0820
 5711SOL    HW128766   1.248   0.885   3.330  0.3846  1.6812  1.4202
 5711SOL    HW228767   1.279   1.025   3.271  2.5581  0.9717 -0.0338
 5712SOL     OW28768   3.828   0.960   0.025  0.4300 -0.1694 -0.0052
 5712SOL    HW128769   3.898   0.987   0.085 -0.9927  0.8333  1.2350
 5712SOL    HW228770   3.789   0.891   0.078  0.2961 -0.2015 -0.1483
 5713SOL     OW28771   0.487   2.724  13.645 -0.1570  0.4070  0.1683
 5713SOL    HW128772   0.504   2.818  13.632 -2.0191  0.5412 -1.2324
 5713SOL    HW228773   0.550   2.678  13.589 -0.6961 -0.1550  0.0347
 5714SOL     OW28774   2.151   4.247   1.341  0.3287 -0.4227 -0.2388
 5714SOL    HW128775   2.177   4.235   1.432  0.1582 -2.9441 -0.5036
 5714SOL    HW228776   2.173   4.340   1.348  3.1796 -1.0217 -1.0117
 5715SOL     OW28777   2.995   1.717   1.113  0.3845 -0.0379  0.3593
 5715SOL    HW128778   3.013   1.658   1.186  1.5208  2.0239  1.7653
 5715SOL    HW228779   3.038   1.675   1.038 -1.7444 -1.4426 -0.0479
 5716SOL     OW28780   4.013   4.518   0.225  0.2147 -0.0131 -0.0018
 5716SOL    HW128781   4.064   4.437   0.230  0.3522  0.2006  1.9582
 5716SOL    HW228782   4.028   4.542   0.134 -0.4070 -2.1739 -0.6736
 5717SOL     OW28783   4.560   2.348   7.787  0.3666 -0.0802 -0.6563
 5717SOL    HW128784   4.601   2.431   7.810  0.9361 -1.0407  1.7423
 5717SOL    HW228785   4.475   2.376   7.752 -0.9434 -0.4138  2.2390
 5718SOL     OW28786   3.348   1.720   1.359 -0.4260 -0.3502 -0.1514
 5718SOL    HW128787   3.334   1.625   1.360 -0.7873 -0.3043 -0.8898
 5718SOL    HW228788   3.283   1.748   1.423  0.8303  0.8539  0.6144
 5719SOL     OW28789   3.490   0.741   6.726  0.1531 -0.4766  0.2181
 5719SOL    HW128790   3.559   0.774   6.670 -0.2594  0.9300  0.5507
 5719SOL    HW228791   3.417   0.795   6.697  1.4281  1.4073  0.5703
 5720SOL     OW28792   2.222   4.485   1.761  0.0880 -0.4184 -0.5478
 5720SOL    HW128793   2.157   4.549   1.790 -0.7650 -1.3343 -0.4315
 5720SOL    HW228794   2.260   4.457   1.844  1.4378 -2.3022 -1.7801
 5721SOL     OW28795   2.845   3.751  16.247  0.1672 -0.3807 -0.0207
 5721SOL    HW128796   2.780   3.810  16.283 -2.2805 -3.4655  0.6204
 5721SOL    HW228797   2.860   3.684  16.314  0.6028  1.3148  1.5623
 5722SOL     OW28798   0.561   3.080   2.234  0.3889 -0.2951 -0.1358
 5722SOL    HW128799   0.483   3.039   2.196 -0.3827 -0.3770  1.5078
 5722SOL    HW228800   0.565   3.169   2.201 -0.7960 -0.0100  0.4951
 5723SOL     OW28801   0.142   0.436   2.361 -0.1936 -0.6147 -0.7100
 5723SOL    HW128802   0.120   0.489   2.285 -0.2279 -0.0754 -0.3208
 5723SOL    HW228803   0.207   0.374   2.325  0.9759 -0.2211  0.7320
 5724SOL     OW28804   4.672   0.098   3.550  0.0358  0.5134 -0.1503
 5724SOL    HW128805   4.729   0.041   3.499 -0.8232 -0.2195 -0.2899
 5724SOL    HW228806   4.677   0.182   3.504  2.6655  0.0118 -0.8031
 5725SOL     OW28807   1.192   4.621   7.704  0.2913 -0.2023  0.2891
 5725SOL    HW128808   1.185   4.705   7.748  0.3054  0.5417 -1.1522
 5725SOL    HW228809   1.171   4.564   7.778  1.1531 -0.2575  0.4902
 5726SOL     OW28810   4.092   4.325   1.138 -0.2731  0.7642  0.3728
 5726SOL    HW128811   4.160   4.333   1.071 -0.9308  0.1641 -0.3755
 5726SOL    HW228812   4.128   4.373   1.212  1.5851  1.0270 -0.7037
 5727SOL     OW28813   0.899   3.157   7.137 -0.3024  0.7235 -0.2275
 5727SOL    HW128814   0.934   3.075   7.104  0.0176  0.8825 -0.2859
 5727SOL    HW228815   0.965   3.223   7.113  0.2376  0.4323  0.4532
 5728SOL     OW28816   3.921   2.195   3.520  0.4260  0.4437  0.2559
 5728SOL    HW128817   3.915   2.289   3.503  1.0984  0.4894  0.2530
 5728SOL    HW228818   3.940   2.168   3.430  1.7507 -0.5088  0.8210
 5729SOL     OW28819   3.606   2.510  14.310  0.8146 -0.1475 -0.5173
 5729SOL    HW128820   3.528   2.544  14.354  1.4714  1.2782 -0.4650
 5729SOL    HW228821   3.618   2.582  14.248 -0.8873 -1.1120 -1.9929
 5730SOL     OW28822   3.065   2.557   2.784  0.2276 -0.2455  0.1874
 5730SOL    HW128823   2.977   2.545   2.749  0.6625  0.5851 -1.1709
 5730SOL    HW228824   3.059   2.652   2.793 -0.1431 -0.0772 -1.8437
 5731SOL     OW28825   1.220   1.408   5.653  0.1394  0.2601 -0.2288
 5731SOL    HW128826   1.222   1.351   5.730  2.2639 -0.7946 -1.0573
 5731SOL    HW228827   1.146   1.466   5.669  0.9254  0.9416  0.9492
 5732SOL     OW28828   0.912   2.855  17.664  0.1310 -0.0501  0.6438
 5732SOL    HW128829   0.911   2.906  17.745 -2.2029  0.8248  0.0522
 5732SOL    HW228830   0.883   2.767  17.688  0.7316  0.1533  2.1078
 5733SOL     OW28831   0.077   2.520   0.289  0.2324  0.5191  0.1617
 5733SOL    HW128832   4.732   2.563   0.306 -1.3049 -1.3813 -2.4528
 5733SOL    HW228833   0.133   2.596   0.279  2.2655 -1.1857 -1.3558
 5734SOL     OW28834   3.022   1.984   8.603 -0.3719 -0.4729  0.1412
 5734SOL    HW128835   2.982   1.945   8.525  1.6586 -0.2849 -0.9885
 5734SOL    HW228836   3.111   1.988   8.568 -0.3967 -1.5613 -0.0574
 5735SOL     OW28837   2.022   0.493   7.996  0.1053 -0.0035 -0.8010
 5735SOL    HW128838   1.997   0.401   7.987  0.5190 -0.2852  1.0591
 5735SOL    HW228839   2.034   0.501   8.091  0.4121 -0.1864 -0.8269
 5736SOL     OW28840   0.638   3.552   7.991  0.0716  0.5099 -0.0006
 5736SOL    HW128841   0.675   3.534   7.905 -0.5990 -0.0435 -0.1768
 5736SOL    HW228842   0.645   3.647   7.981 -0.4347  0.7315  1.7849
 5737SOL     OW28843   2.831   4.693   3.004  0.2247 -0.1216  0.0772
 5737SOL    HW128844   2.835   4.597   3.009 -2.2582 -0.1872  1.0108
 5737SOL    HW228845   2.913   4.705   3.051 -0.4052 -1.0635  1.4322
 5738SOL     OW28846   0.122   0.874   1.719  0.1408 -0.5944  0.0971
 5738SOL    HW128847   0.213   0.878   1.690 -0.6491 -1.2088 -2.4780
 5738SOL    HW228848   0.088   0.911   1.638  1.2993  1.2629  0.4579
 5739SOL     OW28849   1.647   0.160   6.132  0.9116  0.2587 -0.4995
 5739SOL    HW128850   1.654   0.067   6.110 -0.0171 -0.3945  2.0121
 5739SOL    HW228851   1.589   0.190   6.062  1.1861  0.7333 -0.5172
 5740SOL     OW28852   2.397   0.279   8.793  0.3636 -0.4557 -0.3291
 5740SOL    HW128853   2.446   0.212   8.840  1.2821  3.2428  3.9930
 5740SOL    HW228854   2.342   0.224   8.738  1.8559 -1.0313 -1.2274
 5741SOL     OW28855   1.479   1.130   6.934  0.1229  0.2696  0.4969
 5741SOL    HW128856   1.396   1.158   6.972 -0.9586 -0.8828 -1.0234
 5741SOL    HW228857   1.453   1.056   6.880  0.1798  0.1756  0.5973
 5742SOL     OW28858   3.410   0.042   7.749 -0.7161  0.0998 -0.3875
 5742SOL    HW128859   3.392   4.692   7.721  0.0018 -0.3247  0.4912
 5742SOL    HW228860   3.463   0.032   7.829  1.7168 -1.8134 -2.2364
 5743SOL     OW28861   1.119   4.353   8.859  0.2520 -0.4401  0.1311
 5743SOL    HW128862   1.138   4.270   8.815  0.1056  0.7810 -2.2348
 5743SOL    HW228863   1.117   4.329   8.951  1.8105  1.3656  0.6371
 5744SOL     OW28864   0.169   1.784   9.213  0.4522  0.1173  0.1306
 5744SOL    HW128865   0.248   1.810   9.164  0.2485 -2.3133 -1.4970
 5744SOL    HW228866   0.145   1.866   9.257 -3.2620 -1.8537  1.6948
 5745SOL     OW28867   0.171   0.485   6.794  0.4668 -0.2210  0.0628
 5745SOL    HW128868   0.190   0.507   6.703 -1.7502  0.9795 -0.1244
 5745SOL    HW228869   0.241   0.426   6.822  1.9219  0.6005 -1.8874
 5746SOL     OW28870   1.681   3.568   5.188  0.0651 -0.4658 -0.0432
 5746SOL    HW128871   1.619   3.510   5.143  1.4391 -2.8841  1.2141
 5746SOL    HW228872   1.748   3.506   5.216  0.7161  0.1993 -0.1296
 5747SOL     OW28873   3.526   3.479   4.531  0.1693  0.4387  0.3237
 5747SOL    HW128874   3.574   3.467   4.449  1.2731 -1.3635  1.2346
 5747SOL    HW228875   3.468   3.403   4.534  0.5899  0.1871  2.4550
 5748SOL     OW28876   3.654   4.695   7.367  0.1277 -0.3223  0.1657
 5748SOL    HW128877   3.642   4.602   7.349  1.2532 -0.2084 -1.0755
 5748SOL    HW228878   3.693   4.688   7.454 -2.3844 -0.6504  1.2678
 5749SOL     OW28879   2.190   3.154   1.490  0.2722  0.2612 -0.7073
 5749SOL    HW128880   2.258   3.088   1.477 -2.6302 -2.9505  0.1904
 5749SOL    HW228881   2.152   3.118   1.571  1.1753  1.6495  0.3227
 5750SOL     OW28882   0.348   3.015   5.316  0.1425 -0.2556 -0.4050
 5750SOL    HW128883   0.316   2.986   5.231 -0.7348 -2.4271  0.6839
 5750SOL    HW228884   0.441   2.991   5.316 -0.0608 -0.9856  1.2053
 5751SOL     OW28885   1.026   1.696  17.581 -0.1392  0.0692 -0.4075
 5751SOL    HW128886   1.023   1.729  17.671 -0.6646 -0.1692 -0.3358
 5751SOL    HW228887   1.062   1.772  17.535  0.6955  1.3111  2.3093
 5752SOL     OW28888   0.306   3.719  10.125 -0.3083  0.0622  0.5243
 5752SOL    HW128889   0.331   3.779  10.196  1.1001  0.5990 -0.4218
 5752SOL    HW228890   0.386   3.725  10.073  0.8066 -0.5588  2.1823
 5753SOL     OW28891   2.577   0.986  11.742  0.2153  0.2470  0.3811
 5753SOL    HW128892   2.612   0.928  11.674  0.1390  0.6456  0.0054
 5753SOL    HW228893   2.650   1.046  11.732  0.8525 -1.0852 -2.8159
 5754SOL     OW28894   2.610   1.942   5.216  0.4781 -0.0589 -0.2121
 5754SOL    HW128895   2.623   1.872   5.152 -0.1318 -0.5713  0.2296
 5754SOL    HW228896   2.563   2.010   5.168 -0.3948 -0.2221  0.4130
 5755SOL     OW28897   2.176   0.006  11.480 -0.0198 -0.2110  0.3615
 5755SOL    HW128898   2.142   0.086  11.440  1.6702 -0.0872 -0.8057
 5755SOL    HW228899   2.139   0.011  11.568  1.4056 -0.7638  0.9849
 5756SOL     OW28900   2.963   0.464   1.373  0.1193  0.2610  0.2732
 5756SOL    HW128901   2.882   0.413   1.377 -1.1537  2.2341 -0.2562
 5756SOL    HW228902   3.011   0.443   1.453  1.5566  0.4252 -0.5511
 5757SOL     OW28903   3.840   2.944   2.884  0.4246  0.3206  0.0103
 5757SOL    HW128904   3.847   2.959   2.979 -1.6754 -0.3588  0.2717
 5757SOL    HW228905   3.933   2.953   2.863  0.8990 -1.6642  1.2958
 5758SOL     OW28906   2.266   0.660   6.333 -0.3217 -0.1827 -0.3239
 5758SOL    HW128907   2.247   0.699   6.419 -1.2879 -1.8624  0.2163
 5758SOL    HW228908   2.307   0.577   6.356 -0.5836 -0.2979 -0.2723
 5759SOL     OW28909   2.481   1.134   3.453  0.4892  0.1310 -0.1577
 5759SOL    HW128910   2.435   1.097   3.528  1.6387 -2.2548 -0.6437
 5759SOL    HW228911   2.437   1.107   3.372  0.8920 -0.8251 -0.0462
 5760SOL     OW28912   0.230   2.502   0.002 -0.0143 -0.3914  0.0895
 5760SOL    HW128913   0.168   2.453   0.055 -0.8805 -0.0017 -0.5615
 5760SOL    HW228914   0.310   2.454   0.022 -0.0008  0.1917  1.4503
 5761SOL     OW28915   0.911   3.381  17.524  0.3577 -0.4589 -0.6095
 5761SOL    HW128916   0.818   3.392  17.503 -0.1267  0.9385  2.3206
 5761SOL    HW228917   0.936   3.316  17.458 -1.7355 -1.4142 -0.4435
 5762SOL     OW28918   3.447   1.630   2.614  0.3550 -0.4144 -0.1491
 5762SOL    HW128919   3.371   1.686   2.596 -0.2830 -1.3706 -0.3888
 5762SOL    HW228920   3.517   1.695   2.617  0.1405 -0.1249 -1.7201
 5763SOL     OW28921   2.896   2.100   8.012  0.5263  0.6140 -0.0629
 5763SOL    HW128922   2.941   2.076   8.093 -0.2669  2.3952  0.8964
 5763SOL    HW228923   2.819   2.043   8.003 -0.2222  1.5933  0.1753
 5764SOL     OW28924   4.281   2.196   7.009  0.2023 -0.0677 -0.5701
 5764SOL    HW128925   4.339   2.135   7.054  1.4118  1.5336  0.0001
 5764SOL    HW228926   4.231   2.142   6.948  0.6629 -3.6412  2.2230
 5765SOL     OW28927   3.969   2.538   1.827  0.1901 -0.8619  1.0118
 5765SOL    HW128928   3.876   2.544   1.806  0.8530  0.7971 -1.4256
 5765SOL    HW228929   3.974   2.446   1.853  1.4386 -0.7671  1.1336
 5766SOL     OW28930   2.716   3.600   5.918 -0.9582 -1.1639  0.0957
 5766SOL    HW128931   2.711   3.658   5.995 -1.9822 -1.3296  0.1494
 5766SOL    HW228932   2.762   3.658   5.857  2.4823 -1.3415  2.5233
 5767SOL     OW28933   2.604   0.618   2.651  0.4381 -0.1531  0.2600
 5767SOL    HW128934   2.512   0.639   2.667  0.4157  1.3197 -1.8593
 5767SOL    HW228935   2.621   0.546   2.713 -1.5156 -0.6904  0.1676
 5768SOL     OW28936   3.169   0.533   2.474 -0.3726 -0.3759 -0.0445
 5768SOL    HW128937   3.099   0.595   2.492 -0.1962  0.0347 -0.7592
 5768SOL    HW228938   3.125   0.448   2.476  0.2094 -0.6426  1.8048
 5769SOL     OW28939   2.984   1.709   8.962 -0.4375 -0.4169  0.4660
 5769SOL    HW128940   3.078   1.714   8.945 -0.4029 -1.2865  0.3965
 5769SOL    HW228941   2.945   1.676   8.880 -1.7356 -0.2238  1.0183
 5770SOL     OW28942   4.464   1.400  13.820  0.9637  0.1299 -0.1382
 5770SOL    HW128943   4.453   1.305  13.821 -1.8612  0.4732  0.8705
 5770SOL    HW228944   4.406   1.414  13.745  0.5740  0.2550  0.1848
 5771SOL     OW28945   2.724   0.691  11.302  0.4380 -0.2072  0.4141
 5771SOL    HW128946   2.647   0.634  11.299 -0.0450  0.4243  0.9946
 5771SOL    HW228947   2.773   0.650  11.373  0.5427 -2.0387 -0.6900
 5772SOL     OW28948   1.505   0.554   5.785 -0.3688 -0.0705 -0.2085
 5772SOL    HW128949   1.436   0.592   5.730  1.6327  0.4445 -2.3566
 5772SOL    HW228950   1.549   0.631   5.821 -1.6962  1.2819 -1.4531
 5773SOL     OW28951   3.835   2.189  11.656  0.6838  0.5881 -0.1533
 5773SOL    HW128952   3.880   2.168  11.574 -0.4873  0.7739 -0.8328
 5773SOL    HW228953   3.884   2.141  11.724 -0.0380  1.4822  1.0021
 5774SOL     OW28954   4.296   3.572  14.860  0.0656 -0.0807  0.5080
 5774SOL    HW128955   4.307   3.492  14.912 -0.7942 -0.1232  0.6289
 5774SOL    HW228956   4.384   3.568  14.823 -0.2107  3.0707 -0.4368
 5775SOL     OW28957   2.379   1.770  11.003  0.1538 -0.0026  0.3034
 5775SOL    HW128958   2.384   1.696  10.942 -0.0941  1.2113 -1.1823
 5775SOL    HW228959   2.408   1.839  10.944  0.9006 -1.6066 -1.2197
 5776SOL     OW28960   3.217   1.513   0.919 -0.2876 -0.1460 -0.4097
 5776SOL    HW128961   3.209   1.600   0.957  0.0272 -0.5334  0.5658
 5776SOL    HW228962   3.295   1.474   0.960 -0.8127 -0.2806  0.4493
 5777SOL     OW28963   3.866   2.675   6.570 -0.3173 -0.4687 -0.2641
 5777SOL    HW128964   3.778   2.661   6.604  0.4024  0.0720  1.8312
 5777SOL    HW228965   3.867   2.610   6.500  2.9337 -0.0370 -0.6045
 5778SOL     OW28966   2.531   2.807   4.753 -0.3599 -0.1630 -0.0291
 5778SOL    HW128967   2.496   2.893   4.776 -0.2265  0.3966 -1.9387
 5778SOL    HW228968   2.622   2.813   4.782 -0.4013  2.0743 -0.3664
 5779SOL     OW28969   2.398   3.705   4.569  0.1071  0.6082  0.3167
 5779SOL    HW128970   2.456   3.781   4.560  0.4382 -0.0891 -3.2544
 5779SOL    HW228971   2.391   3.701   4.665  0.4062  0.2992  0.3240
 5780SOL     OW28972   3.952   1.270  14.034 -0.1597  0.1937  0.0195
 5780SOL    HW128973   4.015   1.201  14.055  0.3150  0.6942  0.2483
 5780SOL    HW228974   4.012   1.312  13.972 -1.1394  3.2180  1.1358
 5781SOL     OW28975   4.659   2.231  12.218  0.5455  0.0149 -0.7612
 5781SOL    HW128976   4.733   2.273  12.261  1.3724 -1.4349 -0.7675
 5781SOL    HW228977   4.583   2.287  12.235  0.4580 -0.2045 -0.4509
 5782SOL     OW28978   0.953   1.237   2.786 -0.0155 -0.2989 -0.7856
 5782SOL    HW128979   0.966   1.144   2.769 -1.2062 -0.9139  1.6846
 5782SOL    HW228980   0.928   1.243   2.878 -1.5888 -1.6916 -1.1180
 5783SOL     OW28981   1.224   1.718   7.606  0.0811  0.0562 -0.0334
 5783SOL    HW128982   1.319   1.725   7.593 -0.3961  2.2865 -2.2804
 5783SOL    HW228983   1.196   1.794   7.658 -1.9140 -0.8968  0.2841
 5784SOL     OW28984   2.959   3.120  12.676 -0.5239  0.0486  0.1462
 5784SOL    HW128985   3.025   3.143  12.611 -0.0804 -0.9823  0.2329
 5784SOL    HW228986   3.008   3.136  12.757  1.3229  0.5015 -1.0629
 5785SOL     OW28987   1.148   2.199   5.751 -0.3012 -0.0220  0.2250
 5785SOL    HW128988   1.059   2.187   5.782 -0.6948  1.8605 -0.2086
 5785SOL    HW228989   1.179   2.111   5.729  0.8742  1.0005 -2.2888
 5786SOL     OW28990   0.817   2.311   4.276 -0.0518 -0.2472  0.0733
 5786SOL    HW128991   0.794   2.326   4.185 -1.7940 -1.5121  0.3053
 5786SOL    HW228992   0.823   2.401   4.309  0.7870 -0.9642  1.9231
 5787SOL     OW28993   1.541   2.529   5.271  0.4418 -0.0404 -0.4115
 5787SOL    HW128994   1.579   2.558   5.354 -0.6545  0.1972  0.0101
 5787SOL    HW228995   1.606   2.471   5.231 -2.8619 -3.4461 -0.8628
 5788SOL     OW28996   0.174   4.497   0.280  0.0832  0.7956 -0.1174
 5788SOL    HW128997   0.231   4.573   0.293  0.2934  0.5584  0.3711
 5788SOL    HW228998   0.125   4.520   0.201  1.0749 -0.1866 -1.0141
 5789SOL     OW28999   0.829   2.160   3.844  0.2716  0.2182 -0.1373
 5789SOL    HW129000   0.761   2.115   3.893  2.2363 -2.0377  0.5207
 5789SOL    HW229001   0.823   2.244   3.889 -0.7879  0.8095 -1.3926
 5790SOL     OW29002   2.946   1.329   4.497 -0.1408  0.0550 -0.7198
 5790SOL    HW129003   2.948   1.363   4.407 -0.4272 -0.9618 -1.1136
 5790SOL    HW229004   2.975   1.238   4.484  1.2843  0.7453 -2.4330
 5791SOL     OW29005   3.579   2.753   6.225  0.1442  0.4867 -0.7670
 5791SOL    HW129006   3.557   2.815   6.295 -1.1751  0.9495 -1.6030
 5791SOL    HW229007   3.660   2.793   6.192 -0.6835  1.4588 -1.6235
 5792SOL     OW29008   0.249   0.393   8.900  0.0671 -0.1436  0.3026
 5792SOL    HW129009   0.333   0.411   8.942 -0.5978  0.0046  1.5660
 5792SOL    HW229010   0.200   0.467   8.936  2.8433  0.3578  3.0452
 5793SOL     OW29011   0.976   2.632   2.035 -0.2479  0.3087 -0.4376
 5793SOL    HW129012   0.983   2.707   2.094  0.9658  0.6400 -1.0054
 5793SOL    HW229013   0.976   2.571   2.109  0.2711  1.3048  0.3843
 5794SOL     OW29014   4.196   3.944   3.226 -0.1649  0.0685 -0.2790
 5794SOL    HW129015   4.140   3.984   3.158 -1.5133  1.2224  1.5130
 5794SOL    HW229016   4.265   4.010   3.224  0.8075 -0.9440  0.0831
 5795SOL     OW29017   2.497   4.284  14.451  0.2690  0.2394  0.5118
 5795SOL    HW129018   2.412   4.294  14.408  0.1841  0.0495  0.6361
 5795SOL    HW229019   2.522   4.194  14.431  1.1106  0.7632 -0.8543
 5796SOL     OW29020   1.624   0.491   6.207  0.0122  0.2446  0.4300
 5796SOL    HW129021   1.635   0.428   6.278  1.0433  0.0781  0.1132
 5796SOL    HW229022   1.579   0.558   6.258 -1.8904 -0.4378 -0.3267
 5797SOL     OW29023   0.159   0.346   7.524 -0.0728 -0.2609  0.1426
 5797SOL    HW129024   0.218   0.422   7.527 -0.0312 -0.2853 -0.0633
 5797SOL    HW229025   0.188   0.305   7.442  1.2788  0.7508  0.1082
 5798SOL     OW29026   4.069   3.491   5.222  0.7680 -0.4790  0.3390
 5798SOL    HW129027   3.991   3.540   5.197  2.3483  2.3206  0.8959
 5798SOL    HW229028   4.050   3.403   5.188 -0.0457  0.4276 -1.5071
 5799SOL     OW29029   2.147   0.726   8.939 -0.3875 -0.0683  0.7263
 5799SOL    HW129030   2.237   0.701   8.919 -0.7038 -2.9806  2.9040
 5799SOL    HW229031   2.116   0.648   8.986 -0.6114  0.7636  1.9645
 5800SOL     OW29032   4.215   4.011  11.594  0.1079 -0.0785 -0.3690
 5800SOL    HW129033   4.230   4.100  11.561 -2.6538  0.7234  0.6169
 5800SOL    HW229034   4.260   3.964  11.523  0.1984  0.5562 -0.7335
 5801SOL     OW29035   3.650   0.746   0.879 -0.3583 -0.7793  0.0525
 5801SOL    HW129036   3.576   0.788   0.924  2.1552  4.0520 -0.2508
 5801SOL    HW229037   3.619   0.753   0.789  0.7687 -0.2112 -0.2902
 5802SOL     OW29038   0.480   0.440   7.760  0.2513 -0.5285 -0.7681
 5802SOL    HW129039   0.423   0.401   7.826  2.5605 -0.3875  1.3226
 5802SOL    HW229040   0.466   0.533   7.777 -3.7702 -1.0368 -1.2875
 5803SOL     OW29041   4.260   0.728   1.607  0.2025 -0.3316 -0.0928
 5803SOL    HW129042   4.217   0.720   1.522 -0.4780 -0.2550  0.2464
 5803SOL    HW229043   4.310   0.646   1.608  0.9380  0.1231  1.3067
 5804SOL     OW29044   4.363   2.334   1.590  0.0320  0.0257  0.1194
 5804SOL    HW129045   4.396   2.262   1.535  1.0060 -0.0021  0.7307
 5804SOL    HW229046   4.271   2.311   1.599  0.6915 -0.9704  4.1661
 5805SOL     OW29047   0.537   0.333   2.008  0.7339 -0.2210  0.2322
 5805SOL    HW129048   0.591   0.360   1.934 -0.3784  0.7074 -0.2397
 5805SOL    HW229049   0.527   0.238   1.998  0.1040 -0.2150  0.8008
 5806SOL     OW29050   1.534   3.906   4.258  0.5965 -0.7109 -0.5744
 5806SOL    HW129051   1.625   3.883   4.274  0.4591 -0.7941  0.0921
 5806SOL    HW229052   1.491   3.858   4.329  1.3878 -0.5044  0.0371
 5807SOL     OW29053   4.293   4.608  14.041 -0.3697 -0.4994 -0.2993
 5807SOL    HW129054   4.295   4.520  14.078 -0.5027  0.2643  1.5285
 5807SOL    HW229055   4.330   4.603  13.952  1.2554  1.7543  0.2506
 5808SOL     OW29056   3.362   3.755  10.935  0.2524 -0.2110 -0.1190
 5808SOL    HW129057   3.426   3.700  10.890  0.5560  1.4555 -1.7270
 5808SOL    HW229058   3.407   3.838  10.951 -0.7494  0.5195 -1.0948
 5809SOL     OW29059   0.107   2.774   8.365 -0.0446  0.0294  0.5495
 5809SOL    HW129060   0.140   2.720   8.436  1.9728 -0.6741 -0.9341
 5809SOL    HW229061   0.012   2.760   8.373  0.0305 -0.5876  0.3836
 5810SOL     OW29062   1.816   3.940   2.166  0.1353  0.2770 -0.4705
 5810SOL    HW129063   1.779   3.930   2.078 -0.9434 -0.7889  0.1166
 5810SOL    HW229064   1.818   3.851   2.200  1.0415  0.3517 -0.3061
 5811SOL     OW29065   1.801   0.968  16.110 -0.3757 -0.4250 -0.2363
 5811SOL    HW129066   1.761   1.049  16.079  0.2322 -0.9584 -2.3963
 5811SOL    HW229067   1.800   0.934  16.021  0.0956  0.0309 -0.4159
 5812SOL     OW29068   1.151   1.863  16.121 -0.5647  0.1461  0.3430
 5812SOL    HW129069   1.229   1.904  16.158 -2.2445  1.3481  2.5443
 5812SOL    HW229070   1.132   1.910  16.039  0.7597  0.0647  0.0010
 5813SOL     OW29071   0.680   0.825  12.583 -0.2613 -0.4652 -0.5772
 5813SOL    HW129072   0.626   0.757  12.624  2.1141 -1.9584  0.0785
 5813SOL    HW229073   0.762   0.808  12.630  0.9219 -0.1009 -2.5258
 5814SOL     OW29074   4.597   1.284   6.141  0.5733  0.3611 -0.1365
 5814SOL    HW129075   4.662   1.343   6.103  0.0860  0.9514 -0.0516
 5814SOL    HW229076   4.575   1.232   6.065 -5.2224  0.5934  1.3790
 5815SOL     OW29077   0.016   3.615  12.093 -0.0430 -0.9190  0.6773
 5815SOL    HW129078   0.097   3.569  12.071  0.1582  0.3058 -1.1277
 5815SOL    HW229079   4.702   3.628  12.014  0.1888 -0.1300  0.6486
 5816SOL     OW29080   2.371   1.088   6.872 -0.0785  0.2723 -0.3362
 5816SOL    HW129081   2.358   1.182   6.863 -0.9658  0.1637 -0.1436
 5816SOL    HW229082   2.417   1.085   6.956  0.0731 -0.7586 -0.4596
 5817SOL     OW29083   0.898   4.626   5.161 -0.1800  0.0470  0.1404
 5817SOL    HW129084   0.949   4.657   5.086 -0.0579 -3.3414 -1.1723
 5817SOL    HW229085   0.958   4.653   5.230 -0.5960 -0.6729  0.7861
 5818SOL     OW29086   1.497   2.126   5.577  0.2260  0.2174  0.4118
 5818SOL    HW129087   1.424   2.066   5.592  2.0396 -2.3082 -0.9065
 5818SOL    HW229088   1.570   2.064   5.586 -0.7529 -0.8485  1.0796
 5819SOL     OW29089   2.730   1.549   8.426 -0.0872  0.4334 -0.5004
 5819SOL    HW129090   2.643   1.530   8.462  0.1912  1.3816  0.6753
 5819SOL    HW229091   2.771   1.567   8.511  1.2594  1.1208 -1.2956
 5820SOL     OW29092   3.221   0.145   7.977 -0.5400 -0.2060 -0.2184
 5820SOL    HW129093   3.241   0.068   8.029  0.0191 -0.1836 -0.4012
 5820SOL    HW229094   3.277   0.139   7.900  1.3071  0.0645  1.1028
 5821SOL     OW29095   1.574   2.983  13.133 -0.9325  0.0489  0.1555
 5821SOL    HW129096   1.620   3.067  13.139 -1.4871  0.5752 -2.9731
 5821SOL    HW229097   1.636   2.919  13.099 -0.7445  0.3977 -0.1568
 5822SOL     OW29098   3.987   4.096   7.829 -0.2265  0.3400 -0.0485
 5822SOL    HW129099   3.972   4.030   7.762  0.7880  0.9886 -0.9001
 5822SOL    HW229100   4.082   4.104   7.824  0.0410 -2.8288  0.0931
 5823SOL     OW29101   3.146   4.369   9.018 -0.0365 -0.4322 -0.1686
 5823SOL    HW129102   3.168   4.457   8.987  0.4847 -0.0417  1.3007
 5823SOL    HW229103   3.077   4.403   9.075  0.5043  0.6145 -0.1459
 5824SOL     OW29104   1.830   2.185   6.238  0.3562  0.1517  0.0603
 5824SOL    HW129105   1.891   2.117   6.208 -0.6251 -0.0437 -1.5185
 5824SOL    HW229106   1.803   2.221   6.153  0.5409 -1.2378 -0.5911
 5825SOL     OW29107   1.739   2.780   7.504 -0.4381  0.1848  0.4514
 5825SOL    HW129108   1.696   2.807   7.586 -1.0791 -2.2268  0.9110
 5825SOL    HW229109   1.744   2.866   7.462  0.1538  0.8099  1.7882
 5826SOL     OW29110   3.633   2.827   6.950  0.4333  0.0266  0.0794
 5826SOL    HW129111   3.622   2.863   7.039 -1.0368  1.4178 -0.6572
 5826SOL    HW229112   3.555   2.773   6.938  0.3533  0.5068 -1.5279
 5827SOL     OW29113   2.584   4.313   4.704  0.2556 -0.3497 -0.0037
 5827SOL    HW129114   2.640   4.294   4.629 -0.8682  4.5676 -2.1024
 5827SOL    HW229115   2.506   4.261   4.684 -0.2734  0.6322 -0.4584
 5828SOL     OW29116   4.250   2.616   5.051  0.0267 -0.0623  0.3622
 5828SOL    HW129117   4.237   2.706   5.082 -2.8037  0.4243 -2.2857
 5828SOL    HW229118   4.289   2.642   4.968 -0.0795  0.2485  0.4078
 5829SOL     OW29119   3.462   0.375   8.033 -0.1743  0.2988  0.3507
 5829SOL    HW129120   3.494   0.299   7.984 -1.7853 -0.5391  0.6101
 5829SOL    HW229121   3.431   0.431   7.962  0.3729 -2.0426 -1.7640
 5830SOL     OW29122   1.247   3.172   3.291 -0.1640 -0.2019  0.4888
 5830SOL    HW129123   1.188   3.193   3.219  2.8837  0.6834 -1.7740
 5830SOL    HW229124   1.268   3.257   3.329  0.9066  0.0794 -0.7173
 5831SOL     OW29125   1.825   1.037   3.241 -0.0146 -0.0605  0.3596
 5831SOL    HW129126   1.845   0.960   3.295 -0.0505 -0.3077  0.0234
 5831SOL    HW229127   1.889   1.041   3.170 -1.5107  1.3486 -0.8894
 5832SOL     OW29128   1.251   0.608   3.239 -0.6042  0.4567  0.0196
 5832SOL    HW129129   1.212   0.693   3.222 -0.7929  0.8996  2.5723
 5832SOL    HW229130   1.175   0.558   3.271 -0.3370  0.6029  0.8933
 5833SOL     OW29131   3.767   1.363  13.521  0.1522 -0.5426 -0.0730
 5833SOL    HW129132   3.800   1.308  13.450 -0.0022  0.6494 -1.0519
 5833SOL    HW229133   3.679   1.325  13.532 -1.2909  2.9866  0.3615
 5834SOL     OW29134   1.857   1.954   7.484  0.1184  0.4526  0.2868
 5834SOL    HW129135   1.771   1.911   7.484  0.1459  0.3952 -1.3331
 5834SOL    HW229136   1.835   2.043   7.455  0.2608  0.7738  1.1682
 5835SOL     OW29137   3.491   4.487   2.637  0.2727  0.0884  0.2833
 5835SOL    HW129138   3.476   4.550   2.707  1.0943  0.3383  0.2415
 5835SOL    HW229139   3.574   4.450   2.667 -1.4105 -1.0870  3.4061
 5836SOL     OW29140   2.400   4.567   9.855  0.1459 -0.6428  0.0102
 5836SOL    HW129141   2.394   4.475   9.881 -2.4008  0.0017  1.6900
 5836SOL    HW229142   2.310   4.595   9.842  0.1480 -0.2390  0.8874
 5837SOL     OW29143   2.835   0.886   2.782 -0.1413 -0.2507  0.0899
 5837SOL    HW129144   2.806   0.925   2.699  0.7328 -0.3720 -0.2781
 5837SOL    HW229145   2.754   0.905   2.828  0.6268 -1.2538  1.8325
 5838SOL     OW29146   2.853   0.017   8.384  0.2819  0.2646 -0.1775
 5838SOL    HW129147   2.783   4.709   8.338 -0.4640  0.3542  0.8817
 5838SOL    HW229148   2.921   4.693   8.362  0.6821  0.3286  0.8995
 5839SOL     OW29149   2.619   3.894   4.505 -0.4262  0.0983 -0.2944
 5839SOL    HW129150   2.648   3.919   4.417 -1.3402  0.3387 -0.5317
 5839SOL    HW229151   2.699   3.851   4.537 -0.9341 -0.7773 -0.2070
 5840SOL     OW29152   1.705   0.389  15.404  0.2587  0.1201 -0.8519
 5840SOL    HW129153   1.620   0.432  15.410 -0.3680 -0.6081 -4.8746
 5840SOL    HW229154   1.692   0.294  15.403 -0.7697  0.2544  0.1439
 5841SOL     OW29155   3.573   0.880   1.378 -0.1786  0.0789  0.3263
 5841SOL    HW129156   3.548   0.969   1.353  3.2096  1.1011  0.5358
 5841SOL    HW229157   3.608   0.896   1.466 -1.9126  2.3945  0.5905
 5842SOL     OW29158   3.437   3.265   5.946 -0.7248 -0.1652 -0.3597
 5842SOL    HW129159   3.441   3.336   6.010 -2.3625 -1.2387  0.9516
 5842SOL    HW229160   3.481   3.305   5.871  0.8354  0.2897  0.8045
 5843SOL     OW29161   3.379   1.458  12.802  0.1215  0.0310 -0.2295
 5843SOL    HW129162   3.296   1.441  12.846  0.8147  0.2835  1.2007
 5843SOL    HW229163   3.354   1.506  12.723  0.1585 -2.2460 -1.6083
 5844SOL     OW29164   1.301   3.976   6.024  0.2906 -0.0162 -0.4379
 5844SOL    HW129165   1.233   4.026   5.978  1.5405  1.0285 -1.1333
 5844SOL    HW229166   1.266   3.887   6.030  0.1994  0.0916  0.6177
 5845SOL     OW29167   4.542   0.893   1.980 -0.1091  0.4200 -0.1680
 5845SOL    HW129168   4.576   0.831   1.916 -1.5805 -1.0612  0.4658
 5845SOL    HW229169   4.475   0.938   1.929 -0.4607  1.5744  1.2936
 5846SOL     OW29170   1.536   0.530   8.895 -0.1937 -0.3774 -0.1250
 5846SOL    HW129171   1.619   0.488   8.916  0.9238  0.9137 -2.0094
 5846SOL    HW229172   1.564   0.577   8.816 -1.0739  1.5929  0.7260
 5847SOL     OW29173   1.147   0.852  16.542 -0.2375  0.7876  0.1917
 5847SOL    HW129174   1.081   0.795  16.502 -0.3707 -0.0212  1.5680
 5847SOL    HW229175   1.228   0.805  16.524 -0.2315  0.7050  0.4386
 5848SOL     OW29176   1.792   0.213  17.290  0.3144 -0.4556  0.1549
 5848SOL    HW129177   1.789   0.292  17.343 -0.4231 -1.7324  1.9995
 5848SOL    HW229178   1.727   0.232  17.222  0.7798  1.3414  0.2196
 5849SOL     OW29179   1.133   3.175  17.731  0.0825 -0.1719 -0.1516
 5849SOL    HW129180   1.158   3.258   0.015 -0.4222  1.1539 -2.6027
 5849SOL    HW229181   1.103   3.128   0.054  0.3734 -1.7433 -0.9753
 5850SOL     OW29182   1.759   4.399  10.992 -0.0050 -0.2214  0.3319
 5850SOL    HW129183   1.776   4.346  10.914 -0.2589  1.7545 -1.0676
 5850SOL    HW229184   1.665   4.387  10.994 -0.3051  2.3047  1.5550
 5851SOL     OW29185   3.074   4.558   8.683  0.3539  0.4183 -0.1356
 5851SOL    HW129186   3.121   4.631   8.644 -2.6343  1.8131 -1.1065
 5851SOL    HW229187   3.076   4.589   8.774 -0.2010  0.5781 -0.1793
 5852SOL     OW29188   0.988   0.101   7.881  0.0216  0.1441  0.3121
 5852SOL    HW129189   0.953   0.012   7.887  2.8381 -1.1293 -1.7335
 5852SOL    HW229190   0.954   0.132   7.797 -2.5632  1.4495  1.8544
 5853SOL     OW29191   1.648   3.509   4.333 -0.5279 -0.0074  0.1939
 5853SOL    HW129192   1.614   3.561   4.406  2.8458  0.0763  1.7041
 5853SOL    HW229193   1.742   3.523   4.341 -0.7078  1.0162  0.6244
 5854SOL     OW29194   1.398   1.164   9.221 -0.5595 -0.0818 -0.2438
 5854SOL    HW129195   1.404   1.139   9.314 -0.7833  1.4610  0.1908
 5854SOL    HW229196   1.312   1.123   9.212 -0.9184  1.5743 -4.0170
 5855SOL     OW29197   1.039   3.401  16.415 -0.5393  0.2169  0.3609
 5855SOL    HW129198   1.123   3.374  16.378 -0.5967  2.4736 -1.4134
 5855SOL    HW229199   1.002   3.319  16.448 -2.9597  2.5125  3.4293
 5856SOL     OW29200   4.533   2.536  14.770 -0.6384 -0.2467 -0.0398
 5856SOL    HW129201   4.542   2.510  14.679 -1.5941 -0.0813 -0.1750
 5856SOL    HW229202   4.453   2.488  14.788 -0.8578  0.1948  0.1731
 5857SOL     OW29203   2.781   1.997  16.643  0.6407  0.5307  0.2185
 5857SOL    HW129204   2.862   2.004  16.694 -0.1902 -0.0489  1.5958
 5857SOL    HW229205   2.811   1.994  16.552  0.2478 -1.6210  0.1683
 5858SOL     OW29206   2.936   4.468   8.042  0.0233  0.0093  0.7308
 5858SOL    HW129207   2.969   4.383   8.014 -2.1283 -1.0804  1.4924
 5858SOL    HW229208   2.962   4.529   7.973 -0.6808 -2.6194 -1.8650
 5859SOL     OW29209   1.357   4.695   6.402  0.0896  0.2447 -0.4708
 5859SOL    HW129210   1.320   4.687   6.490  0.4024 -0.7619 -0.4399
 5859SOL    HW229211   1.377   0.049   6.417 -0.5903  0.1489  1.0201
 5860SOL     OW29212   2.421   2.020   8.188 -0.1034  0.2458 -0.2935
 5860SOL    HW129213   2.391   1.958   8.254 -0.9716 -0.8056 -1.6562
 5860SOL    HW229214   2.394   2.102   8.229 -0.4581 -0.2399  0.4353
 5861SOL     OW29215   3.994   1.933   6.097  0.2812  0.0835 -0.3181
 5861SOL    HW129216   3.935   1.930   6.022 -0.9934 -0.2139  0.6795
 5861SOL    HW229217   4.050   1.859   6.074  0.4927  0.2238 -0.2473
 5862SOL     OW29218   1.812   3.956   9.439  0.1223 -0.3112  0.2771
 5862SOL    HW129219   1.748   3.978   9.371 -4.5024 -4.6010  3.2523
 5862SOL    HW229220   1.758   3.948   9.518 -0.7079 -0.0201 -0.2510
 5863SOL     OW29221   3.939   2.987   5.865  0.0814  0.6230  0.3886
 5863SOL    HW129222   4.034   2.996   5.856  0.4243 -1.9014  1.4521
 5863SOL    HW229223   3.907   3.077   5.853 -2.0184 -0.4184 -1.9218
 5864SOL     OW29224   2.933   2.756   3.024 -0.2306  0.2208  0.3332
 5864SOL    HW129225   2.976   2.729   3.105  1.2598 -1.0714 -0.8955
 5864SOL    HW229226   2.891   2.833   3.062  2.8801  0.7992  2.5423
 5865SOL     OW29227   1.269   2.449   5.757  0.5034  0.2231  0.3575
 5865SOL    HW129228   1.253   2.361   5.792  4.3440 -0.7691 -0.3553
 5865SOL    HW229229   1.251   2.429   5.665  1.1035  0.4659  0.1826
 5866SOL     OW29230   3.988   1.719   4.402 -0.2122  0.4969 -0.0946
 5866SOL    HW129231   3.937   1.787   4.360  1.0439  1.8505  0.5490
 5866SOL    HW229232   3.958   1.721   4.493 -0.6981  1.9316 -0.2988
 5867SOL     OW29233   0.231   1.279  16.806  0.7729  0.0826  0.5237
 5867SOL    HW129234   0.320   1.295  16.838  0.6020  0.8750  0.5965
 5867SOL    HW229235   0.232   1.362  16.759 -3.0919 -1.8058 -2.9076
 5868SOL     OW29236   3.494   2.483   1.376 -0.4973  0.1937 -0.2198
 5868SOL    HW129237   3.578   2.457   1.339  0.8949  1.8230  1.8178
 5868SOL    HW229238   3.441   2.422   1.325 -0.4430  1.4643 -1.7977
 5869SOL     OW29239   3.639   0.016   1.314  0.0987 -0.1432 -0.4761
 5869SOL    HW129240   3.611   4.685   1.255 -1.0266 -0.8088  0.8597
 5869SOL    HW229241   3.694   0.062   1.250  0.0970  1.2977  0.5561
 5870SOL     OW29242   0.078   1.702  12.364 -0.0822  0.2996 -0.0595
 5870SOL    HW129243   0.040   1.770  12.309 -1.7080  0.2651  1.0104
 5870SOL    HW229244   0.096   1.749  12.445 -0.6152 -0.0044  0.2361
 5871SOL     OW29245   0.463   3.087   4.306  0.3875  0.4108  0.3071
 5871SOL    HW129246   0.493   3.168   4.347 -0.9103  0.3915  1.2835
 5871SOL    HW229247   0.414   3.054   4.381 -1.1053  1.1484 -0.3466
 5872SOL     OW29248   4.557   2.707  15.951  0.3635 -0.0630  0.5412
 5872SOL    HW129249   4.593   2.709  16.040 -2.0654 -3.1571  1.5829
 5872SOL    HW229250   4.521   2.619  15.963  1.0258 -0.7003 -2.2185
 5873SOL     OW29251   4.198   0.659   4.081  0.5340  0.3202  0.2095
 5873SOL    HW129252   4.135   0.682   4.012  1.7503  0.1215 -0.9631
 5873SOL    HW229253   4.233   0.742   4.115 -0.8375  0.2056  1.9297
 5874SOL     OW29254   1.624   2.892   2.961 -0.2845  0.1785 -0.2172
 5874SOL    HW129255   1.646   2.931   2.877  0.6748 -0.1479 -0.1175
 5874SOL    HW229256   1.531   2.870   2.950  0.1855 -1.4673 -0.9194
 5875SOL     OW29257   2.238   3.225   8.108 -0.1740 -0.0924  0.0059
 5875SOL    HW129258   2.145   3.237   8.127  0.0101 -1.6711  1.8690
 5875SOL    HW229259   2.256   3.236   8.201 -0.3261 -3.4336  0.4460
 5876SOL     OW29260   4.159   0.386   1.740  0.3807  0.5517  0.0737
 5876SOL    HW129261   4.070   0.365   1.770  0.1019  2.8381  0.8922
 5876SOL    HW229262   4.211   0.369   1.819 -0.1544 -0.4755  0.1931
 5877SOL     OW29263   4.505   2.468   2.491  0.9690 -0.0556  0.3338
 5877SOL    HW129264   4.520   2.542   2.551 -2.8271  2.5018 -1.9161
 5877SOL    HW229265   4.493   2.502   2.402  2.4428  2.0245  0.9233
 5878SOL     OW29266   0.819   4.074  13.715  0.5961 -0.1222 -0.5725
 5878SOL    HW129267   0.836   4.000  13.774 -1.5444  1.5121  2.0924
 5878SOL    HW229268   0.903   4.121  13.713  0.2092  0.5152 -1.8474
 5879SOL     OW29269   3.544   2.942   5.605  0.0037  0.2612 -1.0926
 5879SOL    HW129270   3.552   2.956   5.699  1.2135 -4.1523 -0.5127
 5879SOL    HW229271   3.450   2.962   5.606 -0.0356 -0.2140  3.0226
 5880SOL     OW29272   1.385   1.361   1.189  0.4819  0.0034 -0.0910
 5880SOL    HW129273   1.452   1.313   1.238  2.1002  2.0877 -0.2511
 5880SOL    HW229274   1.379   1.309   1.109  2.2219 -0.6687  0.2070
 5881SOL     OW29275   4.464   2.746  12.895  0.0172 -0.2319 -0.0319
 5881SOL    HW129276   4.543   2.798  12.907 -1.2834  1.5786  0.6654
 5881SOL    HW229277   4.481   2.698  12.976 -0.7516 -2.3709 -1.1357
 5882SOL     OW29278   1.191   1.695   9.563  0.3985 -0.2715 -0.4239
 5882SOL    HW129279   1.259   1.679   9.498  1.8418  2.2982  0.4597
 5882SOL    HW229280   1.113   1.720   9.513  0.1183  0.8889  0.5836
 5883SOL     OW29281   1.690   4.274   3.736 -1.0225 -0.5188 -0.2378
 5883SOL    HW129282   1.678   4.346   3.675  1.4725  0.6880  0.7295
 5883SOL    HW229283   1.599   4.264   3.764 -1.2819 -0.1504 -0.9697
 5884SOL     OW29284   0.735   1.951   3.465 -0.6219  0.2818  0.1015
 5884SOL    HW129285   0.734   1.900   3.384 -0.2928  1.3740 -0.5845
 5884SOL    HW229286   0.713   2.040   3.439 -0.2015 -0.0417 -1.3251
 5885SOL     OW29287   1.733   4.477   4.709 -0.1306 -0.1362  0.1603
 5885SOL    HW129288   1.696   4.403   4.755 -1.1293  0.7856  0.8276
 5885SOL    HW229289   1.776   4.515   4.786  1.1703  0.4549 -0.8560
 5886SOL     OW29290   3.797   2.041   1.967  0.7089  0.0071  0.3714
 5886SOL    HW129291   3.778   1.961   2.017 -0.7113  0.4265  0.5148
 5886SOL    HW229292   3.713   2.086   1.977 -0.1526 -1.4520 -0.3581
 5887SOL     OW29293   0.487   1.262   2.196  0.0649 -0.5208  0.1519
 5887SOL    HW129294   0.562   1.238   2.250 -1.2368  1.5686  2.8645
 5887SOL    HW229295   0.512   1.351   2.175 -3.6341  0.3437 -0.5806
 5888SOL     OW29296   1.814   1.518   6.951 -0.2253 -0.2220 -0.0349
 5888SOL    HW129297   1.841   1.598   6.995 -0.4941 -0.5288  0.6869
 5888SOL    HW229298   1.892   1.462   6.957  1.5892  2.7192  3.4623
 5889SOL     OW29299   0.262   0.657   9.287 -0.5293 -0.7651 -0.0633
 5889SOL    HW129300   0.306   0.709   9.354 -0.8476 -0.5035 -0.0618
 5889SOL    HW229301   0.333   0.655   9.222 -1.2313 -0.4849 -0.8318
 5890SOL     OW29302   3.717   3.959   4.176 -0.3911  0.7905 -0.3131
 5890SOL    HW129303   3.630   3.926   4.153  0.7554 -1.9671 -0.6557
 5890SOL    HW229304   3.753   3.984   4.092 -1.4749 -2.4881 -1.7732
 5891SOL     OW29305   2.442   2.426   8.797 -0.2453 -0.2947  0.0106
 5891SOL    HW129306   2.468   2.335   8.785  1.0550  0.1424 -0.5420
 5891SOL    HW229307   2.514   2.461   8.849  0.1257  0.1743 -0.8215
 5892SOL     OW29308   3.832   3.164   7.132 -0.4651 -0.2967 -0.1828
 5892SOL    HW129309   3.849   3.086   7.184  0.4247 -0.5115 -0.8047
 5892SOL    HW229310   3.777   3.211   7.195 -1.3257 -2.5730  0.7610
 5893SOL     OW29311   2.920   3.672   1.826  0.0418 -0.2824 -0.1942
 5893SOL    HW129312   3.004   3.662   1.870  0.6934 -0.3537 -1.4713
 5893SOL    HW229313   2.860   3.667   1.901 -0.3946  0.6817 -0.4827
 5894SOL     OW29314   1.920   0.214   5.571 -0.3202  0.1246 -0.2677
 5894SOL    HW129315   1.945   0.304   5.588 -3.1784  0.7970  0.3158
 5894SOL    HW229316   1.965   0.169   5.642 -3.1395 -1.6537  0.3739
 5895SOL     OW29317   0.208   0.208   0.052  0.0625 -0.1729 -0.0298
 5895SOL    HW129318   0.189   0.292   0.094 -0.7557  0.2687 -1.2856
 5895SOL    HW229319   0.224   0.233  17.716 -1.9869 -1.5383 -0.7845
 5896SOL     OW29320   2.811   0.571   6.418  0.1156 -0.2942 -0.0310
 5896SOL    HW129321   2.805   0.635   6.489  0.9549  0.0024 -0.2322
 5896SOL    HW229322   2.869   0.506   6.457 -0.1186  0.7860  2.0726
 5897SOL     OW29323   1.303   4.074   8.050  0.3324 -0.4774  0.2881
 5897SOL    HW129324   1.292   3.978   8.050  1.2703 -0.6058  2.6076
 5897SOL    HW229325   1.309   4.097   7.958 -1.5828 -1.3376 -0.0630
 5898SOL     OW29326   4.178   0.737   0.725  0.2566 -0.1509  0.3955
 5898SOL    HW129327   4.274   0.736   0.734  0.4215 -1.8359 -1.7007
 5898SOL    HW229328   4.153   0.817   0.678 -1.7474 -2.4380 -2.3684
 5899SOL     OW29329   4.396   1.481   3.697  0.3139  0.0576  0.4800
 5899SOL    HW129330   4.451   1.464   3.774 -0.2224 -2.8291  0.2230
 5899SOL    HW229331   4.384   1.575   3.705  2.8066  0.3837  0.3456
 5900SOL     OW29332   1.008   1.653  15.601 -0.6108 -0.0300 -0.0370
 5900SOL    HW129333   1.052   1.704  15.669 -0.4810 -2.0378  1.4087
 5900SOL    HW229334   0.983   1.580  15.659  2.0609 -0.6490  0.3260
 5901SOL     OW29335   0.650   2.200  12.911 -0.5790  0.4130  0.4951
 5901SOL    HW129336   0.568   2.192  12.863  0.6873 -1.6605 -1.3181
 5901SOL    HW229337   0.631   2.141  12.983 -0.8001 -1.5159 -1.1340
 5902SOL     OW29338   3.038   1.605   2.690 -0.8868 -0.2006  0.1380
 5902SOL    HW129339   3.109   1.647   2.739 -1.8110  0.1245  1.1861
 5902SOL    HW229340   3.040   1.519   2.731  1.6900 -1.6834 -3.1192
 5903SOL     OW29341   0.521   4.242   7.067 -0.0868 -0.5820  0.3694
 5903SOL    HW129342   0.543   4.310   7.130  0.8482 -0.0523 -0.5126
 5903SOL    HW229343   0.490   4.171   7.123  0.0398 -1.6713 -0.9385
 5904SOL     OW29344   3.794   2.578   6.118  0.3005 -0.5205  0.3107
 5904SOL    HW129345   3.760   2.638   6.051 -0.2786 -1.2814 -0.0781
 5904SOL    HW229346   3.708   2.543   6.143 -0.0361 -0.8493 -1.2467
 5905SOL     OW29347   2.197   2.998   9.473 -0.0385 -0.2423 -0.2492
 5905SOL    HW129348   2.185   3.052   9.395  1.7422 -1.7862 -1.5898
 5905SOL    HW229349   2.222   2.912   9.440 -2.1723  0.0866 -2.7979
 5906SOL     OW29350   1.934   3.032   6.892  0.4161 -0.1965  0.4726
 5906SOL    HW129351   1.977   2.995   6.970 -1.0087 -1.3099  0.7528
 5906SOL    HW229352   2.006   3.031   6.830 -0.1988  1.3875 -0.2578
 5907SOL     OW29353   0.235   2.485   5.344 -0.1345  0.2989 -0.0521
 5907SOL    HW129354   0.180   2.524   5.276 -1.4757 -0.3965  0.6302
 5907SOL    HW229355   0.310   2.542   5.333  1.2877 -1.1446  2.0634
 5908SOL     OW29356   4.499   3.463   5.640 -0.4975  0.2146 -0.5080
 5908SOL    HW129357   4.529   3.550   5.614 -1.0995  1.0380  1.5022
 5908SOL    HW229358   4.441   3.491   5.711  0.5371  0.6510  0.1753
 5909SOL     OW29359   0.755   2.636   4.134  0.7506 -0.5501 -0.0487
 5909SOL    HW129360   0.726   2.721   4.101  1.0919 -0.3062  0.2790
 5909SOL    HW229361   0.847   2.640   4.107  0.9329  0.0729  0.6697
 5910SOL     OW29362   3.569   2.339   2.972 -0.0547 -0.0014 -0.2001
 5910SOL    HW129363   3.600   2.387   2.895  0.7660 -0.7284 -0.3161
 5910SOL    HW229364   3.650   2.325   3.022 -0.6448 -0.1289  0.7221
 5911SOL     OW29365   3.294   3.513   6.121  0.0613 -0.2744  0.2911
 5911SOL    HW129366   3.252   3.438   6.161  2.1560  0.0506  3.1234
 5911SOL    HW229367   3.313   3.565   6.200 -1.4644  1.8820 -0.7426
 5912SOL     OW29368   1.250   3.196  17.443 -0.7794 -0.4527 -0.0721
 5912SOL    HW129369   1.233   3.189  17.537 -1.5713 -1.6836 -0.3065
 5912SOL    HW229370   1.342   3.170  17.446 -0.8193 -0.7385 -1.7819
 5913SOL     OW29371   0.550   3.480  11.258 -0.0108  0.4172  0.0352
 5913SOL    HW129372   0.636   3.452  11.226 -1.2154 -0.7543 -2.1305
 5913SOL    HW229373   0.546   3.574  11.242  1.7899  0.3907 -0.5844
 5914SOL     OW29374   1.481   2.385   1.472 -0.3640 -0.3277 -0.2687
 5914SOL    HW129375   1.430   2.394   1.392 -0.1455 -1.6785 -0.5622
 5914SOL    HW229376   1.564   2.416   1.436  0.2917 -1.1632  0.5351
 5915SOL     OW29377   1.455   1.687   4.750 -1.0553  0.3023 -0.0793
 5915SOL    HW129378   1.362   1.665   4.761 -1.2200  0.7029 -0.6253
 5915SOL    HW229379   1.450   1.770   4.798  0.9890 -0.0830  0.7975
 5916SOL     OW29380   2.503   3.810   7.022 -0.4751 -0.5144 -0.1049
 5916SOL    HW129381   2.424   3.849   7.061 -2.9010 -2.9274 -2.5633
 5916SOL    HW229382   2.468   3.752   6.955 -0.7180  0.6338 -0.9809
 5917SOL     OW29383   2.745   1.184  17.306 -0.2400  0.2105 -0.5999
 5917SOL    HW129384   2.712   1.109  17.257 -1.2990  0.3547 -0.1018
 5917SOL    HW229385   2.670   1.234  17.340  2.2008  1.5827  2.8133
 5918SOL     OW29386   3.914   2.469   3.482  0.0082 -0.4812  0.3269
 5918SOL    HW129387   3.894   2.512   3.565 -0.9148  0.4374 -0.3810
 5918SOL    HW229388   3.961   2.530   3.425  4.0846 -2.6541  1.3327
 5919SOL     OW29389   4.113   0.925  14.821  0.1177  0.5240 -0.0436
 5919SOL    HW129390   4.195   0.970  14.840  0.1443  0.7976 -0.7810
 5919SOL    HW229391   4.054   0.966  14.884 -1.4939 -0.6928 -0.7442
 5920SOL     OW29392   1.525   1.235   8.710  0.1473  0.5851 -0.0400
 5920SOL    HW129393   1.547   1.144   8.731 -0.6014 -0.1816 -2.5992
 5920SOL    HW229394   1.471   1.226   8.631  0.7110  0.3092 -0.3893
 5921SOL     OW29395   0.218   3.429  11.875  0.1049  0.4309 -0.0884
 5921SOL    HW129396   0.226   3.434  11.971  1.3714  1.3587 -0.2424
 5921SOL    HW229397   0.307   3.404  11.850  0.0722 -0.5572  0.7625
 5922SOL     OW29398   3.138   2.668   7.619 -0.2771 -0.0530 -0.1149
 5922SOL    HW129399   3.187   2.597   7.661 -0.8715  1.3623  3.0029
 5922SOL    HW229400   3.145   2.634   7.530 -0.1487 -0.0135 -0.1192
 5923SOL     OW29401   1.849   4.622  13.120 -0.3794  0.2271 -0.3817
 5923SOL    HW129402   1.825   4.641  13.210  1.4528  1.1788 -0.0839
 5923SOL    HW229403   1.808   4.537  13.102 -1.0335  0.6345 -0.8012
 5924SOL     OW29404   2.763   1.017   2.549 -0.3684  0.7444 -0.0823
 5924SOL    HW129405   2.749   1.112   2.548 -0.5880  0.7189  0.6893
 5924SOL    HW229406   2.720   0.995   2.466  0.2604 -2.2071  0.3942
 5925SOL     OW29407   4.336   2.681  12.168 -0.4718  0.2332 -0.2952
 5925SOL    HW129408   4.334   2.772  12.198 -1.5494  0.4348 -0.9955
 5925SOL    HW229409   4.284   2.643  12.239 -0.9550 -0.6508 -1.1178
 5926SOL     OW29410   0.557   0.120   3.596 -0.4655  0.2976  0.3392
 5926SOL    HW129411   0.615   0.101   3.523 -1.2226 -0.7999  0.0195
 5926SOL    HW229412   0.514   0.037   3.615  1.0081 -0.5385 -0.0022
 5927SOL     OW29413   0.443   0.681   3.219 -0.1687  0.1964  0.2750
 5927SOL    HW129414   0.448   0.762   3.271 -1.2102  0.4690 -0.0558
 5927SOL    HW229415   0.522   0.640   3.256 -1.1617  0.5151  2.7912
 5928SOL     OW29416   1.166   1.511   2.063  0.0296  0.3326 -0.0735
 5928SOL    HW129417   1.100   1.551   2.119 -2.4449 -0.9878 -2.0656
 5928SOL    HW229418   1.136   1.534   1.975 -1.0536  0.3592  0.3024
 5929SOL     OW29419   2.638   0.352   6.684  0.0547  0.6397 -0.0181
 5929SOL    HW129420   2.704   0.349   6.753 -0.8411  0.6971  0.8389
 5929SOL    HW229421   2.600   0.436   6.710  1.4452  0.6329  2.0181
 5930SOL     OW29422   2.404   3.546  16.658  0.0767  0.3504  0.2564
 5930SOL    HW129423   2.318   3.589  16.654 -0.3677 -0.4285  1.4036
 5930SOL    HW229424   2.463   3.603  16.608  2.3307  0.5139  3.0978
 5931SOL     OW29425   0.382   1.099   6.990 -0.2204 -0.2227  0.1011
 5931SOL    HW129426   0.377   1.072   6.898  0.4366 -0.9944  0.3008
 5931SOL    HW229427   0.324   1.175   6.988 -0.7969 -0.6672 -0.0940
 5932SOL     OW29428   1.352   2.585   2.253  0.4982  0.3966 -0.3213
 5932SOL    HW129429   1.293   2.533   2.308  2.4732 -0.9583  0.5338
 5932SOL    HW229430   1.412   2.513   2.233 -0.3234 -0.5249  0.5012
 5933SOL     OW29431   0.203   0.433   1.514 -0.2620 -0.0564 -0.2939
 5933SOL    HW129432   0.180   0.355   1.463  0.3857  0.7996 -1.8739
 5933SOL    HW229433   0.185   0.424   1.608 -3.5403 -1.1637 -1.0414
 5934SOL     OW29434   1.108   0.444   4.308 -0.1119 -0.1511 -0.3149
 5934SOL    HW129435   1.058   0.515   4.267 -0.2951  0.0012  0.1713
 5934SOL    HW229436   1.197   0.474   4.325  0.4378 -2.5998  1.2182
 5935SOL     OW29437   0.307   3.362   0.694 -0.2006 -0.2333 -0.8670
 5935SOL    HW129438   0.290   3.363   0.788 -1.6181  0.1408 -1.1280
 5935SOL    HW229439   0.224   3.403   0.670  0.5247 -0.3377 -3.5812
 5936SOL     OW29440   0.435   1.055   0.934  0.7706  0.3021  0.2473
 5936SOL    HW129441   0.510   1.050   0.993 -1.1874 -1.1676  2.6361
 5936SOL    HW229442   0.443   0.965   0.900 -0.8069  1.0272 -2.0821
 5937SOL     OW29443   3.196   4.256   3.251  0.2667  0.1394 -0.0710
 5937SOL    HW129444   3.226   4.278   3.339  0.2481 -0.6218  0.1269
 5937SOL    HW229445   3.200   4.346   3.219  1.7942  0.6284  1.5291
 5938SOL     OW29446   3.245   0.403   1.202  0.0369  0.0682  0.9038
 5938SOL    HW129447   3.289   0.320   1.181 -0.8705  0.3314 -2.0937
 5938SOL    HW229448   3.152   0.382   1.187 -0.1770  2.0176 -0.4907
 5939SOL     OW29449   4.580   1.698  13.325 -0.1553 -0.5917 -0.1996
 5939SOL    HW129450   4.514   1.634  13.299 -0.1156 -1.0682  0.8908
 5939SOL    HW229451   4.577   1.703  13.420  0.0462 -1.2868 -0.1600
 5940SOL     OW29452   1.989   3.402  10.005  0.3829  1.6036  0.3102
 5940SOL    HW129453   2.055   3.341  10.038  0.2502  1.1492 -0.2703
 5940SOL    HW229454   2.036   3.433   9.928  0.1250 -2.4027 -1.4630
 5941SOL     OW29455   3.891   2.234   4.526  0.1699  0.2427  0.0030
 5941SOL    HW129456   3.941   2.201   4.451  1.3388  2.9165 -0.3989
 5941SOL    HW229457   3.941   2.314   4.540  0.1805  0.2819 -0.2564
 5942SOL     OW29458   4.664   2.293   3.879  0.3587  0.1029  0.2145
 5942SOL    HW129459   4.655   2.318   3.787 -0.6333  1.3055  0.6464
 5942SOL    HW229460   0.020   2.292   3.894  0.5689 -0.6640 -1.1047
 5943SOL     OW29461   2.073   0.004   9.587  0.5037 -0.0234  0.2443
 5943SOL    HW129462   1.990   0.052   9.581 -1.1413 -2.7405  1.6457
 5943SOL    HW229463   2.101   0.030   9.499  2.1531  0.9830  1.0632
 5944SOL     OW29464   0.387   3.680   9.290  0.2567  0.2574  0.2261
 5944SOL    HW129465   0.477   3.658   9.266  0.7165 -0.9660  3.0988
 5944SOL    HW229466   0.398   3.771   9.318  0.5059  0.0662  0.7430
 5945SOL     OW29467   3.187   1.104   4.484  0.0481 -0.1152 -0.4799
 5945SOL    HW129468   3.131   1.042   4.438 -3.2022  0.6262  2.5062
 5945SOL    HW229469   3.262   1.114   4.426  0.7119  1.0963  0.5863
 5946SOL     OW29470   0.008   4.065   6.242  0.0215  0.4915  0.0529
 5946SOL    HW129471   0.013   4.151   6.285 -1.2112  0.9878 -0.7972
 5946SOL    HW229472   0.034   4.012   6.317  0.4859 -1.3942 -1.4424
 5947SOL     OW29473   4.445   0.440   3.195  0.4783  0.5580 -0.5370
 5947SOL    HW129474   4.534   0.471   3.208 -0.2530  2.1740  0.5833
 5947SOL    HW229475   4.459   0.352   3.159  2.0903 -0.2609  2.1721
 5948SOL     OW29476   4.178   4.125   7.394 -0.6215  0.1180 -0.0452
 5948SOL    HW129477   4.208   4.037   7.373  2.8855  1.3827 -0.3563
 5948SOL    HW229478   4.237   4.187   7.351  0.1253 -2.5898 -2.8905
 5949SOL     OW29479   3.774   1.131  17.281  0.2393 -0.1959  0.4894
 5949SOL    HW129480   3.770   1.220  17.248 -1.6955 -0.0554  1.1388
 5949SOL    HW229481   3.823   1.151  17.361  1.1462  1.4901 -0.4872
 5950SOL     OW29482   3.777   2.278   8.582  0.1572  0.0670 -0.5493
 5950SOL    HW129483   3.837   2.286   8.657  0.5367 -1.0155 -0.7423
 5950SOL    HW229484   3.839   2.294   8.510 -1.4249  2.8144 -1.2995
 5951SOL     OW29485   4.687   1.609   3.709  0.2226  0.3378  0.3586
 5951SOL    HW129486   0.009   1.657   3.653 -0.3038 -0.3475 -0.8094
 5951SOL    HW229487   4.614   1.670   3.721  0.6227  1.1425 -1.1887
 5952SOL     OW29488   2.703   3.657   2.847  0.2383  0.4210 -0.3242
 5952SOL    HW129489   2.778   3.608   2.882 -0.7800  0.3233  1.7517
 5952SOL    HW229490   2.715   3.742   2.891  0.2689 -0.1891  0.8602
 5953SOL     OW29491   2.429   4.378   8.843  0.0556 -0.1848 -0.4742
 5953SOL    HW129492   2.415   4.290   8.878  1.3075 -0.0396  0.3860
 5953SOL    HW229493   2.524   4.389   8.841 -0.0758  1.6106  3.0663
 5954SOL     OW29494   1.749   0.877   2.346  0.9368 -0.4123  0.0050
 5954SOL    HW129495   1.681   0.813   2.370 -1.6134  2.2939  0.0554
 5954SOL    HW229496   1.695   0.941   2.300  0.4992  0.2041  1.3718
 5955SOL     OW29497   1.230   3.456   6.172  0.3464 -0.3404 -0.6601
 5955SOL    HW129498   1.178   3.537   6.172 -0.0895 -0.6254  0.7769
 5955SOL    HW229499   1.204   3.426   6.085 -1.4458  3.0858 -1.3052
 5956SOL     OW29500   4.262   0.573   0.469  0.2835  0.9358 -0.0473
 5956SOL    HW129501   4.171   0.602   0.458 -0.5519 -1.0011  1.8366
 5956SOL    HW229502   4.264   0.526   0.552  0.7528 -0.4064 -0.8172
 5957SOL     OW29503   2.941   0.036   5.970  0.6892 -0.4277 -0.5686
 5957SOL    HW129504   2.996   0.099   6.016 -1.3494 -0.2146  1.5476
 5957SOL    HW229505   2.960   0.060   5.879 -1.4175  0.7298 -0.6964
 5958SOL     OW29506   2.057   3.143  12.221 -0.0858 -0.3132 -0.4697
 5958SOL    HW129507   2.098   3.076  12.277  0.7564  0.9359  0.4136
 5958SOL    HW229508   2.127   3.208  12.212  0.1554 -0.5278 -0.1542
 5959SOL     OW29509   0.376   0.864   3.404  0.1784 -0.1120 -0.2296
 5959SOL    HW129510   0.323   0.944   3.403 -1.9427 -1.5192  0.3284
 5959SOL    HW229511   0.389   0.842   3.497  0.8167  3.6256  0.5882
 5960SOL     OW29512   2.129   4.445   9.530  0.9274  0.0329 -0.0002
 5960SOL    HW129513   2.044   4.420   9.495  1.3208  0.5627 -1.3446
 5960SOL    HW229514   2.096   4.533   9.544  2.7252  0.7550 -0.3208
 5961SOL     OW29515   0.164   0.006  14.617  0.3075 -0.2036  0.0172
 5961SOL    HW129516   0.219   4.672  14.591 -0.4584 -0.9391  0.4857
 5961SOL    HW229517   0.121   0.028  14.534  0.6147 -0.3131 -0.1711
 5962SOL     OW29518   4.070   2.579   3.246  0.0171 -0.0314 -0.2172
 5962SOL    HW129519   4.126   2.522   3.299 -1.9420 -0.9705  0.8318
 5962SOL    HW229520   4.132   2.580   3.173  0.7602  1.0230  0.4260
 5963SOL     OW29521   1.701   4.162   9.726 -0.4541  0.3942 -0.2284
 5963SOL    HW129522   1.754   4.086   9.751  1.1839  1.7529  0.4268
 5963SOL    HW229523   1.669   4.194   9.811 -0.7132 -0.3625 -0.0465
 5964SOL     OW29524   4.456   0.887   9.472  0.2504  0.0829 -0.5005
 5964SOL    HW129525   4.509   0.823   9.424  1.4961 -0.3427  1.4455
 5964SOL    HW229526   4.370   0.844   9.467 -1.1183  3.0005 -2.0050
 5965SOL     OW29527   2.366   1.992   5.032 -0.0165  0.1863 -0.5819
 5965SOL    HW129528   2.291   1.935   5.045 -0.8219  1.8197  2.0078
 5965SOL    HW229529   2.340   2.074   5.074 -1.1803 -2.0619  2.9730
 5966SOL     OW29530   2.702   4.042   4.275 -0.3360  0.0426 -0.4360
 5966SOL    HW129531   2.758   4.118   4.293 -0.1775 -0.7577  2.5440
 5966SOL    HW229532   2.650   4.074   4.202 -0.8518 -2.6211 -1.1973
 5967SOL     OW29533   1.075   3.344   1.581 -0.3947 -0.6127  0.3204
 5967SOL    HW129534   1.007   3.355   1.515  1.0556  1.2722 -0.8497
 5967SOL    HW229535   1.142   3.408   1.558  0.7011 -1.8831 -0.0753
 5968SOL     OW29536   2.648   1.184   9.608  0.3377  0.5157  0.0158
 5968SOL    HW129537   2.668   1.262   9.661 -1.2994  1.3995 -0.6955
 5968SOL    HW229538   2.630   1.117   9.674 -0.1686 -0.5227 -1.2004
 5969SOL     OW29539   0.356   2.393   9.881  0.2016  0.3058 -0.8742
 5969SOL    HW129540   0.373   2.456   9.811 -2.6886  1.6931 -0.2774
 5969SOL    HW229541   0.312   2.445   9.948  2.5799  0.4573  0.5688
 5970SOL     OW29542   2.798   4.409   3.034  0.2234 -0.1835  0.0387
 5970SOL    HW129543   2.859   4.387   3.104 -0.2603  2.8486  1.4001
 5970SOL    HW229544   2.829   4.349   2.966 -1.1580 -0.5348 -0.2783
 5971SOL     OW29545   1.283   3.239   6.327 -0.1771 -0.3445 -0.1190
 5971SOL    HW129546   1.257   3.315   6.276 -0.5500 -0.6496 -0.3799
 5971SOL    HW229547   1.199   3.200   6.350  0.0049 -0.1592  0.8594
 5972SOL     OW29548   4.416   1.146   5.374 -0.3817  0.4740  0.0233
 5972SOL    HW129549   4.392   1.055   5.356 -0.2142  0.0875  1.7177
 5972SOL    HW229550   4.486   1.153   5.309  2.4267  0.6572  3.0315
 5973SOL     OW29551   0.495   0.363   5.037  0.3930 -0.9194 -0.6495
 5973SOL    HW129552   0.479   0.328   4.949 -0.3500  0.4618 -1.0689
 5973SOL    HW229553   0.437   0.438   5.048 -0.0623 -1.2759 -0.6197
 5974SOL     OW29554   0.059   3.440   3.220  0.6853 -0.5795  0.1696
 5974SOL    HW129555   0.047   3.499   3.146 -0.2093 -1.4009 -0.3388
 5974SOL    HW229556   0.078   3.491   3.299 -1.0875 -0.6552  0.6339
 5975SOL     OW29557   2.143   1.330   4.826  0.7545  0.1272  0.1352
 5975SOL    HW129558   2.111   1.246   4.793  2.9786 -0.6651 -0.0069
 5975SOL    HW229559   2.237   1.314   4.820  0.7360 -0.1170  0.5008
 5976SOL     OW29560   2.982   0.821  13.763  0.5200 -0.4455 -0.1203
 5976SOL    HW129561   2.898   0.778  13.777  0.1141  0.3679 -0.0734
 5976SOL    HW229562   3.021   0.801  13.848 -3.3148 -3.4193  0.9375
 5977SOL     OW29563   0.846   1.286   6.669  0.3155  0.7583 -0.3714
 5977SOL    HW129564   0.774   1.288   6.732 -0.6725 -0.7974 -1.4376
 5977SOL    HW229565   0.910   1.341   6.712 -1.5452  2.1612  0.5988
 5978SOL     OW29566   1.062   1.498   7.786 -0.3121 -0.1843 -0.5411
 5978SOL    HW129567   1.044   1.569   7.847  1.2821  0.1835 -0.4959
 5978SOL    HW229568   1.141   1.537   7.749  1.0489 -1.2432  1.2343
 5979SOL     OW29569   2.739   3.364   8.189 -0.4243 -0.3262  0.0581
 5979SOL    HW129570   2.668   3.347   8.250  1.1136  0.3924  2.0261
 5979SOL    HW229571   2.807   3.297   8.198  2.1064  2.2572  0.1848
 5980SOL     OW29572   2.830   2.667   7.707 -0.0090 -0.0906  0.1033
 5980SOL    HW129573   2.808   2.612   7.783 -1.1636 -0.3850 -0.4458
 5980SOL    HW229574   2.898   2.609   7.674 -1.0059 -1.5537  0.6249
 5981SOL     OW29575   1.943   4.642  14.769 -0.3170 -0.2487 -0.3198
 5981SOL    HW129576   1.873   4.650  14.705 -1.3945  0.6239  0.9739
 5981SOL    HW229577   1.934   4.552  14.800  1.9081  0.3013  2.0008
 5982SOL     OW29578   4.520   2.262   6.329 -0.0625  0.3759  0.3251
 5982SOL    HW129579   4.501   2.287   6.239  1.3068  1.3107  0.3071
 5982SOL    HW229580   4.494   2.169   6.330  2.5833 -0.3589 -1.6825
 5983SOL     OW29581   3.849   4.337   4.646  0.5513  0.3867 -0.7125
 5983SOL    HW129582   3.885   4.252   4.621 -1.2057 -0.7016  0.5210
 5983SOL    HW229583   3.836   4.325   4.740  0.4264  0.2703 -0.7445
 5984SOL     OW29584   0.241   0.022   1.690 -0.4042  0.1488  0.1075
 5984SOL    HW129585   0.200   0.047   1.608 -0.4606 -0.4637 -0.0539
 5984SOL    HW229586   0.321   0.073   1.684 -0.7953  0.6727 -0.5978
 5985SOL     OW29587   4.432   2.196  16.773 -0.0532  0.2347  0.1052
 5985SOL    HW129588   4.484   2.264  16.730  1.1075  0.2963  1.6226
 5985SOL    HW229589   4.352   2.240  16.800  0.2802  0.3710  0.8742
 5986SOL     OW29590   1.061   4.511  11.553 -0.0465 -0.1892 -0.1797
 5986SOL    HW129591   0.985   4.522  11.497  0.9081  0.2338 -1.4051
 5986SOL    HW229592   1.040   4.568  11.627  1.7525 -2.6450  2.2250
 5987SOL     OW29593   2.226   0.390   0.713  0.0443 -0.1295  0.2618
 5987SOL    HW129594   2.232   0.485   0.701  1.9997 -0.2959 -0.1781
 5987SOL    HW229595   2.179   0.386   0.796 -0.8038  2.0348 -0.1196
 5988SOL     OW29596   4.143   4.648  17.338  0.6056  0.2616  0.1248
 5988SOL    HW129597   4.062   4.622  17.380  0.9630  0.5327  0.9826
 5988SOL    HW229598   4.203   4.637  17.412  2.0371 -2.3271 -1.4421
 5989SOL     OW29599   3.611   1.751   1.392  0.3454 -0.2166 -0.5468
 5989SOL    HW129600   3.517   1.765   1.401  1.0069  4.4465 -0.8209
 5989SOL    HW229601   3.617   1.676   1.334  0.1855 -0.6083 -0.0535
 5990SOL     OW29602   1.346   3.743   1.813 -0.7844  0.2163  0.1977
 5990SOL    HW129603   1.442   3.746   1.811 -0.7214 -2.2530  0.2049
 5990SOL    HW229604   1.335   3.817   1.873 -0.7472 -0.5637  1.1626
 5991SOL     OW29605   3.217   4.441  12.667  0.4166 -0.2917  0.0939
 5991SOL    HW129606   3.147   4.436  12.732 -1.2479 -1.7717 -1.7925
 5991SOL    HW229607   3.164   4.458  12.589 -2.5559  0.7965  2.3564
 5992SOL     OW29608   2.994   3.961   2.317  0.3824  0.1664  0.6469
 5992SOL    HW129609   2.939   4.014   2.373  0.7610  0.1336  1.0509
 5992SOL    HW229610   2.967   3.981   2.227  0.9884 -0.0762  0.4058
 5993SOL     OW29611   2.846   0.676  14.256  0.7229  0.1133  0.1307
 5993SOL    HW129612   2.753   0.659  14.242  0.7839  1.3604 -1.7195
 5993SOL    HW229613   2.887   0.601  14.215 -1.0978 -1.0842  0.4784
 5994SOL     OW29614   2.158   3.601   8.263  0.2029  0.2169  0.2785
 5994SOL    HW129615   2.083   3.597   8.204  0.3945 -0.9978  0.1207
 5994SOL    HW229616   2.224   3.560   8.207 -0.9872  0.8763 -1.6062
 5995SOL     OW29617   2.484   3.489   8.564  0.2844 -0.0198  0.0795
 5995SOL    HW129618   2.568   3.475   8.607  1.8049  1.4361 -2.3757
 5995SOL    HW229619   2.449   3.562   8.616  1.9114  0.4587  0.5045
 5996SOL     OW29620   0.038   3.103  13.374 -0.0335  0.8000  0.1572
 5996SOL    HW129621   4.719   3.140  13.440  1.3365 -0.4178  2.0834
 5996SOL    HW229622   4.713   3.097  13.304  0.0363 -0.0175  0.1608
 5997SOL     OW29623   2.608   0.278   3.466 -0.0194 -0.7148 -0.3250
 5997SOL    HW129624   2.702   0.286   3.481 -0.2144  2.1089 -0.4869
 5997SOL    HW229625   2.588   0.344   3.533 -1.0568  0.1241 -1.4688
 5998SOL     OW29626   4.298   2.139  16.193 -0.1113  0.1033  0.1878
 5998SOL    HW129627   4.239   2.184  16.132  0.2160  2.3652  1.5224
 5998SOL    HW229628   4.243   2.062  16.205  2.4803 -2.2545 -3.1787
 5999SOL     OW29629   4.503   3.221   5.176  0.1516  1.1539  0.5401
 5999SOL    HW129630   4.438   3.292   5.173  1.3780  2.2016 -1.1029
 5999SOL    HW229631   4.519   3.217   5.271 -1.2077 -3.3567  0.5834
 6000SOL     OW29632   0.367   4.695   5.102  0.3324  0.2454 -0.3071
 6000SOL    HW129633   0.382   0.034   5.049 -0.5412 -2.3255 -4.3447
 6000SOL    HW229634   0.434   4.711   5.169  0.1479 -1.8566  0.3879
 6001SOL     OW29635   4.340   4.711  10.515 -0.3315 -0.8028 -0.0403
 6001SOL    HW129636   4.309   0.049  10.561 -0.3463 -0.2657 -0.9737
 6001SOL    HW229637   4.311   4.733  10.427 -2.1475 -2.1914  0.1986
 6002SOL     OW29638   2.382   2.150  11.754  0.0867  0.1979  0.0016
 6002SOL    HW129639   2.426   2.116  11.832  1.4140  0.8829 -0.4508
 6002SOL    HW229640   2.445   2.132  11.685 -1.4040 -3.1672 -0.5070
 6003SOL     OW29641   1.331   0.118   6.101  0.1192 -0.4299  0.0719
 6003SOL    HW129642   1.393   0.092   6.170  2.6524  1.0617 -1.6360
 6003SOL    HW229643   1.279   0.040   6.081 -1.0886  0.2863  0.4732
 6004SOL     OW29644   1.366   1.559   2.511  0.1041  0.0826  1.0124
 6004SOL    HW129645   1.421   1.626   2.468 -0.0541  0.3281  1.1907
 6004SOL    HW229646   1.280   1.599   2.519 -0.5456 -1.5593  2.1321
 6005SOL     OW29647   3.089   2.180   7.252 -0.6496  0.0867 -1.0095
 6005SOL    HW129648   3.073   2.097   7.207 -1.5827  0.3214 -1.1121
 6005SOL    HW229649   3.011   2.191   7.306 -0.6163  1.6297 -1.2661
 6006SOL     OW29650   2.316   1.432  11.144  0.3596  0.3296 -0.5290
 6006SOL    HW129651   2.247   1.424  11.078 -0.8363 -2.3115  1.0647
 6006SOL    HW229652   2.390   1.381  11.111  0.2831  2.0149 -3.3550
 6007SOL     OW29653   4.179   0.096  14.183  0.2758  0.0904 -0.1726
 6007SOL    HW129654   4.251   0.142  14.225 -1.1611  2.1503  0.0438
 6007SOL    HW229655   4.223   0.021  14.143 -0.1948  1.0390 -2.4722
 6008SOL     OW29656   2.712   0.345   0.745  0.1102  0.0974  0.1688
 6008SOL    HW129657   2.698   0.373   0.655 -1.9644 -2.3201 -0.2725
 6008SOL    HW229658   2.639   0.385   0.792 -0.3330 -0.1087 -0.3524
 6009SOL     OW29659   0.681   2.506  17.342  0.0865 -0.3340 -0.5077
 6009SOL    HW129660   0.685   2.567  17.269  3.4797 -1.3292 -1.1909
 6009SOL    HW229661   0.714   2.421  17.313  1.7125 -0.5918  2.1160
 6010SOL     OW29662   2.073   4.006   5.279 -0.1057 -0.4261 -0.4264
 6010SOL    HW129663   2.116   3.960   5.351  0.0445  0.1434 -0.1473
 6010SOL    HW229664   1.997   4.042   5.325 -0.3412 -4.7294  2.4830
 6011SOL     OW29665   0.564   3.863   6.448  0.1432 -0.0361  0.1371
 6011SOL    HW129666   0.653   3.831   6.433 -0.3619 -1.1956 -0.3827
 6011SOL    HW229667   0.517   3.813   6.381 -0.9845 -0.5881  1.3401
 6012SOL     OW29668   1.155   3.196   5.976  0.3944  0.2675 -0.1612
 6012SOL    HW129669   1.226   3.153   6.022  1.0410 -1.3848 -2.7275
 6012SOL    HW229670   1.125   3.133   5.910  1.4394 -0.0256 -0.3433
 6013SOL     OW29671   4.733   2.448  16.190  0.0860 -0.1207  0.9300
 6013SOL    HW129672   0.020   2.433  16.280  2.7531 -0.2945  0.1253
 6013SOL    HW229673   4.651   2.495  16.203  0.8365  0.8513  2.1322
 6014SOL     OW29674   0.367   0.834   2.997  0.0002 -0.4860  0.1654
 6014SOL    HW129675   0.296   0.775   2.970 -1.1433  0.1491  1.7857
 6014SOL    HW229676   0.402   0.786   3.072  0.8212  0.7729  0.5855
 6015SOL     OW29677   1.623   0.040   7.749  0.0796 -0.1526  0.3189
 6015SOL    HW129678   1.583   4.699   7.782  0.5672 -1.9997 -3.4738
 6015SOL    HW229679   1.554   0.072   7.690 -0.3842 -0.7907  0.5169
 6016SOL     OW29680   0.033   3.898   9.600  0.2879  0.1679 -0.0822
 6016SOL    HW129681   0.087   3.928   9.673  0.5281 -0.7905  0.1254
 6016SOL    HW229682   4.712   3.836   9.641 -1.5944  2.0306 -0.0217
 6017SOL     OW29683   0.963   4.505  13.292 -0.6405  0.1176 -0.1631
 6017SOL    HW129684   0.903   4.561  13.341  0.5838  0.6069  0.7743
 6017SOL    HW229685   1.025   4.574  13.273 -0.1216  0.0887  1.4419
 6018SOL     OW29686   0.700   2.210   6.337  0.4108 -0.9310 -0.2213
 6018SOL    HW129687   0.678   2.241   6.424 -1.3106 -2.1432 -0.2359
 6018SOL    HW229688   0.780   2.160   6.357  2.4096  2.3809  0.0448
 6019SOL     OW29689   3.143   1.332   5.394  0.0829 -0.3977 -0.1833
 6019SOL    HW129690   3.091   1.412   5.392 -1.5135 -1.4359 -0.0171
 6019SOL    HW229691   3.155   1.310   5.486 -0.6419 -2.8830 -0.6964
 6020SOL     OW29692   1.972   0.071   4.166 -0.3160 -0.7470  0.6873
 6020SOL    HW129693   1.905   0.042   4.228  0.3264 -2.3350  0.6370
 6020SOL    HW229694   1.989   0.163   4.188  0.5172 -1.1824  1.9011
 6021SOL     OW29695   0.126   0.771   5.281  0.0671 -0.3999 -0.0220
 6021SOL    HW129696   0.122   0.679   5.304 -0.4797 -0.1053  1.0415
 6021SOL    HW229697   0.046   0.780   5.230  0.8030  0.6080 -1.0281
 6022SOL     OW29698   0.800   1.872  12.997 -0.0364 -0.0351 -0.1180
 6022SOL    HW129699   0.826   1.781  12.985 -0.9348 -0.2959 -0.0816
 6022SOL    HW229700   0.830   1.906  12.913  0.9857 -1.9202 -0.4962
 6023SOL     OW29701   3.021   0.332   3.977  0.0930  0.6493  0.2474
 6023SOL    HW129702   3.016   0.364   4.067  0.7707 -1.2398  0.9611
 6023SOL    HW229703   3.015   0.238   3.995 -0.8572  0.9750  1.5778
 6024SOL     OW29704   3.250   0.612  14.630  0.2806 -0.0637  0.1187
 6024SOL    HW129705   3.160   0.581  14.616 -0.7994  3.0168  0.2514
 6024SOL    HW229706   3.284   0.547  14.692  0.2566 -1.6036 -1.4546
 6025SOL     OW29707   0.739   0.663   1.946  0.6310 -0.0706 -0.0073
 6025SOL    HW129708   0.747   0.729   1.877 -1.3745  0.5419  0.3553
 6025SOL    HW229709   0.695   0.718   2.010 -0.5743 -0.6886 -0.3059
 6026SOL     OW29710   1.007   4.438   9.159 -0.1160 -0.0038  0.6020
 6026SOL    HW129711   0.924   4.439   9.112  1.3178  1.0174 -1.8886
 6026SOL    HW229712   1.053   4.362   9.125  0.2368  1.3265 -1.8566
 6027SOL     OW29713   4.567   1.132   5.898  0.4020  0.5219 -0.2772
 6027SOL    HW129714   4.533   1.084   5.822  0.3330  0.4690 -0.2134
 6027SOL    HW229715   4.654   1.153   5.866  1.4810 -0.5505  1.9512
 6028SOL     OW29716   2.564   0.515   3.654  0.5186 -0.1292  0.5461
 6028SOL    HW129717   2.482   0.560   3.632  0.6207  1.2009  2.8004
 6028SOL    HW229718   2.631   0.581   3.675  1.1977 -0.1356 -1.6315
 6029SOL     OW29719   2.248   3.924   7.147 -1.0870  0.2836  0.2175
 6029SOL    HW129720   2.264   4.018   7.142 -0.3014  0.1086 -0.5349
 6029SOL    HW229721   2.193   3.923   7.225  0.3558  0.2014  1.2342
 6030SOL     OW29722   2.846   2.147   4.137  0.0614  0.1097 -0.3450
 6030SOL    HW129723   2.860   2.237   4.106  0.8876  0.7160  1.8057
 6030SOL    HW229724   2.797   2.113   4.061 -0.6492 -0.7316  0.4982
 6031SOL     OW29725   2.606   4.585   3.673 -0.3930  0.0125 -0.7113
 6031SOL    HW129726   2.595   4.501   3.719 -2.0880 -0.0527 -1.2298
 6031SOL    HW229727   2.573   4.633   3.749  0.6657  0.5163 -0.5798
 6032SOL     OW29728   4.546   0.593  11.976  0.0896 -0.2901 -0.0706
 6032SOL    HW129729   4.581   0.645  12.048  1.4162  1.0122 -1.6593
 6032SOL    HW229730   4.623   0.546  11.943  1.5352  0.9988  1.4487
 6033SOL     OW29731   1.526   1.069   7.949  0.3739 -0.1817 -0.2706
 6033SOL    HW129732   1.498   0.984   7.983  1.2096 -1.0725 -1.8477
 6033SOL    HW229733   1.444   1.120   7.948  0.4223 -0.0657  1.4765
 6034SOL     OW29734   4.297   0.906   4.197 -0.6978 -0.2136  0.2625
 6034SOL    HW129735   4.358   0.954   4.254 -1.1431 -0.0727  0.6207
 6034SOL    HW229736   4.224   0.967   4.210 -0.2284  0.6437 -1.1555
 6035SOL     OW29737   0.541   3.226   2.678 -0.0465 -0.1763  0.3078
 6035SOL    HW129738   0.547   3.130   2.677  0.3246 -0.1664  1.7793
 6035SOL    HW229739   0.591   3.247   2.599 -1.0317  4.2572  0.8792
 6036SOL     OW29740   3.644   4.183   5.137 -0.4565 -0.0120  0.2871
 6036SOL    HW129741   3.688   4.175   5.221 -0.7659 -1.1341  0.3474
 6036SOL    HW229742   3.686   4.118   5.081  0.4403 -0.2429  1.2347
 6037SOL     OW29743   0.226   2.329  16.070  0.2167 -0.1761  0.0669
 6037SOL    HW129744   0.211   2.242  16.107 -1.0089  0.5989  1.4345
 6037SOL    HW229745   0.149   2.376  16.104 -0.3175 -0.5162 -0.6768
 6038SOL     OW29746   4.216   2.001   1.533 -0.3928 -0.3352 -0.5537
 6038SOL    HW129747   4.274   2.060   1.486  0.1430 -0.7569 -0.4161
 6038SOL    HW229748   4.205   2.047   1.617 -0.6782  0.9364 -1.2876
 6039SOL     OW29749   2.971   1.553   3.371  0.0077 -0.4370  0.1616
 6039SOL    HW129750   2.892   1.602   3.346 -1.5104 -1.7915  2.3882
 6039SOL    HW229751   2.926   1.484   3.419 -2.7291 -0.3372 -2.2147
 6040SOL     OW29752   3.168   2.752  16.495  0.0510 -0.5637  0.5884
 6040SOL    HW129753   3.135   2.828  16.543  0.3211  1.7858 -2.9376
 6040SOL    HW229754   3.229   2.791  16.433 -0.2200 -1.1834 -0.0632
 6041SOL     OW29755   0.412   1.901  12.388  0.5046  0.1113  0.1081
 6041SOL    HW129756   0.347   1.883  12.456  3.2711 -0.5966  2.5611
 6041SOL    HW229757   0.356   1.946  12.325 -0.0558 -0.9165 -0.1172
 6042SOL     OW29758   4.279   1.786   0.523 -0.4958  0.3956 -0.5996
 6042SOL    HW129759   4.222   1.719   0.562  2.4714 -2.2442 -0.7993
 6042SOL    HW229760   4.301   1.742   0.441 -0.2834  2.4339 -1.6336
 6043SOL     OW29761   1.468   2.475   7.612 -0.5715 -0.0234  0.1367
 6043SOL    HW129762   1.558   2.497   7.590 -0.4768 -0.7430 -0.1964
 6043SOL    HW229763   1.480   2.380   7.620 -2.0493 -0.2733 -0.6235
 6044SOL     OW29764   2.083   1.390   6.952  0.0177 -0.0332 -0.9023
 6044SOL    HW129765   2.118   1.398   7.041 -0.3101  4.5382 -1.1845
 6044SOL    HW229766   2.161   1.366   6.902 -0.1846 -0.3994 -1.0395
 6045SOL     OW29767   0.364   3.577   5.139  0.2526  0.2813  0.4803
 6045SOL    HW129768   0.290   3.615   5.092 -1.0238 -1.3341  1.1734
 6045SOL    HW229769   0.416   3.533   5.072 -0.5181 -1.4453  1.0033
 6046SOL     OW29770   3.738   3.447   6.179 -0.0095 -0.1464  0.4668
 6046SOL    HW129771   3.749   3.424   6.271  1.2720 -0.5059  0.2283
 6046SOL    HW229772   3.816   3.499   6.158  0.3886  0.0715  2.4883
 6047SOL     OW29773   4.440   3.815  11.982 -0.0091 -0.3773  0.1111
 6047SOL    HW129774   4.484   3.751  11.925  1.7202  3.6871 -3.0732
 6047SOL    HW229775   4.368   3.845  11.928  0.9824  0.2102 -0.8769
 6048SOL     OW29776   4.709   0.532   3.207  0.2267 -0.5204 -0.4179
 6048SOL    HW129777   0.053   0.563   3.243 -0.4170  2.0130 -1.0784
 6048SOL    HW229778   4.730   0.513   3.116  0.7380  3.1044 -1.0726
 6049SOL     OW29779   1.587   3.169   4.645  0.1080  0.6247  0.1282
 6049SOL    HW129780   1.597   3.092   4.702  0.2927  2.0370  2.0148
 6049SOL    HW229781   1.670   3.180   4.599 -0.6613  0.9525 -1.1744
 6050SOL     OW29782   2.068   2.306   7.371 -0.1798  0.0979  0.0317
 6050SOL    HW129783   1.999   2.244   7.346  0.0114 -0.8235  1.7750
 6050SOL    HW229784   2.146   2.259   7.344 -0.8114 -0.4571 -0.8337
 6051SOL     OW29785   4.479   4.630   4.735  0.5909 -0.1743  0.0781
 6051SOL    HW129786   4.438   4.676   4.661  0.1723  0.7917  0.9079
 6051SOL    HW229787   4.555   4.592   4.692 -1.4979 -1.3931 -2.5949
 6052SOL     OW29788   4.538   0.782  15.787  0.0206  0.2751 -0.1803
 6052SOL    HW129789   4.583   0.844  15.845  0.7975  1.3427 -1.9159
 6052SOL    HW229790   4.587   0.799  15.706  0.7028 -1.1348 -0.0679
 6053SOL     OW29791   3.036   1.011   6.608  0.0750  0.4166 -0.2113
 6053SOL    HW129792   3.034   1.015   6.513 -0.3123 -2.5829 -0.3205
 6053SOL    HW229793   3.031   1.105   6.625 -0.8959  0.5505 -1.2671
 6054SOL     OW29794   2.059   1.010   4.177 -0.5023  0.2666  0.0080
 6054SOL    HW129795   2.007   1.080   4.136 -0.3714  0.2584 -0.1690
 6054SOL    HW229796   2.119   0.996   4.104 -0.5444  0.8324 -0.1368
 6055SOL     OW29797   4.222   2.459   4.351 -0.0130  0.5383  0.2768
 6055SOL    HW129798   4.280   2.384   4.354 -1.1016 -0.3106  0.2119
 6055SOL    HW229799   4.153   2.429   4.410  1.7387 -1.8124  1.0914
 6056SOL     OW29800   4.448   4.137  15.387 -0.0090  0.3182 -0.3415
 6056SOL    HW129801   4.520   4.166  15.331  0.1009 -0.6005 -0.6892
 6056SOL    HW229802   4.439   4.046  15.357 -1.9350  0.9241 -1.5983
 6057SOL     OW29803   3.807   3.366   3.654  0.1368 -0.5300  0.3454
 6057SOL    HW129804   3.783   3.450   3.692 -1.3183  0.3532 -2.5690
 6057SOL    HW229805   3.887   3.392   3.609  1.3522  0.3703  3.0401
 6058SOL     OW29806   4.700   2.547   2.868  0.4455  0.6436  0.0899
 6058SOL    HW129807   4.636   2.568   2.800 -0.3730 -0.5317  0.4893
 6058SOL    HW229808   4.656   2.571   2.949  1.7869  0.3292  0.9230
 6059SOL     OW29809   0.410   1.723   5.184 -0.6031  0.4522  0.1540
 6059SOL    HW129810   0.359   1.783   5.238 -0.7253  1.2531 -0.8711
 6059SOL    HW229811   0.368   1.638   5.201  0.0812 -0.1653 -1.2548
 6060SOL     OW29812   0.977   3.405   3.904  0.3398 -0.6935  0.0150
 6060SOL    HW129813   0.912   3.336   3.917 -1.2722  1.0818  1.3893
 6060SOL    HW229814   0.921   3.476   3.873  1.1410  0.4452  1.2135
 6061SOL     OW29815   1.854   0.242  14.629 -0.1285  0.1494  0.6795
 6061SOL    HW129816   1.881   0.297  14.556  0.7333 -0.2269  0.7135
 6061SOL    HW229817   1.928   0.232  14.689 -0.2868 -1.2958  0.6339
 6062SOL     OW29818   3.154   2.993  11.477  0.8531 -0.8556 -0.3634
 6062SOL    HW129819   3.156   2.918  11.418 -3.4227 -1.0313 -0.2575
 6062SOL    HW229820   3.195   2.955  11.555 -0.4720  0.1653  0.8386
 6063SOL     OW29821   0.267   3.325   8.423 -0.0463 -0.0833  0.1573
 6063SOL    HW129822   0.351   3.334   8.468  0.8931  0.1305 -1.6884
 6063SOL    HW229823   0.279   3.231   8.408  0.9477  0.4447 -2.2426
 6064SOL     OW29824   2.561   0.067   9.920  0.3767 -0.1051  0.4160
 6064SOL    HW129825   2.548   0.074  10.015 -1.8469 -1.1752  0.2061
 6064SOL    HW229826   2.513   4.727   9.898 -1.0506  0.1198  2.6328
 6065SOL     OW29827   4.184   0.878   6.256  0.5803 -0.2043 -0.1522
 6065SOL    HW129828   4.095   0.907   6.277  0.0818 -2.7198  1.0970
 6065SOL    HW229829   4.170   0.807   6.193  2.4323  1.5952 -2.5752
 6066SOL     OW29830   3.278   2.769   6.224  0.3221  0.6659 -0.0106
 6066SOL    HW129831   3.367   2.757   6.257  0.5608  0.6985 -0.6231
 6066SOL    HW229832   3.277   2.740   6.133 -0.1590  0.2414  0.1338
 6067SOL     OW29833   4.401   3.455   1.781  0.3672 -0.3704 -0.0879
 6067SOL    HW129834   4.393   3.548   1.802  1.2790 -0.3214  0.0281
 6067SOL    HW229835   4.418   3.462   1.687  0.8186 -1.1099 -0.0613
 6068SOL     OW29836   3.896   0.479   1.493  0.4780  0.2046  0.4400
 6068SOL    HW129837   3.982   0.518   1.479 -0.1296  1.4915  0.3070
 6068SOL    HW229838   3.869   0.459   1.404 -1.0540 -0.6757  1.0949
 6069SOL     OW29839   1.677   4.297   8.046  0.2486 -0.3065 -0.0128
 6069SOL    HW129840   1.632   4.232   8.100 -0.7015 -0.4818 -1.0106
 6069SOL    HW229841   1.763   4.258   8.031  1.0881  0.9980  1.4840
 6070SOL     OW29842   1.175   1.201   9.862  0.0661  0.3230 -0.4470
 6070SOL    HW129843   1.195   1.199   9.769 -0.0018 -0.7066 -0.4342
 6070SOL    HW229844   1.218   1.286   9.872  0.4457  0.1004 -0.1755
 6071SOL     OW29845   2.319   4.591   2.988  0.1106  0.5572  0.1348
 6071SOL    HW129846   2.410   4.583   3.014 -0.3999 -0.5265  1.5468
 6071SOL    HW229847   2.260   4.570   3.061  2.8158  1.0098  2.4370
 6072SOL     OW29848   3.131   3.546   7.606 -0.1288  0.3300  0.2006
 6072SOL    HW129849   3.159   3.497   7.683  0.6488  2.2817  1.1622
 6072SOL    HW229850   3.202   3.528   7.545 -1.4866  1.0932 -1.5951
 6073SOL     OW29851   2.879   0.635   5.170  0.4933 -0.3519  0.3742
 6073SOL    HW129852   2.969   0.665   5.159  0.2643 -0.4477 -1.8821
 6073SOL    HW229853   2.833   0.702   5.120  2.0534  1.0293  0.7911
 6074SOL     OW29854   3.180   4.632  15.009  0.3076  0.1700 -0.3613
 6074SOL    HW129855   3.223   4.631  15.095  0.0764  0.2994 -0.2447
 6074SOL    HW229856   3.097   4.599  15.042  2.0404 -1.6368  2.1786
 6075SOL     OW29857   1.979   0.803   3.261 -0.2727  0.3006 -0.0129
 6075SOL    HW129858   2.055   0.792   3.204 -0.2551  0.1650  0.0380
 6075SOL    HW229859   1.969   0.709   3.271  2.5862 -0.3604 -3.2539
 6076SOL     OW29860   0.739   3.100   3.424  0.0757  0.3669  0.3888
 6076SOL    HW129861   0.688   3.140   3.494 -1.4506  0.7584 -0.9489
 6076SOL    HW229862   0.827   3.133   3.437 -0.5738  2.7071 -1.2865
 6077SOL     OW29863   0.734   4.036  10.661  0.3608  0.3823  0.7382
 6077SOL    HW129864   0.810   4.071  10.614  0.7672 -0.2738  0.9020
 6077SOL    HW229865   0.756   4.054  10.753  0.3647  0.4137  0.7310
 6078SOL     OW29866   4.120   1.588   0.603 -0.3596 -0.1515 -0.7155
 6078SOL    HW129867   4.033   1.557   0.631  0.3891 -1.5221  0.0925
 6078SOL    HW229868   4.170   1.537   0.667 -1.6430  0.8145  1.0929
 6079SOL     OW29869   0.365   1.365   5.994 -0.0723  0.5101  0.1224
 6079SOL    HW129870   0.328   1.364   6.082  0.0227 -1.4660  0.1474
 6079SOL    HW229871   0.375   1.459   5.983 -0.4829  0.2186 -2.6525
 6080SOL     OW29872   4.373   0.082   2.320  0.0188  0.0523  0.0358
 6080SOL    HW129873   4.435   0.044   2.382  3.0242 -0.9070 -3.5750
 6080SOL    HW229874   4.285   0.058   2.351 -0.5133 -0.5000 -1.8892
 6081SOL     OW29875   4.145   2.019   5.549 -0.2222 -0.1938 -0.1582
 6081SOL    HW129876   4.169   1.999   5.640  0.4389  1.2837 -0.0166
 6081SOL    HW229877   4.156   1.929   5.518 -0.0564  0.3052 -1.5241
 6082SOL     OW29878   2.401   4.017   9.753 -0.0091 -0.3204 -0.5319
 6082SOL    HW129879   2.363   3.968   9.825 -0.8737 -0.3874 -1.0352
 6082SOL    HW229880   2.423   3.944   9.694 -2.8336 -1.6111  0.0447
 6083SOL     OW29881   1.294   2.597   9.235  0.0081 -0.3638 -0.3106
 6083SOL    HW129882   1.367   2.620   9.178  1.5922 -1.3512  1.3285
 6083SOL    HW229883   1.320   2.514   9.274 -0.3410  0.0971  0.9242
 6084SOL     OW29884   1.779   1.713   7.190 -0.1341  0.2789 -0.1278
 6084SOL    HW129885   1.773   1.738   7.282  0.8287 -0.6386  0.1821
 6084SOL    HW229886   1.866   1.674   7.189 -0.7148 -1.0572  2.0139
 6085SOL     OW29887   2.143   4.466   4.367 -0.2077 -0.4748 -0.0619
 6085SOL    HW129888   2.182   4.414   4.437 -2.6424 -2.5358 -0.2626
 6085SOL    HW229889   2.069   4.507   4.412 -1.3133 -1.4442 -1.0291
 6086SOL     OW29890   3.154   3.947  13.255  0.5098  0.5822 -0.5957
 6086SOL    HW129891   3.098   3.974  13.327  0.4046  0.1847 -0.5264
 6086SOL    HW229892   3.233   3.923  13.303 -0.7055 -0.5021  0.8417
 6087SOL     OW29893   3.407   3.558  14.522  0.0891  0.3059 -0.4353
 6087SOL    HW129894   3.421   3.647  14.489 -0.6199  0.0885 -1.3356
 6087SOL    HW229895   3.460   3.518  14.454 -0.2437  0.1199 -0.5864
 6088SOL     OW29896   4.373   4.666   7.547 -0.0699 -0.0433 -0.2076
 6088SOL    HW129897   4.340   4.685   7.459 -1.7404 -0.0422  0.4127
 6088SOL    HW229898   4.288   4.656   7.590  0.3637  2.2942  1.2278
 6089SOL     OW29899   0.245   0.056   9.395 -0.2398 -0.3866 -0.5391
 6089SOL    HW129900   0.238   0.122   9.463  0.7035 -1.0597  0.2054
 6089SOL    HW229901   0.222   4.712   9.436  0.9926  1.1100  3.2065
 6090SOL     OW29902   2.233   1.793   6.958  0.1638  0.1281  0.6615
 6090SOL    HW129903   2.327   1.773   6.959 -0.4773 -2.8875 -0.6302
 6090SOL    HW229904   2.207   1.811   6.868 -0.0707 -1.4430  0.4073
 6091SOL     OW29905   3.999   2.004   7.355 -0.3416 -0.1972  0.1417
 6091SOL    HW129906   3.967   1.914   7.350  0.9926 -0.5764 -1.6523
 6091SOL    HW229907   3.961   2.048   7.279 -0.7103  2.3147  1.7917
 6092SOL     OW29908   3.712   1.540   3.462 -0.3895  0.2071 -0.0350
 6092SOL    HW129909   3.699   1.600   3.389 -0.0916 -2.0849 -1.9743
 6092SOL    HW229910   3.629   1.494   3.468 -0.1506  0.0825  2.4516
 6093SOL     OW29911   3.768   2.180  12.232  0.1108  0.1393 -0.5561
 6093SOL    HW129912   3.837   2.115  12.244  2.4431  2.7397  0.2458
 6093SOL    HW229913   3.816   2.254  12.270 -1.4865  1.6768 -1.5625
 6094SOL     OW29914   1.284   2.583  17.228  0.0600 -0.6336  0.1874
 6094SOL    HW129915   1.229   2.530  17.169  0.3990  0.0365 -0.7163
 6094SOL    HW229916   1.233   2.579  17.309 -1.1199 -2.2093 -0.6029
 6095SOL     OW29917   1.531   2.048   3.430 -0.2772  0.3530 -0.4747
 6095SOL    HW129918   1.444   2.083   3.450 -0.4022  0.1262 -0.6160
 6095SOL    HW229919   1.511   1.974   3.373  0.8589 -1.6836  1.7739
 6096SOL     OW29920   2.224   0.117   6.797 -0.0591 -0.6469  0.1433
 6096SOL    HW129921   2.296   0.079   6.849 -0.1313 -0.1361  0.6186
 6096SOL    HW229922   2.238   0.092   6.706  0.3236  2.5217 -0.6745
 6097SOL     OW29923   2.589   3.435  11.981  0.3155 -0.3965  0.3861
 6097SOL    HW129924   2.561   3.487  12.056 -1.3319  0.8356 -1.0928
 6097SOL    HW229925   2.566   3.348  12.014 -0.2476 -0.1861  0.5299
 6098SOL     OW29926   2.773   1.506   0.176  0.2525  0.0322  0.4611
 6098SOL    HW129927   2.715   1.430   0.165 -1.4015  0.9420  2.8765
 6098SOL    HW229928   2.809   1.518   0.089  1.2478  0.5827  0.9475
 6099SOL     OW29929   0.664   3.462   4.163  0.1673 -0.4382  0.4760
 6099SOL    HW129930   0.631   3.518   4.093  0.8781 -1.6339 -0.8138
 6099SOL    HW229931   0.698   3.530   4.220 -0.8434  1.1823 -0.8630
 6100SOL     OW29932   0.307   1.451   0.505 -0.7392  0.0578  0.0758
 6100SOL    HW129933   0.310   1.541   0.537  1.9199 -0.1374  0.3229
 6100SOL    HW229934   0.244   1.449   0.433 -0.0243  0.4157 -0.5607
 6101SOL     OW29935   4.370   2.987   2.384  0.2796  0.2523 -0.6984
 6101SOL    HW129936   4.287   3.033   2.397  1.1642  1.1248  1.8106
 6101SOL    HW229937   4.419   3.058   2.341  0.4516  1.4603  1.4953
 6102SOL     OW29938   0.747   3.441   3.608 -0.0322  0.3171  0.3297
 6102SOL    HW129939   0.761   3.503   3.537 -0.1953 -2.7176 -2.3794
 6102SOL    HW229940   0.752   3.505   3.679 -1.0104  0.1715  0.5242
 6103SOL     OW29941   0.552   2.806   8.030  0.6330 -0.2806 -0.4157
 6103SOL    HW129942   0.498   2.864   8.084 -0.5317 -1.8604  0.1052
 6103SOL    HW229943   0.498   2.796   7.951 -1.3451  0.7101  0.7992
 6104SOL     OW29944   0.390   3.900  11.072  0.6481  0.1845  0.4615
 6104SOL    HW129945   0.355   3.983  11.105 -0.0955  0.4331 -0.9388
 6104SOL    HW229946   0.312   3.846  11.075 -0.4223  1.6346 -1.2672
 6105SOL     OW29947   2.004   4.018   7.562  0.2683  0.0188  0.0585
 6105SOL    HW129948   2.067   3.946   7.564  0.0609 -0.1425  0.8249
 6105SOL    HW229949   1.970   4.015   7.473  0.3392 -1.9908  0.0921
 6106SOL     OW29950   2.913   2.751   1.511 -0.2763 -0.6526  0.4143
 6106SOL    HW129951   2.977   2.763   1.441 -2.3237  1.4170 -1.0946
 6106SOL    HW229952   2.861   2.829   1.495  2.3047  0.9189 -0.2842
 6107SOL     OW29953   0.407   2.327   0.098  0.2015  0.3258  0.2613
 6107SOL    HW129954   0.430   2.240   0.067  0.3870  1.0425 -1.6017
 6107SOL    HW229955   0.339   2.310   0.163 -2.0185 -0.7564 -2.3597
 6108SOL     OW29956   0.444   3.951   6.802 -0.5294  0.1296  0.3762
 6108SOL    HW129957   0.482   4.034   6.772 -2.5663  0.0870 -2.2983
 6108SOL    HW229958   0.399   3.921   6.724 -0.1535  1.4204 -0.3386
 6109SOL     OW29959   2.558   2.047   9.629 -0.1104  0.3177 -0.8744
 6109SOL    HW129960   2.505   2.006   9.697 -1.0556  0.1397 -1.7134
 6109SOL    HW229961   2.493   2.086   9.571  0.3519  2.0023 -0.2613
 6110SOL     OW29962   2.032   1.134  13.890  0.1604  0.0702 -0.1983
 6110SOL    HW129963   1.995   1.173  13.969 -0.1163  0.6841 -0.6311
 6110SOL    HW229964   2.118   1.175  13.893  0.6492 -0.9875  0.2625
 6111SOL     OW29965   4.144   0.259  16.024  0.7739 -0.7638  0.3557
 6111SOL    HW129966   4.186   0.176  16.049  1.3559 -0.4875  0.3063
 6111SOL    HW229967   4.074   0.227  15.967  0.2667 -1.0631  1.1465
 6112SOL     OW29968   2.381   1.533   1.818 -0.1977  0.7242  0.0762
 6112SOL    HW129969   2.326   1.496   1.749  1.0670 -0.2886 -0.3786
 6112SOL    HW229970   2.339   1.494   1.895  0.6021 -1.1475 -0.4428
 6113SOL     OW29971   1.298   3.430   1.851  0.0647  0.3278  0.0417
 6113SOL    HW129972   1.310   3.501   1.789  0.8561 -1.0947 -1.4385
 6113SOL    HW229973   1.318   3.468   1.936 -1.1323 -0.7772  0.8388
 6114SOL     OW29974   4.015   2.479   6.871  0.0298 -0.1403 -0.4546
 6114SOL    HW129975   4.039   2.468   6.779  0.5848  1.8641 -0.5575
 6114SOL    HW229976   4.031   2.574   6.872  0.3400 -0.1510 -2.7610
 6115SOL     OW29977   1.597   3.810   3.090  0.0077 -0.1436 -0.3880
 6115SOL    HW129978   1.675   3.774   3.048  0.2216 -0.0372 -0.0804
 6115SOL    HW229979   1.545   3.734   3.116 -0.7312 -0.2472 -2.1569
 6116SOL     OW29980   2.585   3.737  16.548  0.6895 -0.3558  0.3525
 6116SOL    HW129981   2.599   3.809  16.610 -1.0533  1.3404 -1.2147
 6116SOL    HW229982   2.599   3.782  16.464 -3.8631 -1.1208 -0.7748
 6117SOL     OW29983   3.854   2.404   3.905  0.6624  0.2487 -0.1169
 6117SOL    HW129984   3.851   2.309   3.890  0.6255  0.6247 -2.4069
 6117SOL    HW229985   3.927   2.406   3.968 -0.8181  1.1050  1.5575
 6118SOL     OW29986   4.114   1.953   4.022 -0.4419 -0.0008  0.0538
 6118SOL    HW129987   4.173   1.878   4.025 -3.3692 -2.2264  1.9138
 6118SOL    HW229988   4.048   1.927   3.957 -0.1595  0.4574 -0.4200
 6119SOL     OW29989   0.209   1.459   7.246  0.1993  0.2243 -0.5946
 6119SOL    HW129990   0.211   1.384   7.305  0.7071  0.6829 -0.0327
 6119SOL    HW229991   0.244   1.524   7.306 -1.8908  0.3071  0.5366
 6120SOL     OW29992   0.408   3.109   5.728 -0.0590  0.2446 -0.1885
 6120SOL    HW129993   0.459   3.186   5.703 -0.1916  0.7912  1.2081
 6120SOL    HW229994   0.319   3.145   5.721  0.5144  1.2783 -2.1746
 6121SOL     OW29995   0.615   1.920   1.060  0.3037 -0.2678  0.1516
 6121SOL    HW129996   0.551   1.989   1.042  0.6284 -0.1694 -0.5935
 6121SOL    HW229997   0.570   1.858   1.002  1.2503 -2.3284  1.5892
 6122SOL     OW29998   4.278   1.853   7.565 -0.2776 -0.3514 -0.3705
 6122SOL    HW129999   4.349   1.854   7.501 -1.1362  0.2261 -1.3189
 6122SOL    HW230000   4.298   1.935   7.610  0.0506 -0.1144 -0.9408
 6123SOL     OW30001   4.015   0.896   9.827 -0.5974 -0.2227 -0.6673
 6123SOL    HW130002   4.066   0.912   9.906 -2.1152  1.4452 -0.0317
 6123SOL    HW230003   4.036   0.804   9.808 -0.0036 -0.0112 -1.0073
 6124SOL     OW30004   2.763   1.096   8.225  0.0464  0.5178  0.0453
 6124SOL    HW130005   2.857   1.092   8.243 -0.0159 -2.1850 -0.2037
 6124SOL    HW230006   2.745   1.180   8.268  1.2225 -0.1584  1.8960
 6125SOL     OW30007   2.050   0.332   6.282  0.3795 -0.4091  0.1270
 6125SOL    HW130008   2.060   0.357   6.374 -0.9676 -0.5255  0.2952
 6125SOL    HW230009   2.001   0.250   6.288  0.9391 -0.7245  0.3806
 6126SOL     OW30010   1.018   2.895   6.429 -0.5758 -0.0881 -0.0984
 6126SOL    HW130011   1.063   2.933   6.505  0.7188  0.0874 -0.9569
 6126SOL    HW230012   1.022   2.802   6.453 -1.4445 -0.1211 -0.0755
 6127SOL     OW30013   3.192   0.899  10.991 -0.3793 -0.4464 -0.2037
 6127SOL    HW130014   3.276   0.875  11.031  0.3216  0.8507 -0.8942
 6127SOL    HW230015   3.209   0.874  10.900  1.3621 -4.9401  1.3676
 6128SOL     OW30016   2.932   0.661   0.657 -0.1914  0.8253  0.0358
 6128SOL    HW130017   2.861   0.608   0.621  2.1354 -3.3549  1.5754
 6128SOL    HW230018   3.004   0.599   0.646  0.1985  1.3798 -0.5542
 6129SOL     OW30019   2.444   3.202  17.054  0.6300 -0.1901  0.5032
 6129SOL    HW130020   2.381   3.260  17.009  2.4879  1.7944  0.4591
 6129SOL    HW230021   2.520   3.259  17.045 -0.3278  1.3035  1.7171
 6130SOL     OW30022   2.036   2.987   7.159  0.1400  0.0834 -0.1051
 6130SOL    HW130023   1.988   2.914   7.197  1.9306 -0.4559  1.0944
 6130SOL    HW230024   2.118   2.979   7.207  0.9866  1.5220 -1.3307
 6131SOL     OW30025   2.199   4.041  11.147 -0.3172  0.3636  0.6168
 6131SOL    HW130026   2.239   4.121  11.179 -1.3813  0.7864  0.8848
 6131SOL    HW230027   2.273   3.987  11.119 -2.5970 -1.1250 -2.5873
 6132SOL     OW30028   4.335   4.056   6.907 -0.5739 -0.3656  0.3339
 6132SOL    HW130029   4.348   3.963   6.888 -1.6276 -0.5827  0.6702
 6132SOL    HW230030   4.422   4.076   6.941 -2.0552  0.1475  3.7759
 6133SOL     OW30031   1.952   4.552   4.548  0.0327 -0.1648  0.2685
 6133SOL    HW130032   2.008   4.598   4.611 -1.8826 -1.2050  2.7098
 6133SOL    HW230033   1.877   4.516   4.596  0.0502  0.1720  0.5478
 6134SOL     OW30034   0.373   2.171  12.857 -0.1927 -0.7595  0.1160
 6134SOL    HW130035   0.315   2.174  12.780  0.2841 -1.7844 -0.2816
 6134SOL    HW230036   0.353   2.084  12.890  0.3412 -0.1832  1.9114
 6135SOL     OW30037   3.154   0.816   6.100 -0.6445 -0.4914  1.0685
 6135SOL    HW130038   3.096   0.860   6.037  2.4980  0.4107 -1.1806
 6135SOL    HW230039   3.100   0.740   6.122  0.5987 -0.8937  2.7520
 6136SOL     OW30040   3.882   4.189   0.168 -0.3483  0.1296 -0.3199
 6136SOL    HW130041   3.958   4.237   0.200  0.2044 -0.3713 -0.9041
 6136SOL    HW230042   3.814   4.256   0.179 -2.6836 -2.3216  0.1897
 6137SOL     OW30043   1.763   1.065   7.804  0.0438 -0.2076  0.0210
 6137SOL    HW130044   1.686   1.048   7.858  0.9907  0.1107  1.4737
 6137SOL    HW230045   1.731   1.080   7.715  0.3157  2.3893  0.3630
 6138SOL     OW30046   0.218   2.250   7.426 -0.3056 -0.3527 -0.4600
 6138SOL    HW130047   0.153   2.308   7.387 -0.5385  0.5927  1.2920
 6138SOL    HW230048   0.239   2.197   7.349 -0.4788  0.1699 -0.8615
 6139SOL     OW30049   4.731   4.146  10.008 -0.4048 -0.2495  0.3675
 6139SOL    HW130050   4.647   4.172   9.970  0.6907  1.9771 -0.5239
 6139SOL    HW230051   4.703   4.077  10.067 -2.0189 -0.6929 -0.9128
 6140SOL     OW30052   3.159   0.090   5.289  0.2547  0.0447 -0.8811
 6140SOL    HW130053   3.106   0.041   5.351  0.5309  0.5538 -0.2454
 6140SOL    HW230054   3.127   0.047   5.210  1.3008 -0.7498 -0.8751
 6141SOL     OW30055   0.417   2.264  17.048  0.2729  0.0935  0.3937
 6141SOL    HW130056   0.361   2.252  16.972  1.4441 -0.1777 -0.4155
 6141SOL    HW230057   0.394   2.184  17.096 -0.5959  1.0262  1.5270
 6142SOL     OW30058   0.727   3.776   9.834 -0.0682 -0.1931 -0.0157
 6142SOL    HW130059   0.803   3.824   9.868 -0.7803  1.2115 -0.4079
 6142SOL    HW230060   0.741   3.789   9.741  0.7728  1.3717  0.3263
 6143SOL     OW30061   4.556   3.286   6.839 -0.2176  0.5395 -0.3000
 6143SOL    HW130062   4.479   3.339   6.859 -0.9867 -0.6387 -0.1531
 6143SOL    HW230063   4.593   3.285   6.928 -0.1954  0.2055 -0.3143
 6144SOL     OW30064   4.390   3.923   8.762 -0.7224 -0.1763  0.0364
 6144SOL    HW130065   4.351   3.951   8.679  0.3080 -0.6285 -0.5888
 6144SOL    HW230066   4.386   3.831   8.736 -2.8777 -0.8300  2.6308
 6145SOL     OW30067   1.802   4.296  16.682 -0.1123 -0.0272  0.0749
 6145SOL    HW130068   1.721   4.245  16.691 -0.9620  0.7238 -3.3407
 6145SOL    HW230069   1.852   4.231  16.633 -0.5317 -0.3158  0.0321
 6146SOL     OW30070   3.113   3.823   6.096  0.0696  0.9076 -0.6622
 6146SOL    HW130071   3.129   3.848   6.187 -1.5370 -1.7775  0.3865
 6146SOL    HW230072   3.195   3.777   6.081  0.7205  1.7459  0.3935
 6147SOL     OW30073   0.743   2.367   6.892  0.3432 -0.0043  0.8843
 6147SOL    HW130074   0.765   2.359   6.984 -2.9043  1.1664  1.7903
 6147SOL    HW230075   0.829   2.346   6.855  0.2834  2.0842 -0.4093
 6148SOL     OW30076   0.348   0.471   0.884 -0.4749 -0.9290 -0.4147
 6148SOL    HW130077   0.405   0.534   0.926  1.2114 -1.9494 -1.1794
 6148SOL    HW230078   0.388   0.454   0.799 -0.3042 -0.2354 -0.4724
 6149SOL     OW30079   2.104   1.081   3.093  0.1733 -0.0140 -0.0587
 6149SOL    HW130080   2.102   1.172   3.121  0.5085  0.1098 -0.4265
 6149SOL    HW230081   2.107   1.093   2.998 -1.9164  0.8525  0.0063
 6150SOL     OW30082   2.757   1.754  11.624 -0.5077 -1.0032 -0.2492
 6150SOL    HW130083   2.738   1.836  11.670 -2.3588 -1.7130  0.2540
 6150SOL    HW230084   2.676   1.733  11.578 -0.7593  0.2304 -0.3782
 6151SOL     OW30085   2.550   3.072   4.356 -0.3156 -0.0966 -0.3323
 6151SOL    HW130086   2.486   3.018   4.309 -1.9349  1.2040  0.3585
 6151SOL    HW230087   2.574   3.141   4.294 -1.0294 -0.0389 -0.5452
 6152SOL     OW30088   0.953   3.200   5.414 -0.0430  0.3577 -0.1373
 6152SOL    HW130089   0.942   3.287   5.452  0.2832  0.1991  0.3230
 6152SOL    HW230090   1.049   3.192   5.420  0.0324  1.0095 -0.4589
 6153SOL     OW30091   1.146   0.841   3.466 -0.6026 -0.1427  0.0711
 6153SOL    HW130092   1.052   0.835   3.483 -0.0007  1.6418  4.0223
 6153SOL    HW230093   1.178   0.755   3.495 -0.1243  0.2716  0.7694
 6154SOL     OW30094   2.768   2.004  10.976  0.2996 -0.2233 -0.2532
 6154SOL    HW130095   2.679   2.029  10.950  0.6504  0.4388 -0.8357
 6154SOL    HW230096   2.805   2.089  11.002 -2.5889  0.4032  1.8408
 6155SOL     OW30097   3.435   2.097   2.951 -0.1653  0.0581  0.5393
 6155SOL    HW130098   3.362   2.150   2.919 -0.0194  0.8049  1.4513
 6155SOL    HW230099   3.500   2.168   2.942  1.5808 -1.6573 -0.3511
 6156SOL     OW30100   4.614   3.198   2.574  0.2313 -0.1221 -0.3543
 6156SOL    HW130101   4.552   3.188   2.501 -0.7077  1.4726  0.2170
 6156SOL    HW230102   4.606   3.293   2.582  2.2666  0.0033  0.1483
 6157SOL     OW30103   0.426   4.209   4.862 -0.2552 -0.0561  0.0863
 6157SOL    HW130104   0.495   4.251   4.811 -0.2620 -2.3227 -1.8090
 6157SOL    HW230105   0.476   4.190   4.942 -0.5799 -1.1377  0.0326
 6158SOL     OW30106   2.259   3.448   9.627  0.3060  0.6259  0.4317
 6158SOL    HW130107   2.260   3.352   9.625  1.4319  0.5826  3.2330
 6158SOL    HW230108   2.303   3.470   9.545  0.2299  1.5600  0.6449
 6159SOL     OW30109   4.490   0.798   7.833  0.6384 -0.3448 -0.4675
 6159SOL    HW130110   4.439   0.727   7.873 -0.6265  1.1198  0.5331
 6159SOL    HW230111   4.454   0.794   7.745  1.7367  0.7997 -0.9623
 6160SOL     OW30112   0.052   3.767   5.766  0.0820 -0.1427  0.4785
 6160SOL    HW130113   4.700   3.782   5.742  0.1052 -0.2119  0.3456
 6160SOL    HW230114   0.055   3.819   5.846  2.1187 -0.9387  0.9304
 6161SOL     OW30115   1.961   4.691  12.249 -0.0449 -0.1298  0.3303
 6161SOL    HW130116   1.992   4.603  12.228  0.5213  0.6224 -2.0065
 6161SOL    HW230117   1.987   4.704  12.340  0.5060 -1.6480  0.3930
 6162SOL     OW30118   0.456   4.663  13.184 -0.4453  0.4193  0.4101
 6162SOL    HW130119   0.444   4.699  13.272 -1.7196  0.2337  0.3041
 6162SOL    HW230120   0.549   4.641  13.189 -1.0098 -1.2891  3.3173
 6163SOL     OW30121   1.781   3.992   2.816  0.2798  0.2509  0.4487
 6163SOL    HW130122   1.846   3.923   2.797 -0.4088  0.8150 -3.9516
 6163SOL    HW230123   1.750   4.003   2.726  0.0338 -2.3381  0.1975
 6164SOL     OW30124   3.992   3.313   7.794 -0.1503  0.1335 -0.3644
 6164SOL    HW130125   3.901   3.291   7.817 -0.1648  0.4928 -0.0710
 6164SOL    HW230126   4.035   3.248   7.849 -0.4485  2.1818  2.2692
 6165SOL     OW30127   0.377   0.258  17.570  0.0257  0.8244  0.0786
 6165SOL    HW130128   0.434   0.319  17.619 -0.9781 -0.0797  2.3910
 6165SOL    HW230129   0.409   0.277  17.482  1.4572  3.0778  1.0604
 6166SOL     OW30130   4.641   2.461  14.485 -0.0737  0.4530  0.1772
 6166SOL    HW130131   4.672   2.551  14.478 -2.4187  1.0915 -2.1964
 6166SOL    HW230132   4.705   2.405  14.441 -1.2862  0.4082 -1.5554
 6167SOL     OW30133   4.644   0.049  10.611  0.0813  0.3864  0.0230
 6167SOL    HW130134   4.552   0.028  10.595 -0.0353 -0.6615  2.0385
 6167SOL    HW230135   4.635   0.140  10.582 -0.8979 -0.8407 -3.5717
 6168SOL     OW30136   0.922   2.937   4.041  0.1878 -0.0936  0.3043
 6168SOL    HW130137   0.994   2.890   4.083  0.4705 -0.2892 -0.3951
 6168SOL    HW230138   0.963   2.958   3.957 -0.9581  1.4283  0.1214
 6169SOL     OW30139   4.666   2.719   9.266 -0.4519 -0.2996 -0.6731
 6169SOL    HW130140   4.702   2.751   9.182  0.8146 -0.6272 -0.2605
 6169SOL    HW230141   4.704   2.631   9.276 -1.0687 -0.4017  0.7004
 6170SOL     OW30142   1.267   2.752   3.150 -0.3873 -0.1290 -0.3958
 6170SOL    HW130143   1.261   2.718   3.240  3.1802 -2.2325 -0.9795
 6170SOL    HW230144   1.279   2.673   3.098  2.2744 -1.2713  1.9243
 6171SOL     OW30145   0.872   4.367   8.672 -0.8112  0.3224 -0.1036
 6171SOL    HW130146   0.854   4.460   8.683 -1.7172  0.2025 -0.6163
 6171SOL    HW230147   0.958   4.377   8.713 -1.0323  0.8377  0.2352
 6172SOL     OW30148   3.285   3.320   9.016  0.1076 -0.2512 -0.0281
 6172SOL    HW130149   3.343   3.396   9.014  1.0431 -0.8295  4.0220
 6172SOL    HW230150   3.213   3.351   8.961 -0.7241  0.4390  1.4260
 6173SOL     OW30151   3.427   1.396   7.263  0.0953  0.0597 -0.4990
 6173SOL    HW130152   3.488   1.433   7.200 -1.7600  2.4589 -0.9090
 6173SOL    HW230153   3.378   1.333   7.210 -0.2952  0.8375 -1.0631
 6174SOL     OW30154   3.746   0.453   3.237  0.5264 -0.2601 -0.6072
 6174SOL    HW130155   3.803   0.530   3.241  0.3316 -0.0330 -2.1559
 6174SOL    HW230156   3.735   0.422   3.147  0.5755 -0.0344 -0.6902
 6175SOL     OW30157   3.481   1.093   8.857 -0.1835 -0.0673 -0.2858
 6175SOL    HW130158   3.569   1.056   8.869 -0.2735  0.0330  0.7123
 6175SOL    HW230159   3.469   1.141   8.939 -1.4804  0.7110 -0.9388
 6176SOL     OW30160   2.304   3.392  16.893 -0.0469  0.3795  0.1477
 6176SOL    HW130161   2.240   3.463  16.888 -0.1324  0.4052  1.6525
 6176SOL    HW230162   2.373   3.429  16.837 -1.6157  0.6675 -1.5817
 6177SOL     OW30163   2.305   2.573   1.893 -0.6038  0.3061 -0.3491
 6177SOL    HW130164   2.321   2.499   1.952 -1.0787 -0.1513 -0.7890
 6177SOL    HW230165   2.273   2.634   1.958 -1.6939 -0.8440  0.1874
 6178SOL     OW30166   2.520   1.465   6.652  0.3020  0.1842  0.6708
 6178SOL    HW130167   2.603   1.453   6.607 -1.3456 -1.9375 -1.8194
 6178SOL    HW230168   2.493   1.373   6.664  1.3248 -0.1078  0.7393
 6179SOL     OW30169   2.716   0.018   0.503 -0.3771 -0.0039  0.0184
 6179SOL    HW130170   2.792   4.728   0.452 -0.3512  0.2546 -0.0942
 6179SOL    HW230171   2.755   0.026   0.590 -1.1498 -0.1064  0.3715
 6180SOL     OW30172   3.344   4.377   2.082  0.1264 -0.2925  0.2023
 6180SOL    HW130173   3.387   4.416   2.158  0.5628 -1.7601  0.7236
 6180SOL    HW230174   3.279   4.313   2.112  0.4736 -1.0603 -0.6837
 6181SOL     OW30175   4.008   3.424  16.043  0.5143 -0.2349 -0.9110
 6181SOL    HW130176   3.920   3.389  16.036  0.2574  0.1744  0.3153
 6181SOL    HW230177   3.985   3.503  15.993  1.8640 -1.3266 -3.2973
 6182SOL     OW30178   4.127   4.435   8.381  0.4843  0.0572 -0.1730
 6182SOL    HW130179   4.222   4.433   8.395  0.5102 -1.4407 -0.5288
 6182SOL    HW230180   4.105   4.342   8.386 -1.8656  0.4592 -3.3932
 6183SOL     OW30181   0.930   0.451   5.930 -0.3842  0.5507  0.4566
 6183SOL    HW130182   1.016   0.476   5.895 -0.3832 -1.0207 -0.6638
 6183SOL    HW230183   0.865   0.479   5.866  0.5704 -0.1292 -0.8005
 6184SOL     OW30184   3.987   0.424   8.308  0.2243  0.5246  0.1994
 6184SOL    HW130185   3.898   0.401   8.283 -0.0033 -0.9271  2.3869
 6184SOL    HW230186   3.982   0.393   8.398 -2.6631 -2.4232 -0.9874
 6185SOL     OW30187   4.371   0.097   4.984  0.2203  0.2042 -0.1411
 6185SOL    HW130188   4.409   0.100   5.071  0.4549  4.0363 -0.3347
 6185SOL    HW230189   4.441   0.116   4.921 -1.1106  1.2485 -1.3289
 6186SOL     OW30190   1.331   3.455   4.595  0.9117 -0.1778 -0.8564
 6186SOL    HW130191   1.319   3.375   4.545 -0.7982 -0.0409 -0.6696
 6186SOL    HW230192   1.373   3.525   4.544  0.1933 -0.4226 -1.7991
 6187SOL     OW30193   3.523   2.837  10.488 -0.5651 -0.2584 -0.7427
 6187SOL    HW130194   3.494   2.781  10.560  1.6925 -3.2679 -2.1626
 6187SOL    HW230195   3.569   2.895  10.548 -0.9234  0.1728 -0.8855
 6188SOL     OW30196   0.478   3.743   8.780 -0.2830 -0.8405 -0.4766
 6188SOL    HW130197   0.415   3.752   8.851  0.7185  1.8792  0.0708
 6188SOL    HW230198   0.565   3.773   8.807 -0.5413 -0.5363  0.0089
 6189SOL     OW30199   2.178   1.511   5.442 -0.2291 -0.2144  0.0193
 6189SOL    HW130200   2.096   1.557   5.463 -0.6333 -1.5011  1.2652
 6189SOL    HW230201   2.188   1.458   5.521  2.5264  0.3297  0.0477
 6190SOL     OW30202   0.394   4.736   4.688  0.8852 -0.2691  0.1514
 6190SOL    HW130203   0.412   4.664   4.748  1.4054 -0.9420 -0.8192
 6190SOL    HW230204   0.306   0.019   4.720 -0.7883 -1.3079 -3.7944
 6191SOL     OW30205   2.583   2.374   9.766  0.1597 -0.1203 -0.0000
 6191SOL    HW130206   2.492   2.350   9.780 -0.0849  2.0808  2.1588
 6191SOL    HW230207   2.623   2.301   9.813 -0.9325  0.5775  1.9828
 6192SOL     OW30208   1.603   0.113   8.645 -0.5047 -0.6556 -0.4063
 6192SOL    HW130209   1.653   0.154   8.715 -2.3851 -0.4206  0.8068
 6192SOL    HW230210   1.638   0.024   8.645 -0.5801 -0.6949 -2.4373
 6193SOL     OW30211   2.684   1.540   5.298 -0.0439 -0.6633  0.8310
 6193SOL    HW130212   2.627   1.553   5.374 -0.3931 -0.6797  0.5769
 6193SOL    HW230213   2.640   1.589   5.228  3.1304  0.9849 -0.0128
 6194SOL     OW30214   2.408   2.257   3.783 -0.2361 -0.1499  0.0205
 6194SOL    HW130215   2.317   2.253   3.811  0.0324 -0.5127  0.8376
 6194SOL    HW230216   2.449   2.195   3.843 -0.8946 -0.1800  0.4364
 6195SOL     OW30217   2.606   4.599   9.419 -0.3913  0.2374 -0.0213
 6195SOL    HW130218   2.523   4.639   9.394  0.3023  1.3847 -0.4883
 6195SOL    HW230219   2.656   4.672   9.456  0.4102 -0.7404  0.8379
 6196SOL     OW30220   3.683   2.172  14.595 -0.2005 -0.0359  0.8146
 6196SOL    HW130221   3.637   2.117  14.658  1.1178 -1.9964  0.0366
 6196SOL    HW230222   3.628   2.176  14.517  1.1401 -4.3896 -0.3668
 6197SOL     OW30223   0.954   4.160   8.025 -0.2501 -0.0605 -0.6358
 6197SOL    HW130224   0.977   4.184   8.114  0.1750  1.4654 -1.1524
 6197SOL    HW230225   0.967   4.065   8.024 -0.0061 -0.0268 -0.6381
 6198SOL     OW30226   1.661   3.404   6.808 -0.4767 -0.4851 -0.3561
 6198SOL    HW130227   1.651   3.495   6.836 -0.5995 -0.9832  1.2256
 6198SOL    HW230228   1.753   3.391   6.831 -0.2081 -0.1809 -1.3030
 6199SOL     OW30229   2.067   3.551   5.807 -0.0957  0.3097 -0.4298
 6199SOL    HW130230   2.076   3.464   5.769  2.0034  0.5565 -0.4686
 6199SOL    HW230231   2.126   3.548   5.882 -2.0462  0.1192  1.1167
 6200SOL     OW30232   3.959   1.373   2.580  0.1660  0.3144 -0.1254
 6200SOL    HW130233   3.961   1.351   2.486  1.8564  2.1112 -0.5045
 6200SOL    HW230234   3.923   1.297   2.626  0.2412  0.9072  0.8988
 6201SOL     OW30235   1.098   1.187   8.011 -0.6675  0.0229  0.3395
 6201SOL    HW130236   1.073   1.160   8.100  0.0644  1.2494  0.9202
 6201SOL    HW230237   1.013   1.211   7.975 -0.8242 -3.0130 -1.2838
 6202SOL     OW30238   0.386   4.384  14.897 -0.0080  0.2221 -0.4396
 6202SOL    HW130239   0.339   4.364  14.816  0.7324 -1.0180 -0.5695
 6202SOL    HW230240   0.399   4.478  14.886 -0.0099  0.3418  0.6119
 6203SOL     OW30241   0.881   2.699   9.775 -0.7163 -0.3404  0.4345
 6203SOL    HW130242   0.942   2.696   9.849  1.1679  1.0762 -1.0780
 6203SOL    HW230243   0.854   2.790   9.782 -0.4477 -0.0108 -2.9202
 6204SOL     OW30244   1.899   1.921  11.062  0.0031 -0.4692 -0.1024
 6204SOL    HW130245   1.855   1.948  11.143 -0.2837 -2.5227  0.4528
 6204SOL    HW230246   1.965   1.863  11.101 -0.3131 -0.7024  0.0972
 6205SOL     OW30247   3.903   1.339   5.689  0.6018 -0.4354  0.2812
 6205SOL    HW130248   3.856   1.260   5.716  0.1805 -0.8442 -1.6227
 6205SOL    HW230249   3.835   1.404   5.670 -0.9323 -1.7387  1.4265
 6206SOL     OW30250   0.155   0.640   4.472 -0.1076  0.0150 -0.5461
 6206SOL    HW130251   0.150   0.718   4.418  1.3157  0.7327  0.3427
 6206SOL    HW230252   0.248   0.621   4.463 -0.1167 -0.6655  0.6688
 6207SOL     OW30253   2.244   1.332   6.078  0.4022  0.3936 -0.6968
 6207SOL    HW130254   2.160   1.360   6.042  0.0945  0.3314 -0.0318
 6207SOL    HW230255   2.230   1.241   6.107  0.6071 -0.1116 -2.1868
 6208SOL     OW30256   2.190   2.231   7.650 -0.1538 -0.0611  0.1153
 6208SOL    HW130257   2.202   2.171   7.576  0.1036  1.7312 -1.3038
 6208SOL    HW230258   2.272   2.208   7.695 -0.7193  0.9633  1.6643
 6209SOL     OW30259   3.016   3.464   2.654  0.1260  0.1531 -0.2006
 6209SOL    HW130260   3.022   3.521   2.577 -1.5837 -1.4089 -1.5102
 6209SOL    HW230261   3.081   3.397   2.635  0.3026  0.3103 -0.1470
 6210SOL     OW30262   0.321   1.925  12.933 -0.9303  0.1417 -0.0547
 6210SOL    HW130263   0.272   1.849  12.902 -1.2404  0.2219  0.2352
 6210SOL    HW230264   0.308   1.922  13.028 -2.1094 -0.3237 -0.2193
 6211SOL     OW30265   4.430   3.894   2.370 -0.4374  0.8777 -0.2179
 6211SOL    HW130266   4.448   3.987   2.358 -0.8835  1.0219  0.2198
 6211SOL    HW230267   4.515   3.864   2.402  0.5557 -0.0967 -3.7321
 6212SOL     OW30268   3.075   1.596   1.344  0.0928  0.5898  0.8485
 6212SOL    HW130269   3.076   1.688   1.368 -1.9042  1.2300 -1.4945
 6212SOL    HW230270   3.112   1.548   1.418  1.6327 -0.4617 -0.5898
 6213SOL     OW30271   2.666   0.545   2.354  0.1784  0.3041 -0.6049
 6213SOL    HW130272   2.637   0.554   2.444  2.1832  0.3958  0.0348
 6213SOL    HW230273   2.581   0.543   2.311  0.4542  3.4523 -1.3352
 6214SOL     OW30274   3.918   2.564   8.183  0.0421  0.0605 -0.3891
 6214SOL    HW130275   3.946   2.559   8.092  0.4922 -0.6418 -0.2180
 6214SOL    HW230276   3.824   2.573   8.169 -0.4825 -0.3395  2.7838
 6215SOL     OW30277   1.685   2.245   8.659 -0.3291  0.2039 -0.0320
 6215SOL    HW130278   1.661   2.226   8.569 -0.6330 -1.9289  0.4981
 6215SOL    HW230279   1.647   2.167   8.699 -0.2496 -0.8610 -2.0300
 6216SOL     OW30280   1.351   3.436   7.134 -0.4040  0.3790 -0.5253
 6216SOL    HW130281   1.382   3.465   7.219 -1.6107 -2.3242  0.8495
 6216SOL    HW230282   1.431   3.401   7.094 -0.7454 -2.2245  1.0940
 6217SOL     OW30283   0.707   4.599   3.269  0.6213 -0.3824  0.2321
 6217SOL    HW130284   0.617   4.581   3.243  1.3235 -3.5999 -0.0554
 6217SOL    HW230285   0.739   4.573   3.183  1.8324  1.5240  0.1151
 6218SOL     OW30286   4.019   2.095   4.347 -0.2107 -0.0378 -0.5165
 6218SOL    HW130287   3.942   2.086   4.291  0.8568  0.2923 -2.0121
 6218SOL    HW230288   4.086   2.109   4.280  0.4675 -0.8579 -0.0094
 6219SOL     OW30289   2.354   0.345  16.763 -0.4293 -0.5650  0.4614
 6219SOL    HW130290   2.330   0.267  16.713 -2.7573 -0.7560  1.8766
 6219SOL    HW230291   2.364   0.294  16.843 -1.0064  0.4168  1.1497
 6220SOL     OW30292   0.964   0.138  11.619  0.5490  0.4148  0.1955
 6220SOL    HW130293   1.044   0.118  11.571  0.3992  0.8783 -0.2477
 6220SOL    HW230294   0.967   0.061  11.676  1.1142  1.5367  1.6923
 6221SOL     OW30295   3.791   4.302   6.632  0.0428  0.5086  0.5210
 6221SOL    HW130296   3.770   4.234   6.696  0.5290  1.1738  1.3756
 6221SOL    HW230297   3.724   4.366   6.658  0.8152  1.6227 -0.2401
 6222SOL     OW30298   0.492   3.951   9.164 -0.6532 -0.2640  0.3898
 6222SOL    HW130299   0.433   3.979   9.094 -0.0499 -0.7831 -0.3257
 6222SOL    HW230300   0.578   3.969   9.125 -0.7277 -0.1126  0.2926
 6223SOL     OW30301   0.851   1.316   8.321 -0.4358  0.3429 -0.4488
 6223SOL    HW130302   0.841   1.367   8.241 -0.2827  0.6784 -0.2511
 6223SOL    HW230303   0.851   1.230   8.279 -1.6495  0.0823  0.0645
 6224SOL     OW30304   3.987   2.139  11.418  0.2538 -0.0632 -0.2914
 6224SOL    HW130305   4.076   2.162  11.391  0.2174  1.2522  0.6693
 6224SOL    HW230306   4.020   2.065  11.469 -1.6774 -1.1056 -0.5614
 6225SOL     OW30307   3.403   1.960   8.587 -0.5811  0.0082 -0.2357
 6225SOL    HW130308   3.465   1.900   8.630  0.4176  1.8789  0.9409
 6225SOL    HW230309   3.448   2.044   8.596 -0.9388  0.2205 -0.4597
 6226SOL     OW30310   1.203   3.204  10.989 -0.6569  0.0439 -0.3921
 6226SOL    HW130311   1.186   3.177  10.898  0.1731 -0.8585 -0.2847
 6226SOL    HW230312   1.299   3.208  10.997 -0.7268  0.2402  0.3226
 6227SOL     OW30313   4.310   1.558   4.573 -0.3107  0.0081  0.2392
 6227SOL    HW130314   4.280   1.601   4.653  0.1093  2.2138 -0.7928
 6227SOL    HW230315   4.309   1.467   4.602  1.0685 -0.3535 -0.8237
 6228SOL     OW30316   1.513   1.321  15.847 -0.2759  0.2633 -0.2811
 6228SOL    HW130317   1.480   1.299  15.760 -0.6435  0.8941 -0.3019
 6228SOL    HW230318   1.469   1.404  15.866  0.2237  0.4697 -0.0265
 6229SOL     OW30319   3.340   0.358   1.651  0.2258  0.1156  0.2920
 6229SOL    HW130320   3.341   0.417   1.576 -1.2949 -0.9504 -0.5711
 6229SOL    HW230321   3.363   0.418   1.722 -1.4195  0.2230  0.7402
 6230SOL     OW30322   2.858   4.089   5.965  0.4255 -0.1138  0.1988
 6230SOL    HW130323   2.783   4.031   5.969  1.7261 -1.8794 -0.9309
 6230SOL    HW230324   2.822   4.160   5.912 -0.3886 -1.3808 -0.9551
 6231SOL     OW30325   4.163   0.852   8.866 -0.0339 -0.1174  0.4056
 6231SOL    HW130326   4.182   0.802   8.787  0.7588  3.7853 -1.8778
 6231SOL    HW230327   4.243   0.905   8.871  0.6211 -1.4028  3.4496
 6232SOL     OW30328   2.564   1.444   1.999 -0.8234 -0.2343  0.4221
 6232SOL    HW130329   2.605   1.510   2.055 -1.3989  1.1032 -0.7280
 6232SOL    HW230330   2.542   1.495   1.921  2.5020 -1.5881 -1.4202
 6233SOL     OW30331   1.993   3.042   0.259 -0.2450  0.3872  0.6157
 6233SOL    HW130332   2.011   3.110   0.194  0.3119  0.9327  1.3316
 6233SOL    HW230333   2.023   2.963   0.215 -0.9130 -0.2502  1.2900
 6234SOL     OW30334   2.383   4.498   6.221 -0.2277  0.4064  0.4977
 6234SOL    HW130335   2.356   4.590   6.212 -1.0570  0.0267 -0.8240
 6234SOL    HW230336   2.471   4.501   6.260  0.0146 -2.3670  0.1264
 6235SOL     OW30337   0.947   1.150   4.177  0.6291  0.1075  0.0876
 6235SOL    HW130338   0.867   1.117   4.136  0.3216  1.5358 -0.4693
 6235SOL    HW230339   1.015   1.094   4.140 -0.6534 -0.6857 -1.0389
 6236SOL     OW30340   4.011   2.160   4.838 -0.5196 -0.3530  0.5002
 6236SOL    HW130341   4.086   2.215   4.817 -0.7667 -1.1464 -2.5639
 6236SOL    HW230342   3.940   2.224   4.843 -0.6766 -0.4334 -0.7875
 6237SOL     OW30343   1.280   3.302   8.441  0.5146  0.5403 -0.1577
 6237SOL    HW130344   1.188   3.278   8.433 -0.3381  3.9758 -0.7046
 6237SOL    HW230345   1.276   3.394   8.415 -1.8850  1.0298  1.9832
 6238SOL     OW30346   1.962   2.135   4.505 -0.0866 -0.2959 -0.9224
 6238SOL    HW130347   1.966   2.127   4.410  2.1954  2.6312 -1.0666
 6238SOL    HW230348   2.002   2.059   4.547  0.8936  1.4713  1.3283
 6239SOL     OW30349   1.806   2.143   2.977  0.1764 -0.2293 -0.1620
 6239SOL    HW130350   1.789   2.218   2.920 -0.8840 -0.0670  0.3754
 6239SOL    HW230351   1.716   2.122   3.001 -0.2025  1.0043 -0.5369
 6240SOL     OW30352   2.212   0.622  11.506 -0.3501  0.2260  0.1662
 6240SOL    HW130353   2.261   0.619  11.588  0.3861 -0.5680 -0.2982
 6240SOL    HW230354   2.157   0.547  11.528  0.5861 -0.1249  1.2867
 6241SOL     OW30355   3.478   2.930   1.817  0.1414 -0.0926 -0.2134
 6241SOL    HW130356   3.412   2.898   1.879 -1.8477  1.5811 -1.4748
 6241SOL    HW230357   3.510   2.855   1.768  0.9407 -0.1617  0.4076
 6242SOL     OW30358   1.021   1.024   7.292  0.2767  0.7103  0.3930
 6242SOL    HW130359   1.049   1.066   7.211 -1.3546  0.3911 -0.3554
 6242SOL    HW230360   1.053   0.934   7.286 -0.1098  0.5934  0.0648
 6243SOL     OW30361   0.274   0.207   3.673 -0.3129  0.0870  0.2478
 6243SOL    HW130362   0.368   0.194   3.683 -0.0511  0.9078 -1.1887
 6243SOL    HW230363   0.275   0.261   3.594 -2.0534 -0.7104 -0.3322
 6244SOL     OW30364   2.860   4.665  12.497 -0.1954  0.6858  0.1801
 6244SOL    HW130365   2.884   4.715  12.575 -0.3095 -0.9144  1.2512
 6244SOL    HW230366   2.821   4.733  12.443  0.4513  2.5818  2.0781
 6245SOL     OW30367   3.462   2.715  17.254 -0.1752 -0.0576  0.4834
 6245SOL    HW130368   3.436   2.768  17.329  1.1348  1.3412 -0.0290
 6245SOL    HW230369   3.389   2.656  17.240 -1.8254  1.9438  0.6800
 6246SOL     OW30370   2.412   3.511  11.185  0.2982  0.0248 -0.2221
 6246SOL    HW130371   2.430   3.451  11.113 -0.9659 -0.6195  0.0112
 6246SOL    HW230372   2.455   3.465  11.257  0.6472  0.4005 -0.1885
 6247SOL     OW30373   1.307   4.285   5.149 -0.0640  0.1357 -0.1999
 6247SOL    HW130374   1.267   4.340   5.216  1.7607  2.2597 -0.8437
 6247SOL    HW230375   1.321   4.352   5.083  0.8000  0.6255  0.4754
 6248SOL     OW30376   0.294   1.806   9.699 -0.2823  0.6426 -0.0456
 6248SOL    HW130377   0.226   1.811   9.767 -1.4749 -1.4312 -1.0923
 6248SOL    HW230378   0.250   1.739   9.648 -1.6805  0.0303  1.9450
 6249SOL     OW30379   4.293   1.141   7.366 -0.5850 -0.5455 -0.0802
 6249SOL    HW130380   4.198   1.152   7.359 -0.6260  0.2844  1.7288
 6249SOL    HW230381   4.315   1.234   7.372 -0.7023 -0.6110  1.3264
 6250SOL     OW30382   1.416   1.339   1.539  0.2556 -0.6888  0.3053
 6250SOL    HW130383   1.456   1.289   1.611  0.6975  0.9151  1.1716
 6250SOL    HW230384   1.452   1.297   1.461 -0.2313 -0.8368  0.1594
 6251SOL     OW30385   2.191   3.366   2.572 -0.3708 -0.1834  0.1486
 6251SOL    HW130386   2.270   3.324   2.537 -1.4166 -1.4426 -0.6926
 6251SOL    HW230387   2.217   3.458   2.574 -1.8826  0.2485  0.1825
 6252SOL     OW30388   1.795   3.034   7.417 -0.5579  0.5562  0.5403
 6252SOL    HW130389   1.782   3.121   7.381 -0.3441  1.2536  2.1276
 6252SOL    HW230390   1.889   3.021   7.409 -0.9414 -0.7789 -1.6917
 6253SOL     OW30391   4.560   4.104   8.449 -0.0066  0.3891 -0.2177
 6253SOL    HW130392   4.591   4.047   8.378  0.8049  1.7838 -0.9775
 6253SOL    HW230393   4.593   4.189   8.419  2.9321 -0.6486  0.1048
 6254SOL     OW30394   2.590   3.133   1.301  0.2397  0.4175 -0.0739
 6254SOL    HW130395   2.562   3.224   1.308 -1.3941 -0.1747  1.0843
 6254SOL    HW230396   2.683   3.153   1.292  0.6466 -2.7425 -2.6095
 6255SOL     OW30397   3.667   0.169   5.555  0.7138  0.1028 -0.5381
 6255SOL    HW130398   3.758   0.171   5.584  1.0689 -0.8241 -1.6151
 6255SOL    HW230399   3.662   0.074   5.565  0.1169  0.1553 -0.3275
 6256SOL     OW30400   2.695   3.600   7.791  0.3023  0.2325  0.2226
 6256SOL    HW130401   2.670   3.680   7.745  2.8377  1.2108  0.5403
 6256SOL    HW230402   2.625   3.585   7.855  0.7218 -1.5330  0.2759
 6257SOL     OW30403   3.201   2.580   4.452 -0.3472 -0.6846  0.0727
 6257SOL    HW130404   3.138   2.562   4.522 -2.2454  2.0720 -0.8737
 6257SOL    HW230405   3.154   2.568   4.369 -1.4950 -0.1611  0.6459
 6258SOL     OW30406   2.430   4.571   4.652  0.1990  0.1844  1.0388
 6258SOL    HW130407   2.391   4.598   4.569  1.6453  0.1260  0.3311
 6258SOL    HW230408   2.520   4.601   4.637  0.9748 -0.7398  3.8862
 6259SOL     OW30409   4.332   4.688   1.696 -0.5612  0.0328  0.0797
 6259SOL    HW130410   4.381   4.632   1.757  0.0868  1.2983  0.7280
 6259SOL    HW230411   4.280   0.006   1.752  3.1430  1.4155  2.1528
 6260SOL     OW30412   1.404   2.895   5.039 -0.1982 -0.1159 -0.3520
 6260SOL    HW130413   1.422   2.859   4.952  1.1480 -0.7843  0.2026
 6260SOL    HW230414   1.326   2.945   5.015  0.0711 -0.0545 -1.1035
 6261SOL     OW30415   1.211   1.746  16.458  0.0019  0.4384 -0.2843
 6261SOL    HW130416   1.206   1.838  16.434 -1.3265  0.9277  1.8194
 6261SOL    HW230417   1.140   1.708  16.406  0.1571 -1.5492  0.9734
 6262SOL     OW30418   0.583   1.386   1.872 -0.2248 -0.5669  0.0813
 6262SOL    HW130419   0.550   1.453   1.813  2.1573  1.4052  1.0198
 6262SOL    HW230420   0.570   1.424   1.959 -1.3856 -0.1999 -0.2421
 6263SOL     OW30421   0.255   2.285   9.322 -0.0809  0.5283 -0.4779
 6263SOL    HW130422   0.334   2.324   9.358  0.0281 -1.9734  2.0132
 6263SOL    HW230423   0.200   2.363   9.319 -0.9955 -0.1078 -0.4373
 6264SOL     OW30424   3.770   0.356  13.549 -0.0106  0.0394 -0.5527
 6264SOL    HW130425   3.675   0.348  13.537 -0.3582  0.3248  1.9830
 6264SOL    HW230426   3.796   0.304  13.474 -0.1274 -3.0852  1.5593
 6265SOL     OW30427   4.569   2.957   5.813 -0.2376  0.0467  0.7093
 6265SOL    HW130428   4.653   2.930   5.775 -1.7053 -0.3065 -2.3323
 6265SOL    HW230429   4.536   2.876   5.851 -0.1771  0.6406  2.0243
 6266SOL     OW30430   3.386   2.370  16.622  0.2126  0.2729 -0.1951
 6266SOL    HW130431   3.393   2.460  16.653  2.9559 -0.0234  0.0385
 6266SOL    HW230432   3.418   2.381  16.532  0.2038 -0.8963 -0.3411
 6267SOL     OW30433   3.184   0.757   9.556 -0.2493 -0.3143 -0.5197
 6267SOL    HW130434   3.166   0.846   9.586  2.9748 -0.6841  2.5962
 6267SOL    HW230435   3.134   0.759   9.475  1.1124 -0.6996 -1.3725
 6268SOL     OW30436   2.929   3.180   8.122 -0.3639  0.0044  0.1684
 6268SOL    HW130437   2.909   3.087   8.131 -0.2919 -0.2978 -2.8145
 6268SOL    HW230438   2.889   3.176   8.035 -0.3661 -0.9876  0.2160
 6269SOL     OW30439   3.287   0.689   6.917  0.9332  0.2842 -0.3587
 6269SOL    HW130440   3.360   0.716   6.862 -0.2992  0.0504 -2.1209
 6269SOL    HW230441   3.214   0.748   6.896  0.8365  0.6055  0.9261
 6270SOL     OW30442   0.961   2.724  10.325  0.1772  0.1349 -0.5450
 6270SOL    HW130443   0.927   2.656  10.266  0.9009 -0.4777 -0.2569
 6270SOL    HW230444   0.998   2.666  10.392 -2.4336  0.3857  1.1606
 6271SOL     OW30445   4.326   3.599   9.803 -0.4586  0.1433  0.1710
 6271SOL    HW130446   4.312   3.601   9.898  2.0963  0.9952  0.5262
 6271SOL    HW230447   4.369   3.683   9.790 -1.0766  0.4334 -0.0061
 6272SOL     OW30448   1.828   2.691   3.742 -0.2811 -0.1488  0.0792
 6272SOL    HW130449   1.910   2.721   3.781 -0.3113  1.9311 -1.4406
 6272SOL    HW230450   1.803   2.619   3.800 -1.2095  0.9108  1.0126
 6273SOL     OW30451   4.405   0.442   1.051 -0.2094  0.0632 -0.1016
 6273SOL    HW130452   4.483   0.487   1.082  1.1188 -0.4726 -2.6543
 6273SOL    HW230453   4.400   0.495   0.971 -0.6674  0.4101  0.1507
 6274SOL     OW30454   2.574   4.426   4.300 -0.2215 -0.0844 -0.0937
 6274SOL    HW130455   2.582   4.448   4.207 -0.7193  0.4097 -0.0255
 6274SOL    HW230456   2.495   4.480   4.304 -0.7079 -0.7376 -0.7094
 6275SOL     OW30457   3.006   1.025   4.897 -0.5031  0.6249  0.3488
 6275SOL    HW130458   2.944   1.092   4.867 -1.4836 -0.1780  0.5861
 6275SOL    HW230459   3.077   1.086   4.916  0.7321 -1.6781  3.1603
 6276SOL     OW30460   4.675   3.897   4.186 -0.1162  0.0126 -0.1292
 6276SOL    HW130461   4.649   3.988   4.176  1.0120  0.4238  0.8430
 6276SOL    HW230462   4.631   3.865   4.264 -0.0122 -0.4460 -0.2534
 6277SOL     OW30463   0.664   3.247  12.448  0.7794  0.6359  0.1896
 6277SOL    HW130464   0.731   3.315  12.460  0.3395  0.1879  4.8188
 6277SOL    HW230465   0.705   3.166  12.478 -1.1523  0.5996  2.6834
 6278SOL     OW30466   4.181   1.032   3.847 -0.0606  1.1282 -0.6391
 6278SOL    HW130467   4.090   1.060   3.855 -0.1714  0.9699 -1.3595
 6278SOL    HW230468   4.221   1.093   3.785  1.7184  0.8516  0.2509
 6279SOL     OW30469   0.729   3.388   6.579 -0.1260 -0.1391 -0.2054
 6279SOL    HW130470   0.740   3.299   6.546  2.0131 -0.5363  1.5485
 6279SOL    HW230471   0.808   3.419   6.624 -2.4779  1.5978  2.7487
 6280SOL     OW30472   4.695   4.457  14.539  0.0432 -0.5635  0.6643
 6280SOL    HW130473   4.638   4.380  14.546 -0.0351 -0.6636 -1.0333
 6280SOL    HW230474   4.630   4.522  14.513  0.6604 -0.2161 -0.0149
 6281SOL     OW30475   4.519   1.910   0.528  0.1286 -0.0372  0.1791
 6281SOL    HW130476   4.435   1.866   0.512  1.2803 -1.4871 -1.9057
 6281SOL    HW230477   4.507   2.005   0.521 -0.5763 -0.0929  0.6323
 6282SOL     OW30478   4.014   0.829   3.480 -0.3509  0.1484  0.3042
 6282SOL    HW130479   3.983   0.908   3.524  0.4779 -0.8446  2.6861
 6282SOL    HW230480   4.091   0.819   3.537 -0.7315 -0.3223  0.7395
 6283SOL     OW30481   3.336   0.798  17.363 -0.3324  0.0488 -0.8123
 6283SOL    HW130482   3.283   0.864  17.407 -0.9563 -1.5663  0.8248
 6283SOL    HW230483   3.411   0.850  17.334  0.8173 -0.8157  0.6364
 6284SOL     OW30484   3.567   1.937   6.467  0.0233 -0.1662 -0.5289
 6284SOL    HW130485   3.636   2.002   6.462 -0.2939  0.0890 -1.6640
 6284SOL    HW230486   3.560   1.913   6.374  2.4930 -0.6212 -0.5947
 6285SOL     OW30487   0.968   2.830  13.108  0.3321 -0.6558 -0.9980
 6285SOL    HW130488   0.960   2.795  13.196  2.7324  0.7076 -0.2263
 6285SOL    HW230489   1.005   2.756  13.060 -1.9848 -1.2472 -1.8567
 6286SOL     OW30490   2.601   0.738   1.780  0.1489 -0.1669  0.3622
 6286SOL    HW130491   2.571   0.687   1.704 -1.0158  0.3485  0.4805
 6286SOL    HW230492   2.522   0.763   1.827 -1.5888 -1.8738 -1.6542
 6287SOL     OW30493   0.304   3.125   6.059 -0.0281  0.3141 -0.1426
 6287SOL    HW130494   0.245   3.067   6.010 -1.6063  2.1891 -0.4564
 6287SOL    HW230495   0.246   3.168   6.121 -2.4058  1.3218 -3.0874
 6288SOL     OW30496   2.105   0.175   3.137 -0.1832 -0.0212 -0.2094
 6288SOL    HW130497   2.073   0.208   3.053  0.0511  1.0380  0.1104
 6288SOL    HW230498   2.199   0.176   3.118  0.3579 -0.0716  2.4425
 6289SOL     OW30499   1.855   1.331   7.808  0.3715 -0.2368  0.0999
 6289SOL    HW130500   1.802   1.385   7.867 -1.1645 -0.3754 -1.1467
 6289SOL    HW230501   1.827   1.242   7.833  0.3602 -0.4622 -0.7138
 6290SOL     OW30502   4.482   1.741  14.109 -0.2465  0.4246 -0.4191
 6290SOL    HW130503   4.505   1.680  14.039 -0.7173  2.2903 -2.1987
 6290SOL    HW230504   4.566   1.786  14.119  0.3432 -0.8558  0.3003
 6291SOL     OW30505   0.803   2.710  15.840 -0.2997 -0.1776  0.2989
 6291SOL    HW130506   0.722   2.696  15.791  0.0827 -0.2291 -0.3205
 6291SOL    HW230507   0.826   2.791  15.794 -2.3698  0.3608  0.1871
 6292SOL     OW30508   1.731   1.373   3.016 -0.3028 -0.3425  0.5896
 6292SOL    HW130509   1.651   1.425   3.028 -1.0502 -1.1575 -0.8730
 6292SOL    HW230510   1.703   1.284   2.999 -1.1933  0.3423 -1.5422
 6293SOL     OW30511   3.786   0.012  13.559 -0.5230  0.5035 -0.2032
 6293SOL    HW130512   3.761   0.080  13.497  1.0774  2.4072  1.2471
 6293SOL    HW230513   3.738   4.673  13.531  1.3687 -0.1562 -1.6426
 6294SOL     OW30514   2.636   0.583   9.313 -0.0952 -0.2478  0.3031
 6294SOL    HW130515   2.594   0.659   9.273 -0.3139 -0.1400  0.7354
 6294SOL    HW230516   2.608   0.611   9.400 -0.9552  1.3841 -0.4943
 6295SOL     OW30517   1.556   1.272   6.113 -0.6341  0.5080  0.2005
 6295SOL    HW130518   1.646   1.305   6.105 -0.1214 -0.8097  0.4287
 6295SOL    HW230519   1.515   1.286   6.027  0.6470  1.2961 -0.2917
 6296SOL     OW30520   0.334   0.564   5.134  0.0073  0.5475 -0.0666
 6296SOL    HW130521   0.380   0.648   5.131 -1.8888  1.6398  1.2694
 6296SOL    HW230522   0.292   0.575   5.220  0.1781 -0.5548  0.1527
 6297SOL     OW30523   2.352   4.050   3.937 -0.2397 -0.0802 -0.4897
 6297SOL    HW130524   2.264   4.084   3.956 -1.0849 -2.0121 -0.9618
 6297SOL    HW230525   2.370   4.112   3.866  4.1512  0.4913  1.1239
 6298SOL     OW30526   1.512   1.386   6.512 -0.0686  0.2078 -0.6690
 6298SOL    HW130527   1.505   1.292   6.495  1.3773  0.5664 -3.2552
 6298SOL    HW230528   1.547   1.390   6.600 -1.3662 -2.4328 -0.0481
 6299SOL     OW30529   1.127   2.789  15.817  0.2196 -0.2993  0.1116
 6299SOL    HW130530   1.183   2.802  15.741 -1.0730 -2.1031 -1.1619
 6299SOL    HW230531   1.051   2.842  15.792  2.3782  2.8105  0.1575
 6300SOL     OW30532   2.945   3.206   1.750  0.2439  0.1010 -0.7175
 6300SOL    HW130533   2.978   3.262   1.680  1.1844  0.9126  0.3867
 6300SOL    HW230534   2.887   3.270   1.791 -0.7403 -1.6128  0.5841
 6301SOL     OW30535   0.172   0.318   3.087  0.1369 -0.5666  0.6695
 6301SOL    HW130536   0.112   0.265   3.141  1.2644 -1.8365  0.6779
 6301SOL    HW230537   0.258   0.289   3.117  1.4370  1.4866 -1.0730
 6302SOL     OW30538   4.510   0.823   2.525  0.0636 -0.2955 -0.4407
 6302SOL    HW130539   4.597   0.813   2.488 -0.6148 -0.5476 -1.9981
 6302SOL    HW230540   4.518   0.905   2.574 -0.8313 -0.1153 -0.5945
 6303SOL     OW30541   3.045   1.670   2.425  0.4627 -0.0393 -0.1495
 6303SOL    HW130542   3.001   1.587   2.413  0.0587  0.1371  0.1242
 6303SOL    HW230543   3.068   1.663   2.518  0.5783  0.2817 -0.1524
 6304SOL     OW30544   2.106   0.447   8.555  0.4754  0.4518  0.1287
 6304SOL    HW130545   2.111   0.484   8.644 -0.0643  1.4984 -0.2719
 6304SOL    HW230546   2.150   0.363   8.555 -0.4712 -0.0467  0.0511
 6305SOL     OW30547   2.542   3.988   3.156 -0.4967 -1.0215  0.1134
 6305SOL    HW130548   2.451   4.019   3.158  0.0003  0.4882 -0.8806
 6305SOL    HW230549   2.539   3.937   3.237  0.9325 -1.0793  0.1378
 6306SOL     OW30550   1.200   1.361  16.445  0.6412 -0.3784  0.0943
 6306SOL    HW130551   1.231   1.408  16.522  2.1147 -0.7021 -0.3104
 6306SOL    HW230552   1.242   1.277  16.462  1.7955  0.2180  0.1766
 6307SOL     OW30553   2.495   1.373  16.598 -0.5705 -0.0877  0.2143
 6307SOL    HW130554   2.503   1.323  16.679  1.9531  1.0346  0.6675
 6307SOL    HW230555   2.411   1.344  16.563 -1.3213 -1.3527  3.0228
 6308SOL     OW30556   3.576   0.464   5.531 -0.2233  0.2264 -0.3317
 6308SOL    HW130557   3.613   0.377   5.517  2.5657  1.4687 -0.8825
 6308SOL    HW230558   3.488   0.453   5.567  0.7725 -1.1585  1.6920
 6309SOL     OW30559   4.080   3.992   1.934 -0.1785 -0.6791  0.7807
 6309SOL    HW130560   4.125   3.910   1.911 -0.2769 -1.2114  2.4356
 6309SOL    HW230561   4.100   4.042   1.855 -0.0922  0.2904  1.4190
 6310SOL     OW30562   0.699   4.388   6.781 -0.0954  0.1772  0.0323
 6310SOL    HW130563   0.642   4.455   6.743 -1.9696 -0.6251  1.4213
 6310SOL    HW230564   0.779   4.438   6.797  0.2397  0.1634 -1.6359
 6311SOL     OW30565   2.026   0.578   5.202 -0.2089  0.1542 -0.1615
 6311SOL    HW130566   1.953   0.636   5.179  0.0091  1.2290  1.8443
 6311SOL    HW230567   2.026   0.590   5.297  0.3907 -2.9550  0.2031
 6312SOL     OW30568   2.593   0.461  11.374 -0.4497  0.1426  0.5063
 6312SOL    HW130569   2.517   0.477  11.429 -3.7849 -1.6887 -3.5756
 6312SOL    HW230570   2.581   0.374  11.335  2.7444 -0.1981  0.2126
 6313SOL     OW30571   3.800   1.329   8.789 -0.3644 -0.2894 -0.0111
 6313SOL    HW130572   3.765   1.261   8.846  0.4736  0.2716  1.1805
 6313SOL    HW230573   3.807   1.289   8.702 -0.1185 -2.4174  0.9739
 6314SOL     OW30574   2.945   3.588   8.273 -0.2902 -0.4538 -0.1802
 6314SOL    HW130575   2.997   3.668   8.264 -1.4598  0.5062  1.7874
 6314SOL    HW230576   2.992   3.539   8.340 -1.3915 -0.5385  0.5241
 6315SOL     OW30577   2.267   2.495  17.261 -0.7512 -0.1926 -0.5875
 6315SOL    HW130578   2.282   2.401  17.258 -1.2501 -0.2532 -1.2159
 6315SOL    HW230579   2.211   2.508  17.184  2.5557 -0.3148 -3.0088
 6316SOL     OW30580   2.383   1.981   5.686  0.4604  0.5811  0.0263
 6316SOL    HW130581   2.340   1.946   5.764  1.1489  0.4639  0.3563
 6316SOL    HW230582   2.443   1.912   5.657 -0.1478  1.2014 -2.6523
 6317SOL     OW30583   0.760   3.979  15.821 -0.0704 -0.7038  0.0952
 6317SOL    HW130584   0.751   4.063  15.866  1.3858  0.5442 -1.8880
 6317SOL    HW230585   0.847   3.987  15.781 -0.3750  1.3343 -0.1771
 6318SOL     OW30586   1.703   3.089   3.134  0.1555  0.8017 -0.1657
 6318SOL    HW130587   1.679   3.013   3.080  4.0398 -0.6329  0.0882
 6318SOL    HW230588   1.633   3.092   3.199  1.7943  0.6891  1.5952
 6319SOL     OW30589   0.250   0.381  16.561 -0.1427  0.2487 -0.1070
 6319SOL    HW130590   0.306   0.314  16.520  0.3986  0.4176  0.3666
 6319SOL    HW230591   0.162   0.355  16.533 -0.6497  2.0600 -0.1538
 6320SOL     OW30592   2.196   0.342   4.562  0.0580  0.3905  0.2255
 6320SOL    HW130593   2.139   0.355   4.487  0.3920  3.3292  0.5053
 6320SOL    HW230594   2.256   0.417   4.562  0.1031  0.3596  1.0386
 6321SOL     OW30595   3.434   3.506  13.646  0.2337  0.3891 -0.3326
 6321SOL    HW130596   3.405   3.519  13.555  1.0567 -0.3233 -0.6977
 6321SOL    HW230597   3.448   3.411  13.641 -0.0989  0.4418 -2.4721
 6322SOL     OW30598   2.737   2.929   7.787 -0.0749  0.3382 -0.2283
 6322SOL    HW130599   2.649   2.930   7.749 -0.7073 -0.5832  1.2166
 6322SOL    HW230600   2.775   2.849   7.752  0.2319  1.0624 -1.5734
 6323SOL     OW30601   3.273   3.029   6.308 -0.1125 -0.7627  0.1213
 6323SOL    HW130602   3.281   2.954   6.248 -2.0454  1.2517 -2.6771
 6323SOL    HW230603   3.291   2.989   6.393  1.1671 -0.2265  0.1146
 6324SOL     OW30604   1.550   3.271   8.448  0.2886  0.4945  0.6316
 6324SOL    HW130605   1.470   3.284   8.498 -1.3995 -0.1865 -1.9356
 6324SOL    HW230606   1.611   3.334   8.487  0.4815 -0.4401  1.8274
 6325SOL     OW30607   4.218   0.284   4.292  0.0848  0.9347 -0.3221
 6325SOL    HW130608   4.301   0.263   4.334 -1.0636 -1.0504  0.9846
 6325SOL    HW230609   4.208   0.378   4.305 -2.1698  0.7290 -0.4564
 6326SOL     OW30610   3.187   0.550   3.651 -0.7435  0.1446 -0.1830
 6326SOL    HW130611   3.246   0.474   3.649 -1.6833 -0.5859 -0.6971
 6326SOL    HW230612   3.119   0.521   3.711 -1.2751  2.3969  0.3019
 6327SOL     OW30613   0.104   4.159   1.143 -0.7013 -0.5990  0.6192
 6327SOL    HW130614   0.026   4.192   1.188 -0.1316  0.0777  1.1165
 6327SOL    HW230615   0.127   4.230   1.083  1.7806 -1.3466  0.6884
 6328SOL     OW30616   2.726   2.964   3.081  0.5813  0.2131 -0.7040
 6328SOL    HW130617   2.672   2.899   3.036  0.2918  0.1888 -0.3200
 6328SOL    HW230618   2.687   3.041   3.039 -0.0938 -0.1377 -0.7240
 6329SOL     OW30619   3.935   3.291   5.880  0.4284  0.4303 -0.0906
 6329SOL    HW130620   4.022   3.299   5.841  0.3643  1.0295 -0.1159
 6329SOL    HW230621   3.947   3.343   5.960 -0.2680  0.8210 -0.2411
 6330SOL     OW30622   4.426   3.331   9.734 -0.2399  0.1241  0.5256
 6330SOL    HW130623   4.415   3.424   9.753 -0.6310  0.0648  0.5838
 6330SOL    HW230624   4.403   3.289   9.816 -0.4134 -1.1243 -0.1543
 6331SOL     OW30625   3.771   2.729   0.646  0.0113 -0.2824  0.8100
 6331SOL    HW130626   3.676   2.730   0.635  0.0699 -1.2397  0.2439
 6331SOL    HW230627   3.792   2.786   0.571  0.6913  1.6105  2.4473
 6332SOL     OW30628   2.570   3.502  13.068  0.4076  0.0926  0.1641
 6332SOL    HW130629   2.654   3.536  13.036  0.1745 -0.1939 -0.7706
 6332SOL    HW230630   2.535   3.501  12.978  0.0744 -0.2056  0.2951
 6333SOL     OW30631   2.985   3.086   2.174  0.3901 -0.0564 -0.2787
 6333SOL    HW130632   2.952   3.125   2.255 -1.0283  0.1506 -0.9517
 6333SOL    HW230633   3.018   3.164   2.129 -2.7793  0.9783 -0.7634
 6334SOL     OW30634   1.701   2.869   8.817 -0.0201 -0.5210 -0.0851
 6334SOL    HW130635   1.611   2.899   8.808  0.4945  1.2476  0.8231
 6334SOL    HW230636   1.728   2.920   8.893 -0.3717 -0.4979  0.0255
 6335SOL     OW30637   3.756   4.274   5.968  0.0008  0.3378 -0.1742
 6335SOL    HW130638   3.727   4.314   6.049  0.7089  0.3290  0.0832
 6335SOL    HW230639   3.745   4.341   5.900  0.0171  0.2516 -0.2626
 6336SOL     OW30640   4.726   2.892   9.479  0.4456  0.0833  0.1394
 6336SOL    HW130641   4.644   2.900   9.528  0.3559  1.4569 -0.2320
 6336SOL    HW230642   4.706   2.820   9.419  3.5037 -0.1916 -0.5665
 6337SOL     OW30643   0.998   0.510   4.599 -0.4250 -0.0362 -0.1535
 6337SOL    HW130644   1.079   0.485   4.644 -0.3466 -0.9506 -0.8166
 6337SOL    HW230645   1.030   0.578   4.540 -2.0705  0.4726 -0.4526
 6338SOL     OW30646   1.670   0.164   5.520 -0.2346  0.0293  0.7152
 6338SOL    HW130647   1.624   0.189   5.601  1.2960  0.3075  1.4949
 6338SOL    HW230648   1.763   0.170   5.543  0.1547 -1.7942 -0.3474
 6339SOL     OW30649   0.040   2.207   5.243 -0.2966  0.2491 -0.2603
 6339SOL    HW130650   4.713   2.207   5.312 -0.5191  2.6745 -0.4883
 6339SOL    HW230651   4.738   2.132   5.199 -1.2634 -0.3057  1.6037
 6340SOL     OW30652   1.374   2.676  15.350 -0.1559 -0.0286 -0.1127
 6340SOL    HW130653   1.338   2.616  15.284  3.1443 -0.2353 -1.7331
 6340SOL    HW230654   1.376   2.606  15.415  3.7217 -0.5959 -0.8912
 6341SOL     OW30655   3.250   3.619   4.516 -0.5007 -0.2381  0.1509
 6341SOL    HW130656   3.294   3.534   4.526  0.2775  0.3741  1.7414
 6341SOL    HW230657   3.182   3.591   4.454  0.9018 -0.6236 -1.2326
 6342SOL     OW30658   0.531   1.354   4.161  0.3485  0.0820 -0.0190
 6342SOL    HW130659   0.535   1.424   4.227 -0.3156  0.4093 -0.3247
 6342SOL    HW230660   0.610   1.377   4.112  0.4552 -0.6742 -0.1956
 6343SOL     OW30661   2.339   2.830   5.105  0.2510 -0.4253 -0.0203
 6343SOL    HW130662   2.434   2.820   5.104  0.3805  0.7228  0.7621
 6343SOL    HW230663   2.317   2.737   5.111 -1.8811  0.0834 -0.1642
 6344SOL     OW30664   0.231   2.120   3.745 -0.0266  1.0471  0.3555
 6344SOL    HW130665   0.301   2.059   3.767  1.1109  1.2604 -2.7255
 6344SOL    HW230666   0.224   2.156   3.834 -2.8978 -0.9958  0.9656
 6345SOL     OW30667   2.131   1.448   3.545  0.6764 -0.1639  0.2906
 6345SOL    HW130668   2.103   1.358   3.564 -0.1059 -0.5744 -2.7344
 6345SOL    HW230669   2.051   1.499   3.551  1.5686  1.4508 -1.7398
 6346SOL     OW30670   3.621   2.408  11.046 -0.0922  0.1816 -0.5624
 6346SOL    HW130671   3.580   2.381  11.128  1.1920 -2.0856 -0.6801
 6346SOL    HW230672   3.548   2.426  10.987 -1.1974 -1.8748  0.1794
 6347SOL     OW30673   4.413   1.507   6.549  0.2605 -0.1675  0.2269
 6347SOL    HW130674   4.322   1.530   6.567  0.1124  0.5872 -1.5454
 6347SOL    HW230675   4.396   1.445   6.478 -1.1321  0.0255  0.3868
 6348SOL     OW30676   2.342   1.533  10.865  0.2292  0.0099 -0.2349
 6348SOL    HW130677   2.332   1.494  10.778 -3.7951  1.2383 -0.3522
 6348SOL    HW230678   2.419   1.484  10.893 -1.0900 -0.8637  1.8455
 6349SOL     OW30679   4.168   0.623   6.920  0.5476  0.1323  0.1506
 6349SOL    HW130680   4.214   0.689   6.869  0.4101  1.9344  2.3149
 6349SOL    HW230681   4.199   0.631   7.011 -1.0529  2.2652  0.5153
 6350SOL     OW30682   4.653   4.038   7.554  0.1721  0.5768  0.6208
 6350SOL    HW130683   4.640   4.061   7.646 -1.2707  1.4385  0.2132
 6350SOL    HW230684   4.721   4.098   7.524  1.4237 -0.1157  2.1364
 6351SOL     OW30685   0.763   3.193   8.565 -0.3809 -0.5884  0.5414
 6351SOL    HW130686   0.799   3.104   8.561  0.3347 -0.3198  1.1293
 6351SOL    HW230687   0.715   3.203   8.482  0.0883 -0.8546  0.2364
 6352SOL     OW30688   3.226   1.176   5.002 -0.1316  0.3695 -0.0078
 6352SOL    HW130689   3.230   1.265   5.036 -0.4435 -0.5728  2.5466
 6352SOL    HW230690   3.309   1.157   4.958 -0.1239 -2.4020  1.1743
 6353SOL     OW30691   2.199   3.582   4.080 -0.7261  0.3131 -0.7917
 6353SOL    HW130692   2.154   3.579   3.996  1.0689 -3.0273 -1.6491
 6353SOL    HW230693   2.287   3.560   4.049 -1.0557 -0.9348 -0.8492
 6354SOL     OW30694   3.298   1.059  15.420 -0.0010 -0.1608  0.4898
 6354SOL    HW130695   3.253   1.111  15.486 -1.0483 -1.3360  0.7016
 6354SOL    HW230696   3.295   1.117  15.344  0.8397  1.7514  1.9107
 6355SOL     OW30697   2.279   3.055   8.736  0.2522 -0.1957 -0.1566
 6355SOL    HW130698   2.358   3.004   8.719 -0.2012 -1.7288  2.2598
 6355SOL    HW230699   2.298   3.132   8.683 -3.1776  0.2580 -0.7168
 6356SOL     OW30700   0.637   1.547   1.209 -0.1848  0.2787  0.3745
 6356SOL    HW130701   0.552   1.571   1.246 -0.3408 -1.1138  0.9054
 6356SOL    HW230702   0.629   1.456   1.182  2.1123  0.1252  0.2097
 6357SOL     OW30703   2.318   1.789  10.264  0.4547  0.0952 -0.3353
 6357SOL    HW130704   2.406   1.798  10.229  0.6723  1.4003  0.5452
 6357SOL    HW230705   2.310   1.694  10.252 -2.6122  0.3158  0.0364
 6358SOL     OW30706   2.971   2.756  12.452 -0.0172  0.3885  0.4299
 6358SOL    HW130707   3.045   2.730  12.507 -0.6563 -0.8115  0.7327
 6358SOL    HW230708   2.966   2.682  12.391  3.4854  1.9567 -1.7786
 6359SOL     OW30709   4.142   3.258   4.891  0.2822 -0.6084  0.1031
 6359SOL    HW130710   4.120   3.241   4.982 -0.4651 -1.9115 -0.3278
 6359SOL    HW230711   4.065   3.225   4.845 -1.2479 -0.0020  2.2159
 6360SOL     OW30712   2.470   4.127   4.511  0.4491  0.9262  0.6243
 6360SOL    HW130713   2.535   4.059   4.526 -0.4898  0.4449  2.5392
 6360SOL    HW230714   2.448   4.118   4.419 -3.4471  0.3320  1.5712
 6361SOL     OW30715   1.898   2.138   7.786 -0.1118  0.0251 -0.4693
 6361SOL    HW130716   1.942   2.181   7.712 -0.7791  3.2906  1.0560
 6361SOL    HW230717   1.963   2.151   7.855  0.0882 -0.4120 -0.5748
 6362SOL     OW30718   1.480   0.184   4.690  0.7744 -0.4313  0.1099
 6362SOL    HW130719   1.494   0.112   4.752  0.1097 -0.1250  0.6176
 6362SOL    HW230720   1.530   0.254   4.732  1.5511 -0.6873 -0.3993
 6363SOL     OW30721   2.595   0.871   3.821 -0.3169 -0.1368  0.4114
 6363SOL    HW130722   2.644   0.815   3.759  1.0858  2.3776 -0.7511
 6363SOL    HW230723   2.519   0.901   3.772  0.5325  1.2431 -0.0684
 6364SOL     OW30724   2.445   1.630   0.736 -0.3724 -0.4321 -0.5592
 6364SOL    HW130725   2.483   1.553   0.694  2.6629  1.4229 -1.1711
 6364SOL    HW230726   2.510   1.696   0.714  1.7954 -2.6869 -0.8790
 6365SOL     OW30727   1.208   1.371   9.397 -0.5390 -0.1894  0.0510
 6365SOL    HW130728   1.161   1.410   9.323  2.2886  3.3946  0.1868
 6365SOL    HW230729   1.139   1.394   9.459 -0.9252  1.2170 -0.9052
 6366SOL     OW30730   1.831   4.546   0.627 -0.2343  0.0189 -0.1155
 6366SOL    HW130731   1.828   4.611   0.698  1.6002 -0.1921  0.1615
 6366SOL    HW230732   1.905   4.577   0.574 -0.0590 -1.8376 -0.9446
 6367SOL     OW30733   0.200   4.552   9.507 -0.3096 -0.7133  0.3503
 6367SOL    HW130734   0.171   4.550   9.598 -2.9288  0.7572 -0.4227
 6367SOL    HW230735   0.280   4.501   9.501 -0.7267 -1.2092 -1.0523
 6368SOL     OW30736   3.239   1.147   3.363 -0.5927 -0.0167  0.2796
 6368SOL    HW130737   3.183   1.209   3.317 -0.0123  0.3807  0.1079
 6368SOL    HW230738   3.209   1.076   3.306 -0.8279 -0.7682  1.3484
 6369SOL     OW30739   4.357   0.789  14.685  0.1392  0.6693  0.0420
 6369SOL    HW130740   4.338   0.843  14.608 -1.1691 -0.0500 -0.1318
 6369SOL    HW230741   4.302   0.714  14.662 -0.7016  2.1176 -2.7199
 6370SOL     OW30742   1.623   2.665   4.888  0.0503 -0.4497 -0.8581
 6370SOL    HW130743   1.698   2.632   4.938  1.4920  0.6632 -2.2929
 6370SOL    HW230744   1.551   2.625   4.937 -0.3246  0.4657 -0.6667
 6371SOL     OW30745   0.103   2.452  16.851  1.1465  0.0415 -0.3858
 6371SOL    HW130746   0.160   2.376  16.839  0.7371 -0.1876 -0.8784
 6371SOL    HW230747   0.067   2.451  16.940  2.3136  0.0305  0.0922
 6372SOL     OW30748   2.000   0.269  11.989  0.3708 -0.0691 -0.8829
 6372SOL    HW130749   1.977   0.362  11.980  2.1860  0.3654 -1.0330
 6372SOL    HW230750   2.059   0.259  11.914 -0.0025 -1.0125 -1.0467
 6373SOL     OW30751   1.619   3.365   5.425  0.1017  0.7702 -0.1435
 6373SOL    HW130752   1.608   3.274   5.455  0.3928  0.5897 -0.5965
 6373SOL    HW230753   1.528   3.391   5.409  0.5077  2.4827  0.3159
 6374SOL     OW30754   1.758   2.848   6.159  0.5185 -0.2193 -0.1189
 6374SOL    HW130755   1.753   2.753   6.174 -0.2638  0.0330  1.2677
 6374SOL    HW230756   1.842   2.860   6.116  1.6733  0.2703  2.2913
 6375SOL     OW30757   4.219   0.229  13.919 -0.2757 -0.6296 -0.8176
 6375SOL    HW130758   4.292   0.181  13.881  1.5324 -0.7739  2.7883
 6375SOL    HW230759   4.172   0.154  13.956 -0.6413  0.5323  1.0659
 6376SOL     OW30760   2.482   0.174   9.360 -0.4908  0.5373  0.4702
 6376SOL    HW130761   2.479   0.122   9.440  2.8734 -0.3818 -0.0016
 6376SOL    HW230762   2.419   0.135   9.300  1.9623 -1.8566 -0.5838
 6377SOL     OW30763   4.286   1.918   6.258 -0.4212 -0.0054  0.1724
 6377SOL    HW130764   4.329   1.887   6.338  0.2611  0.5504  0.0205
 6377SOL    HW230765   4.207   1.959   6.293 -0.2618  0.4856 -0.0433
 6378SOL     OW30766   4.094   4.103   2.182 -0.0793 -0.2870  0.4408
 6378SOL    HW130767   4.050   4.038   2.238  0.2569 -2.1714 -1.4704
 6378SOL    HW230768   4.100   4.068   2.092  1.1180 -1.1841  0.8670
 6379SOL     OW30769   1.297   0.795   3.778  0.0272 -0.2620  0.4809
 6379SOL    HW130770   1.341   0.740   3.843  0.5962 -2.2367 -1.6077
 6379SOL    HW230771   1.210   0.793   3.818 -0.2874 -1.2086 -0.2668
 6380SOL     OW30772   2.222   2.264  15.188 -0.2120  0.4415  0.0689
 6380SOL    HW130773   2.159   2.199  15.218 -0.1675  1.2899  1.9551
 6380SOL    HW230774   2.289   2.210  15.147 -0.8020 -1.1161  1.1679
 6381SOL     OW30775   4.438   0.983   8.801 -0.2016 -0.0831  0.2995
 6381SOL    HW130776   4.512   1.044   8.804  0.9552 -1.4808  0.4731
 6381SOL    HW230777   4.490   0.909   8.770  1.0039 -0.0565  2.2587
 6382SOL     OW30778   2.508   3.827   3.371  0.2989 -0.5325 -0.5170
 6382SOL    HW130779   2.489   3.733   3.368  1.9437 -0.8836 -0.2849
 6382SOL    HW230780   2.465   3.852   3.452  1.9206 -0.6013  0.3723
 6383SOL     OW30781   4.461   2.270   5.700 -0.3713 -0.2782 -0.0842
 6383SOL    HW130782   4.507   2.244   5.780  0.0751 -1.2759 -0.6714
 6383SOL    HW230783   4.443   2.183   5.664  2.7026 -1.5030  1.3355
 6384SOL     OW30784   3.541   1.678  11.497  0.4934 -0.1261  0.4221
 6384SOL    HW130785   3.553   1.590  11.532 -1.5368  0.2427  2.0393
 6384SOL    HW230786   3.461   1.704  11.544 -0.2975  0.4364 -1.2068
 6385SOL     OW30787   0.170   2.076  12.691 -0.8039 -0.0229  0.1205
 6385SOL    HW130788   0.129   2.008  12.744 -0.3288  0.1091  0.6597
 6385SOL    HW230789   0.101   2.118  12.640  0.1067  1.7216  0.3180
 6386SOL     OW30790   4.247   1.503   8.927 -0.4611 -0.0036  0.1698
 6386SOL    HW130791   4.316   1.468   8.984 -0.2740  0.9099  0.5029
 6386SOL    HW230792   4.206   1.422   8.896  0.7144  0.1508 -1.7862
 6387SOL     OW30793   1.187   1.933   7.082 -0.2584  0.3156  0.1712
 6387SOL    HW130794   1.120   1.959   7.144  0.6274  2.5841  0.1654
 6387SOL    HW230795   1.207   2.018   7.043 -0.0111  0.5420  0.7976
 6388SOL     OW30796   4.369   1.892  16.489  0.2605 -0.4868  0.4650
 6388SOL    HW130797   4.308   1.887  16.416  0.2718 -0.8778  0.4813
 6388SOL    HW230798   4.455   1.887  16.448  0.7764  0.7215  1.3927
 6389SOL     OW30799   2.260   2.700  16.451 -0.3759 -0.5527 -0.1579
 6389SOL    HW130800   2.185   2.683  16.394 -0.7410 -0.1144  0.1856
 6389SOL    HW230801   2.297   2.612  16.455  1.3668  0.3484  4.1090
 6390SOL     OW30802   0.471   0.146   1.689  0.4728 -0.1854  0.0397
 6390SOL    HW130803   0.522   0.217   1.649 -0.3842 -1.6561 -3.6588
 6390SOL    HW230804   0.535   0.121   1.756  1.0241 -1.1303 -0.8389
 6391SOL     OW30805   2.378   4.301   2.985  0.7589 -0.0046  0.1251
 6391SOL    HW130806   2.334   4.235   3.038 -0.1099  0.3883 -0.1116
 6391SOL    HW230807   2.336   4.380   3.019 -0.0490 -0.0359 -0.7701
 6392SOL     OW30808   2.016   2.032   3.958 -0.3406  0.2240 -0.1521
 6392SOL    HW130809   2.088   2.002   4.014 -0.0430  0.7545 -0.2520
 6392SOL    HW230810   1.984   1.948   3.924  1.5291  0.5414 -2.7342
 6393SOL     OW30811   2.116   4.181   3.958  0.3886 -0.3246  0.9523
 6393SOL    HW130812   2.122   4.260   3.905 -1.6305 -1.0965 -0.4417
 6393SOL    HW230813   2.110   4.218   4.046 -1.7148 -0.1369  0.7209
 6394SOL     OW30814   2.826   4.137   1.107  0.4466  0.1156 -0.1542
 6394SOL    HW130815   2.815   4.070   1.039  0.0205 -2.1419  2.1168
 6394SOL    HW230816   2.905   4.108   1.152  0.7474  1.4312  0.1327
 6395SOL     OW30817   3.147   4.438   7.603  0.3242  0.0528  0.2121
 6395SOL    HW130818   3.120   4.378   7.672 -2.1134 -1.2486 -1.8702
 6395SOL    HW230819   3.236   4.406   7.589  0.4220 -0.0112  1.0088
 6396SOL     OW30820   4.562   4.298   4.592 -0.0040 -0.0664  0.6848
 6396SOL    HW130821   4.606   4.373   4.550 -1.2116  0.6213  0.6540
 6396SOL    HW230822   4.478   4.288   4.547 -0.2056  0.5728  0.9186
 6397SOL     OW30823   2.085   3.491   9.375  0.8993 -0.3777 -0.2783
 6397SOL    HW130824   2.056   3.509   9.286 -1.7371 -0.4509  0.5492
 6397SOL    HW230825   2.068   3.570   9.427 -0.0463 -0.3387 -0.6336
 6398SOL     OW30826   2.030   4.329   2.224 -0.5614  0.4450 -0.0562
 6398SOL    HW130827   1.995   4.261   2.282  1.1957  0.6297  1.2232
 6398SOL    HW230828   2.108   4.361   2.269 -0.9775 -0.0266  1.0052
 6399SOL     OW30829   0.086   1.087   9.588 -0.5525  1.2060  0.3935
 6399SOL    HW130830   0.018   1.083   9.655 -3.1055  0.8892 -2.1871
 6399SOL    HW230831   0.070   1.002   9.547  4.0025  0.0549  1.0589
 6400SOL     OW30832   3.554   3.410   4.110  0.2318 -0.2695 -0.1253
 6400SOL    HW130833   3.613   3.356   4.057 -1.3310 -0.4004 -1.7260
 6400SOL    HW230834   3.552   3.353   4.187 -1.2439  0.4859  0.4062
 6401SOL     OW30835   1.799   0.891   4.939 -0.4479  0.1054  0.0759
 6401SOL    HW130836   1.788   0.839   5.019  0.6828 -0.7613 -0.3325
 6401SOL    HW230837   1.745   0.970   4.949 -0.8962 -0.0721 -1.0145
 6402SOL     OW30838   3.861   2.786   7.764  0.3049 -0.6392  0.0195
 6402SOL    HW130839   3.820   2.861   7.721  0.2578 -1.0184 -0.5929
 6402SOL    HW230840   3.922   2.763   7.694  1.0537 -0.5438  0.6386
 6403SOL     OW30841   4.166   1.534   2.511 -0.5668 -0.3567 -0.2901
 6403SOL    HW130842   4.104   1.468   2.541  1.0139 -0.7176  2.2018
 6403SOL    HW230843   4.134   1.534   2.421 -0.4632  0.7173 -0.3283
 6404SOL     OW30844   4.233   2.396   3.394 -0.0455 -0.0283 -0.4934
 6404SOL    HW130845   4.212   2.308   3.361 -2.5667  0.1369  0.6478
 6404SOL    HW230846   4.227   2.370   3.486 -1.8219 -0.9076 -0.8543
 6405SOL     OW30847   3.118   0.929   0.913 -0.0781  0.6224  0.3569
 6405SOL    HW130848   3.026   0.932   0.887  0.4320  2.5340 -1.1996
 6405SOL    HW230849   3.149   0.860   0.855 -1.8985  1.3074 -1.4334
 6406SOL     OW30850   4.700   3.354  12.311  0.5523 -0.4603 -0.7592
 6406SOL    HW130851   4.666   3.442  12.296 -0.1666 -0.7742 -0.9386
 6406SOL    HW230852   0.054   3.372  12.300  0.3431  1.7067  1.0419
 6407SOL     OW30853   4.362   4.610   7.909 -0.6091  0.2067 -0.2587
 6407SOL    HW130854   4.421   4.683   7.890 -2.0436  0.9965 -1.5831
 6407SOL    HW230855   4.281   4.651   7.941  0.0025 -0.9293  2.7517
 6408SOL     OW30856   2.988   1.658   0.833  0.3513 -0.1486  0.0387
 6408SOL    HW130857   2.934   1.649   0.755  0.4998  0.4688 -0.1411
 6408SOL    HW230858   3.049   1.591   0.803  0.0542 -0.5510  0.3473
 6409SOL     OW30859   1.345   0.104   1.629 -0.4998 -0.0260 -0.4794
 6409SOL    HW130860   1.384   0.185   1.663 -0.8198  1.3317 -3.3745
 6409SOL    HW230861   1.360   0.045   1.703 -2.2626  2.2192  1.6580
 6410SOL     OW30862   1.274   0.089   5.104 -0.1191  0.3424 -0.1613
 6410SOL    HW130863   1.318   0.133   5.176 -1.0507  1.0540 -0.0283
 6410SOL    HW230864   1.259   0.157   5.039  2.5186  0.9090 -0.1843
 6411SOL     OW30865   2.858   0.496  13.592  0.2887  0.4352 -0.5096
 6411SOL    HW130866   2.940   0.447  13.603  0.2866  0.3997 -0.6636
 6411SOL    HW230867   2.863   0.574  13.646  0.0311  0.4113 -0.4496
 6412SOL     OW30868   4.156   0.872   0.066  0.6485 -0.0125  0.3152
 6412SOL    HW130869   4.159   0.791   0.117  1.3459 -0.3731 -0.2956
 6412SOL    HW230870   4.194   0.842  17.739 -0.1194 -0.3657  0.0910
 6413SOL     OW30871   3.344   2.807   4.444  0.3780 -0.1410  0.9549
 6413SOL    HW130872   3.431   2.777   4.473  1.7078  3.1732  0.3151
 6413SOL    HW230873   3.295   2.725   4.451  0.6044 -0.3335  0.3473
 6414SOL     OW30874   3.036   0.068  11.100 -0.0869  0.3394  0.2337
 6414SOL    HW130875   3.124   0.097  11.121  0.1580  0.4181 -0.8773
 6414SOL    HW230876   3.038   0.090  11.007  0.8945 -0.2953  0.1091
 6415SOL     OW30877   1.066   0.149   8.253 -0.4014 -0.2268  0.1576
 6415SOL    HW130878   1.056   0.221   8.190 -2.5097  0.9682  1.8815
 6415SOL    HW230879   1.095   0.199   8.330  0.7437 -0.6068 -0.0217
 6416SOL     OW30880   1.271   1.027   1.923 -0.0618  0.0545 -0.1775
 6416SOL    HW130881   1.271   1.043   1.829 -1.1885 -0.7519 -0.3091
 6416SOL    HW230882   1.355   1.062   1.952  0.2735 -1.6532  0.9358
 6417SOL     OW30883   3.023   2.125   1.120 -0.3282 -0.2922 -0.0489
 6417SOL    HW130884   2.950   2.125   1.181 -0.2091 -0.6902  0.0870
 6417SOL    HW230885   2.990   2.110   1.031 -0.4400 -1.2784  0.1646
 6418SOL     OW30886   2.335   0.708   3.645 -0.2145 -0.3138  0.1072
 6418SOL    HW130887   2.312   0.675   3.732  1.4473  2.4834  1.5890
 6418SOL    HW230888   2.250   0.696   3.602 -0.8701 -2.1109  1.8746
 6419SOL     OW30889   4.035   2.050  12.372 -0.2580 -0.8942 -0.8957
 6419SOL    HW130890   4.108   2.099  12.335 -1.7614  1.3101 -0.9789
 6419SOL    HW230891   4.073   1.963  12.378 -0.1949 -0.6905  1.6994
 6420SOL     OW30892   3.091   1.185   7.834  0.4504  0.0949  0.1103
 6420SOL    HW130893   3.047   1.245   7.895  1.3895  0.5079  0.3975
 6420SOL    HW230894   3.181   1.218   7.843  1.2614 -2.5922  1.7196
 6421SOL     OW30895   2.341   3.784   8.339  0.1296  0.4886  0.2907
 6421SOL    HW130896   2.338   3.858   8.279 -0.4375  0.1406 -0.1116
 6421SOL    HW230897   2.266   3.734   8.308  0.2627 -0.3282  1.2759
 6422SOL     OW30898   3.689   3.806   7.829  0.8295 -0.2862 -0.1917
 6422SOL    HW130899   3.680   3.884   7.775  1.4912  0.1779  0.3608
 6422SOL    HW230900   3.620   3.818   7.894  0.8635  1.0989 -0.3955
 6423SOL     OW30901   2.584   3.792  11.429  0.0795  0.1756  0.6441
 6423SOL    HW130902   2.611   3.799  11.337  0.4507  2.6567  0.9562
 6423SOL    HW230903   2.659   3.743  11.462  0.2068 -0.9973 -1.3728
 6424SOL     OW30904   2.827   3.444   6.239 -0.2924  0.9797  0.0565
 6424SOL    HW130905   2.872   3.416   6.159 -1.6811 -0.3183 -0.2663
 6424SOL    HW230906   2.878   3.402   6.309 -0.8512 -1.4685 -0.9963
 6425SOL     OW30907   2.821   0.127  11.815  0.1921  0.2636  0.5646
 6425SOL    HW130908   2.770   0.151  11.738  1.4169 -2.5004 -1.1124
 6425SOL    HW230909   2.755   0.095  11.876  0.7772 -1.8003  0.1226
 6426SOL     OW30910   3.992   0.640   0.404 -0.1280  0.4170 -0.0518
 6426SOL    HW130911   3.959   0.726   0.431  2.3544  1.4713 -0.2770
 6426SOL    HW230912   4.032   0.656   0.318 -0.3874  0.4388 -0.1697
 6427SOL     OW30913   0.638   1.623   8.910 -0.2767 -0.3884  0.3885
 6427SOL    HW130914   0.572   1.568   8.866  0.7205 -2.0579  0.9694
 6427SOL    HW230915   0.614   1.707   8.871  0.9440 -1.2164 -2.0941
 6428SOL     OW30916   1.058   1.383   2.555  0.0837 -0.0801 -0.4703
 6428SOL    HW130917   0.980   1.421   2.514 -0.2553  0.0517  0.3019
 6428SOL    HW230918   1.011   1.324   2.614 -0.9991  0.4795 -0.7676
 6429SOL     OW30919   0.039   4.194  11.734  0.3827 -0.0165 -0.1696
 6429SOL    HW130920   0.131   4.167  11.740  0.3364 -0.0029  0.6107
 6429SOL    HW230921   0.004   4.105  11.732  0.3243 -0.0257  1.3172
 6430SOL     OW30922   2.485   0.329   7.166 -0.1958 -0.1791  0.2580
 6430SOL    HW130923   2.400   0.355   7.202 -1.3492 -0.4664 -2.2812
 6430SOL    HW230924   2.481   0.384   7.088 -1.1120 -3.0759 -1.7655
 6431SOL     OW30925   0.487   3.904   2.059 -0.0382  0.1466  0.0455
 6431SOL    HW130926   0.462   3.852   2.135  0.8228 -0.5463 -0.1445
 6431SOL    HW230927   0.426   3.872   1.993 -0.7085  0.0406  0.7076
 6432SOL     OW30928   0.397   4.321   9.875  0.2130  0.2275  0.0180
 6432SOL    HW130929   0.326   4.290   9.819 -0.5124 -0.8754  1.5350
 6432SOL    HW230930   0.362   4.403   9.911 -0.7163  0.4021 -1.2684
 6433SOL     OW30931   2.031   2.885   9.663 -0.3617  0.1524  0.1150
 6433SOL    HW130932   2.023   2.815   9.599 -1.6332 -1.5358  2.1511
 6433SOL    HW230933   2.067   2.945   9.598  0.6783 -0.5572  0.0433
 6434SOL     OW30934   4.109   2.813   5.663 -0.7890  0.1746  0.6034
 6434SOL    HW130935   4.096   2.906   5.682 -2.7408  0.4608 -2.1609
 6434SOL    HW230936   4.201   2.804   5.688 -0.5819  1.2298  0.2163
 6435SOL     OW30937   0.489   4.397   5.121 -0.0357 -0.4509  0.4810
 6435SOL    HW130938   0.558   4.432   5.176  0.1668  0.2613 -0.2186
 6435SOL    HW230939   0.503   4.446   5.040 -2.8255 -0.0741  0.2087
 6436SOL     OW30940   2.419   0.620  10.064 -0.1551  0.1494  0.1243
 6436SOL    HW130941   2.445   0.543  10.013 -0.7417 -0.6157  0.9694
 6436SOL    HW230942   2.351   0.582  10.120  0.8078  1.7243  2.3821
 6437SOL     OW30943   4.548   1.403  12.832 -0.3187  0.1977  0.0407
 6437SOL    HW130944   4.478   1.445  12.781 -0.3240  3.3695  2.6179
 6437SOL    HW230945   4.528   1.437  12.920  1.0215 -1.2130  0.8895
 6438SOL     OW30946   4.735   0.151  16.302  0.1289 -0.1469  0.5888
 6438SOL    HW130947   4.665   0.118  16.245 -0.3258  0.6708  0.6641
 6438SOL    HW230948   4.716   0.110  16.387 -2.4067  0.3551  0.2818
 6439SOL     OW30949   1.798   3.944   4.013 -0.3670  0.1844 -0.0668
 6439SOL    HW130950   1.843   3.875   4.063 -0.6697 -0.6143 -0.8958
 6439SOL    HW230951   1.720   3.894   3.989 -0.6778  1.9625 -2.7592
 6440SOL     OW30952   2.738   1.702   3.373  0.3700  0.1513  0.4541
 6440SOL    HW130953   2.788   1.782   3.385 -0.1430  0.3330  1.4004
 6440SOL    HW230954   2.651   1.721   3.410  0.9756  1.1838  1.3259
 6441SOL     OW30955   0.764   0.181  11.439 -0.0752 -0.3030  0.1443
 6441SOL    HW130956   0.820   0.193  11.515 -0.7734 -0.6602  0.7161
 6441SOL    HW230957   0.816   0.234  11.378 -0.0904 -0.9233 -0.4067
 6442SOL     OW30958   1.577   0.893   3.079  0.4906  0.0562 -0.4262
 6442SOL    HW130959   1.580   0.884   3.174 -1.4113 -2.5064 -0.6113
 6442SOL    HW230960   1.606   0.806   3.054 -1.2638 -0.3587 -0.9841
 6443SOL     OW30961   1.689   4.687   9.682  0.6538  0.3025  0.2913
 6443SOL    HW130962   1.594   4.680   9.671  0.6232 -0.5237  1.1832
 6443SOL    HW230963   1.681   0.030   9.730 -1.0525  0.4461 -0.2649
 6444SOL     OW30964   3.872   3.135   3.360  0.5398  0.0192  0.3496
 6444SOL    HW130965   3.901   3.128   3.451  1.2617  2.6663  0.3134
 6444SOL    HW230966   3.907   3.050   3.334 -1.3218 -0.6315 -0.0581
 6445SOL     OW30967   1.042   0.753  15.690  0.1731  0.5024 -0.0182
 6445SOL    HW130968   0.995   0.717  15.615  0.0482 -0.3082  0.4500
 6445SOL    HW230969   1.069   0.839  15.657  0.3312  0.6172  0.4013
 6446SOL     OW30970   2.195   3.807  16.678 -0.1892 -0.4975 -0.2777
 6446SOL    HW130971   2.181   3.895  16.642 -0.5766 -0.7399 -0.7311
 6446SOL    HW230972   2.287   3.823  16.699  0.1088 -0.9790 -1.1824
 6447SOL     OW30973   2.402   2.114   5.986  0.2700  0.6420  0.0936
 6447SOL    HW130974   2.483   2.150   6.023  0.2680  0.9642 -0.2216
 6447SOL    HW230975   2.406   2.024   6.018  0.2430  0.8628  0.7090
 6448SOL     OW30976   0.634   1.206   2.406 -0.4376 -0.0857 -0.6092
 6448SOL    HW130977   0.647   1.126   2.456  1.3644 -0.8060 -2.2318
 6448SOL    HW230978   0.593   1.253   2.479 -0.9689 -1.8112  0.2016
 6449SOL     OW30979   0.165   1.708  14.653  0.6159  0.3910 -0.2660
 6449SOL    HW130980   0.173   1.787  14.706 -0.7824  0.6842 -0.4986
 6449SOL    HW230981   0.217   1.641  14.697 -0.0322 -0.5700 -0.9641
 6450SOL     OW30982   2.100   3.739   7.008  0.6211  0.3591  0.1875
 6450SOL    HW130983   2.122   3.776   6.922  0.9616  2.0013  0.9707
 6450SOL    HW230984   2.157   3.789   7.066  1.9536 -1.0245  0.0584
 6451SOL     OW30985   0.524   1.105   6.579 -0.2793  0.2220 -0.6206
 6451SOL    HW130986   0.567   1.181   6.617  0.6143 -0.3563 -0.4528
 6451SOL    HW230987   0.441   1.102   6.627  0.1000  2.5145  0.1747
 6452SOL     OW30988   1.189   4.418   9.347 -0.1710 -0.5691  0.0891
 6452SOL    HW130989   1.132   4.450   9.278  0.1661  0.7820  0.4458
 6452SOL    HW230990   1.216   4.508   9.366  1.5699 -0.6488 -2.0298
 6453SOL     OW30991   4.177   1.680  14.009 -0.1148  0.2657  0.1217
 6453SOL    HW130992   4.211   1.763  13.974  0.4484 -0.7305 -1.7210
 6453SOL    HW230993   4.083   1.687  13.991 -0.3732 -0.8561  1.0249
 6454SOL     OW30994   4.203   0.340  12.120 -0.1608  0.1013  0.6848
 6454SOL    HW130995   4.109   0.351  12.135 -0.2293 -0.5871  0.7657
 6454SOL    HW230996   4.220   0.247  12.136  0.8986 -0.2506 -2.4519
 6455SOL     OW30997   1.799   1.147   1.193 -0.2891  0.1196  0.6799
 6455SOL    HW130998   1.799   1.082   1.264  0.7460  2.0733  2.4641
 6455SOL    HW230999   1.894   1.155   1.190 -0.5518  2.3063 -1.4625
 6456SOL     OW31000   1.803   4.568   4.154  0.3000  0.2825  0.0345
 6456SOL    HW131001   1.837   4.530   4.073 -2.7269 -1.9044 -0.2171
 6456SOL    HW231002   1.855   4.527   4.223 -0.3920 -0.8102 -0.0882
 6457SOL     OW31003   3.084   0.899   6.349 -0.0058  0.1608 -0.1498
 6457SOL    HW131004   3.112   0.898   6.257 -1.1433 -1.1206 -0.4729
 6457SOL    HW231005   3.136   0.826   6.383  0.3680  0.2680 -0.4867
 6458SOL     OW31006   1.844   1.377  16.098  0.0744  0.0018  0.0659
 6458SOL    HW131007   1.859   1.366  16.192  2.0336  1.5550 -0.0436
 6458SOL    HW231008   1.860   1.471  16.088 -0.0772 -0.1517 -1.6846
 6459SOL     OW31009   4.021   3.395  15.725 -0.2018 -0.4905  0.6891
 6459SOL    HW131010   3.967   3.355  15.793 -2.4473  0.5087 -0.5054
 6459SOL    HW231011   3.991   3.346  15.649  3.3526 -0.2046 -0.8867
 6460SOL     OW31012   2.155   1.848  13.380 -0.1100  0.0291  0.0722
 6460SOL    HW131013   2.193   1.805  13.457 -0.6108 -3.5989 -1.6791
 6460SOL    HW231014   2.231   1.895  13.346 -0.1875  0.2146  0.1591
 6461SOL     OW31015   2.919   0.606   9.813  0.3742 -0.0242  0.5679
 6461SOL    HW131016   2.954   0.536   9.869 -0.6302 -2.2401 -1.5647
 6461SOL    HW231017   2.960   0.577   9.731 -1.3022 -0.3039 -0.1675
 6462SOL     OW31018   0.938   2.451   4.737 -1.0593 -0.1996 -0.4046
 6462SOL    HW131019   1.024   2.418   4.766 -0.0157  1.9500 -1.0908
 6462SOL    HW231020   0.881   2.432   4.812  0.3420 -1.5541  0.3219
 6463SOL     OW31021   2.527   1.958   6.190  0.7614  0.1485  0.0209
 6463SOL    HW131022   2.562   1.957   6.279  2.2390  1.0427 -0.5504
 6463SOL    HW231023   2.566   2.043   6.167  2.0150 -0.3067  0.5134
 6464SOL     OW31024   1.021   4.074   3.539 -0.1273  0.4176  0.1733
 6464SOL    HW131025   1.095   4.133   3.553  0.1474  0.6730 -2.2865
 6464SOL    HW231026   0.974   4.128   3.475  1.6838 -0.3318 -1.7795
 6465SOL     OW31027   4.317   2.263   2.982  0.3731 -0.0396  0.0822
 6465SOL    HW131028   4.403   2.289   3.015  0.1958 -0.0788  0.5808
 6465SOL    HW231029   4.322   2.167   2.986 -2.0530 -0.1131  1.2614
 6466SOL     OW31030   0.346   3.044   4.579  0.0702  0.1513 -0.2144
 6466SOL    HW131031   0.264   2.995   4.573 -0.2671  0.5635  1.0648
 6466SOL    HW231032   0.311   3.131   4.559 -2.3904 -0.5023  1.1490
 6467SOL     OW31033   3.333   4.217   2.525  0.7480  0.1179  0.0568
 6467SOL    HW131034   3.271   4.144   2.529  0.5873  0.2466 -0.1055
 6467SOL    HW231035   3.271   4.286   2.504 -0.0315 -0.5776  0.0561
 6468SOL     OW31036   1.283   3.334   7.750  0.1538 -0.4229 -0.7113
 6468SOL    HW131037   1.329   3.404   7.797 -0.4628  0.1395 -0.9304
 6468SOL    HW231038   1.347   3.289   7.695  0.8470  0.3262 -0.5293
 6469SOL     OW31039   1.642   2.614   2.440 -0.6721 -0.6229  0.3957
 6469SOL    HW131040   1.604   2.702   2.438 -2.1821 -1.2848 -0.0013
 6469SOL    HW231041   1.615   2.570   2.359 -0.9716  0.2126  0.0346
 6470SOL     OW31042   3.380   3.929   7.301  0.5784  0.0836 -0.0289
 6470SOL    HW131043   3.354   3.904   7.389  0.9128 -0.7313 -0.1575
 6470SOL    HW231044   3.355   4.021   7.301 -0.5754 -0.2346  0.1186
 6471SOL     OW31045   2.655   0.804   7.897 -0.0312 -0.5698 -0.6536
 6471SOL    HW131046   2.718   0.772   7.961  1.3428  0.9821 -1.2500
 6471SOL    HW231047   2.659   0.898   7.917 -0.0420 -0.7116  0.0317
 6472SOL     OW31048   4.662   1.346   3.236  0.4094 -0.6721 -0.9867
 6472SOL    HW131049   4.602   1.317   3.305 -0.2616  1.5765 -0.6226
 6472SOL    HW231050   4.592   1.373   3.177  0.4651  0.0754 -0.7139
 6473SOL     OW31051   3.363   1.653   5.906  0.6940 -0.0841 -0.4453
 6473SOL    HW131052   3.316   1.726   5.867 -0.6683 -0.5014  0.3999
 6473SOL    HW231053   3.449   1.666   5.868  0.3625 -0.6974 -1.4085
 6474SOL     OW31054   0.031   3.403  12.849  0.5762  0.2362 -0.5379
 6474SOL    HW131055   0.025   3.367  12.760 -1.3007 -1.9980  0.5095
 6474SOL    HW231056   0.061   3.493  12.838  0.9727  0.1979  0.2831
 6475SOL     OW31057   2.794   2.851   4.735 -0.2967 -0.1926  0.4853
 6475SOL    HW131058   2.820   2.932   4.693 -0.2129 -1.1959 -1.3875
 6475SOL    HW231059   2.837   2.866   4.820 -2.7597  0.2660  1.6353
 6476SOL     OW31060   0.665   4.719  15.832  0.7746  0.0536  0.7445
 6476SOL    HW131061   0.678   4.708  15.738 -0.2555 -1.1324  0.7412
 6476SOL    HW231062   0.701   0.068  15.838  0.0051  0.5417 -2.3062
 6477SOL     OW31063   2.238   0.170   1.546  0.3875  0.3583  0.3284
 6477SOL    HW131064   2.246   0.263   1.528  0.5653  0.3518  0.3767
 6477SOL    HW231065   2.327   0.149   1.573  0.4865  0.0838 -0.2178
 6478SOL     OW31066   0.574   3.399  15.816  0.5657  0.2905 -0.4685
 6478SOL    HW131067   0.554   3.318  15.863 -0.8227 -0.1838 -1.9149
 6478SOL    HW231068   0.576   3.372  15.724  0.7239  1.7319 -0.8918
 6479SOL     OW31069   1.014   4.452   3.734  0.0099  0.5310 -0.2190
 6479SOL    HW131070   0.935   4.465   3.682 -0.1486 -1.3893 -0.4637
 6479SOL    HW231071   0.991   4.374   3.786  0.2043  0.9943  0.5732
 6480SOL     OW31072   1.474   2.523   7.223 -0.7617  0.0665 -0.3833
 6480SOL    HW131073   1.534   2.449   7.218  0.5193  1.2540 -2.2477
 6480SOL    HW231074   1.525   2.593   7.184 -1.6953  1.2373  0.4723
 6481SOL     OW31075   1.927   2.663  16.289 -0.1599  0.0211  0.2515
 6481SOL    HW131076   1.836   2.641  16.308 -0.1663 -0.0648  0.1172
 6481SOL    HW231077   1.923   2.667  16.193 -0.4924 -0.8056  0.2307
 6482SOL     OW31078   0.462   4.216   4.522  0.1526 -0.1411  0.1270
 6482SOL    HW131079   0.552   4.183   4.523 -0.0738 -0.7528  0.4485
 6482SOL    HW231080   0.434   4.215   4.431 -1.2908  2.3750  0.5619
 6483SOL     OW31081   3.983   0.577   5.307 -0.0458  0.4403  0.7426
 6483SOL    HW131082   4.008   0.647   5.247 -0.2768 -0.8607 -0.8996
 6483SOL    HW231083   3.889   0.576   5.287 -0.2303 -1.0270  1.6547
 6484SOL     OW31084   2.926   1.415   2.425 -0.5653 -0.4921 -0.2593
 6484SOL    HW131085   2.880   1.440   2.345  2.3125  1.9342 -1.1685
 6484SOL    HW231086   2.864   1.386   2.492  0.6269 -2.8050 -0.1639
 6485SOL     OW31087   2.486   3.000   3.615  0.1668  0.2280  0.0139
 6485SOL    HW131088   2.493   2.918   3.566 -2.9018 -0.1128  0.1485
 6485SOL    HW231089   2.479   3.065   3.545 -0.7185  0.0303 -0.0752
 6486SOL     OW31090   3.872   2.830  11.107 -0.3704  0.2002 -0.2085
 6486SOL    HW131091   3.857   2.776  11.030 -0.0103  1.3542 -1.0968
 6486SOL    HW231092   3.935   2.892  11.070 -1.6134  0.2894 -2.1360
 6487SOL     OW31093   1.750   0.446   1.338  0.0558  0.4287  0.0986
 6487SOL    HW131094   1.775   0.362   1.375  0.4909 -0.2252 -1.6776
 6487SOL    HW231095   1.776   0.509   1.405  0.9863 -0.7500  0.8317
 6488SOL     OW31096   4.384   0.730   6.438  0.5466 -0.1870  0.1597
 6488SOL    HW131097   4.319   0.777   6.387  0.3881 -0.7104 -0.1196
 6488SOL    HW231098   4.470   0.767   6.416  0.7312  0.1431  1.4176
 6489SOL     OW31099   0.797   0.183   7.702 -0.3503  0.2767  0.0082
 6489SOL    HW131100   0.708   0.148   7.695 -1.1008  2.1355  0.2878
 6489SOL    HW231101   0.836   0.176   7.615 -1.3192  2.0892 -0.5805
 6490SOL     OW31102   2.838   1.707   1.541  0.5614  0.2823  0.4393
 6490SOL    HW131103   2.772   1.762   1.499 -1.1076 -1.6907  0.4838
 6490SOL    HW231104   2.911   1.740   1.488 -0.1701 -1.5770 -1.7259
 6491SOL     OW31105   2.506   1.394   7.478  0.0655  0.0339  0.1897
 6491SOL    HW131106   2.494   1.484   7.507  0.5673  0.6979 -1.7018
 6491SOL    HW231107   2.587   1.400   7.429  0.8246 -3.7042  0.9700
 6492SOL     OW31108   1.690   4.625   5.776  0.0825 -0.2745 -0.0313
 6492SOL    HW131109   1.781   4.649   5.791  0.8724 -1.0808 -3.4873
 6492SOL    HW231110   1.658   4.589   5.859 -0.0445 -3.3150 -1.3986
 6493SOL     OW31111   2.326   1.352   6.842 -0.4760 -0.1430  0.0530
 6493SOL    HW131112   2.349   1.434   6.884  2.2210 -0.3749 -0.9551
 6493SOL    HW231113   2.292   1.383   6.758  0.2068 -0.7388 -0.4479
 6494SOL     OW31114   1.341   2.572  10.313 -0.2797  0.4313  0.5230
 6494SOL    HW131115   1.265   2.574  10.371 -0.6206 -0.1387  0.0960
 6494SOL    HW231116   1.323   2.500  10.252  0.2793 -0.1986  1.0884
 6495SOL     OW31117   1.667   0.998   8.720 -0.4249 -0.2585  0.0994
 6495SOL    HW131118   1.720   0.920   8.705 -0.5696 -0.3746  0.1897
 6495SOL    HW231119   1.639   0.974   8.808 -0.0294  0.4835  0.4290
 6496SOL     OW31120   1.898   0.068   1.326 -0.1763 -0.7365  0.1640
 6496SOL    HW131121   1.866   0.026   1.246  1.0516  0.2510 -0.8267
 6496SOL    HW231122   1.813   0.075   1.370  0.4615  2.6346  0.7924
 6497SOL     OW31123   3.529   4.536   7.737  0.1710  0.4942 -0.7448
 6497SOL    HW131124   3.548   4.502   7.825 -0.7308 -1.4735 -1.3234
 6497SOL    HW231125   3.476   4.466   7.701  1.2338 -0.8595  0.3561
 6498SOL     OW31126   4.168   2.825   8.011 -0.0359 -0.3257  0.0323
 6498SOL    HW131127   4.093   2.882   7.995  1.3293  1.4033 -0.1319
 6498SOL    HW231128   4.215   2.826   7.928 -0.0037 -1.8757  0.0218
 6499SOL     OW31129   4.175   0.934   0.932  0.0155  0.4445 -0.8439
 6499SOL    HW131130   4.268   0.913   0.929  0.4055  2.1784 -1.2183
 6499SOL    HW231131   4.127   0.862   0.891 -0.9469  1.0045 -0.7047
 6500SOL     OW31132   4.152   4.280   3.200 -1.0177  0.5619 -0.1435
 6500SOL    HW131133   4.240   4.257   3.170 -1.1271  1.3528 -1.0509
 6500SOL    HW231134   4.104   4.208   3.159 -1.7368  1.9499 -1.7279
 6501SOL     OW31135   4.610   2.074   6.555  0.4022  0.2341  0.4105
 6501SOL    HW131136   4.675   2.110   6.615  1.6374 -0.5620 -0.4259
 6501SOL    HW231137   4.667   2.028   6.493  1.5059  3.0647 -0.6763
 6502SOL     OW31138   4.039   1.175   7.340 -0.7400  0.5565 -0.1140
 6502SOL    HW131139   4.018   1.095   7.291  1.5414 -1.1795  1.7344
 6502SOL    HW231140   3.997   1.238   7.281 -0.4556  2.9496  2.2158
 6503SOL     OW31141   1.929   1.315   8.110 -0.0937 -0.0511  0.1795
 6503SOL    HW131142   1.968   1.247   8.054  0.4283  0.8606 -0.5514
 6503SOL    HW231143   1.849   1.265   8.126 -2.0306  1.4467 -4.6666
 6504SOL     OW31144   1.028   4.652   3.915 -0.1898 -0.0963 -0.1647
 6504SOL    HW131145   1.009   4.587   3.847 -0.5409 -0.7884  0.5985
 6504SOL    HW231146   1.121   4.674   3.908 -0.8809  2.1763 -2.3903
 6505SOL     OW31147   2.259   0.575  13.894 -0.1203 -0.3095 -0.1698
 6505SOL    HW131148   2.236   0.483  13.887 -0.0107 -0.2067 -1.9188
 6505SOL    HW231149   2.258   0.589  13.988  2.2744 -0.8643 -0.0444
 6506SOL     OW31150   3.194   2.765  11.336 -0.0484 -0.4071  0.2050
 6506SOL    HW131151   3.124   2.703  11.315  0.9171 -1.8735  1.3543
 6506SOL    HW231152   3.277   2.728  11.304  1.6664  1.5462  2.4528
 6507SOL     OW31153   3.372   3.299   6.731 -0.8504 -0.5078  0.3352
 6507SOL    HW131154   3.420   3.289   6.813  0.9010 -2.1997 -0.8941
 6507SOL    HW231155   3.438   3.353   6.689 -0.1750 -0.8576  0.9504
 6508SOL     OW31156   2.032   4.608  10.761 -0.0938  0.0601  0.0954
 6508SOL    HW131157   2.094   4.563  10.704  0.4099 -0.0326  0.7172
 6508SOL    HW231158   1.958   4.625  10.702 -0.7536 -0.6639  0.7098
 6509SOL     OW31159   2.052   0.569   2.168  0.5766  0.0731  0.2972
 6509SOL    HW131160   2.040   0.527   2.254  0.7265 -0.3964  0.0934
 6509SOL    HW231161   2.147   0.572   2.155  0.6525 -0.7243  0.6017
 6510SOL     OW31162   3.009   2.280   8.394  0.0551  0.1377 -0.3541
 6510SOL    HW131163   3.097   2.256   8.364 -0.7796 -2.2267 -0.9040
 6510SOL    HW231164   3.034   2.290   8.486  0.2849  1.1215 -0.5265
 6511SOL     OW31165   1.404   2.557   4.995  0.3499  1.1513  0.6788
 6511SOL    HW131166   1.415   2.532   5.087  0.6826 -0.7475  0.1318
 6511SOL    HW231167   1.311   2.576   4.993 -0.1799 -1.2326  2.2735
 6512SOL     OW31168   1.508   3.254   8.818 -0.1285  0.1213  0.5464
 6512SOL    HW131169   1.465   3.196   8.882  1.3019 -2.7889 -1.1048
 6512SOL    HW231170   1.479   3.342   8.840 -0.3213 -0.4725  2.6851
 6513SOL     OW31171   2.049   2.357   5.750 -0.3269  0.0117 -0.3917
 6513SOL    HW131172   2.002   2.321   5.674 -0.3881  0.8723 -0.7706
 6513SOL    HW231173   2.131   2.381   5.706  1.8970 -0.0493  3.7277
 6514SOL     OW31174   4.049   4.359   6.751  0.3279 -0.0435 -0.5963
 6514SOL    HW131175   4.053   4.454   6.762 -0.8090  0.0090 -0.6070
 6514SOL    HW231176   3.961   4.345   6.715  0.5048 -0.4433 -0.8748
 6515SOL     OW31177   1.064   2.345   5.504  0.1954 -0.3683  0.2946
 6515SOL    HW131178   1.026   2.263   5.473 -1.0780  0.9250 -1.5431
 6515SOL    HW231179   1.097   2.311   5.588 -1.9511 -2.2633  0.3639
 6516SOL     OW31180   2.341   1.995  12.197 -0.0562  0.2394 -0.3424
 6516SOL    HW131181   2.369   2.076  12.239  0.8545  0.2019 -0.8879
 6516SOL    HW231182   2.303   1.945  12.270  0.2166  0.7777  0.1647
 6517SOL     OW31183   2.223   1.368  13.619 -0.1571  1.0099  0.1588
 6517SOL    HW131184   2.261   1.291  13.576  0.7873  0.0384  2.7300
 6517SOL    HW231185   2.226   1.431  13.548 -1.5230  0.9780  0.0734
 6518SOL     OW31186   2.382   0.929   9.373 -0.6336 -0.1296 -0.0755
 6518SOL    HW131187   2.361   0.840   9.345 -1.8040  0.3306 -0.6386
 6518SOL    HW231188   2.441   0.974   9.312 -0.0554  0.1610  0.7004
 6519SOL     OW31189   2.079   1.745   5.537  0.1040 -0.3554 -0.0420
 6519SOL    HW131190   2.028   1.731   5.617  0.1304 -1.7594 -0.2790
 6519SOL    HW231191   2.011   1.732   5.471  1.0552 -0.2332 -1.0327
 6520SOL     OW31192   3.323   1.390   1.737  0.9357  0.2499 -0.1383
 6520SOL    HW131193   3.403   1.342   1.717 -0.5125 -1.8476 -0.8839
 6520SOL    HW231194   3.263   1.341   1.681  1.4564 -0.0971 -0.3987
 6521SOL     OW31195   4.217   2.322   4.741 -0.2148 -0.5153 -0.7743
 6521SOL    HW131196   4.272   2.255   4.702 -0.6480 -1.1075 -0.3641
 6521SOL    HW231197   4.284   2.385   4.766  0.1747 -0.2531 -2.4745
 6522SOL     OW31198   1.080   1.175  11.770 -0.3690 -0.6389 -0.3443
 6522SOL    HW131199   1.013   1.241  11.791 -0.2771 -0.7924  0.4617
 6522SOL    HW231200   1.017   1.110  11.738  1.0139 -1.7616 -0.7492
 6523SOL     OW31201   2.561   3.763  15.572 -0.5242  1.1033 -0.1116
 6523SOL    HW131202   2.503   3.687  15.572 -0.8428  1.3490  1.1927
 6523SOL    HW231203   2.535   3.822  15.501  0.0197  1.3122 -0.1383
 6524SOL     OW31204   1.445   4.099   0.832  0.1172  0.2184 -1.0021
 6524SOL    HW131205   1.403   4.018   0.806  1.6731 -1.0428  0.4287
 6524SOL    HW231206   1.535   4.067   0.820 -0.2440 -0.6015 -1.4979
 6525SOL     OW31207   1.552   2.427   8.815  0.3950  0.7754  0.1801
 6525SOL    HW131208   1.486   2.459   8.753  1.8815 -2.8334 -3.2163
 6525SOL    HW231209   1.582   2.352   8.764  0.6883  1.4300 -0.6234
 6526SOL     OW31210   0.129   3.259   6.228  0.1570  0.5532  0.0594
 6526SOL    HW131211   0.162   3.349   6.220  0.7404  0.4658  1.4376
 6526SOL    HW231212   0.072   3.268   6.305 -0.5204  0.3708 -0.4217
 6527SOL     OW31213   1.087   4.094  14.032 -0.2858 -0.7958  0.5985
 6527SOL    HW131214   1.027   4.022  14.049 -1.9267  0.3222 -0.4373
 6527SOL    HW231215   1.054   4.125  13.948  1.2554 -1.9326 -0.4124
 6528SOL     OW31216   3.037   1.615  16.469 -0.2107 -0.9801  0.1381
 6528SOL    HW131217   3.095   1.571  16.407  2.3869  0.6619  1.3907
 6528SOL    HW231218   2.953   1.580  16.440 -0.8917 -1.2121  2.3634
 6529SOL     OW31219   0.999   3.744   5.787  0.0098 -0.0556  0.1002
 6529SOL    HW131220   0.970   3.688   5.715 -2.3075  2.1259 -0.6773
 6529SOL    HW231221   0.940   3.717   5.857  0.2331  2.2944  1.2049
 6530SOL     OW31222   0.124   4.145   0.135 -0.0735 -0.5964 -0.6007
 6530SOL    HW131223   0.116   4.195   0.054 -0.1035  2.3034  1.1924
 6530SOL    HW231224   0.195   4.084   0.115  0.7999  0.6261 -1.2089
 6531SOL     OW31225   1.868   1.576   1.650  0.4880 -0.4509 -0.2996
 6531SOL    HW131226   1.773   1.568   1.637  0.1264 -0.1397  2.1578
 6531SOL    HW231227   1.890   1.505   1.710  0.1437  0.8223  1.3475
 6532SOL     OW31228   1.150   0.465  14.552 -0.0499  0.2658 -0.2996
 6532SOL    HW131229   1.207   0.541  14.539  1.0693 -0.6166 -0.6005
 6532SOL    HW231230   1.221   0.406  14.577 -1.3221 -0.4284  1.6659
 6533SOL     OW31231   2.249   1.907   7.887 -0.1893  0.6455 -0.0719
 6533SOL    HW131232   2.343   1.904   7.906 -0.3896 -0.5764  0.7254
 6533SOL    HW231233   2.211   1.865   7.964  0.0585  1.1519  0.3293
 6534SOL     OW31234   2.224   1.047   4.746 -0.2548  0.4678 -0.1078
 6534SOL    HW131235   2.158   0.980   4.764  0.2175  0.5024  1.7689
 6534SOL    HW231236   2.266   1.054   4.832 -1.5408 -0.1530  0.5681
 6535SOL     OW31237   4.490   1.118  17.143 -0.0103 -0.5850 -0.4854
 6535SOL    HW131238   4.506   1.063  17.067  0.8907  1.4125 -1.7292
 6535SOL    HW231239   4.428   1.178  17.101  0.6721  0.0606 -0.5761
 6536SOL     OW31240   0.409   1.454   1.581  0.0745  0.8458 -0.0472
 6536SOL    HW131241   0.445   1.504   1.655  1.9578  0.4621 -0.7048
 6536SOL    HW231242   0.320   1.428   1.605 -0.0762  0.2482 -1.2361
 6537SOL     OW31243   1.419   0.807   4.382 -0.6287 -0.1532  0.0033
 6537SOL    HW131244   1.335   0.827   4.340 -0.4947  0.9537  0.2743
 6537SOL    HW231245   1.420   0.711   4.381 -0.6335 -0.1614  0.5933
 6538SOL     OW31246   4.069   1.426   1.479 -0.5138  0.1056  0.0090
 6538SOL    HW131247   4.096   1.393   1.565  0.1818  1.8631  0.4706
 6538SOL    HW231248   4.061   1.522   1.486 -0.8501 -0.1350  3.2921
 6539SOL     OW31249   4.024   3.239   8.271 -0.3300 -0.3268  0.1922
 6539SOL    HW131250   3.955   3.250   8.336  1.3486  0.5254  1.8381
 6539SOL    HW231251   4.084   3.312   8.290  1.2914 -1.6788  0.2928
 6540SOL     OW31252   2.296   4.099   3.163 -0.8590  0.0626  0.4076
 6540SOL    HW131253   2.230   4.035   3.134  0.1815 -0.5790 -0.5487
 6540SOL    HW231254   2.229   4.139   3.218 -0.6619 -0.2147  0.8536
 6541SOL     OW31255   4.343   3.234  10.802 -0.5080 -0.0774 -0.1926
 6541SOL    HW131256   4.379   3.188  10.878  2.0733 -2.3417 -2.7890
 6541SOL    HW231257   4.351   3.177  10.726  2.4199 -0.2647  0.2635
 6542SOL     OW31258   1.529   0.343   1.667 -0.1299  0.3818 -0.4322
 6542SOL    HW131259   1.569   0.373   1.586 -1.5138  1.4071 -0.7444
 6542SOL    HW231260   1.448   0.394   1.669  0.3270  1.0788  0.0602
 6543SOL     OW31261   2.751   2.742   7.359  0.2698 -0.5196 -0.2495
 6543SOL    HW131262   2.671   2.715   7.405 -0.4356  2.2156  0.1230
 6543SOL    HW231263   2.730   2.834   7.344 -3.3609 -1.5002 -1.1289
 6544SOL     OW31264   0.762   4.199   6.579  0.0503 -0.2946 -0.1779
 6544SOL    HW131265   0.766   4.291   6.607  0.5202  0.1349 -1.6964
 6544SOL    HW231266   0.675   4.173   6.612  0.5429 -0.2435  1.1774
 6545SOL     OW31267   2.248   2.632   3.628  0.2268  0.2016  0.2495
 6545SOL    HW131268   2.309   2.637   3.702  2.1076  0.5314 -1.3424
 6545SOL    HW231269   2.225   2.539   3.623 -1.3983  0.5493  1.1514
 6546SOL     OW31270   2.676   4.646  10.936 -0.7744 -0.8364  0.0207
 6546SOL    HW131271   2.728   4.579  10.893  1.9402  1.4709 -0.2555
 6546SOL    HW231272   2.713   4.635  11.024  0.1118  2.5326  0.0912
 6547SOL     OW31273   3.234   2.108  13.620 -0.2439 -0.3947 -0.4152
 6547SOL    HW131274   3.151   2.061  13.629  0.7679 -2.0635  0.3358
 6547SOL    HW231275   3.288   2.081  13.694 -3.0852 -4.0443  0.2970
 6548SOL     OW31276   3.107   4.306   5.451 -0.0267  0.1288 -0.2042
 6548SOL    HW131277   3.185   4.347   5.488 -0.5717  0.5040  0.5395
 6548SOL    HW231278   3.105   4.217   5.487  2.1469  0.1698  0.0076
 6549SOL     OW31279   2.903   4.436  14.414 -0.5132  0.1309  0.0520
 6549SOL    HW131280   2.937   4.520  14.444  0.9545 -0.3487 -0.2321
 6549SOL    HW231281   2.956   4.380  14.471 -1.8225  0.2114  1.3285
 6550SOL     OW31282   4.001   1.461  15.853  0.1893 -0.0976 -0.0991
 6550SOL    HW131283   4.018   1.372  15.824  1.5799 -0.2783  1.2968
 6550SOL    HW231284   4.083   1.485  15.896  0.6462 -0.6658 -0.6561
 6551SOL     OW31285   2.861   1.496  17.646 -0.2105  0.8689 -0.0044
 6551SOL    HW131286   2.942   1.536  17.614  1.2234 -2.4910 -0.6282
 6551SOL    HW231287   2.885   1.403  17.642 -0.2758  0.8836 -0.7045
 6552SOL     OW31288   2.533   3.581   1.723 -0.6722  0.2185  0.0643
 6552SOL    HW131289   2.455   3.526   1.724  0.9095 -2.0478 -0.5150
 6552SOL    HW231290   2.605   3.520   1.704 -0.9458  0.4562 -1.7716
 6553SOL     OW31291   1.302   2.320  11.089 -0.1962 -0.4711 -0.2548
 6553SOL    HW131292   1.290   2.415  11.084  0.6959 -0.3612 -0.2421
 6553SOL    HW231293   1.385   2.303  11.045  1.5880 -0.3183  3.0290
 6554SOL     OW31294   0.606   3.279   5.614 -0.2196  0.0482 -0.0509
 6554SOL    HW131295   0.595   3.341   5.687 -0.6228 -0.9589  0.7495
 6554SOL    HW231296   0.629   3.348   5.551  0.8569 -1.2474 -1.0706
 6555SOL     OW31297   1.427   4.310   2.170  0.7531 -1.4720  0.4970
 6555SOL    HW131298   1.461   4.267   2.090  0.8103 -0.9527  0.2449
 6555SOL    HW231299   1.480   4.257   2.229  0.7558 -0.3603  1.4756
 6556SOL     OW31300   4.337   3.197   1.796  0.1520 -0.3050  0.1032
 6556SOL    HW131301   4.294   3.188   1.881 -0.2494  2.5073  0.1931
 6556SOL    HW231302   4.364   3.289   1.802  0.5389 -0.3925 -0.2813
 6557SOL     OW31303   1.716   3.306   9.863 -0.2995  1.0503  0.2358
 6557SOL    HW131304   1.668   3.293   9.945  1.2162  2.2908  1.3113
 6557SOL    HW231305   1.768   3.228   9.843 -0.4352  0.3509  2.5571
 6558SOL     OW31306   4.392   4.260   8.618  0.3500  0.9529  0.3089
 6558SOL    HW131307   4.410   4.198   8.548  0.2853 -0.2878  1.3854
 6558SOL    HW231308   4.432   4.213   8.691 -1.3538  0.5411  0.9825
 6559SOL     OW31309   1.928   2.808   0.102  0.7430 -0.6091  0.1909
 6559SOL    HW131310   1.879   2.734   0.138 -2.0467  0.4396 -1.3964
 6559SOL    HW231311   1.951   2.780   0.013 -0.9243 -0.5896 -0.2628
 6560SOL     OW31312   3.956   4.285   5.315 -0.0607 -0.3039  0.0603
 6560SOL    HW131313   3.921   4.197   5.326 -1.9449  0.7398  2.3486
 6560SOL    HW231314   4.017   4.288   5.388  0.6012 -1.6934 -0.4359
 6561SOL     OW31315   1.125   4.116   9.348  0.1292 -0.1646  0.5039
 6561SOL    HW131316   1.154   4.195   9.394 -0.9689  0.2345  0.5173
 6561SOL    HW231317   1.197   4.053   9.352  0.8837  0.6638 -0.2122
 6562SOL     OW31318   1.088   1.445   3.227  0.2687  0.2650  0.0319
 6562SOL    HW131319   1.103   1.454   3.133 -0.9142 -0.6463 -0.2524
 6562SOL    HW231320   0.994   1.463   3.225  0.6194  2.0623 -0.0721
 6563SOL     OW31321   2.450   3.170   8.921  0.2248 -0.0054  0.1950
 6563SOL    HW131322   2.515   3.127   8.865  2.2444  1.8025  1.1570
 6563SOL    HW231323   2.370   3.151   8.873  1.2303  1.6402 -2.1416
 6564SOL     OW31324   2.941   2.717   3.885  0.1165  0.2174 -0.4180
 6564SOL    HW131325   3.033   2.711   3.908  0.0815  0.1050 -0.3109
 6564SOL    HW231326   2.923   2.624   3.876  0.4663 -0.0277  1.4518
 6565SOL     OW31327   3.209   0.275   9.379 -0.5858  0.8102 -1.1607
 6565SOL    HW131328   3.293   0.250   9.419  0.0422  1.7256 -1.9019
 6565SOL    HW231329   3.235   0.337   9.311 -1.2147  1.2012 -1.0379
 6566SOL     OW31330   0.713   3.699   5.886 -0.3850 -0.0399  0.1032
 6566SOL    HW131331   0.724   3.643   5.963  4.1087 -0.3474 -0.7671
 6566SOL    HW231332   0.734   3.635   5.819  0.4913  0.9988 -0.6276
 6567SOL     OW31333   0.711   0.828   2.162 -0.2662  0.6499 -0.0745
 6567SOL    HW131334   0.636   0.875   2.200  1.2109  3.0343 -0.1051
 6567SOL    HW231335   0.768   0.812   2.237  0.2965  0.2625 -0.5855
 6568SOL     OW31336   4.143   1.174   6.366 -0.5011 -0.0114  0.0654
 6568SOL    HW131337   4.212   1.235   6.341 -3.0619  2.6121 -0.6149
 6568SOL    HW231338   4.095   1.233   6.425  0.1956  0.6363 -0.0213
 6569SOL     OW31339   2.088   0.938  16.864 -0.5377 -0.0186 -0.0197
 6569SOL    HW131340   2.061   0.847  16.872  0.3249 -0.4825 -2.3047
 6569SOL    HW231341   2.180   0.924  16.883 -0.1358  2.7756  0.1636
 6570SOL     OW31342   1.741   2.840  11.874 -0.7193  0.2296  0.1821
 6570SOL    HW131343   1.670   2.836  11.810  1.2291  1.9384 -2.0792
 6570SOL    HW231344   1.813   2.815  11.816 -1.7361  1.0265 -1.4181
 6571SOL     OW31345   0.613   0.113  12.840 -0.2894  0.2722 -0.5293
 6571SOL    HW131346   0.638   0.167  12.915  1.0262  1.3850 -1.7839
 6571SOL    HW231347   0.517   0.118  12.837 -0.1664  1.1445 -2.6977
 6572SOL     OW31348   3.239   2.713  12.037 -0.1843  0.3444 -0.0998
 6572SOL    HW131349   3.211   2.643  11.978  1.8835 -0.1623 -0.4697
 6572SOL    HW231350   3.313   2.677  12.084 -1.4509 -2.0694  0.0157
 6573SOL     OW31351   0.387   1.010  15.901  0.0191  0.2633 -0.1818
 6573SOL    HW131352   0.435   1.070  15.958 -0.5986  0.5545  0.0291
 6573SOL    HW231353   0.412   1.047  15.816 -0.2766  0.5582 -0.1364
 6574SOL     OW31354   2.786   0.588   4.389  0.5797 -0.2774  0.0285
 6574SOL    HW131355   2.813   0.587   4.481  2.4684  1.6608 -0.5267
 6574SOL    HW231356   2.745   0.674   4.388  1.7814  0.2962  0.0410
 6575SOL     OW31357   1.687   2.291  11.176  0.2900  0.2761  0.3680
 6575SOL    HW131358   1.666   2.363  11.117  0.4573 -1.9732 -2.4407
 6575SOL    HW231359   1.634   2.221  11.137 -0.0344  0.4942  0.4216
 6576SOL     OW31360   4.388   2.929   0.389  0.1678 -0.4601 -0.2620
 6576SOL    HW131361   4.445   3.004   0.407  0.1440 -0.2376 -1.0874
 6576SOL    HW231362   4.315   2.960   0.442  0.7891  0.3431  0.1293
 6577SOL     OW31363   0.551   0.558  10.082  0.3045  0.2845  0.0747
 6577SOL    HW131364   0.508   0.620  10.141 -0.4816  0.0661 -0.2664
 6577SOL    HW231365   0.574   0.612  10.006 -0.6242  1.4778  0.6415
 6578SOL     OW31366   0.650   3.614   7.681 -0.4398  0.2337 -0.4194
 6578SOL    HW131367   0.642   3.570   7.596  1.6843 -0.3273 -0.3127
 6578SOL    HW231368   0.557   3.617   7.704  0.1171  0.6268  1.7608
 6579SOL     OW31369   2.248   3.347  16.364  0.1589  0.5621 -0.5027
 6579SOL    HW131370   2.231   3.271  16.308 -0.8783  1.6153 -1.6081
 6579SOL    HW231371   2.183   3.334  16.433 -0.6776  4.1059 -0.6173
 6580SOL     OW31372   3.201   2.441  11.402  0.0597 -0.3696 -0.2761
 6580SOL    HW131373   3.139   2.486  11.344  0.5497  2.3572  1.3283
 6580SOL    HW231374   3.230   2.364  11.352 -0.5773 -1.0073  0.3443
 6581SOL     OW31375   2.448   1.010   4.569  0.4574  0.1530 -0.4662
 6581SOL    HW131376   2.409   1.052   4.492  0.0398 -1.5999 -1.2124
 6581SOL    HW231377   2.393   1.049   4.637 -0.4302 -0.0396 -1.0776
 6582SOL     OW31378   2.185   1.343   3.271 -0.3664 -0.0544 -0.1549
 6582SOL    HW131379   2.258   1.286   3.294  0.5290  0.6583 -1.2524
 6582SOL    HW231380   2.171   1.379   3.358 -0.8460  0.6078 -0.5083
 6583SOL     OW31381   0.178   3.722  17.752  0.3414 -0.0762  0.0134
 6583SOL    HW131382   0.097   3.687   0.036 -0.7160 -0.4438 -2.4936
 6583SOL    HW231383   0.182   3.667  17.674  1.8107  0.1791 -0.0938
 6584SOL     OW31384   4.532   0.106   0.125  0.1486 -0.1342  0.5221
 6584SOL    HW131385   4.611   0.052   0.114  1.0359  0.9158  1.5686
 6584SOL    HW231386   4.468   0.036   0.134 -0.8380  0.4854 -1.8159
 6585SOL     OW31387   0.653   0.360   7.529 -0.2129  0.2053 -0.0676
 6585SOL    HW131388   0.694   0.303   7.593 -0.2133  1.2793  0.8894
 6585SOL    HW231389   0.592   0.415   7.579  0.3516  0.0572  0.7792
 6586SOL     OW31390   0.855   3.554   2.957  0.2596 -0.0083  0.3049
 6586SOL    HW131391   0.871   3.478   2.900  1.3148  1.0543 -0.8125
 6586SOL    HW231392   0.843   3.630   2.900 -1.8719  1.9729  3.4459
 6587SOL     OW31393   1.757   1.082  10.246  0.3385  0.5449 -0.2562
 6587SOL    HW131394   1.661   1.083  10.241  0.3421  0.2855 -0.3775
 6587SOL    HW231395   1.781   1.109  10.157  1.1351 -0.5190 -0.3628
 6588SOL     OW31396   4.198   0.585   8.208  0.5752 -0.0623 -0.1048
 6588SOL    HW131397   4.198   0.645   8.283  0.0306 -1.6401  1.1437
 6588SOL    HW231398   4.113   0.541   8.212  1.2703 -1.4366 -0.5036
 6589SOL     OW31399   3.074   4.325   1.280 -0.0088 -0.0458  0.2957
 6589SOL    HW131400   2.994   4.370   1.251  0.1207  0.5615  0.8705
 6589SOL    HW231401   3.050   4.293   1.368 -2.8925 -0.4187 -0.6221
 6590SOL     OW31402   0.403   1.824   9.074  0.0315 -0.1337 -0.1669
 6590SOL    HW131403   0.415   1.750   9.014 -0.8662  3.1711 -4.4072
 6590SOL    HW231404   0.466   1.817   9.145 -1.7361  0.0489  1.4049
 6591SOL     OW31405   4.375   1.039   2.997  0.7682 -0.5229  0.7284
 6591SOL    HW131406   4.332   1.006   2.919  1.1554 -1.6027  0.9711
 6591SOL    HW231407   4.426   0.963   3.024  0.8129 -0.2387  1.4602
 6592SOL     OW31408   4.034   2.464   4.585  0.1173  0.0754  0.4245
 6592SOL    HW131409   4.100   2.424   4.642 -0.7971 -1.2645  0.5447
 6592SOL    HW231410   3.975   2.497   4.652 -0.2834 -1.0289  0.6171
 6593SOL     OW31411   1.332   0.506   9.294  0.1019  0.0048  0.5570
 6593SOL    HW131412   1.241   0.530   9.312  0.3068  1.3413 -0.1872
 6593SOL    HW231413   1.338   0.418   9.330  0.0606  0.1362  0.8835
 6594SOL     OW31414   4.637   3.076   7.434  0.5777  0.2841 -0.5820
 6594SOL    HW131415   4.715   3.082   7.489  1.0374  1.0391 -1.2977
 6594SOL    HW231416   4.584   3.150   7.466  2.2784  0.4596  1.8284
 6595SOL     OW31417   3.144   3.924   4.197 -0.3437 -0.2533 -0.0029
 6595SOL    HW131418   3.081   3.897   4.264 -1.8655  2.3565 -0.3915
 6595SOL    HW231419   3.087   3.910   4.121  0.3049 -1.5181 -0.2467
 6596SOL     OW31420   0.606   2.076   2.758  0.2553 -0.8312 -0.7339
 6596SOL    HW131421   0.598   2.165   2.793  1.5780 -1.0699  0.1721
 6596SOL    HW231422   0.514   2.053   2.742 -0.1934  0.1592  0.4518
 6597SOL     OW31423   0.749   2.916   7.852  0.1147 -0.1025  0.5183
 6597SOL    HW131424   0.826   2.899   7.907  0.4191 -2.5142 -0.6617
 6597SOL    HW231425   0.677   2.872   7.896  0.5631 -1.9546 -0.6224
 6598SOL     OW31426   0.451   4.546  17.401  0.5139  0.0385  0.0647
 6598SOL    HW131427   0.406   4.606  17.460 -0.9062  0.7757 -1.7475
 6598SOL    HW231428   0.538   4.548  17.441  0.1939 -1.3484  0.8326
 6599SOL     OW31429   0.294   1.698   2.956  0.8592 -0.3922  0.0340
 6599SOL    HW131430   0.297   1.660   3.043  1.7274 -0.3286  0.0310
 6599SOL    HW231431   0.380   1.680   2.918  0.6279 -1.0879 -0.1584
 6600SOL     OW31432   0.098   0.810   1.151 -0.4015 -0.6201 -0.1489
 6600SOL    HW131433   0.147   0.893   1.148 -2.2222  0.3947 -2.0285
 6600SOL    HW231434   0.108   0.784   1.242  0.1163  1.3985  0.3842
 6601SOL     OW31435   4.038   3.428   2.125  0.2409 -0.5510 -0.2331
 6601SOL    HW131436   4.102   3.450   2.057 -0.4215  1.2798 -0.2817
 6601SOL    HW231437   3.981   3.366   2.079 -0.5456  0.1004 -0.1553
 6602SOL     OW31438   3.655   4.199   7.455  0.0488  0.1171 -0.1904
 6602SOL    HW131439   3.737   4.197   7.404 -0.2287 -3.8785 -0.4517
 6602SOL    HW231440   3.591   4.192   7.384  0.5503  0.3338 -0.6639
 6603SOL     OW31441   1.091   1.269  12.938 -0.2341 -0.1355 -0.6489
 6603SOL    HW131442   1.116   1.190  12.890  2.5662 -0.1433  0.8645
 6603SOL    HW231443   0.995   1.259  12.940 -0.2188  0.0405  0.8363
 6604SOL     OW31444   2.357   0.010   9.141 -0.2626  0.1728 -0.2833
 6604SOL    HW131445   2.423   0.037   9.077 -0.8591 -0.4989 -1.1725
 6604SOL    HW231446   2.380   4.658   9.154  0.3699  0.2503 -0.8807
 6605SOL     OW31447   3.252   2.945  11.714  0.0763  0.0804 -0.0069
 6605SOL    HW131448   3.212   2.976  11.795  0.3168  1.9129 -0.6095
 6605SOL    HW231449   3.250   2.849  11.718  2.5089 -0.0053 -0.3829
 6606SOL     OW31450   0.536   2.010  11.490  0.2498 -0.8277  0.9038
 6606SOL    HW131451   0.535   2.104  11.508 -1.6106 -0.7102  0.1425
 6606SOL    HW231452   0.457   2.008  11.436 -0.3289 -2.1811  1.7833
 6607SOL     OW31453   4.509   0.164  15.581  0.1934  0.3274  0.0725
 6607SOL    HW131454   4.430   0.144  15.632  0.6141 -1.9739 -0.1729
 6607SOL    HW231455   4.581   0.145  15.640  1.6679  0.1343 -1.7978
 6608SOL     OW31456   3.387   4.338  11.880  0.2198  0.1938  0.1572
 6608SOL    HW131457   3.327   4.320  11.807 -0.1442 -2.2592  1.0521
 6608SOL    HW231458   3.475   4.313  11.855  0.2061  0.8961 -0.6207
 6609SOL     OW31459   1.159   1.913   7.784  0.2714 -0.1016  0.0613
 6609SOL    HW131460   1.095   1.878   7.846  1.3031 -1.2258  0.5022
 6609SOL    HW231461   1.137   2.006   7.783  2.3266  0.3741 -1.4370
 6610SOL     OW31462   2.107   2.684   4.648 -0.0601  0.5750 -0.1257
 6610SOL    HW131463   2.118   2.589   4.640 -2.9542  0.4343 -2.2639
 6610SOL    HW231464   2.192   2.714   4.616  0.4659  0.0327  0.7595
 6611SOL     OW31465   0.733   3.820   7.949  0.3654 -0.4124  0.2950
 6611SOL    HW131466   0.821   3.858   7.952 -1.0493  2.8930 -0.8625
 6611SOL    HW231467   0.691   3.873   7.881  2.5058  1.6932  0.6145
 6612SOL     OW31468   1.086   3.271   2.586  0.3009  0.1488  0.2770
 6612SOL    HW131469   1.040   3.187   2.587 -0.8518  0.7921  1.3269
 6612SOL    HW231470   1.119   3.279   2.676  0.5011 -0.5396  0.2660
 6613SOL     OW31471   3.711   1.684   2.816 -0.2326 -0.6247  0.0594
 6613SOL    HW131472   3.802   1.657   2.800 -0.0514 -0.4888  0.8585
 6613SOL    HW231473   3.667   1.606   2.851 -1.1261 -0.8441 -1.5534
 6614SOL     OW31474   1.393   0.226   6.463  0.1203  0.0308 -0.0021
 6614SOL    HW131475   1.316   0.283   6.469  1.4167  1.9396 -1.1462
 6614SOL    HW231476   1.465   0.288   6.477  0.2245 -0.7763  3.0675
 6615SOL     OW31477   3.337   3.757  14.796  0.6729  0.0737 -0.1954
 6615SOL    HW131478   3.377   3.670  14.794  1.0957  0.2284  1.3213
 6615SOL    HW231479   3.378   3.792  14.718  0.0195  1.0362 -0.1100
 6616SOL     OW31480   3.026   3.881   5.846 -0.1070 -0.1442 -1.1130
 6616SOL    HW131481   3.079   3.881   5.925 -1.2691 -0.5840 -0.3425
 6616SOL    HW231482   2.968   3.955   5.864  0.0637  0.3270 -2.4694
 6617SOL     OW31483   0.741   2.307  13.533  0.5136 -0.0773 -0.7615
 6617SOL    HW131484   0.810   2.276  13.591  1.4938  2.9571 -0.3492
 6617SOL    HW231485   0.769   2.256  13.457  1.4864  1.9614 -1.7612
 6618SOL     OW31486   0.119   1.047  16.735  0.3747  0.2746 -0.5448
 6618SOL    HW131487   0.157   1.124  16.776  2.0626  0.9731 -3.4006
 6618SOL    HW231488   0.169   0.985  16.787 -0.1697 -0.5646 -1.0094
 6619SOL     OW31489   1.829   0.798   5.718  0.3574 -0.4098  1.0206
 6619SOL    HW131490   1.763   0.757   5.774 -2.5577 -1.0971 -2.9490
 6619SOL    HW231491   1.911   0.799   5.768  1.1979  2.6119 -0.3916
 6620SOL     OW31492   3.532   4.640   2.104 -0.2494  0.1311  0.1799
 6620SOL    HW131493   3.599   4.572   2.108 -1.1550 -0.8824 -2.1001
 6620SOL    HW231494   3.484   4.613   2.027 -1.0075  0.1494  0.6454
 6621SOL     OW31495   2.005   2.451   7.589 -0.0506 -0.3123 -0.2855
 6621SOL    HW131496   2.060   2.406   7.653 -1.6860 -0.7050  0.8729
 6621SOL    HW231497   2.031   2.398   7.514  1.7559  0.0496  0.1026
 6622SOL     OW31498   2.878   3.235   2.394 -0.2017 -0.0137 -0.3520
 6622SOL    HW131499   2.795   3.229   2.442  0.3186 -1.8233  0.3428
 6622SOL    HW231500   2.881   3.327   2.368  0.6284  0.8619  2.8833
 6623SOL     OW31501   2.295   3.411   6.950 -0.2598  0.5108 -0.1083
 6623SOL    HW131502   2.359   3.373   7.009 -1.4341 -1.8727 -0.3559
 6623SOL    HW231503   2.233   3.439   7.017 -1.0724  0.7824 -0.9621
 6624SOL     OW31504   2.537   2.560   2.552  0.4978  0.0688 -0.0331
 6624SOL    HW131505   2.448   2.532   2.528  1.2328  0.8644 -3.6471
 6624SOL    HW231506   2.554   2.596   2.465 -0.8406  1.0246  0.0992
 6625SOL     OW31507   3.961   2.266   8.260 -0.3153 -0.2793  0.0332
 6625SOL    HW131508   3.931   2.250   8.171  2.1364 -1.8018 -0.5253
 6625SOL    HW231509   3.994   2.356   8.267  0.1899 -0.4316 -0.4356
 6626SOL     OW31510   3.930   4.646   3.809 -0.5138 -0.1679 -0.3962
 6626SOL    HW131511   4.014   4.644   3.764  0.5782 -0.1953  1.6636
 6626SOL    HW231512   3.945   4.685   3.896  0.7075  0.1422 -0.7448
 6627SOL     OW31513   1.401   1.951   2.856 -0.6489 -0.2226  0.2764
 6627SOL    HW131514   1.430   1.996   2.935  1.5776 -0.2061 -0.5654
 6627SOL    HW231515   1.462   1.877   2.856 -2.0127 -1.3523  0.7952
 6628SOL     OW31516   2.904   0.100   4.096 -0.3444  0.2620 -0.6490
 6628SOL    HW131517   2.983   0.070   4.139 -1.5564  0.4017  1.6692
 6628SOL    HW231518   2.834   0.053   4.142 -1.0819  2.4009  0.4137
 6629SOL     OW31519   0.223   1.077  12.236 -0.2780 -0.4418  0.0916
 6629SOL    HW131520   0.173   1.146  12.280 -0.2032 -0.2879 -0.0607
 6629SOL    HW231521   0.299   1.076  12.293 -0.4977 -1.6558  0.3455
 6630SOL     OW31522   1.121   0.665   9.117  0.2944  0.3970 -0.4596
 6630SOL    HW131523   1.112   0.580   9.073  0.0166  0.2260 -0.0638
 6630SOL    HW231524   1.202   0.698   9.077  0.6034 -0.1002 -0.2516
 6631SOL     OW31525   2.521   0.960   8.276  0.0450  0.6766 -0.3587
 6631SOL    HW131526   2.460   1.033   8.288 -0.6090 -0.3355  2.5312
 6631SOL    HW231527   2.591   0.996   8.222  2.2328  1.1054  2.7286
 6632SOL     OW31528   3.429   1.935   7.047 -0.5985  0.1208  0.1053
 6632SOL    HW131529   3.459   1.991   7.119 -0.8709  1.1605 -0.5950
 6632SOL    HW231530   3.427   1.850   7.091  0.9276  2.0733  4.0114
 6633SOL     OW31531   3.217   4.509   2.626 -0.3662 -0.5557 -0.5911
 6633SOL    HW131532   3.307   4.477   2.613 -0.3696  0.0700 -2.2204
 6633SOL    HW231533   3.219   4.508   2.721  0.8844 -0.6657 -0.6125
 6634SOL     OW31534   0.189   0.692   7.174  0.2078 -0.0926 -0.0452
 6634SOL    HW131535   0.120   0.652   7.121  2.3795 -1.7327 -1.6919
 6634SOL    HW231536   0.220   0.746   7.101 -1.1958 -0.1375 -0.6633
 6635SOL     OW31537   0.598   3.058   7.204  0.5036 -0.6090 -0.0615
 6635SOL    HW131538   0.543   3.033   7.130 -0.2258 -0.5908  0.4832
 6635SOL    HW231539   0.659   3.113   7.155 -1.2152  1.1893 -0.1361
 6636SOL     OW31540   1.617   1.622   5.707  0.0812  0.0427  0.7218
 6636SOL    HW131541   1.565   1.556   5.662 -0.7493  1.3492 -0.2544
 6636SOL    HW231542   1.569   1.699   5.677  0.5231  0.8326  2.0399
 6637SOL     OW31543   2.224   3.705   7.597  0.1324 -0.0254  0.3896
 6637SOL    HW131544   2.268   3.620   7.601 -0.0620 -0.0483  1.8759
 6637SOL    HW231545   2.299   3.759   7.619 -0.2682 -0.0645  1.8509
 6638SOL     OW31546   0.617   3.163  17.185  0.0818  0.0663  0.4832
 6638SOL    HW131547   0.525   3.141  17.174  0.2602 -1.5953  2.2382
 6638SOL    HW231548   0.655   3.076  17.202 -0.6110 -0.2631  0.3439
 6639SOL     OW31549   0.210   2.715   2.945  0.1767 -0.4831  0.2596
 6639SOL    HW131550   0.287   2.659   2.940  0.8740  0.5478 -0.3748
 6639SOL    HW231551   0.145   2.658   2.903 -0.0198 -0.5058  0.5887
 6640SOL     OW31552   3.778   2.166   5.929  0.7401  0.8212  0.0114
 6640SOL    HW131553   3.806   2.215   5.852  0.6018  1.6732  0.4969
 6640SOL    HW231554   3.813   2.083   5.900 -2.6266 -0.0863 -1.5025
 6641SOL     OW31555   1.682   0.642   3.043 -0.2806  0.1272  0.1215
 6641SOL    HW131556   1.757   0.582   3.038  1.5859  2.2679  2.7508
 6641SOL    HW231557   1.617   0.595   3.094 -1.5705  1.9081  0.1218
 6642SOL     OW31558   0.534   3.432   2.998  0.6962 -0.0940 -0.0070
 6642SOL    HW131559   0.557   3.394   2.913  1.9685 -0.7082  0.6047
 6642SOL    HW231560   0.505   3.356   3.050 -0.4417 -0.7612 -1.6399
 6643SOL     OW31561   2.072   4.090   8.469  0.2925  0.0996  0.0568
 6643SOL    HW131562   2.159   4.054   8.490  0.3390 -0.0006 -0.3044
 6643SOL    HW231563   2.022   4.023   8.514 -0.8508  1.1821  0.4028
 6644SOL     OW31564   1.410   1.297   5.911 -0.1816  0.7708  0.3225
 6644SOL    HW131565   1.411   1.339   5.825 -3.9145  0.4955  0.1404
 6644SOL    HW231566   1.318   1.271   5.910  0.2542 -0.6580 -1.8667
 6645SOL     OW31567   3.455   2.038  14.804  0.0999 -0.8616 -0.3208
 6645SOL    HW131568   3.464   2.126  14.843 -1.3390 -2.0093  2.6353
 6645SOL    HW231569   3.532   1.990  14.832 -1.1164 -1.9829  1.1101
 6646SOL     OW31570   4.105   1.625  10.772  0.4881 -0.1316 -0.4792
 6646SOL    HW131571   4.129   1.534  10.758 -0.4532 -0.1639 -1.8459
 6646SOL    HW231572   4.188   1.668  10.749  0.4126  0.7748  0.9398
 6647SOL     OW31573   1.897   2.123   4.219  0.3330  0.1015 -0.1672
 6647SOL    HW131574   1.855   2.106   4.135 -2.4020 -2.8017  1.7501
 6647SOL    HW231575   1.958   2.194   4.203 -1.3545  1.5003 -0.3363
 6648SOL     OW31576   3.326   3.570   8.171  0.2007  0.9532  0.0802
 6648SOL    HW131577   3.419   3.589   8.159  0.5186  0.3246  1.5623
 6648SOL    HW231578   3.291   3.627   8.103 -1.9759 -1.2217 -0.6239
 6649SOL     OW31579   3.585   4.295   1.084  0.4011  0.1699 -0.0120
 6649SOL    HW131580   3.641   4.305   1.161 -0.1384 -1.9018  0.6669
 6649SOL    HW231581   3.501   4.310   1.127 -0.6592 -0.0514 -1.9741
 6650SOL     OW31582   1.989   1.757  10.596  0.0577  0.1618  0.8218
 6650SOL    HW131583   1.996   1.702  10.674 -1.6627 -0.2581  0.6842
 6650SOL    HW231584   1.984   1.691  10.527 -2.3999  1.5279 -0.3217
 6651SOL     OW31585   3.920   2.942   6.347  0.5863 -0.7764 -0.6574
 6651SOL    HW131586   3.859   2.938   6.273  0.2565  1.8226 -0.5231
 6651SOL    HW231587   3.982   2.876   6.316  0.6308 -0.5069 -1.1576
 6652SOL     OW31588   0.537   1.565   2.342  0.3966 -0.5613  0.6620
 6652SOL    HW131589   0.509   1.598   2.256 -1.1362 -0.5243  1.1603
 6652SOL    HW231590   0.449   1.545   2.374  0.1604  1.4774  1.3111
 6653SOL     OW31591   2.642   0.766  16.821  0.2389  0.8339 -0.0354
 6653SOL    HW131592   2.593   0.683  16.828 -1.6591  1.7851 -1.9905
 6653SOL    HW231593   2.695   0.737  16.747 -0.7038  0.9292 -0.7484
 6654SOL     OW31594   1.383   4.410   0.543  0.0658  0.2518 -0.4947
 6654SOL    HW131595   1.327   4.458   0.604  0.7758  2.0742 -1.2587
 6654SOL    HW231596   1.325   4.384   0.471 -1.5749  0.6247  0.6784
 6655SOL     OW31597   0.685   0.753   8.426 -0.3158  0.2937  0.0285
 6655SOL    HW131598   0.672   0.825   8.487  0.0816  0.7073 -0.3733
 6655SOL    HW231599   0.655   0.800   8.348  0.8300 -0.8782 -1.1295
 6656SOL     OW31600   3.330   2.921  13.466 -0.1606  0.0349  0.5899
 6656SOL    HW131601   3.277   2.857  13.418  0.2249 -0.8944  1.3986
 6656SOL    HW231602   3.367   2.975  13.397 -1.5488  1.6815  1.1376
 6657SOL     OW31603   4.052   2.570   9.404  0.8661 -0.2397  0.4543
 6657SOL    HW131604   4.107   2.647   9.418  0.9578 -0.1969 -0.1245
 6657SOL    HW231605   3.977   2.591   9.458 -0.5530  0.1638 -1.6497
 6658SOL     OW31606   2.473   2.891   9.449  0.3328  0.4284 -0.1556
 6658SOL    HW131607   2.484   2.907   9.543  0.1596 -0.2545 -0.0173
 6658SOL    HW231608   2.478   2.981   9.419 -1.5742  0.8898  0.8702
 6659SOL     OW31609   3.291   2.443   7.728 -0.2205  0.0452 -0.2046
 6659SOL    HW131610   3.376   2.487   7.736 -2.0011  3.6403 -0.6734
 6659SOL    HW231611   3.306   2.362   7.681 -0.9989  0.7419 -1.6540
 6660SOL     OW31612   3.614   1.955  16.653  0.1288 -0.1918  0.2458
 6660SOL    HW131613   3.564   1.897  16.595  1.0991 -0.1547 -0.6146
 6660SOL    HW231614   3.658   1.898  16.715 -2.6856 -2.7754 -0.1117
 6661SOL     OW31615   3.435   0.623   4.905 -0.1377  0.3608 -0.6099
 6661SOL    HW131616   3.352   0.609   4.950  0.8520 -2.3837  0.4213
 6661SOL    HW231617   3.498   0.574   4.959 -0.9228  1.2865  1.1237
 6662SOL     OW31618   3.146   4.680   7.307  0.3638  0.0113 -0.1532
 6662SOL    HW131619   3.184   4.699   7.221  1.6467  0.7180  0.5688
 6662SOL    HW231620   3.084   0.014   7.314 -0.4134 -0.6202 -0.3869
 6663SOL     OW31621   2.549   0.040  16.519  0.2182  0.2594 -0.0596
 6663SOL    HW131622   2.461   0.028  16.555 -0.9034  2.7677 -1.9653
 6663SOL    HW231623   2.610   4.731  16.575 -0.2214  0.7833  0.8729
 6664SOL     OW31624   1.711   3.826   5.991  0.0803  0.2153 -0.1670
 6664SOL    HW131625   1.749   3.738   5.994 -0.4475 -0.0452 -1.5877
 6664SOL    HW231626   1.777   3.883   5.950  1.9441 -0.0289  2.4277
 6665SOL     OW31627   0.338   3.953   5.087 -0.1380  0.4841 -0.1724
 6665SOL    HW131628   0.386   3.901   5.023  0.7957 -1.6615  2.2468
 6665SOL    HW231629   0.388   4.034   5.101 -1.6268  1.7782 -2.6090
 6666SOL     OW31630   2.181   3.795   8.698 -1.1675  0.4671  0.0565
 6666SOL    HW131631   2.276   3.806   8.707 -1.4704  0.9546  2.8980
 6666SOL    HW231632   2.150   3.823   8.785 -3.0527  1.7604 -1.0329
 6667SOL     OW31633   1.337   1.839  15.554 -0.1599 -0.2547  0.1557
 6667SOL    HW131634   1.324   1.746  15.538 -1.5982 -0.4556  2.5618
 6667SOL    HW231635   1.323   1.865  15.463 -0.0941  0.8036  0.4438
 6668SOL     OW31636   3.552   2.410   3.934 -0.2230 -0.3745  0.1024
 6668SOL    HW131637   3.519   2.473   3.997  0.1384 -0.1287  0.0489
 6668SOL    HW231638   3.646   2.429   3.931 -0.3757  0.2362 -1.2209
 6669SOL     OW31639   0.604   4.046  13.544  0.1278  0.5240  0.1455
 6669SOL    HW131640   0.629   4.084  13.460 -3.1005  0.8424 -0.7032
 6669SOL    HW231641   0.692   4.038  13.580 -0.6857  1.3152  2.3299
 6670SOL     OW31642   1.699   0.415  17.028 -0.3846 -0.2339 -0.5788
 6670SOL    HW131643   1.695   0.323  17.004 -0.6247 -0.3310 -0.1647
 6670SOL    HW231644   1.669   0.458  16.948  0.1647  0.8726 -0.1966
 6671SOL     OW31645   2.099   2.445   9.653  0.2577  0.1010 -0.0861
 6671SOL    HW131646   2.036   2.438   9.725  1.0463  0.4407  0.6374
 6671SOL    HW231647   2.168   2.396   9.699 -0.3944 -0.4267  0.3343
 6672SOL     OW31648   1.354   0.265  15.853 -0.2342  0.2041 -0.4756
 6672SOL    HW131649   1.362   0.293  15.945 -0.0799  0.5050 -0.5818
 6672SOL    HW231650   1.435   0.299  15.816  0.9010 -0.5184  1.3376
 6673SOL     OW31651   3.305   0.568  12.085  0.3660  0.0739 -0.1932
 6673SOL    HW131652   3.252   0.521  12.021  0.3801  1.1028 -0.9668
 6673SOL    HW231653   3.332   0.500  12.146 -2.6713  0.2969  1.3895
 6674SOL     OW31654   2.787   2.698   6.897  0.0985  0.4198 -0.0573
 6674SOL    HW131655   2.834   2.641   6.836  1.2174  2.0865 -0.7424
 6674SOL    HW231656   2.766   2.642   6.972  0.6152  1.5219  0.8976
 6675SOL     OW31657   4.298   2.730   6.750  0.5957 -0.1167 -0.3819
 6675SOL    HW131658   4.294   2.635   6.742 -0.6894 -0.1194  0.2592
 6675SOL    HW231659   4.374   2.740   6.692 -0.5379  0.2073 -1.8170
 6676SOL     OW31660   1.668   1.626   7.725 -0.0219 -0.2924 -0.2065
 6676SOL    HW131661   1.676   1.574   7.805  2.0046 -0.3126 -0.4322
 6676SOL    HW231662   1.692   1.715   7.749  0.3031 -0.4862  0.1997
 6677SOL     OW31663   0.241   1.335   9.051 -0.1018  0.2339 -0.4766
 6677SOL    HW131664   0.311   1.386   9.093 -0.3189 -0.1329  0.3284
 6677SOL    HW231665   0.251   1.360   8.959  0.0417 -1.4203 -0.9129
 6678SOL     OW31666   2.281   4.061   0.332  0.5526 -0.6402  0.6375
 6678SOL    HW131667   2.267   3.968   0.351  0.4251 -1.2556 -2.3920
 6678SOL    HW231668   2.206   4.080   0.275 -0.4383  2.0665  2.9093
 6679SOL     OW31669   4.467   3.237   5.469 -0.4453  0.2892  0.5331
 6679SOL    HW131670   4.377   3.269   5.460  0.4972  3.4975  2.5663
 6679SOL    HW231671   4.504   3.314   5.513 -1.7668  1.9105 -1.2017
 6680SOL     OW31672   2.567   3.930   7.753  0.2182  0.3094 -0.1157
 6680SOL    HW131673   2.621   3.888   7.686 -1.0873 -3.5208  1.2349
 6680SOL    HW231674   2.617   4.010   7.774  0.0369  0.6141 -0.8208
 6681SOL     OW31675   0.164   1.752   1.456  0.3003  0.5268 -0.3945
 6681SOL    HW131676   0.079   1.725   1.421  0.6707 -1.5731  0.3557
 6681SOL    HW231677   0.141   1.785   1.543  1.8101 -2.0614  0.9913
 6682SOL     OW31678   3.202   2.156   3.852  0.2271 -0.4980 -0.1400
 6682SOL    HW131679   3.230   2.246   3.869 -1.2474 -0.1417  0.3460
 6682SOL    HW231680   3.107   2.162   3.849  0.2200  0.0752  1.1060
 6683SOL     OW31681   3.338   3.175   1.588  0.6728 -0.0866 -0.4779
 6683SOL    HW131682   3.413   3.126   1.554  0.7262 -0.4807  0.2199
 6683SOL    HW231683   3.331   3.249   1.527 -2.4907 -1.1010 -1.3025
 6684SOL     OW31684   1.020   1.718  15.872  0.2088  0.0694  0.4105
 6684SOL    HW131685   1.005   1.623  15.881 -0.0477  0.2320  1.7789
 6684SOL    HW231686   1.010   1.753  15.961 -0.0213  1.0140  0.0055
 6685SOL     OW31687   4.091   2.677  17.193 -0.0974 -0.0559 -0.4848
 6685SOL    HW131688   4.147   2.603  17.218 -0.8359  0.1301  1.6862
 6685SOL    HW231689   4.160   2.742  17.178 -0.4911  0.2530 -0.9630
 6686SOL     OW31690   3.657   2.545   8.112  0.0713 -0.3524  0.2015
 6686SOL    HW131691   3.624   2.507   8.030 -2.1550  1.8969  0.0445
 6686SOL    HW231692   3.599   2.519   8.184  1.0671 -3.8500 -0.2421
 6687SOL     OW31693   1.854   1.005   6.166 -0.4921  0.4684  0.0838
 6687SOL    HW131694   1.874   0.963   6.250  1.4561  0.7186 -0.2515
 6687SOL    HW231695   1.762   1.030   6.168 -0.5424  0.3639 -1.5548
 6688SOL     OW31696   2.100   4.081   8.800  0.0183 -0.1232 -0.3088
 6688SOL    HW131697   2.078   4.173   8.808  0.2003 -0.0916 -0.1576
 6688SOL    HW231698   2.193   4.089   8.781  0.1849  0.1857  0.6430
 6689SOL     OW31699   0.054   4.573  14.257 -0.2985 -0.5355  0.7455
 6689SOL    HW131700   0.032   4.527  14.338  1.0625 -1.4307  0.6065
 6689SOL    HW231701   0.122   4.515  14.223 -0.1073 -1.7643  3.2441
 6690SOL     OW31702   0.322   0.849  14.243  0.4505  0.0233 -0.2137
 6690SOL    HW131703   0.312   0.768  14.293 -0.2539 -0.8289 -1.7087
 6690SOL    HW231704   0.329   0.805  14.157  0.0750  2.6757 -1.5912
 6691SOL     OW31705   0.592   4.314   7.656 -0.2789  0.6261 -0.0946
 6691SOL    HW131706   0.568   4.378   7.590  0.2763  0.6260 -0.2965
 6691SOL    HW231707   0.684   4.338   7.669 -0.9915  2.5774  1.2691
 6692SOL     OW31708   4.510   4.279   6.739  0.0049 -0.0702 -0.0828
 6692SOL    HW131709   4.544   4.362   6.772 -1.2034  0.2406  0.3594
 6692SOL    HW231710   4.425   4.274   6.781  0.2639 -0.7664  0.3560
 6693SOL     OW31711   2.069   3.220   4.317  0.3070 -0.3941 -0.0029
 6693SOL    HW131712   2.146   3.198   4.264  0.1639 -1.2612  0.1416
 6693SOL    HW231713   2.006   3.223   4.245 -1.2798 -2.3409  1.3168
 6694SOL     OW31714   4.583   1.050   3.630 -0.4753  0.0374 -0.5633
 6694SOL    HW131715   4.599   0.956   3.644  0.0239  0.4924  1.8723
 6694SOL    HW231716   4.519   1.050   3.558 -0.0549  1.9941 -0.9144
 6695SOL     OW31717   4.522   3.018   4.991 -0.1400  0.3827  0.2701
 6695SOL    HW131718   4.520   3.060   5.077 -1.5089  2.0555 -0.5657
 6695SOL    HW231719   4.611   2.984   4.984  0.3138  1.6599 -0.2590
 6696SOL     OW31720   3.832   0.850   1.286 -0.0214  0.6334  0.1483
 6696SOL    HW131721   3.774   0.923   1.265  0.5617 -0.4417 -5.1488
 6696SOL    HW231722   3.781   0.818   1.361  1.1333 -2.5470 -0.4003
 6697SOL     OW31723   2.356   2.768   9.874  0.3393  0.2703  0.4239
 6697SOL    HW131724   2.262   2.778   9.890  0.6092  1.3713  1.3165
 6697SOL    HW231725   2.374   2.843   9.817  0.0930  0.0214  0.0166
 6698SOL     OW31726   1.479   4.674  11.170 -0.0448 -0.0005 -0.3745
 6698SOL    HW131727   1.566   4.674  11.209 -0.9481 -0.0578  1.6023
 6698SOL    HW231728   1.460   0.028  11.161  0.0571  0.0566  0.0075
 6699SOL     OW31729   2.416   3.534   9.352 -0.2233  0.1316 -0.1647
 6699SOL    HW131730   2.475   3.596   9.395  0.2062 -0.5902  0.2874
 6699SOL    HW231731   2.360   3.600   9.312 -0.2847  0.8083  1.0527
 6700SOL     OW31732   1.964   1.195  15.407  0.0041 -0.2915  0.3607
 6700SOL    HW131733   1.879   1.185  15.449 -0.0571  1.7475  0.7325
 6700SOL    HW231734   2.022   1.184  15.483 -0.8065 -0.1281  1.0094
 6701SOL     OW31735   2.324   4.119   1.801 -0.1725  0.2055  0.3923
 6701SOL    HW131736   2.407   4.132   1.756 -0.4566 -0.2538 -0.2685
 6701SOL    HW231737   2.341   4.118   1.895 -1.3100 -0.3729  0.5910
 6702SOL     OW31738   1.899   1.297  15.174 -0.2094  0.2293  0.0067
 6702SOL    HW131739   1.913   1.249  15.256 -1.4281 -0.9587 -0.4927
 6702SOL    HW231740   1.896   1.384  15.215  1.0361  0.3938 -0.2581
 6703SOL     OW31741   1.549   3.262   4.246  0.3781 -0.5262  0.0482
 6703SOL    HW131742   1.578   3.352   4.261 -0.0603  0.2084 -3.4960
 6703SOL    HW231743   1.629   3.210   4.252  0.4658 -0.0580  2.7839
 6704SOL     OW31744   2.362   2.201   6.993  0.2835 -0.4417 -0.2280
 6704SOL    HW131745   2.422   2.271   7.021 -0.9051 -0.1402  1.5466
 6704SOL    HW231746   2.423   2.167   6.928  1.1849  1.2870 -0.3022
 6705SOL     OW31747   4.152   0.670   9.733 -0.3452  0.1177  0.0471
 6705SOL    HW131748   4.151   0.708   9.645  0.4575  0.8505  0.3570
 6705SOL    HW231749   4.124   0.579   9.724  1.8818 -0.0959 -4.5100
 6706SOL     OW31750   0.286   2.597   8.776  0.2280  0.3820 -0.1858
 6706SOL    HW131751   0.284   2.509   8.815 -0.2530  0.9394  1.0305
 6706SOL    HW231752   0.258   2.652   8.848  1.0122 -1.2209  1.3643
 6707SOL     OW31753   0.525   3.275   6.055  0.1187 -0.3420 -0.2083
 6707SOL    HW131754   0.542   3.275   6.150 -0.9347  0.9231 -0.0239
 6707SOL    HW231755   0.447   3.220   6.045  0.2543 -0.6345  0.3053
 6708SOL     OW31756   3.864   3.081   3.660  0.6493  0.3559  0.1475
 6708SOL    HW131757   3.783   3.129   3.643  0.2924  0.3066  1.6640
 6708SOL    HW231758   3.903   3.156   3.705  2.3825 -0.8285  0.6167
 6709SOL     OW31759   1.293   1.412  16.687 -0.0167 -0.5392  0.0074
 6709SOL    HW131760   1.339   1.337  16.726 -0.5418 -0.0107  1.6728
 6709SOL    HW231761   1.244   1.457  16.756 -0.2397 -0.4368 -0.2169
 6710SOL     OW31762   0.094   4.359  15.056  0.1612 -0.0269  0.2635
 6710SOL    HW131763   0.046   4.440  15.038  0.8624  0.5973  1.1667
 6710SOL    HW231764   0.174   4.378  15.007 -0.5382 -1.2055 -1.3201
 6711SOL     OW31765   2.082   2.832   1.255  0.0677  0.8355 -0.2723
 6711SOL    HW131766   2.032   2.866   1.181 -1.4653 -0.3201  0.2476
 6711SOL    HW231767   2.169   2.863   1.229  0.6861  0.0103  0.8421
 6712SOL     OW31768   2.361   0.498   7.609 -0.7032  0.1867 -0.0503
 6712SOL    HW131769   2.289   0.526   7.665  1.5923  0.8280  2.5386
 6712SOL    HW231770   2.440   0.526   7.655  0.6617  0.6045 -2.6213
 6713SOL     OW31771   3.782   3.613  12.978 -0.3510  0.0373  0.3786
 6713SOL    HW131772   3.847   3.679  12.952  1.2288 -1.3084  0.9355
 6713SOL    HW231773   3.756   3.580  12.891 -1.2686  0.8670  0.3420
 6714SOL     OW31774   4.368   4.570   4.138  0.1836 -0.5557 -0.2459
 6714SOL    HW131775   4.342   4.567   4.230 -0.3820  0.2530 -0.3807
 6714SOL    HW231776   4.394   4.660   4.121 -1.3939  0.3975  2.3954
 6715SOL     OW31777   2.501   2.177   9.270  0.0116 -0.6029  0.3128
 6715SOL    HW131778   2.482   2.203   9.360 -1.0675 -2.2586  0.5669
 6715SOL    HW231779   2.597   2.169   9.273 -0.2031 -2.7292  1.7634
 6716SOL     OW31780   2.767   4.339   0.946 -0.1593  0.3391  0.0144
 6716SOL    HW131781   2.782   4.280   1.020 -2.1437 -0.3204 -0.1062
 6716SOL    HW231782   2.674   4.349   0.965 -0.4962  0.6310 -1.7596
 6717SOL     OW31783   2.712   0.808   7.150 -0.0226 -0.2216  0.2183
 6717SOL    HW131784   2.753   0.799   7.236  0.0764 -0.9491  0.0951
 6717SOL    HW231785   2.644   0.871   7.174 -1.4799 -1.7744  0.1771
 6718SOL     OW31786   3.265   2.648  11.649 -0.5760 -0.5722  0.0777
 6718SOL    HW131787   3.237   2.572  11.701 -1.2516  0.4440  1.1946
 6718SOL    HW231788   3.237   2.607  11.567 -0.0742 -2.6873  0.9636
 6719SOL     OW31789   1.549   3.574   4.089  0.4187  0.1809  0.0558
 6719SOL    HW131790   1.611   3.507   4.062 -0.6398 -0.9765  0.5286
 6719SOL    HW231791   1.567   3.571   4.183  2.4487 -0.4266 -0.3451
 6720SOL     OW31792   1.490   0.952   1.446 -0.4557  0.7808 -0.3272
 6720SOL    HW131793   1.544   0.903   1.507  3.1894  2.6120 -2.1018
 6720SOL    HW231794   1.508   0.902   1.366  0.3723 -3.5712  2.6012
 6721SOL     OW31795   4.299   3.682   1.616 -0.3540  0.3058  0.0923
 6721SOL    HW131796   4.277   3.757   1.670 -1.6832  2.1371 -3.0296
 6721SOL    HW231797   4.390   3.693   1.586 -0.7961  1.5956 -0.7315
 6722SOL     OW31798   2.980   4.500   1.496  0.1835 -0.3389 -0.0848
 6722SOL    HW131799   3.074   4.491   1.516  0.4887 -1.3150 -1.9677
 6722SOL    HW231800   2.989   4.549   1.415 -1.4779 -0.0141 -0.0705
 6723SOL     OW31801   0.891   0.318   4.453 -0.1170  0.9978 -0.0740
 6723SOL    HW131802   0.966   0.308   4.394 -1.1505 -1.8184 -0.8718
 6723SOL    HW231803   0.932   0.385   4.508 -1.9267  0.9152  1.3669
 6724SOL     OW31804   4.583   0.271   4.306  0.2409 -0.4387  0.4471
 6724SOL    HW131805   4.666   0.273   4.258 -0.3852 -1.4194 -0.6569
 6724SOL    HW231806   4.589   0.361   4.339 -1.4583 -0.6471  1.3532
 6725SOL     OW31807   4.047   2.782   2.470 -0.2561  1.0549  0.1909
 6725SOL    HW131808   3.985   2.747   2.533 -0.3054 -0.3258 -0.6229
 6725SOL    HW231809   3.987   2.827   2.412 -0.0844  0.4180 -0.4789
 6726SOL     OW31810   2.017   2.912   2.825  0.2306  0.2493 -0.6954
 6726SOL    HW131811   2.100   2.913   2.777  0.2022 -0.4851 -0.7489
 6726SOL    HW231812   1.983   2.998   2.801 -1.2858  0.0171  0.6283
 6727SOL     OW31813   4.021   3.076   2.210  0.2016  0.0715  0.5040
 6727SOL    HW131814   4.045   3.098   2.300 -3.4662 -0.7912  1.7149
 6727SOL    HW231815   3.983   2.990   2.227 -0.5591  0.5539  1.3078
 6728SOL     OW31816   2.954   2.311   5.246 -0.1492 -0.0638 -0.3105
 6728SOL    HW131817   2.885   2.358   5.201  0.9463  1.3311 -0.5553
 6728SOL    HW231818   3.013   2.381   5.274 -0.0634 -0.5331  0.7044
 6729SOL     OW31819   1.476   2.950   1.873  0.3948 -0.0292  0.1077
 6729SOL    HW131820   1.424   2.873   1.898  0.6450 -1.0471 -2.5033
 6729SOL    HW231821   1.427   3.031   1.886  0.4462 -0.0071  0.1617
 6730SOL     OW31822   2.669   0.074  13.455 -0.0234  0.1495  0.4244
 6730SOL    HW131823   2.760   0.054  13.431  0.9645  0.5624  3.8940
 6730SOL    HW231824   2.681   0.153  13.509 -1.5338 -0.7565  2.0665
 6731SOL     OW31825   0.832   2.201   9.377 -0.2221 -0.2971  0.0297
 6731SOL    HW131826   0.905   2.237   9.426 -0.7357 -0.7128  1.0899
 6731SOL    HW231827   0.774   2.178   9.450 -0.7572  0.6246 -0.1082
 6732SOL     OW31828   1.195   0.433   8.236 -0.2223 -0.2232 -0.6800
 6732SOL    HW131829   1.281   0.391   8.228 -0.7542 -0.9895 -2.3710
 6732SOL    HW231830   1.159   0.410   8.150 -1.0825 -2.3003  0.2501
 6733SOL     OW31831   1.806   2.926  10.851  0.3360  0.5756  0.2080
 6733SOL    HW131832   1.828   3.014  10.881  0.9303  0.7667 -0.7836
 6733SOL    HW231833   1.863   2.877  10.910 -2.8780 -0.2449  2.6142
 6734SOL     OW31834   2.407   0.804   1.966 -0.5267 -0.0469  0.3736
 6734SOL    HW131835   2.364   0.873   1.915 -1.4876 -2.0171 -1.5201
 6734SOL    HW231836   2.332   0.751   1.991 -2.3586  0.7280 -3.4021
 6735SOL     OW31837   4.709   2.426   9.198 -0.4606 -0.2271  0.4533
 6735SOL    HW131838   4.664   2.361   9.144  0.8671 -1.9157  1.3748
 6735SOL    HW231839   4.649   2.448   9.269 -1.1080 -0.0600 -0.1468
 6736SOL     OW31840   0.450   3.746  16.004  0.3224  0.3209 -0.3407
 6736SOL    HW131841   0.452   3.822  16.063 -1.9582 -0.9654  1.4081
 6736SOL    HW231842   0.413   3.684  16.066  1.5397 -0.8386 -0.7605
 6737SOL     OW31843   3.248   3.353   4.468  0.5660 -0.3267 -0.1733
 6737SOL    HW131844   3.153   3.346   4.463  0.7254 -1.0550 -1.9816
 6737SOL    HW231845   3.272   3.268   4.433 -1.2489  0.0081 -2.2202
 6738SOL     OW31846   0.156   3.132  13.078  0.1623  0.4523 -0.1861
 6738SOL    HW131847   0.082   3.081  13.044 -0.5991  1.6240 -0.2671
 6738SOL    HW231848   0.136   3.112  13.170  1.6162  0.8394  0.2154
 6739SOL     OW31849   0.485   2.273  11.581  0.1029 -0.1984  0.0899
 6739SOL    HW131850   0.495   2.335  11.509 -1.0755  0.7574  0.7480
 6739SOL    HW231851   0.444   2.335  11.642  0.2685  1.5012 -1.5077
 6740SOL     OW31852   1.167   0.974   7.816  0.1566  0.0786 -0.2560
 6740SOL    HW131853   1.137   1.021   7.893 -1.0269 -0.3311 -0.4679
 6740SOL    HW231854   1.158   1.051   7.759 -1.6425  0.3701  0.4051
 6741SOL     OW31855   1.906   3.841   6.560 -0.3055 -0.1613  0.2319
 6741SOL    HW131856   1.870   3.756   6.536 -3.1986  0.8803  0.9123
 6741SOL    HW231857   1.860   3.907   6.508 -1.1429 -0.1508  0.9837
 6742SOL     OW31858   4.177   3.014   4.686 -0.5428 -0.0284  0.2754
 6742SOL    HW131859   4.137   2.962   4.615  1.3455  1.5651 -1.9593
 6742SOL    HW231860   4.095   3.062   4.702 -0.1184  0.9679 -0.5108
 6743SOL     OW31861   4.114   3.742   6.546 -0.1493  0.1420 -0.3570
 6743SOL    HW131862   4.096   3.733   6.452 -3.0200 -2.9001  0.5006
 6743SOL    HW231863   4.031   3.773   6.581  0.2685  1.2355 -0.3546
 6744SOL     OW31864   0.610   3.423  15.242  0.1449  0.1464 -0.1911
 6744SOL    HW131865   0.693   3.406  15.287 -0.3537 -1.0262  0.2948
 6744SOL    HW231866   0.627   3.503  15.193  0.8161  0.2064  0.1410
 6745SOL     OW31867   4.222   2.189   2.149 -0.2065  0.5277 -0.4645
 6745SOL    HW131868   4.177   2.137   2.215 -0.9194 -0.2401 -1.5692
 6745SOL    HW231869   4.197   2.141   2.070  2.7986  0.8205 -1.5976
 6746SOL     OW31870   4.562   4.055   7.263 -0.1306  0.2802 -0.4220
 6746SOL    HW131871   4.608   3.994   7.204 -0.6328 -1.7737  1.3166
 6746SOL    HW231872   4.602   4.020   7.342  3.2448  1.3165 -1.6388
 6747SOL     OW31873   3.857   2.266   2.789 -0.2695 -0.1502  0.9563
 6747SOL    HW131874   3.921   2.335   2.773  0.3423 -1.2341 -1.3427
 6747SOL    HW231875   3.859   2.262   2.884  0.6181  0.4837  0.9578
 6748SOL     OW31876   2.294   1.128   1.679 -0.6050  0.4878 -0.2778
 6748SOL    HW131877   2.264   1.085   1.758  2.7463  0.9230  1.2453
 6748SOL    HW231878   2.389   1.113   1.683 -0.9312 -1.0682  1.2624
 6749SOL     OW31879   1.042   2.056   3.469  0.2175 -0.2132 -0.0789
 6749SOL    HW131880   1.044   2.047   3.564 -0.9281 -0.4821 -0.0740
 6749SOL    HW231881   0.973   2.121   3.458  1.4478  1.5278  2.5108
 6750SOL     OW31882   4.570   1.878  12.591 -0.4138 -0.2786  0.4690
 6750SOL    HW131883   4.603   1.951  12.539 -0.8234 -0.0864  0.4791
 6750SOL    HW231884   4.618   1.899  12.671 -1.0881 -0.0680  0.8133
 6751SOL     OW31885   3.440   1.115   4.311  0.1293  0.3691 -0.0123
 6751SOL    HW131886   3.451   1.065   4.230 -0.0256  1.2128 -0.5563
 6751SOL    HW231887   3.527   1.095   4.344  0.4134  0.9925 -0.3710
 6752SOL     OW31888   4.730   4.681   3.139  0.0420 -0.1070 -0.6184
 6752SOL    HW131889   4.700   4.639   3.220 -0.7218  3.5033  0.9637
 6752SOL    HW231890   4.681   4.630   3.074 -0.1344  0.5368 -0.9834
 6753SOL     OW31891   1.043   2.405   3.727 -0.2212 -0.0510  0.5634
 6753SOL    HW131892   0.994   2.484   3.747 -0.5232  0.4839 -2.3305
 6753SOL    HW231893   0.975   2.355   3.682 -1.8339  2.0193  0.7291
 6754SOL     OW31894   4.312   2.326   6.770 -0.2068  0.3738  0.1184
 6754SOL    HW131895   4.228   2.350   6.730  0.0266  2.0135  0.5832
 6754SOL    HW231896   4.308   2.340   6.865  0.6167 -0.1681  0.2306
 6755SOL     OW31897   2.638   4.029   9.465  0.6807  0.0335  0.5102
 6755SOL    HW131898   2.672   4.077   9.390  1.2541  0.8412  1.2843
 6755SOL    HW231899   2.548   4.006   9.443  0.0608  0.3123  2.7595
 6756SOL     OW31900   4.107   0.265   7.092  0.2235 -0.3831 -0.1418
 6756SOL    HW131901   4.054   0.217   7.155  0.4507 -1.4799 -0.7976
 6756SOL    HW231902   4.138   0.194   7.036 -0.1795 -1.1930  0.6539
 6757SOL     OW31903   3.452   0.577   8.721 -0.1280 -0.4313 -0.5184
 6757SOL    HW131904   3.501   0.620   8.791 -0.8205  1.5120 -1.2156
 6757SOL    HW231905   3.520   0.529   8.674  0.0854 -2.2395  1.6776
 6758SOL     OW31906   2.128   3.199   3.000 -0.3816 -0.4056  0.0515
 6758SOL    HW131907   2.065   3.262   2.966 -0.5900  0.4943  2.1138
 6758SOL    HW231908   2.063   3.135   3.030  0.5160 -0.8175  1.1198
 6759SOL     OW31909   1.962   1.128   2.810 -0.1687  0.2332  0.6045
 6759SOL    HW131910   1.867   1.114   2.815 -0.4414  1.4766 -1.4455
 6759SOL    HW231911   1.961   1.219   2.780  1.1594  0.6667  1.8799
 6760SOL     OW31912   1.114   0.993   3.968 -0.2927 -0.0308  0.1499
 6760SOL    HW131913   1.043   0.942   3.930  1.2263 -3.0748  1.3939
 6760SOL    HW231914   1.109   1.076   3.920 -0.8525  1.0373  2.0521
 6761SOL     OW31915   2.761   2.030   8.932  0.1005 -0.6750  0.3081
 6761SOL    HW131916   2.703   2.028   9.008 -0.2890 -0.2282  0.0208
 6761SOL    HW231917   2.832   2.087   8.964  2.0931 -3.3352  0.6387
 6762SOL     OW31918   1.422   1.831   9.010 -0.2649  0.0391 -0.3440
 6762SOL    HW131919   1.480   1.835   9.086 -2.1160  1.0657  1.0123
 6762SOL    HW231920   1.338   1.813   9.051  0.5576 -1.0576  0.8757
 6763SOL     OW31921   0.415   4.532   4.396  0.7195 -0.5709 -0.0356
 6763SOL    HW131922   0.390   4.558   4.484  0.5387 -1.2411  0.1169
 6763SOL    HW231923   0.508   4.557   4.397  0.1864  1.4046 -0.6317
 6764SOL     OW31924   2.399   1.749   3.322  0.4692 -0.2023 -0.3079
 6764SOL    HW131925   2.360   1.752   3.409 -1.7049  1.3244 -1.3479
 6764SOL    HW231926   2.425   1.839   3.307  1.0795 -0.5182 -1.1488
 6765SOL     OW31927   2.560   1.809  10.159  0.1500 -0.1585  0.3405
 6765SOL    HW131928   2.595   1.737  10.106  0.2710  0.3788 -0.3185
 6765SOL    HW231929   2.634   1.812  10.220 -0.4785 -3.3107  1.2668
 6766SOL     OW31930   2.566   1.336   3.774  0.0731  0.0491  0.1736
 6766SOL    HW131931   2.472   1.355   3.777 -0.1123 -0.6297 -1.0387
 6766SOL    HW231932   2.584   1.371   3.686 -2.6225 -0.6610 -0.6485
 6767SOL     OW31933   4.297   0.871   4.672 -0.1047  0.4971  0.1039
 6767SOL    HW131934   4.269   0.937   4.607 -0.9864  0.9865  0.9669
 6767SOL    HW231935   4.208   0.853   4.704  0.0046 -1.2342 -0.5705
 6768SOL     OW31936   4.354   4.402   6.073  0.3955  0.0526  0.7998
 6768SOL    HW131937   4.405   4.435   6.000 -0.1297 -0.9187 -0.0078
 6768SOL    HW231938   4.272   4.443   6.048  2.0088  3.1161  0.5180
 6769SOL     OW31939   0.382   4.514   2.407 -0.4079 -0.0256 -0.5064
 6769SOL    HW131940   0.445   4.572   2.363  0.4188 -1.6628 -1.4609
 6769SOL    HW231941   0.361   4.443   2.347 -0.8228 -0.8959  0.6992
 6770SOL     OW31942   3.925   4.111  10.166 -0.0687  0.2370 -0.4200
 6770SOL    HW131943   3.845   4.152  10.133 -0.5546 -0.9349 -0.7190
 6770SOL    HW231944   3.989   4.126  10.097 -1.2876 -0.3059 -1.6735
 6771SOL     OW31945   3.920   0.674  13.644 -0.0074  0.3550  0.1013
 6771SOL    HW131946   3.879   0.685  13.559  1.7405  0.3080 -0.7344
 6771SOL    HW231947   3.892   0.583  13.647 -1.3774  0.7656  0.0193
 6772SOL     OW31948   4.294   1.998   8.623 -0.4137  0.7421  0.1060
 6772SOL    HW131949   4.335   1.998   8.536 -0.7971 -1.4114 -0.0837
 6772SOL    HW231950   4.206   2.029   8.600 -0.4766 -0.0717 -0.7660
 6773SOL     OW31951   2.129   1.684  16.551 -0.2919 -0.0843 -0.1579
 6773SOL    HW131952   2.224   1.674  16.545 -0.5978 -2.0885 -1.5065
 6773SOL    HW231953   2.118   1.726  16.637 -0.0645 -1.4375  0.5299
 6774SOL     OW31954   2.502   2.293   1.707 -0.1048  0.2047  0.4180
 6774SOL    HW131955   2.408   2.309   1.697 -0.4198 -1.9552  0.0076
 6774SOL    HW231956   2.531   2.335   1.626 -2.4328  2.6984  0.8631
 6775SOL     OW31957   4.608   0.035   4.465 -0.0874 -0.2701 -0.5513
 6775SOL    HW131958   4.557   0.103   4.421  0.2383  0.1811 -0.2246
 6775SOL    HW231959   4.657   0.083   4.531 -0.1964 -0.5586 -0.2596
 6776SOL     OW31960   4.585   1.752  13.057 -0.4815  0.4452  0.3773
 6776SOL    HW131961   4.625   1.737  13.143  0.1492 -2.3212 -0.4098
 6776SOL    HW231962   4.514   1.687  13.058  0.1661 -0.2091  3.0371
 6777SOL     OW31963   3.774   3.708   9.120  0.6723 -0.4005  0.0754
 6777SOL    HW131964   3.782   3.671   9.032  0.4033 -1.8739  0.6608
 6777SOL    HW231965   3.829   3.643   9.165  2.5350  0.3818 -1.0720
 6778SOL     OW31966   3.183   1.415  14.763  0.0706  0.4417 -0.0174
 6778SOL    HW131967   3.267   1.428  14.719 -1.2936 -0.6653 -2.9236
 6778SOL    HW231968   3.130   1.484  14.721 -1.7290 -0.6187  0.4977
 6779SOL     OW31969   2.328   0.378   4.308 -0.8609 -0.1674  0.2663
 6779SOL    HW131970   2.378   0.407   4.232  0.6851 -1.6173  0.7231
 6779SOL    HW231971   2.279   0.455   4.336 -0.6325  0.3564 -0.7649
 6780SOL     OW31972   3.161   3.835  16.226 -0.5681 -0.5347  0.2332
 6780SOL    HW131973   3.170   3.904  16.160  2.3954  1.2912  2.5022
 6780SOL    HW231974   3.072   3.808  16.201 -1.4597  1.1765  1.5368
 6781SOL     OW31975   4.568   1.223   7.276  0.6914 -0.3373 -0.3767
 6781SOL    HW131976   4.499   1.281   7.309 -0.2755 -0.7337 -1.7005
 6781SOL    HW231977   4.542   1.225   7.184  0.7248 -1.8611 -0.4177
 6782SOL     OW31978   4.651   0.986  14.396 -0.5443 -0.0281 -0.0663
 6782SOL    HW131979   4.699   0.903  14.398 -2.6839 -1.2586  0.1153
 6782SOL    HW231980   4.666   1.008  14.488  0.2388 -1.6551  0.1946
 6783SOL     OW31981   0.665   4.414   4.017  0.0470 -0.4186 -0.1454
 6783SOL    HW131982   0.739   4.384   4.070 -0.6488 -2.9638 -0.6184
 6783SOL    HW231983   0.706   4.406   3.931  0.6949  2.0975 -0.0665
 6784SOL     OW31984   3.391   1.445   2.796  0.2768 -0.6029 -0.1118
 6784SOL    HW131985   3.397   1.483   2.708  0.8735  0.6503  0.4728
 6784SOL    HW231986   3.479   1.454   2.833 -0.2740  0.4496  0.9145
 6785SOL     OW31987   1.042   0.974   5.562 -0.1699  0.3944  0.1810
 6785SOL    HW131988   1.008   0.961   5.651  0.6857  0.6488  0.5403
 6785SOL    HW231989   1.050   1.069   5.567 -0.0228  0.3725  0.3702
 6786SOL     OW31990   1.870   4.183   9.217 -0.1108 -0.6494 -0.7612
 6786SOL    HW131991   1.814   4.257   9.197  0.0595 -0.1962  0.4371
 6786SOL    HW231992   1.855   4.186   9.312  1.4975 -1.7799 -0.4719
 6787SOL     OW31993   1.100   1.430   7.033  0.1120  0.1620 -0.0320
 6787SOL    HW131994   1.068   1.514   7.065  1.4307  0.5373  0.3213
 6787SOL    HW231995   1.101   1.432   6.938  2.6757  0.2844 -0.0113
 6788SOL     OW31996   2.221   2.433   7.048 -0.0437 -0.2777  0.2542
 6788SOL    HW131997   2.253   2.343   7.048  0.8628  0.0424 -0.3900
 6788SOL    HW231998   2.264   2.467   6.969 -2.0218 -2.4548 -1.7605
 6789SOL     OW31999   4.109   2.235   5.398  0.2971  0.5173 -0.4307
 6789SOL    HW132000   4.125   2.152   5.443  3.1600  1.3839  0.1644
 6789SOL    HW232001   4.194   2.250   5.356  0.0102 -0.7476 -1.4401
 6790SOL     OW32002   1.249   0.013   6.676 -0.0265  0.0822 -0.0289
 6790SOL    HW132003   1.241   4.710   6.761  1.9872  0.5787  0.4166
 6790SOL    HW232004   1.168   0.065   6.675  0.2613  0.5613  1.3288
 6791SOL     OW32005   0.117   0.731   1.403 -0.2151 -0.0369 -0.0386
 6791SOL    HW132006   0.210   0.745   1.421 -0.2389  0.1858 -0.0878
 6791SOL    HW232007   0.103   0.651   1.454  0.7609  1.2874  2.3051
 6792SOL     OW32008   3.487   3.214   2.528 -0.3777  0.1597 -0.1969
 6792SOL    HW132009   3.573   3.203   2.489 -0.5826 -1.3355 -0.2288
 6792SOL    HW232010   3.490   3.166   2.611 -0.3446  1.1679  0.3854
 6793SOL     OW32011   4.459   3.856  10.687 -0.2929  0.2450 -0.0529
 6793SOL    HW132012   4.465   3.770  10.644  0.3332  0.0122  0.5057
 6793SOL    HW232013   4.441   3.830  10.777 -1.8028 -1.5615 -0.8629
 6794SOL     OW32014   0.162   0.535  15.104  0.0473  0.1853  0.3775
 6794SOL    HW132015   0.153   0.626  15.132 -0.5382 -0.0206  0.8650
 6794SOL    HW232016   0.075   0.501  15.127  0.4808  0.3078  2.1153
 6795SOL     OW32017   3.227   1.533   9.792  0.0921 -0.0436  0.4885
 6795SOL    HW132018   3.161   1.541   9.862  2.3157 -1.4072  2.7186
 6795SOL    HW232019   3.289   1.605   9.801  0.3104 -0.0869 -0.6891
 6796SOL     OW32020   1.417   2.500   4.186 -0.1340 -0.6199  0.1931
 6796SOL    HW132021   1.331   2.525   4.152 -0.1703 -1.2583 -0.1844
 6796SOL    HW232022   1.442   2.432   4.123 -0.3907  0.0339 -0.6148
 6797SOL     OW32023   2.313   2.821   1.112  0.4842 -0.1382  0.6868
 6797SOL    HW132024   2.317   2.904   1.064 -0.1754  1.0604  2.6493
 6797SOL    HW232025   2.401   2.814   1.150  1.2947  2.2770 -0.7074
 6798SOL     OW32026   2.378   0.091   9.608 -0.3277 -0.4768 -0.3171
 6798SOL    HW132027   2.388   0.046   9.692  1.3543  0.1216 -0.1908
 6798SOL    HW232028   2.294   0.065   9.572 -1.5406  1.9076  0.8080
 6799SOL     OW32029   0.575   3.362   5.199  0.1314 -0.5977 -0.0237
 6799SOL    HW132030   0.529   3.385   5.119 -1.2317  0.0797  0.9490
 6799SOL    HW232031   0.513   3.379   5.271  0.4757  1.3450 -0.1842
 6800SOL     OW32032   2.045   0.533   0.501 -0.3764  0.4325  0.5449
 6800SOL    HW132033   2.077   0.442   0.498 -0.9719  0.2723 -0.7680
 6800SOL    HW232034   2.104   0.583   0.445 -1.1109  2.4551  1.5935
 6801SOL     OW32035   2.979   2.033   5.584  0.0986 -0.0941  0.0598
 6801SOL    HW132036   3.048   2.077   5.534 -1.1392  0.2109 -1.3714
 6801SOL    HW232037   2.916   2.010   5.515  0.5505 -0.4818 -0.2234
 6802SOL     OW32038   0.310   0.264   7.928  0.1127  0.5641  0.0832
 6802SOL    HW132039   0.234   0.277   7.871 -0.2823  0.4871  0.5983
 6802SOL    HW232040   0.319   0.170   7.910  0.9029 -0.0040  3.3977
 6803SOL     OW32041   3.761   0.501   1.754 -0.4548 -0.4746  0.1847
 6803SOL    HW132042   3.789   0.410   1.769  0.7629 -0.1527 -0.1937
 6803SOL    HW232043   3.755   0.508   1.659 -2.6966  0.0700  0.3745
 6804SOL     OW32044   1.649   0.596   2.715  0.2315  0.0847  0.6996
 6804SOL    HW132045   1.604   0.531   2.768  0.2586  0.2808  0.9616
 6804SOL    HW232046   1.729   0.613   2.765  0.6297  0.5420 -0.0890
 6805SOL     OW32047   2.707   4.446  12.489 -0.3972 -0.4735  0.2233
 6805SOL    HW132048   2.672   4.438  12.401 -1.8574 -0.0424  0.7632
 6805SOL    HW232049   2.761   4.525  12.482 -1.2555 -0.0860 -1.9126
 6806SOL     OW32050   1.773   4.425  14.927  0.2805 -0.1031  0.1179
 6806SOL    HW132051   1.758   4.350  14.985 -1.2840 -0.9750 -1.4013
 6806SOL    HW232052   1.687   4.453  14.895  0.3743  0.1442  0.0897
 6807SOL     OW32053   2.218   0.153   5.731  0.7237  0.3320  0.2478
 6807SOL    HW132054   2.225   0.100   5.811 -0.3301  0.0568  0.1549
 6807SOL    HW232055   2.211   0.241   5.767 -0.7042  1.4127 -2.6247
 6808SOL     OW32056   2.899   0.191   0.870  0.1269  0.6348 -0.3078
 6808SOL    HW132057   2.958   0.253   0.913 -0.1480 -0.2493  1.3688
 6808SOL    HW232058   2.837   0.252   0.831 -0.7162  0.2008  0.3505
 6809SOL     OW32059   3.424   4.558   3.595 -0.0499 -0.2949  1.0188
 6809SOL    HW132060   3.370   4.614   3.651  0.9055  1.8694 -0.2265
 6809SOL    HW232061   3.507   4.597   3.623  0.6279  0.7938 -2.5146
 6810SOL     OW32062   4.336   4.266   4.460 -0.8711 -0.3247 -0.5002
 6810SOL    HW132063   4.325   4.198   4.393 -0.5978 -0.2453 -0.6229
 6810SOL    HW232064   4.262   4.321   4.434 -2.1445 -0.1483  3.5043
 6811SOL     OW32065   3.839   2.650  17.285 -0.7376 -0.4949 -0.0103
 6811SOL    HW132066   3.791   2.729  17.308  1.0698  0.1493  1.5466
 6811SOL    HW232067   3.921   2.690  17.259 -0.5315 -0.0088  1.4056
 6812SOL     OW32068   1.616   2.858   3.649 -0.2114 -0.1752  0.3455
 6812SOL    HW132069   1.697   2.811   3.668  0.4104 -0.3146 -2.5809
 6812SOL    HW232070   1.562   2.814   3.715 -1.8830 -0.1134 -0.9664
 6813SOL     OW32071   0.033   1.770   0.122 -0.0741  0.0296 -0.4000
 6813SOL    HW132072   0.002   1.689   0.163  0.3948 -0.5472 -1.1780
 6813SOL    HW232073   4.699   1.786   0.064  0.5742  0.2370 -1.1619
 6814SOL     OW32074   0.634   4.395  17.555 -0.7037  0.6426  0.0883
 6814SOL    HW132075   0.546   4.359  17.570 -1.1382  0.9813 -1.7254
 6814SOL    HW232076   0.671   4.403  17.643  0.7653 -2.5829 -0.2368
 6815SOL     OW32077   0.463   1.228  13.790 -0.2005 -0.0558 -0.3291
 6815SOL    HW132078   0.403   1.153  13.793 -0.7034  0.3946  0.8701
 6815SOL    HW232079   0.454   1.265  13.878 -3.1975  1.0193 -1.1047
 6816SOL     OW32080   4.617   0.096   1.536  0.0426 -0.1139  0.0069
 6816SOL    HW132081   4.642   0.081   1.627 -3.1664 -3.0079  0.4032
 6816SOL    HW232082   4.524   0.113   1.549  0.0786 -0.6805  0.9403
 6817SOL     OW32083   0.621   1.235  12.283  0.0277  0.5075  0.7460
 6817SOL    HW132084   0.598   1.327  12.279  1.7356  0.8091 -2.2580
 6817SOL    HW232085   0.706   1.247  12.326  1.1368  0.0268 -1.3342
 6818SOL     OW32086   3.440   2.455   6.534  0.4810  0.1390 -0.1525
 6818SOL    HW132087   3.444   2.370   6.579  0.5928  0.6068  0.7189
 6818SOL    HW232088   3.388   2.421   6.461  0.0713  0.8924 -0.2069
 6819SOL     OW32089   0.686   2.136   3.182  0.2038 -0.1268 -0.2620
 6819SOL    HW132090   0.768   2.138   3.132  0.3931  2.2973  0.1513
 6819SOL    HW232091   0.647   2.210   3.137  2.6079  1.1273 -0.2874
 6820SOL     OW32092   3.931   0.822   7.707 -0.9438 -0.2583  0.3591
 6820SOL    HW132093   3.909   0.816   7.800 -0.8903 -0.1765  0.3767
 6820SOL    HW232094   4.026   0.833   7.710 -0.9344 -0.1958 -0.2163
 6821SOL     OW32095   2.796   3.772   3.653  0.2636  0.0095  0.3169
 6821SOL    HW132096   2.783   3.699   3.713 -0.2202 -0.7102 -0.6810
 6821SOL    HW232097   2.773   3.728   3.571  0.1641  0.0858  0.3050
 6822SOL     OW32098   3.146   1.344   5.682  0.4735 -0.0838 -0.3386
 6822SOL    HW132099   3.201   1.266   5.675  0.8729 -0.0132  1.8679
 6822SOL    HW232100   3.169   1.389   5.763  0.0185 -1.0871  0.3547
 6823SOL     OW32101   0.205   0.217   7.294 -0.0276  0.9006 -0.0386
 6823SOL    HW132102   0.274   0.151   7.305 -0.2516  0.5233 -0.8160
 6823SOL    HW232103   0.129   0.162   7.273  1.0818 -1.4275  1.9874
 6824SOL     OW32104   1.941   3.288   7.956 -0.2585  0.0433 -0.4046
 6824SOL    HW132105   1.848   3.304   7.944 -0.0142  0.3631 -1.8750
 6824SOL    HW232106   1.942   3.195   7.980  0.8878  1.0159  3.3159
 6825SOL     OW32107   1.992   4.538   7.828 -0.3282 -0.1259  0.2322
 6825SOL    HW132108   1.901   4.559   7.848  0.0331  0.0378  1.7139
 6825SOL    HW232109   1.996   4.444   7.843 -0.6349  0.1932  2.2886
 6826SOL     OW32110   1.908   4.167   8.027 -0.0197 -0.2674 -0.4190
 6826SOL    HW132111   1.977   4.195   8.087 -1.2396 -1.2984  1.4864
 6826SOL    HW232112   1.906   4.078   8.063  3.1748 -0.1865 -0.0558
 6827SOL     OW32113   0.611   2.711   8.414 -0.0741  0.1806  0.3920
 6827SOL    HW132114   0.556   2.773   8.367  1.3156  0.5764 -0.7011
 6827SOL    HW232115   0.676   2.767   8.458  0.3524  0.4489 -0.5684
 6828SOL     OW32116   3.526   1.608   9.328  0.2673  0.0726  0.9037
 6828SOL    HW132117   3.489   1.584   9.413  2.1430 -0.8217  1.4631
 6828SOL    HW232118   3.615   1.574   9.343  1.1028  1.7093 -0.3197
 6829SOL     OW32119   1.706   3.525   8.417  0.5872  0.3415  0.4164
 6829SOL    HW132120   1.620   3.555   8.445  0.7737  0.8625  0.4168
 6829SOL    HW232121   1.731   3.476   8.495  0.0996 -2.1587 -0.9693
 6830SOL     OW32122   4.079   1.471  15.512  0.7279 -0.3104 -0.0363
 6830SOL    HW132123   4.080   1.566  15.525  1.1220 -0.3278  0.0678
 6830SOL    HW232124   4.151   1.442  15.568 -0.2816 -0.3658  1.2213
 6831SOL     OW32125   2.862   2.087  10.333 -0.0224 -0.0002  0.2469
 6831SOL    HW132126   2.905   2.071  10.417  1.3335  0.5515 -0.3359
 6831SOL    HW232127   2.769   2.088  10.357  0.2839  0.5743  1.3769
 6832SOL     OW32128   2.104   0.369   0.940  0.1306  0.6711  0.1442
 6832SOL    HW132129   2.145   0.435   0.997  2.9192  0.7403 -1.9530
 6832SOL    HW232130   2.048   0.320   1.000  1.5730  0.7556  1.5649
 6833SOL     OW32131   3.819   1.738  16.583  0.0431 -0.0964 -0.2703
 6833SOL    HW132132   3.894   1.780  16.625 -0.2784 -1.0324  1.2106
 6833SOL    HW232133   3.755   1.740  16.653 -0.2167  1.3963 -0.5374
 6834SOL     OW32134   2.063   3.064   7.494 -0.5569 -0.6900 -0.8101
 6834SOL    HW132135   2.117   2.997   7.452  1.2729 -1.4742  2.8087
 6834SOL    HW232136   2.128   3.129   7.521 -0.8285  0.2645 -2.4762
 6835SOL     OW32137   2.308   3.787   9.345  0.2541  0.3237  0.2289
 6835SOL    HW132138   2.328   3.875   9.375 -1.3472  0.2895  1.4397
 6835SOL    HW232139   2.227   3.773   9.396 -0.9740  0.2963 -1.7200
 6836SOL     OW32140   2.760   2.198   8.319 -0.7586 -0.2496  0.1008
 6836SOL    HW132141   2.707   2.188   8.399  0.3456 -1.9979  0.6245
 6836SOL    HW232142   2.847   2.211   8.355 -1.5395 -1.2808  2.4232
 6837SOL     OW32143   4.354   2.234   2.552 -0.1524  0.4909  0.1331
 6837SOL    HW132144   4.402   2.293   2.493  0.3005  0.5981  0.6151
 6837SOL    HW232145   4.355   2.154   2.499 -0.2419 -0.1223  1.0653
 6838SOL     OW32146   2.711   4.492  12.760  0.0303 -0.1458 -0.1950
 6838SOL    HW132147   2.640   4.556  12.756 -0.8705 -1.1498 -0.3556
 6838SOL    HW232148   2.717   4.480  12.666 -0.7528  0.1168 -0.2784
 6839SOL     OW32149   2.417   3.364   2.263  0.4827 -0.8941 -0.5415
 6839SOL    HW132150   2.428   3.452   2.227 -0.6052  0.1231  1.5536
 6839SOL    HW232151   2.354   3.329   2.200  1.3763 -2.1325 -0.7392
 6840SOL     OW32152   1.162   1.309   4.219 -0.0769  0.2705 -0.5101
 6840SOL    HW132153   1.201   1.304   4.307 -2.2134 -3.2615  0.2693
 6840SOL    HW232154   1.120   1.223   4.214 -0.6521  0.4070  1.7253
 6841SOL     OW32155   3.053   0.014   6.444 -0.4890  0.3599 -0.3214
 6841SOL    HW132156   3.003   0.068   6.383 -0.2065 -1.3536 -2.0987
 6841SOL    HW232157   3.122   0.079   6.453  0.1757 -0.0834 -2.0572
 6842SOL     OW32158   2.940   2.597  11.451  0.6943 -0.1286 -0.2552
 6842SOL    HW132159   2.898   2.516  11.423 -0.7107  1.0991 -1.6598
 6842SOL    HW232160   2.969   2.610  11.360  3.3286 -0.0888  0.5980
 6843SOL     OW32161   4.330   4.450   5.171 -0.1829  0.2450  0.3159
 6843SOL    HW132162   4.234   4.453   5.166 -0.2719  0.5607  2.3091
 6843SOL    HW232163   4.345   4.459   5.077 -0.9300  0.1081  0.1818
 6844SOL     OW32164   0.807   1.550   4.691  0.1103  0.4106 -0.4726
 6844SOL    HW132165   0.872   1.485   4.665  0.1199  0.1909  0.0978
 6844SOL    HW232166   0.822   1.629   4.639 -3.2317 -0.2474 -2.3815
 6845SOL     OW32167   3.524   2.349   2.520 -0.3041 -0.7083 -1.0898
 6845SOL    HW132168   3.459   2.387   2.461 -0.8476 -1.5219 -1.0193
 6845SOL    HW232169   3.518   2.412   2.593  2.8567 -1.2862 -0.3441
 6846SOL     OW32170   3.390   1.840   8.164 -0.6389  0.0144 -0.3689
 6846SOL    HW132171   3.326   1.774   8.188  1.7684 -1.4740  1.8932
 6846SOL    HW232172   3.337   1.887   8.099  0.3749  2.0299  0.2402
 6847SOL     OW32173   3.730   2.995   7.615  0.0373 -0.0249 -0.2562
 6847SOL    HW132174   3.790   3.053   7.569  0.6158 -1.0576 -0.7968
 6847SOL    HW232175   3.722   2.929   7.546  0.9891 -1.7288  1.2846
 6848SOL     OW32176   2.202   4.064   2.359  0.4139 -0.0531 -0.3031
 6848SOL    HW132177   2.234   4.154   2.371  1.7733 -0.5229 -0.3735
 6848SOL    HW232178   2.277   4.021   2.317  0.0731 -1.2651  0.3290
 6849SOL     OW32179   2.740   2.952   1.490  0.1391 -0.1381 -0.2484
 6849SOL    HW132180   2.747   2.986   1.579 -1.1517 -2.5750  0.8159
 6849SOL    HW232181   2.708   3.028   1.441  0.1643  0.4773  0.6768
 6850SOL     OW32182   2.480   4.648  12.395 -0.6570  0.3439  0.1116
 6850SOL    HW132183   2.556   4.706  12.392 -0.2402 -0.2579 -0.7565
 6850SOL    HW232184   2.443   4.670  12.481  0.5167  3.5019 -0.2048
 6851SOL     OW32185   0.032   0.179   6.175  0.3893  0.2867 -0.4252
 6851SOL    HW132186   0.046   0.151   6.084  3.4416  2.4333 -0.6344
 6851SOL    HW232187   4.687   0.221   6.161 -1.0693 -2.2155  1.0741
 6852SOL     OW32188   0.978   4.620   6.097 -0.9920  0.5593  0.9013
 6852SOL    HW132189   0.969   4.680   6.171  0.3631  1.3295  0.4277
 6852SOL    HW232190   1.002   4.672   6.021 -0.0358  2.2484  2.3557
 6853SOL     OW32191   2.758   3.519   0.696  0.2853 -0.3876 -0.1039
 6853SOL    HW132192   2.733   3.427   0.707 -1.3614 -0.1109 -1.4771
 6853SOL    HW232193   2.797   3.543   0.780  1.0979  0.1543 -0.6307
 6854SOL     OW32194   0.468   0.270  15.032 -0.1624 -0.3301 -0.0625
 6854SOL    HW132195   0.534   0.234  15.091  1.3286  1.2440 -0.7413
 6854SOL    HW232196   0.393   0.218  15.060  0.1176 -0.1996  0.9308
 6855SOL     OW32197   2.031   2.559   3.113  0.0376 -0.5095 -0.1949
 6855SOL    HW132198   2.088   2.634   3.127 -0.1792 -0.4845  0.5506
 6855SOL    HW232199   1.997   2.540   3.200 -0.6225 -3.2408 -1.0383
 6856SOL     OW32200   2.955   3.246   3.302  0.2888  0.3895  0.3280
 6856SOL    HW132201   3.037   3.198   3.302 -0.1194 -0.3100 -1.0355
 6856SOL    HW232202   2.935   3.246   3.208 -0.3534 -1.4837  0.4539
 6857SOL     OW32203   2.593   1.011   9.802 -0.2499  0.3396  0.1680
 6857SOL    HW132204   2.622   0.927   9.766  0.1098  0.1511  0.8887
 6857SOL    HW232205   2.498   1.007   9.799 -0.0941 -1.6495 -2.0193
 6858SOL     OW32206   4.373   2.797   8.344  0.0330  0.3462  0.0929
 6858SOL    HW132207   4.283   2.820   8.325 -0.8311 -2.8827  0.2127
 6858SOL    HW232208   4.396   2.869   8.402  1.3704 -0.3700  0.4697
 6859SOL     OW32209   3.963   3.693   2.562  0.1627  0.3888 -0.1709
 6859SOL    HW132210   4.006   3.669   2.644  1.0508  2.1651 -0.1260
 6859SOL    HW232211   3.930   3.607   2.534  0.4450  0.0443  0.5428
 6860SOL     OW32212   0.165   2.798  16.283  0.3668  0.1443 -0.3924
 6860SOL    HW132213   0.152   2.704  16.292 -1.9795  0.4358 -0.7408
 6860SOL    HW232214   0.166   2.816  16.189 -1.0700 -0.7158 -0.5658
 6861SOL     OW32215   1.950   4.382   6.652 -0.0277 -0.1765  0.7667
 6861SOL    HW132216   1.892   4.307   6.666  0.5082 -1.0361 -1.5949
 6861SOL    HW232217   1.998   4.362   6.571 -1.7029  4.4404 -1.3479
 6862SOL     OW32218   3.602   1.393   2.543  0.1492  0.2263  0.5229
 6862SOL    HW132219   3.536   1.456   2.570 -1.0197 -2.5335  4.0369
 6862SOL    HW232220   3.670   1.423   2.602  0.9993 -0.7005  0.0127
 6863SOL     OW32221   0.023   3.741   6.277 -0.3860  0.9592 -0.2297
 6863SOL    HW132222   0.028   3.797   6.354 -0.2171 -0.9575  1.1646
 6863SOL    HW232223   4.673   3.707   6.281  1.3214 -3.2959  2.1454
 6864SOL     OW32224   2.146   1.659   1.612  0.3068  0.1247 -0.7236
 6864SOL    HW132225   2.217   1.598   1.591 -0.8940 -1.0445 -1.3895
 6864SOL    HW232226   2.073   1.603   1.638  1.5374 -1.9384 -1.6514
 6865SOL     OW32227   0.515   3.021   4.053 -0.4521 -0.1654  0.0900
 6865SOL    HW132228   0.495   3.045   4.143 -0.8836 -1.3391  0.3043
 6865SOL    HW232229   0.554   3.101   4.017 -0.4766 -0.9852 -1.7514
 6866SOL     OW32230   2.466   0.223   1.929  0.2608  0.4057  0.7342
 6866SOL    HW132231   2.434   0.134   1.916 -0.2148  0.4094  1.9499
 6866SOL    HW232232   2.407   0.277   1.877 -0.6580 -0.2189  1.1325
 6867SOL     OW32233   1.818   2.210   3.893 -0.1545 -0.3365 -0.1936
 6867SOL    HW132234   1.878   2.142   3.923  0.3798  0.0160 -0.4758
 6867SOL    HW232235   1.767   2.159   3.830  0.7752 -3.8947  1.8961
 6868SOL     OW32236   0.439   2.947   7.798 -0.5355  0.9056  0.5245
 6868SOL    HW132237   0.477   2.912   7.718 -1.5574 -0.2907  0.5511
 6868SOL    HW232238   0.459   3.040   7.790  0.8268  0.3162 -2.7048
 6869SOL     OW32239   0.540   1.915  17.531  0.2121 -0.0042  0.8863
 6869SOL    HW132240   0.451   1.881  17.519  0.7639 -0.7662 -0.9936
 6869SOL    HW232241   0.593   1.838  17.551 -0.3830 -0.7776 -0.5180
 6870SOL     OW32242   3.698   2.926   4.322  0.4424  0.0055 -0.3380
 6870SOL    HW132243   3.696   2.958   4.412 -0.0518  2.1007 -1.0764
 6870SOL    HW232244   3.641   2.851   4.338 -0.3439  0.6720 -0.0432
 6871SOL     OW32245   3.772   2.141   4.174 -0.3619  0.5482 -0.0246
 6871SOL    HW132246   3.815   2.225   4.156 -0.6168  0.6001 -0.3847
 6871SOL    HW232247   3.717   2.132   4.097 -0.2379  1.7654 -0.2612
 6872SOL     OW32248   0.502   1.493   6.983  0.0808 -0.3661 -0.1154
 6872SOL    HW132249   0.409   1.514   6.979  0.0721 -0.3453  0.2432
 6872SOL    HW232250   0.503   1.453   7.069 -0.0323 -0.5560 -0.2031
 6873SOL     OW32251   0.966   3.318  13.827 -0.2234 -0.6021  0.2082
 6873SOL    HW132252   1.002   3.358  13.906 -0.9682 -0.5068  0.5003
 6873SOL    HW232253   0.943   3.395  13.776  0.5370  1.2165  2.6340
 6874SOL     OW32254   0.105   3.492   3.560  0.7201 -0.0052 -0.0835
 6874SOL    HW132255   0.184   3.526   3.603 -0.3768  1.3620  0.8828
 6874SOL    HW232256   0.043   3.535   3.620 -0.6797  0.2962 -1.7474
 6875SOL     OW32257   3.104   3.088   3.754  0.3821 -0.1737  0.2912
 6875SOL    HW132258   3.084   3.027   3.683 -0.1110  0.0143  0.2741
 6875SOL    HW232259   3.196   3.067   3.769 -0.2071 -0.1467  3.9311
 6876SOL     OW32260   1.585   1.860   7.535 -0.0997 -0.0641 -0.5730
 6876SOL    HW132261   1.549   1.775   7.511 -1.6426  0.1147  1.1213
 6876SOL    HW232262   1.529   1.885   7.608  1.1433  1.5081 -0.1544
 6877SOL     OW32263   1.673   0.052   9.084  0.4216  0.6888 -0.1053
 6877SOL    HW132264   1.606   0.092   9.140 -1.8292 -0.6325 -1.8434
 6877SOL    HW232265   1.748   0.043   9.143 -0.1783 -1.8784  0.2584
 6878SOL     OW32266   4.160   1.736   5.553 -0.4236  0.6803 -0.0188
 6878SOL    HW132267   4.168   1.661   5.612  0.0156  0.0579 -0.8781
 6878SOL    HW232268   4.068   1.760   5.566 -0.3756  1.3996 -1.0212
 6879SOL     OW32269   0.359   4.273   0.906  0.1603 -0.0801  0.0589
 6879SOL    HW132270   0.411   4.304   0.832 -0.1865  1.8849  0.6141
 6879SOL    HW232271   0.272   4.307   0.886 -0.0489  0.2947  1.6161
 6880SOL     OW32272   1.393   1.581  15.867 -0.2791 -0.2669  0.2025
 6880SOL    HW132273   1.411   1.670  15.897  3.1832 -0.6430 -0.8282
 6880SOL    HW232274   1.317   1.593  15.810 -0.4222  1.7041  0.8193
 6881SOL     OW32275   4.261   2.428   7.151  0.1268 -0.5883 -0.0983
 6881SOL    HW132276   4.352   2.406   7.170  0.0960 -0.5767  0.0595
 6881SOL    HW232277   4.243   2.354   7.093  0.2549 -0.9301  0.2942
 6882SOL     OW32278   3.055   2.725   4.913  0.6534 -0.1867 -0.6735
 6882SOL    HW132279   3.024   2.796   4.969  1.8150  1.0145 -1.5418
 6882SOL    HW232280   3.109   2.777   4.853  2.7289 -1.5491  0.0457
 6883SOL     OW32281   0.078   2.894   3.087  0.1178  0.1339  0.6910
 6883SOL    HW132282   0.134   2.841   3.030  0.3966  1.0973  0.0586
 6883SOL    HW232283   0.117   2.882   3.173  0.2671 -1.5244  0.3941
 6884SOL     OW32284   1.858   2.936   9.076  0.0919 -0.6029  0.6384
 6884SOL    HW132285   1.894   2.850   9.097  1.3518 -0.5148 -1.1497
 6884SOL    HW232286   1.928   2.963   9.017 -0.4064 -1.4460 -0.3432
 6885SOL     OW32287   1.955   4.056   9.878  0.6299 -0.0644  0.1024
 6885SOL    HW132288   1.934   3.963   9.889  0.5962  0.0434  0.9406
 6885SOL    HW232289   2.048   4.053   9.900  0.4959 -0.5751  0.6029
 6886SOL     OW32290   3.364   0.014   5.885 -0.1532  0.0132 -0.0936
 6886SOL    HW132291   3.322   0.099   5.869  0.1727  0.1363 -0.2915
 6886SOL    HW232292   3.418   0.027   5.963  0.7240 -1.6429 -0.4307
 6887SOL     OW32293   3.977   4.330  17.565  0.0259  0.4840 -0.3081
 6887SOL    HW132294   3.948   4.420  17.549  2.9357  1.8141  1.8970
 6887SOL    HW232295   4.017   4.311  17.480  1.7311 -2.3375  1.1186
 6888SOL     OW32296   4.683   3.683  12.543 -0.1960 -1.4205  0.0095
 6888SOL    HW132297   0.021   3.627  12.539  0.3423 -0.7117  0.5707
 6888SOL    HW232298   4.629   3.643  12.475 -0.8570  0.8557 -0.8280
 6889SOL     OW32299   3.792   0.990  10.797 -0.6973 -0.3969  0.1399
 6889SOL    HW132300   3.702   1.021  10.791 -0.5956 -0.1885 -0.3474
 6889SOL    HW232301   3.792   0.921  10.863  0.8565  0.5467  1.1515
 6890SOL     OW32302   1.174   3.355   8.905  0.3478  0.5925  0.0713
 6890SOL    HW132303   1.138   3.362   8.993 -1.5283 -1.3361 -0.5285
 6890SOL    HW232304   1.097   3.318   8.861 -0.3127  2.3881 -0.2877
 6891SOL     OW32305   3.878   4.431   0.912  0.3973 -0.3162 -0.2423
 6891SOL    HW132306   3.939   4.393   0.974 -0.7323 -1.8266 -0.0525
 6891SOL    HW232307   3.923   4.508   0.877 -0.0725  0.0134 -0.1316
 6892SOL     OW32308   1.184   1.187   3.287  0.0916 -0.1548  0.3073
 6892SOL    HW132309   1.267   1.192   3.238 -1.1575  1.7948 -1.6143
 6892SOL    HW232310   1.141   1.271   3.270  1.3625  0.0628 -1.8289
 6893SOL     OW32311   4.010   0.449   2.963 -0.5690 -0.4039 -0.0190
 6893SOL    HW132312   4.000   0.542   2.944  2.7129  0.2374  1.4142
 6893SOL    HW232313   4.058   0.442   3.045 -0.8557 -0.2085  0.1670
 6894SOL     OW32314   1.508   3.682   5.656 -0.3813  0.4290  0.2101
 6894SOL    HW132315   1.418   3.662   5.629 -1.0848  2.0982  1.3227
 6894SOL    HW232316   1.506   3.769   5.696  0.1074 -0.2166  1.6516
 6895SOL     OW32317   3.169   4.148   6.953  0.2969  0.3213  0.3426
 6895SOL    HW132318   3.074   4.154   6.962  0.0546  1.3515 -2.6891
 6895SOL    HW232319   3.180   4.055   6.973 -2.0502 -0.1147 -0.4213
 6896SOL     OW32320   3.990   1.482   7.756  0.2289 -0.2197  0.2429
 6896SOL    HW132321   4.065   1.524   7.799  0.0566 -0.9827  1.3006
 6896SOL    HW232322   3.950   1.553   7.707 -0.6747 -1.4120 -0.7404
 6897SOL     OW32323   2.577   1.237   2.210  0.4640  0.4716  0.0696
 6897SOL    HW132324   2.577   1.240   2.114  0.7285 -1.6497  0.0085
 6897SOL    HW232325   2.553   1.328   2.229 -2.6625 -0.3027 -0.1859
 6898SOL     OW32326   3.992   2.171  15.362  0.4635 -0.3238 -0.0893
 6898SOL    HW132327   3.943   2.120  15.297 -1.9823 -0.5821  1.9690
 6898SOL    HW232328   3.926   2.228  15.401  0.8295  1.8685 -2.7238
 6899SOL     OW32329   2.788   4.302   6.561 -0.7111  0.2149 -0.0089
 6899SOL    HW132330   2.748   4.386   6.581  1.6422  1.2120  0.5803
 6899SOL    HW232331   2.711   4.246   6.556 -2.1428  2.0893  1.4679
 6900SOL     OW32332   4.087   4.625  14.692 -0.8495 -0.2787  0.5640
 6900SOL    HW132333   4.157   4.679  14.728 -0.1278 -0.7034 -0.2011
 6900SOL    HW232334   4.121   4.540  14.723  0.5790  0.0512 -0.0934
 6901SOL     OW32335   1.361   1.310  14.041  0.4103 -0.7666  0.9810
 6901SOL    HW132336   1.411   1.355  13.973 -0.5574  1.0564  1.4588
 6901SOL    HW232337   1.389   1.361  14.117  0.8533 -0.5497  0.6784
 6902SOL     OW32338   2.084   0.011  11.740  0.4695 -0.0801  0.1218
 6902SOL    HW132339   2.121   0.092  11.775 -1.0028  0.5729  0.1550
 6902SOL    HW232340   2.108   4.694  11.814  0.7162 -1.7098 -1.1962
 6903SOL     OW32341   1.535   4.664   8.082  0.1040  0.0192  0.0664
 6903SOL    HW132342   1.497   0.012   8.069 -1.5132 -0.6489  0.3631
 6903SOL    HW232343   1.481   4.613   8.023  1.1833 -1.4419  0.3349
 6904SOL     OW32344   2.126   1.821   1.842 -0.1772 -0.5133  0.0474
 6904SOL    HW132345   2.147   1.745   1.787 -0.8812 -1.1451  0.6641
 6904SOL    HW232346   2.050   1.862   1.800 -1.2206 -1.8999  0.5903
 6905SOL     OW32347   4.730   4.044   8.654 -0.3510 -0.1028  0.7349
 6905SOL    HW132348   4.676   4.049   8.575 -0.7431  2.1425  1.1343
 6905SOL    HW232349   0.079   4.068   8.625 -0.9633  1.8408  0.4975
 6906SOL     OW32350   2.583   2.975   2.569 -0.3326 -0.0804  0.4498
 6906SOL    HW132351   2.587   2.917   2.645 -0.7375  0.5907  0.9902
 6906SOL    HW232352   2.668   3.019   2.567  0.1697 -1.0423  0.7090
 6907SOL     OW32353   2.476   0.571  16.745 -0.2309  0.2120  0.7937
 6907SOL    HW132354   2.487   0.545  16.654 -0.9033 -0.4081  0.8914
 6907SOL    HW232355   2.432   0.494  16.782  0.5762  0.1011  1.5310
 6908SOL     OW32356   1.317   1.374   6.207 -0.0485 -0.1588  0.4126
 6908SOL    HW132357   1.353   1.339   6.288 -0.2203 -0.6517  0.2786
 6908SOL    HW232358   1.359   1.340   6.128  1.2953  2.1302  0.1821
 6909SOL     OW32359   1.760   2.687  10.022  0.0396  0.1813 -0.2344
 6909SOL    HW132360   1.708   2.730   9.954 -1.3411  0.3987  0.9760
 6909SOL    HW232361   1.810   2.764  10.053 -0.3687  0.3271  0.0603
 6910SOL     OW32362   4.376   1.823   4.491  0.0109  0.0999 -0.9221
 6910SOL    HW132363   4.348   1.838   4.401 -0.1907 -2.6801 -1.3384
 6910SOL    HW232364   4.349   1.732   4.503  2.8458 -0.4906  0.9786
 6911SOL     OW32365   3.722   1.313   0.326  0.1830 -0.7879 -0.9043
 6911SOL    HW132366   3.641   1.349   0.290 -1.0582 -1.0684  1.6193
 6911SOL    HW232367   3.687   1.245   0.383  1.0740 -0.2996  0.2307
 6912SOL     OW32368   4.595   4.331   8.305 -0.3636 -0.1870 -0.0234
 6912SOL    HW132369   4.689   4.350   8.306 -0.5337  0.4646  2.3660
 6912SOL    HW232370   4.576   4.355   8.214  2.9724 -2.0782 -1.2053
 6913SOL     OW32371   0.021   4.206   3.961  0.2159  0.2809 -0.0468
 6913SOL    HW132372   0.109   4.195   3.925  1.0850 -2.3585  2.8909
 6913SOL    HW232373   4.713   4.253   3.892 -2.5013  1.6832  2.7861
 6914SOL     OW32374   2.268   1.824  12.384 -0.2215 -0.4927 -0.3698
 6914SOL    HW132375   2.281   1.858  12.473  0.8984  1.9577 -1.4713
 6914SOL    HW232376   2.196   1.764  12.401  0.7221 -0.4888  3.7633
 6915SOL     OW32377   1.951   1.343   7.323 -0.0034  0.0853  0.6605
 6915SOL    HW132378   1.979   1.384   7.405 -1.4530  1.9896  0.2115
 6915SOL    HW232379   2.030   1.362   7.272  0.3898 -0.1063  1.2065
 6916SOL     OW32380   2.288   2.466   8.519  0.1067  0.7981  0.8324
 6916SOL    HW132381   2.220   2.403   8.545 -0.8141  1.2059 -0.5706
 6916SOL    HW232382   2.348   2.461   8.593  0.2150 -0.1484  0.6793
 6917SOL     OW32383   4.717   3.621   7.933 -0.2278  0.3142 -0.0980
 6917SOL    HW132384   4.624   3.640   7.942  0.2752  3.1731 -0.8869
 6917SOL    HW232385   4.737   3.624   8.027 -1.0048 -0.6009  0.0928
 6918SOL     OW32386   3.689   1.799   2.130  0.2504 -0.3503  0.0248
 6918SOL    HW132387   3.607   1.766   2.166 -0.8494  0.6575 -1.6158
 6918SOL    HW232388   3.711   1.860   2.201 -0.6806  0.4025 -0.3325
 6919SOL     OW32389   1.174   4.327   7.203 -0.2691 -0.3985 -0.0613
 6919SOL    HW132390   1.160   4.301   7.294  0.0119  1.1087  0.4212
 6919SOL    HW232391   1.086   4.353   7.174 -1.2841  0.7648  3.9547
 6920SOL     OW32392   2.015   0.148   4.630  0.1153 -0.4976 -0.5627
 6920SOL    HW132393   2.078   0.219   4.622 -0.6698  0.2821  0.1388
 6920SOL    HW232394   2.070   0.076   4.662 -0.7320 -0.7310  0.3766
 6921SOL     OW32395   2.673   2.275   2.321  0.0721  0.1144 -0.3394
 6921SOL    HW132396   2.743   2.326   2.279  0.5894  0.2826  0.7332
 6921SOL    HW232397   2.617   2.267   2.244  1.6991 -1.5837 -1.3589
 6922SOL     OW32398   2.336   4.035   8.191 -0.0046 -0.1931  0.1343
 6922SOL    HW132399   2.279   4.088   8.134  0.8175  0.3417 -0.1996
 6922SOL    HW232400   2.415   4.089   8.184 -1.2689  1.5879 -0.3663
 6923SOL     OW32401   4.494   4.158   5.581 -0.2238  0.0095  0.0444
 6923SOL    HW132402   4.558   4.183   5.514  1.4220 -1.9728  0.8922
 6923SOL    HW232403   4.549   4.114   5.645 -0.3663  2.1029  1.5938
 6924SOL     OW32404   2.767   4.709   7.573 -0.0976  0.1496 -0.0506
 6924SOL    HW132405   2.816   4.636   7.610  0.4881  1.7414  2.3538
 6924SOL    HW232406   2.729   0.000   7.656 -1.9449  0.6799 -1.0905
 6925SOL     OW32407   3.923   1.382   4.484  0.0621 -0.2546 -0.4744
 6925SOL    HW132408   3.911   1.477   4.477  1.8632 -0.1326 -1.8475
 6925SOL    HW232409   4.018   1.386   4.472  0.2404  0.4051  1.1558
 6926SOL     OW32410   3.436   0.348   3.015  0.4332  0.2509  0.1621
 6926SOL    HW132411   3.399   0.433   3.040  1.0438  0.5191  0.1306
 6926SOL    HW232412   3.528   0.366   3.034  0.1441  0.7304  1.1347
 6927SOL     OW32413   4.611   3.219  13.553 -0.1615 -0.1971 -0.9989
 6927SOL    HW132414   4.576   3.235  13.641  0.9642 -0.8027 -0.4358
 6927SOL    HW232415   4.630   3.304  13.513  0.4834 -1.2074 -2.8089
 6928SOL     OW32416   3.680   4.730   6.336  0.0745 -0.7221  0.5336
 6928SOL    HW132417   3.596   4.726   6.381  0.2651  0.2530  0.9816
 6928SOL    HW232418   3.649   4.687   6.257 -0.4263  2.1137 -0.8073
 6929SOL     OW32419   0.892   1.171  10.514  0.3272 -0.0134  0.2932
 6929SOL    HW132420   0.880   1.178  10.609 -1.1852 -0.7897  0.1709
 6929SOL    HW232421   0.828   1.238  10.488 -0.7550  0.1088  3.2536
 6930SOL     OW32422   3.892   0.184   1.573 -0.3148 -0.5725  0.0344
 6930SOL    HW132423   3.917   0.264   1.527  0.0059 -2.2919 -2.7689
 6930SOL    HW232424   3.973   0.134   1.566 -0.9467 -2.0393  3.1775
 6931SOL     OW32425   3.384   4.668   2.837 -0.1316 -0.3788 -0.6614
 6931SOL    HW132426   3.391   0.022   2.816  2.8084  0.0513  2.3868
 6931SOL    HW232427   3.354   4.671   2.927  0.9664  0.1961 -0.3164
 6932SOL     OW32428   2.446   3.161   8.317  0.1338  0.0714 -0.0259
 6932SOL    HW132429   2.419   3.172   8.409  1.3655  2.0098  0.0970
 6932SOL    HW232430   2.473   3.250   8.293 -0.7611  0.6491  1.1171
 6933SOL     OW32431   1.007   1.440  15.764  0.2927  0.0661 -0.4029
 6933SOL    HW132432   0.946   1.375  15.799  0.1165 -1.2720 -3.1384
 6933SOL    HW232433   1.091   1.394  15.767 -0.7588 -1.7532  1.7774
 6934SOL     OW32434   4.039   1.887   7.822 -0.1370  0.1979 -0.0615
 6934SOL    HW132435   4.022   1.964   7.876  0.7855 -0.4980  1.2189
 6934SOL    HW232436   4.038   1.919   7.731  1.7984  0.4374  0.0004
 6935SOL     OW32437   4.524   0.861  16.675  0.0266  0.7636  0.1874
 6935SOL    HW132438   4.576   0.785  16.647 -0.6540  0.5217 -0.3994
 6935SOL    HW232439   4.529   0.925  16.604 -0.6714  1.8637  1.1452
 6936SOL     OW32440   0.674   2.366   2.252 -0.4181 -0.3904  0.1694
 6936SOL    HW132441   0.641   2.447   2.291  0.5938 -0.3931  1.0289
 6936SOL    HW232442   0.683   2.400   2.163 -0.3752  0.7004  0.5945
 6937SOL     OW32443   3.744   2.537   5.211  0.4122  0.3557 -0.0247
 6937SOL    HW132444   3.802   2.609   5.187  1.0034 -0.1636 -0.1675
 6937SOL    HW232445   3.794   2.462   5.179  0.2496  0.4550 -0.5168
 6938SOL     OW32446   1.943   0.434   2.674 -0.2827  0.0322 -0.0425
 6938SOL    HW132447   1.938   0.514   2.725  2.0532 -1.2082  2.1313
 6938SOL    HW232448   1.856   0.394   2.667  0.1375 -0.7311 -0.9244
 6939SOL     OW32449   1.271   3.222   2.265 -0.1238 -0.0528 -0.0951
 6939SOL    HW132450   1.195   3.273   2.292  0.0662 -0.8150  1.8734
 6939SOL    HW232451   1.236   3.141   2.225 -2.0404  0.2533  0.9532
 6940SOL     OW32452   4.606   3.559   5.347  0.1426 -0.4948 -0.0284
 6940SOL    HW132453   4.522   3.515   5.353 -0.0775  0.3247  2.7792
 6940SOL    HW232454   4.670   3.488   5.342 -0.5878 -1.3082  2.0585
 6941SOL     OW32455   1.023   3.970   7.537  0.1860 -0.3168 -0.1654
 6941SOL    HW132456   1.116   3.951   7.540  0.5590  1.4467 -0.7598
 6941SOL    HW232457   0.994   3.910   7.606  0.4658 -1.6512 -1.2152
 6942SOL     OW32458   3.168   0.212   5.772 -0.3781 -0.9520  0.0559
 6942SOL    HW132459   3.214   0.186   5.692 -1.0649  2.1253 -1.3258
 6942SOL    HW232460   3.093   0.252   5.727  0.1619 -0.8686 -0.7808
 6943SOL     OW32461   1.321   0.397  12.477 -0.3787 -1.2686 -0.3603
 6943SOL    HW132462   1.369   0.421  12.397  0.9046  1.3569  1.2020
 6943SOL    HW232463   1.393   0.373  12.535 -1.0358  2.3651  1.9118
 6944SOL     OW32464   0.157   4.476  17.629  0.4717  0.1351 -0.4665
 6944SOL    HW132465   0.206   4.395  17.615  1.0866  0.1958  1.3542
 6944SOL    HW232466   0.126   4.489  17.539  2.3569  0.1648 -1.1285
 6945SOL     OW32467   1.937   1.676   9.704 -0.4491 -0.3668 -0.1587
 6945SOL    HW132468   1.889   1.608   9.657 -0.7665 -0.9050  0.9352
 6945SOL    HW232469   1.931   1.751   9.645 -0.1772  1.5659  2.2589
 6946SOL     OW32470   0.803   3.733   6.472  0.1778  0.3669  0.3524
 6946SOL    HW132471   0.847   3.803   6.520 -0.3095  0.1595  1.1061
 6946SOL    HW232472   0.817   3.661   6.534  0.9650  1.2814  1.2478
 6947SOL     OW32473   1.986   1.428   7.601 -0.5867 -0.4633  0.2340
 6947SOL    HW132474   2.062   1.375   7.621 -0.0635  0.8608  1.7477
 6947SOL    HW232475   1.923   1.408   7.670 -0.8493 -0.5480 -0.0274
 6948SOL     OW32476   2.171   2.708   6.811  0.8371 -0.4042 -0.2901
 6948SOL    HW132477   2.267   2.715   6.816  0.7449  1.2007 -0.5226
 6948SOL    HW232478   2.157   2.759   6.731  1.2613 -1.9024 -1.3138
 6949SOL     OW32479   0.981   2.530   5.192  0.4328 -0.1063 -0.4478
 6949SOL    HW132480   0.915   2.552   5.257  1.6352 -0.4832  0.8972
 6949SOL    HW232481   1.047   2.497   5.253  0.9690 -0.4591 -1.2110
 6950SOL     OW32482   4.333   2.357   5.325 -0.2402 -0.1420 -0.0522
 6950SOL    HW132483   4.325   2.449   5.348  0.9093  0.2510 -1.1876
 6950SOL    HW232484   4.425   2.343   5.300  0.0663 -0.7196  1.4000
 6951SOL     OW32485   0.126   4.359   2.584 -0.2015 -0.4680  0.4638
 6951SOL    HW132486   0.210   4.317   2.602 -2.0797 -3.5326  2.0661
 6951SOL    HW232487   0.121   4.390   2.675  1.5404  0.7636  0.1442
 6952SOL     OW32488   0.970   3.217   8.751  0.1379  0.8306  0.2415
 6952SOL    HW132489   1.032   3.144   8.746  1.6429  2.2855 -1.9985
 6952SOL    HW232490   0.888   3.177   8.724  1.6078 -0.6983 -1.9559
 6953SOL     OW32491   0.033   1.191   1.701 -0.0036 -0.1509  0.5519
 6953SOL    HW132492   0.021   1.100   1.725  0.6945 -0.4468 -0.2380
 6953SOL    HW232493   0.024   1.195   1.606  0.4225 -1.6654  0.4474
 6954SOL     OW32494   1.491   3.920   7.231  0.5037 -0.6980 -0.0054
 6954SOL    HW132495   1.535   3.837   7.214 -0.9139 -0.9581 -2.4014
 6954SOL    HW232496   1.561   3.983   7.244  0.7679 -0.4706 -2.3953
 6955SOL     OW32497   0.554   3.097  12.925 -0.2348 -0.1667  0.4993
 6955SOL    HW132498   0.598   3.181  12.942 -0.9079  0.9769 -3.4049
 6955SOL    HW232499   0.632   3.042  12.917 -0.9717 -1.2143  0.5201
 6956SOL     OW32500   4.142   0.292   8.142  0.4742  0.0808  0.3744
 6956SOL    HW132501   4.073   0.321   8.202  0.2335  0.0133  0.1246
 6956SOL    HW232502   4.115   0.345   8.068 -0.1056 -0.0453  0.4949
 6957SOL     OW32503   0.740   2.293   5.491  0.0206  0.5131 -0.6805
 6957SOL    HW132504   0.762   2.231   5.422 -0.6520 -3.0332  2.2494
 6957SOL    HW232505   0.720   2.237   5.566  1.8147  1.2161  0.3356
 6958SOL     OW32506   0.137   3.550   2.927 -0.6921 -0.0352 -0.7795
 6958SOL    HW132507   0.143   3.457   2.906  0.7843  0.0459 -0.7303
 6958SOL    HW232508   0.227   3.575   2.948  0.4428 -2.6602 -2.6013
 6959SOL     OW32509   4.419   4.269   7.294 -0.6191  0.1355  0.4841
 6959SOL    HW132510   4.481   4.198   7.275 -1.2643 -0.5469  0.9006
 6959SOL    HW232511   4.478   4.319   7.350 -1.0414 -1.3413  2.2608
 6960SOL     OW32512   4.131   0.927   6.541  0.2992 -0.4088 -0.0986
 6960SOL    HW132513   4.149   0.964   6.455 -0.8772  1.5719  0.5071
 6960SOL    HW232514   4.187   0.979   6.599  1.2567 -2.1988  0.5719
 6961SOL     OW32515   0.740   0.605   7.428 -0.0409 -0.1009  0.2185
 6961SOL    HW132516   0.708   0.529   7.477 -0.6958  0.7628  1.1249
 6961SOL    HW232517   0.701   0.596   7.341 -0.1996  0.0491  0.2747
 6962SOL     OW32518   3.867   1.900   5.337 -0.0906  0.7555  0.2257
 6962SOL    HW132519   3.793   1.880   5.280  0.2706 -2.1780  0.7763
 6962SOL    HW232520   3.936   1.908   5.271  0.1483 -0.9711  0.2600
 6963SOL     OW32521   2.740   4.478   1.853 -0.3010  0.4886 -0.2313
 6963SOL    HW132522   2.814   4.537   1.865 -1.3301  1.6634  0.4123
 6963SOL    HW232523   2.768   4.431   1.775  1.7268  0.0664  0.7567
 6964SOL     OW32524   1.450   1.630   0.386 -0.0252 -0.1339 -0.1895
 6964SOL    HW132525   1.379   1.569   0.404  0.6427 -0.4170  1.4994
 6964SOL    HW232526   1.534   1.585   0.374  0.4472  0.8954 -0.7403
 6965SOL     OW32527   3.507   1.628  11.236  0.0439 -0.0453 -0.3501
 6965SOL    HW132528   3.597   1.629  11.204  0.4901  1.1084  0.9603
 6965SOL    HW232529   3.517   1.680  11.316 -0.4817 -0.6193  0.0916
 6966SOL     OW32530   1.032   2.384  10.050  0.0835 -0.0680  0.2158
 6966SOL    HW132531   1.088   2.456  10.021  0.3014 -0.1319  0.4752
 6966SOL    HW232532   1.092   2.357  10.119  1.0596  0.4527 -0.4337
 6967SOL     OW32533   2.369   3.161   2.563  0.5173  0.1574  0.2552
 6967SOL    HW132534   2.324   3.105   2.499 -2.3176  3.3008 -0.5159
 6967SOL    HW232535   2.452   3.114   2.571 -0.1250 -0.9786  0.2373
 6968SOL     OW32536   3.873   4.542  16.068  0.4258  0.3871  0.1776
 6968SOL    HW132537   3.920   4.581  16.142  1.1283  2.2706 -1.2840
 6968SOL    HW232538   3.873   4.455  16.108  3.3097  0.3330  0.0591
 6969SOL     OW32539   4.049   1.843  12.106 -0.5773 -0.1986  0.4674
 6969SOL    HW132540   3.962   1.881  12.119 -0.0479  0.6586  1.5006
 6969SOL    HW232541   4.073   1.818  12.195 -0.8271  1.4216  1.0061
 6970SOL     OW32542   4.591   3.250   3.648 -0.5155 -0.1505 -0.2717
 6970SOL    HW132543   4.609   3.172   3.700  2.2900  0.6154 -0.0973
 6970SOL    HW232544   4.608   3.329   3.699  1.0045  0.2088 -1.3285
 6971SOL     OW32545   4.152   1.592   6.576 -0.1214  0.1162 -0.5240
 6971SOL    HW132546   4.094   1.598   6.501 -1.0951  3.6977  0.5292
 6971SOL    HW232547   4.174   1.680   6.607  1.0108 -0.4539  0.3242
 6972SOL     OW32548   1.169   0.600   4.942  0.3354  0.1154  0.1540
 6972SOL    HW132549   1.117   0.679   4.923 -1.6993 -0.8286  1.8347
 6972SOL    HW232550   1.235   0.609   4.873  1.7381  0.1498  1.5115
 6973SOL     OW32551   3.944   2.476   5.471  0.6104  0.3482  0.0412
 6973SOL    HW132552   3.911   2.489   5.383  1.8925  0.1712 -0.4659
 6973SOL    HW232553   4.013   2.410   5.462  2.2170  1.7438  2.2672
 6974SOL     OW32554   0.759   1.834  11.541  0.0527 -0.1883  0.3902
 6974SOL    HW132555   0.770   1.801  11.452 -0.9265 -0.2699  0.2966
 6974SOL    HW232556   0.674   1.878  11.533  0.3246 -0.0801 -1.7559
 6975SOL     OW32557   0.192   2.392   2.802  0.5486 -0.5304 -0.4876
 6975SOL    HW132558   0.226   2.454   2.738  1.9455 -2.0938 -1.2774
 6975SOL    HW232559   0.113   2.442   2.823  0.0142 -2.1953  1.4802
 6976SOL     OW32560   2.517   2.050  11.979 -0.3162 -0.0940  0.6467
 6976SOL    HW132561   2.580   2.105  12.026 -0.4123  0.5671  0.0009
 6976SOL    HW232562   2.456   2.023  12.048  1.0074 -1.2160  1.3727
 6977SOL     OW32563   0.090   1.728   0.693  0.0194 -0.1410 -0.1789
 6977SOL    HW132564   0.097   1.735   0.598  0.7396 -2.1518 -0.2727
 6977SOL    HW232565   0.182   1.737   0.718 -0.0269  0.6360 -0.2893
 6978SOL     OW32566   4.461   0.617   3.875  0.1602  0.3952 -0.1284
 6978SOL    HW132567   4.435   0.545   3.932 -0.7240  1.8286  1.2910
 6978SOL    HW232568   4.438   0.705   3.906 -1.2468  0.7900 -2.3400
 6979SOL     OW32569   3.926   0.358   4.409 -0.1171  0.4511  0.1553
 6979SOL    HW132570   3.973   0.338   4.328 -3.0285  2.1191 -1.9706
 6979SOL    HW232571   3.896   0.448   4.395 -0.6620 -0.3470 -3.8068
 6980SOL     OW32572   1.904   3.026   6.479  0.3464  0.8433 -0.2116
 6980SOL    HW132573   1.926   3.117   6.501 -1.3648  1.1100  0.4099
 6980SOL    HW232574   1.969   2.987   6.537 -0.5214 -1.3806 -0.7545
 6981SOL     OW32575   3.884   4.203   4.208 -0.5257  0.3703 -0.1228
 6981SOL    HW132576   3.825   4.137   4.244  0.6327  0.2276  1.4756
 6981SOL    HW232577   3.933   4.159   4.139 -1.6178 -1.2762  0.1636
 6982SOL     OW32578   1.045   2.758   2.872  0.1013 -0.1930  0.2574
 6982SOL    HW132579   0.950   2.750   2.880  0.3905 -1.9933  1.9022
 6982SOL    HW232580   1.056   2.818   2.945  2.2557 -0.2584 -0.0022
 6983SOL     OW32581   1.561   0.302   3.732 -0.2408  0.6080  0.1876
 6983SOL    HW132582   1.599   0.279   3.647 -0.2424  0.3947  0.2470
 6983SOL    HW232583   1.547   0.214   3.764  1.5937 -0.0684 -0.8930
 6984SOL     OW32584   0.533   2.963   5.914 -0.3565  0.4767  0.3214
 6984SOL    HW132585   0.515   3.010   5.833 -1.3814 -0.3040  0.0958
 6984SOL    HW232586   0.485   3.012   5.981  1.1453  1.6042  0.5882
 6985SOL     OW32587   2.396   1.727   8.232  0.4427  0.2862 -0.5068
 6985SOL    HW132588   2.434   1.641   8.211  0.0808  0.3956 -1.5988
 6985SOL    HW232589   2.391   1.718   8.327  1.6000 -0.2702 -0.4925
 6986SOL     OW32590   1.861   1.763  12.722 -0.2227 -0.2231 -0.5827
 6986SOL    HW132591   1.817   1.714  12.791 -0.1008  2.1211  1.1599
 6986SOL    HW232592   1.835   1.852  12.745 -0.2213  0.1514 -1.9985
 6987SOL     OW32593   1.800   0.304  11.540  0.4565  0.0547 -0.0163
 6987SOL    HW132594   1.732   0.370  11.549  1.2572  0.8071  0.4701
 6987SOL    HW232595   1.768   0.246  11.609  1.9754  0.7490  1.2767
 6988SOL     OW32596   4.434   0.557   0.805 -0.1084 -0.4129  0.0858
 6988SOL    HW132597   4.510   0.569   0.747  0.7090  0.6439  1.3788
 6988SOL    HW232598   4.371   0.499   0.762  1.0547 -2.0002  0.5336
 6989SOL     OW32599   3.821   1.694   3.675  0.2383 -0.0961  0.2206
 6989SOL    HW132600   3.828   1.772   3.619 -1.3083  1.5871  2.3546
 6989SOL    HW232601   3.819   1.620   3.615  1.8996  0.5051 -0.6002
 6990SOL     OW32602   2.024   1.193   6.564 -0.0965  0.0793  0.2374
 6990SOL    HW132603   1.955   1.181   6.499 -1.0579  0.3557  1.1903
 6990SOL    HW232604   1.986   1.139   6.633 -1.8796 -0.6963 -1.3754
 6991SOL     OW32605   3.711   0.615   5.950  0.1710  0.4521 -0.1171
 6991SOL    HW132606   3.633   0.633   5.899  0.0903  1.5045  0.3788
 6991SOL    HW232607   3.765   0.553   5.900 -2.7220 -3.2322  1.3225
 6992SOL     OW32608   0.305   2.418  11.264 -0.2494  0.2355 -0.0912
 6992SOL    HW132609   0.386   2.412  11.314 -1.3484  0.1385  1.6612
 6992SOL    HW232610   0.259   2.493  11.300 -1.2055 -0.1822 -0.4447
 6993SOL     OW32611   2.094   2.305   4.939  0.6167 -0.8002  0.2531
 6993SOL    HW132612   2.084   2.394   4.972 -0.2196 -0.8538  0.1527
 6993SOL    HW232613   2.146   2.268   5.010  0.3271  0.2611  1.0235
 6994SOL     OW32614   1.762   1.662  12.964 -0.2439 -0.5901  0.6267
 6994SOL    HW132615   1.799   1.633  13.047 -0.7912  1.4697  1.5950
 6994SOL    HW232616   1.734   1.752  12.984  1.1275 -0.1363  0.5078
 6995SOL     OW32617   3.266   0.732   8.556 -0.1681 -0.4788  0.1229
 6995SOL    HW132618   3.324   0.675   8.605 -0.3371 -1.9786 -1.4269
 6995SOL    HW232619   3.256   0.791   8.631 -1.6304  0.1555 -0.5698
 6996SOL     OW32620   3.198   1.520  16.245 -0.2791 -0.2426  0.7039
 6996SOL    HW132621   3.168   1.452  16.185 -1.3779  1.4853 -0.7248
 6996SOL    HW232622   3.287   1.541  16.216  0.5187 -1.7275  2.1063
 6997SOL     OW32623   1.675   0.694   4.344 -0.0154 -0.6721  0.5797
 6997SOL    HW132624   1.761   0.723   4.375 -1.4075  2.7111  1.2830
 6997SOL    HW232625   1.627   0.662   4.420 -0.0399 -0.5755  0.6055
 6998SOL     OW32626   1.723   2.592   9.663 -0.2117 -0.4908 -0.6165
 6998SOL    HW132627   1.745   2.608   9.571  1.8335  2.6655  0.4038
 6998SOL    HW232628   1.695   2.681   9.687  1.4318 -0.2684  0.4609
 6999SOL     OW32629   1.152   2.026   9.297  0.3940 -0.3179  0.0640
 6999SOL    HW132630   1.123   2.033   9.388  1.9099 -1.1741  0.6111
 6999SOL    HW232631   1.072   2.014   9.246  0.4073  0.5482 -0.1620
 7000SOL     OW32632   4.568   4.048  11.645  0.1832  0.7690  0.3460
 7000SOL    HW132633   4.526   4.083  11.723  0.8270  0.9249  0.6260
 7000SOL    HW232634   4.554   4.120  11.585  0.3570 -0.2310 -0.8943
 7001SOL     OW32635   3.019   0.299  11.704 -0.4315 -0.1159  0.4482
 7001SOL    HW132636   2.946   0.339  11.657  1.5359  0.9072 -1.7215
 7001SOL    HW232637   2.971   0.227  11.746 -1.2417  0.2913  0.2145
 7002SOL     OW32638   0.612   1.042   5.091  0.0166 -0.0422 -0.8107
 7002SOL    HW132639   0.578   1.052   5.180 -0.2496  1.3333 -1.0727
 7002SOL    HW232640   0.613   1.134   5.064  0.8123  0.3710  0.6153
 7003SOL     OW32641   2.605   4.303   1.490  0.4355 -0.5343 -0.4370
 7003SOL    HW132642   2.605   4.326   1.397  0.8302 -0.1545 -0.3490
 7003SOL    HW232643   2.565   4.384   1.522 -1.0195 -0.9835 -1.1097
 7004SOL     OW32644   4.620   1.047   7.645  0.0686 -0.5277 -0.2324
 7004SOL    HW132645   4.632   0.961   7.685  2.3119  0.3368  0.9216
 7004SOL    HW232646   4.621   1.105   7.721  0.1163  0.2677 -0.8338
 7005SOL     OW32647   0.934   2.238   7.972  0.0957 -0.4113  0.4172
 7005SOL    HW132648   1.007   2.291   7.940 -0.2906  0.8527  1.6106
 7005SOL    HW232649   0.885   2.306   8.019  0.1297  0.0506 -0.2180
 7006SOL     OW32650   0.472   0.925   6.090 -0.8726  0.3013  0.2500
 7006SOL    HW132651   0.462   0.973   6.172  0.0568 -1.1547  1.2135
 7006SOL    HW232652   0.489   0.996   6.028  0.5164  1.5166  2.0302
 7007SOL     OW32653   2.858   3.824  12.240  0.4114 -0.2668 -0.4540
 7007SOL    HW132654   2.823   3.751  12.191 -0.5983  0.5005 -0.8768
 7007SOL    HW232655   2.808   3.904  12.223  2.2318  0.3030 -3.0881
 7008SOL     OW32656   3.346   3.090   1.182 -0.4784 -0.0937 -0.5071
 7008SOL    HW132657   3.376   3.018   1.126 -0.7737 -0.8745  0.3345
 7008SOL    HW232658   3.404   3.078   1.258 -1.8307 -1.3420  0.3335
 7009SOL     OW32659   4.449   0.086   5.252  0.2036  0.2360  0.8992
 7009SOL    HW132660   4.533   0.074   5.295 -1.1268 -0.0209  3.3875
 7009SOL    HW232661   4.393   0.102   5.328 -1.7197  2.5807 -0.9873
 7010SOL     OW32662   0.263   1.643   3.266  0.0984 -0.3318 -0.1463
 7010SOL    HW132663   0.314   1.676   3.339  0.2885 -1.4403  0.2111
 7010SOL    HW232664   0.244   1.553   3.293 -1.4052 -0.1648 -0.6073
 7011SOL     OW32665   2.601   1.760  11.188 -0.2574 -0.5019 -0.3786
 7011SOL    HW132666   2.597   1.854  11.203  0.4645 -0.1192 -2.5877
 7011SOL    HW232667   2.525   1.740  11.133 -1.6179 -2.3239  2.1472
 7012SOL     OW32668   1.019   4.172   9.764 -0.1266  0.1380 -0.0307
 7012SOL    HW132669   0.939   4.170   9.711 -0.7639 -0.0194  0.9164
 7012SOL    HW232670   0.977   4.148   9.847 -1.4098  1.8896 -0.1774
 7013SOL     OW32671   0.524   3.700   9.981  0.0455  0.4074  0.5957
 7013SOL    HW132672   0.580   3.749   9.920  0.7150 -1.3837 -0.2180
 7013SOL    HW232673   0.485   3.642   9.916  3.2611 -0.3948 -0.6062
 7014SOL     OW32674   3.821   4.161   7.041  0.4046  0.3007  0.0870
 7014SOL    HW132675   3.912   4.182   7.021  0.9383 -1.3449  0.8557
 7014SOL    HW232676   3.827   4.160   7.136 -1.5360 -0.2875  0.2142
 7015SOL     OW32677   4.087   2.814   8.283  0.3396  0.0056 -0.4892
 7015SOL    HW132678   3.992   2.817   8.293  0.2517  0.6981 -1.5303
 7015SOL    HW232679   4.098   2.783   8.193  1.1051 -0.3544 -0.2710
 7016SOL     OW32680   2.324   2.772   1.569  0.5362  0.0665 -0.6531
 7016SOL    HW132681   2.399   2.717   1.550 -0.0378 -0.9821  0.1048
 7016SOL    HW232682   2.354   2.848   1.520  1.5075  0.9720  1.3506
 7017SOL     OW32683   4.477   2.458  10.417  0.0913  0.3980  0.5569
 7017SOL    HW132684   4.385   2.432  10.406  0.2757 -1.0208  2.3075
 7017SOL    HW232685   4.467   2.454  10.513  0.7908 -1.9078  0.5375
 7018SOL     OW32686   2.339   0.829  16.800  0.3659 -0.3358 -0.7013
 7018SOL    HW132687   2.339   0.735  16.782  1.2814 -0.7294  1.3963
 7018SOL    HW232688   2.430   0.844  16.825 -0.2577  0.6527  0.9660
 7019SOL     OW32689   4.033   2.828  16.155 -0.2170 -0.2310 -0.1080
 7019SOL    HW132690   4.121   2.862  16.175 -0.7293  1.9304 -1.5063
 7019SOL    HW232691   4.014   2.873  16.073  0.9000  2.7619  1.2876
 7020SOL     OW32692   3.513   2.377   6.890 -0.2755 -0.0091 -0.4216
 7020SOL    HW132693   3.449   2.312   6.918  0.1072 -0.9874 -1.8221
 7020SOL    HW232694   3.575   2.322   6.843 -0.8230  1.3591 -2.7432
 7021SOL     OW32695   0.980   0.828   2.342  0.6932 -0.0921 -0.2251
 7021SOL    HW132696   1.045   0.792   2.282  2.5325 -1.3934  2.5164
 7021SOL    HW232697   1.004   0.920   2.344  0.7092 -0.1272  1.0883
 7022SOL     OW32698   2.382   2.875   3.857  0.0138 -0.1303 -0.5485
 7022SOL    HW132699   2.451   2.809   3.865 -0.0731  0.2579  3.1248
 7022SOL    HW232700   2.400   2.911   3.770 -1.2560  0.3810 -0.6078
 7023SOL     OW32701   2.117   3.576  16.827 -0.3791 -0.3216  0.0305
 7023SOL    HW132702   2.025   3.549  16.822 -0.5794  0.3047  0.2206
 7023SOL    HW232703   2.116   3.664  16.790  0.5797  0.2026  1.2384
 7024SOL     OW32704   4.622   1.237   3.977 -0.1833 -0.0628 -0.1839
 7024SOL    HW132705   4.594   1.216   3.888 -0.6831  1.7082 -0.4445
 7024SOL    HW232706   4.672   1.165   4.015 -0.3588 -0.9277 -1.5958
 7025SOL     OW32707   0.029   3.160   7.935  0.5547  0.5091 -0.2294
 7025SOL    HW132708   4.687   3.192   7.974 -0.3888  1.0456 -2.6056
 7025SOL    HW232709   0.090   3.213   7.986  0.3230 -0.3451  0.9247
 7026SOL     OW32710   4.095   2.951   2.806  0.1853 -0.3862 -0.2940
 7026SOL    HW132711   4.178   2.916   2.837 -0.1342 -0.7081  0.1986
 7026SOL    HW232712   4.121   3.035   2.769  2.0617 -1.1987 -0.8120
 7027SOL     OW32713   0.731   1.249  13.897  0.6986 -0.5480  0.1665
 7027SOL    HW132714   0.686   1.332  13.882  0.4976 -0.6929 -0.0307
 7027SOL    HW232715   0.688   1.194  13.832 -0.1768  1.9216 -1.3314
 7028SOL     OW32716   3.202   2.682   3.943  0.2820 -0.4614 -0.5536
 7028SOL    HW132717   3.280   2.706   3.892 -0.3564 -1.5000 -2.0290
 7028SOL    HW232718   3.218   2.711   4.033  0.9891 -1.7737 -0.2704
 7029SOL     OW32719   0.123   3.257   9.737 -0.1543 -0.4138 -0.3203
 7029SOL    HW132720   0.150   3.176   9.694 -0.1979 -1.7474  2.0979
 7029SOL    HW232721   0.130   3.317   9.664 -1.5830  0.6543  0.4253
 7030SOL     OW32722   2.174   4.471   1.504 -0.5243  0.0422 -0.2785
 7030SOL    HW132723   2.205   4.453   1.593  0.1978 -0.5714 -0.6593
 7030SOL    HW232724   2.082   4.473   1.530 -0.8511 -0.1906 -1.4241
 7031SOL     OW32725   3.749   1.772   6.627  0.2215 -0.1263  0.4861
 7031SOL    HW132726   3.781   1.780   6.537 -1.6316 -0.7679 -0.2167
 7031SOL    HW232727   3.655   1.782   6.612  0.1115 -0.4795  0.9350
 7032SOL     OW32728   1.300   2.077   3.126 -0.3260 -0.0595 -0.2548
 7032SOL    HW132729   1.228   2.018   3.147 -0.1003 -0.2149  0.0710
 7032SOL    HW232730   1.250   2.159   3.131  1.4045  0.8908  1.3138
 7033SOL     OW32731   0.650   1.368   4.866 -0.2982 -0.2166 -0.4638
 7033SOL    HW132732   0.608   1.289   4.832 -0.3727  0.8605 -2.8329
 7033SOL    HW232733   0.717   1.388   4.800  0.1692 -1.8422 -0.4769
 7034SOL     OW32734   0.613   0.449   6.138  0.4680 -0.4734 -0.0789
 7034SOL    HW132735   0.607   0.433   6.232  1.8279 -3.2678 -0.4518
 7034SOL    HW232736   0.540   0.509   6.129  1.0531  0.1052 -0.9911
 7035SOL     OW32737   2.380   3.198   3.253  0.0717 -0.0985  0.2635
 7035SOL    HW132738   2.347   3.115   3.219 -2.3658  0.1828  1.9251
 7035SOL    HW232739   2.473   3.177   3.259  0.3055  0.9295  0.1995
 7036SOL     OW32740   3.897   3.209   2.550 -0.2053  0.2452  0.0789
 7036SOL    HW132741   3.839   3.224   2.624 -0.2058 -1.4750  0.4178
 7036SOL    HW232742   3.834   3.155   2.502 -1.3683  0.8223  0.9583
 7037SOL     OW32743   4.672   0.059  10.290 -0.3163 -0.2313 -0.2281
 7037SOL    HW132744   4.594   0.110  10.269 -0.0951 -0.1910 -0.9555
 7037SOL    HW232745   4.635   4.711  10.279 -1.8239  0.0712  2.3852
 7038SOL     OW32746   2.057   4.250   5.564 -0.5989  0.1479  0.1875
 7038SOL    HW132747   1.967   4.232   5.539 -1.0502 -0.3867  2.1980
 7038SOL    HW232748   2.089   4.162   5.586 -0.0910 -0.3168 -2.3316
 7039SOL     OW32749   3.860   3.185   4.106 -0.3688  0.2207  0.9856
 7039SOL    HW132750   3.935   3.197   4.048 -0.2122 -1.5631  0.8199
 7039SOL    HW232751   3.796   3.236   4.057  0.9999 -0.5389 -1.6186
 7040SOL     OW32752   1.526   0.067   3.887 -0.3927  0.4174  0.0231
 7040SOL    HW132753   1.501   4.731   3.940  0.1544  0.4657  0.3520
 7040SOL    HW232754   1.510   0.127   3.959  0.3924 -1.1398  1.4977
 7041SOL     OW32755   4.037   4.430  13.437  0.6854  0.3915 -0.8856
 7041SOL    HW132756   4.097   4.358  13.419  0.7819  0.1872  0.2511
 7041SOL    HW232757   4.001   4.456  13.352  1.6597  3.4366 -0.3743
 7042SOL     OW32758   1.979   3.008   6.199 -0.2348  0.4920 -0.1426
 7042SOL    HW132759   1.964   2.981   6.289  0.1983 -1.4166 -0.6484
 7042SOL    HW232760   2.039   2.940   6.168  0.0736 -0.4813  2.6501
 7043SOL     OW32761   3.542   1.314   8.509  0.0240  0.4588  0.3017
 7043SOL    HW132762   3.554   1.219   8.514  0.1360  0.4128 -1.0309
 7043SOL    HW232763   3.447   1.324   8.521 -0.2785  1.5237 -3.0635
 7044SOL     OW32764   1.988   3.888   5.055  0.2347 -0.7295  0.2118
 7044SOL    HW132765   2.007   3.933   5.137 -0.3073  1.6687 -1.0001
 7044SOL    HW232766   2.073   3.910   5.018  1.0109 -0.9337  1.8409
 7045SOL     OW32767   1.318   2.076   7.285  0.0530  0.1993  0.1866
 7045SOL    HW132768   1.234   2.029   7.287 -0.4818  1.0977 -0.8023
 7045SOL    HW232769   1.381   2.008   7.264 -0.9388 -0.5076 -0.5271
 7046SOL     OW32770   0.007   0.632   7.000 -0.0689 -0.6303  0.2182
 7046SOL    HW132771   4.687   0.708   7.004 -0.7558 -1.2160  1.0809
 7046SOL    HW232772   0.045   0.631   6.912 -1.8214  3.2370 -0.5904
 7047SOL     OW32773   4.471   1.411   9.082  0.0431  0.1345 -0.5304
 7047SOL    HW132774   4.553   1.442   9.121 -1.1484  2.0331  0.4733
 7047SOL    HW232775   4.443   1.354   9.154  2.2700 -2.6297 -1.8777
 7048SOL     OW32776   4.605   0.043   2.495  0.4441 -0.2956 -0.1809
 7048SOL    HW132777   4.643   0.101   2.560 -0.0433  0.0245 -0.1811
 7048SOL    HW232778   4.688   0.007   2.466  0.2931 -0.1017 -0.8475
 7049SOL     OW32779   0.721   2.113   5.281  0.2242  0.0651 -0.1316
 7049SOL    HW132780   0.676   2.062   5.214  1.2541  0.6668 -1.2846
 7049SOL    HW232781   0.808   2.077   5.268 -0.4793 -1.8298  0.3386
 7050SOL     OW32782   0.716   0.302  10.905 -0.1625 -0.5135  0.0598
 7050SOL    HW132783   0.770   0.323  10.981  0.1408  1.4656 -0.7071
 7050SOL    HW232784   0.777   0.253  10.849 -0.4380 -2.6002  1.5830
 7051SOL     OW32785   4.389   0.510  15.836  0.3319 -0.4343  0.0733
 7051SOL    HW132786   4.396   0.518  15.741  1.3193 -1.2082  0.0768
 7051SOL    HW232787   4.482   0.492  15.852  0.4119 -0.6713 -0.6656
 7052SOL     OW32788   3.474   0.544   2.119  0.3496 -0.1618  0.2712
 7052SOL    HW132789   3.406   0.584   2.172  1.7823 -0.0014  1.9930
 7052SOL    HW232790   3.536   0.518   2.188  0.5155  0.3172  0.3014
 7053SOL     OW32791   2.953   1.512   0.391 -0.5319  0.6349 -0.3887
 7053SOL    HW132792   3.013   1.448   0.354  0.8855  2.5926 -1.4785
 7053SOL    HW232793   2.882   1.506   0.328 -1.8551 -1.4225  1.2887
 7054SOL     OW32794   2.011   3.935  11.802  0.1324 -0.6700  0.8280
 7054SOL    HW132795   2.067   3.928  11.725 -1.0459 -1.4062  0.0271
 7054SOL    HW232796   1.927   3.956  11.761 -0.3613 -1.0893  1.6284
 7055SOL     OW32797   4.057   4.351  15.595  0.7365 -0.6099 -0.3522
 7055SOL    HW132798   4.120   4.279  15.592 -0.1042 -1.4414  1.6742
 7055SOL    HW232799   4.121   4.414  15.628 -0.6616  0.1445  0.9251
 7056SOL     OW32800   1.664   1.274  17.206  0.0738 -0.1196 -0.6731
 7056SOL    HW132801   1.758   1.291  17.216 -0.0010 -0.1665  0.1112
 7056SOL    HW232802   1.641   1.366  17.216 -3.4311 -1.0146 -0.5600
 7057SOL     OW32803   2.496   3.433   8.302  0.2320  0.1244  0.3397
 7057SOL    HW132804   2.425   3.478   8.257  0.1872 -2.7104 -2.4478
 7057SOL    HW232805   2.486   3.459   8.393 -2.4422  0.9694 -0.1927
 7058SOL     OW32806   0.271   4.163   3.874  0.1877 -0.0699  0.4905
 7058SOL    HW132807   0.326   4.240   3.863 -0.5388  0.6672  2.0299
 7058SOL    HW232808   0.301   4.126   3.957  0.9098  0.9059  0.6566
 7059SOL     OW32809   4.536   0.325   5.163  0.1622 -0.0861 -0.1354
 7059SOL    HW132810   4.487   0.251   5.200 -0.6067 -0.6089 -2.1890
 7059SOL    HW232811   4.472   0.396   5.169  0.3578  0.0093  0.7905
 7060SOL     OW32812   2.340   2.897   6.604 -0.4156  0.0750  0.2271
 7060SOL    HW132813   2.253   2.874   6.573 -0.1594  1.7112 -1.7358
 7060SOL    HW232814   2.387   2.918   6.523  1.8229 -0.4616  1.3705
 7061SOL     OW32815   1.905   0.747  14.637 -0.8190 -0.7655  0.2882
 7061SOL    HW132816   1.880   0.714  14.723  0.8304 -0.9202  0.7006
 7061SOL    HW232817   1.882   0.667  14.590 -1.8305 -1.6752  2.3174
 7062SOL     OW32818   3.926   1.217   3.955 -0.0727  0.1887  0.1177
 7062SOL    HW132819   3.888   1.174   3.879 -2.0110 -0.3496  1.3697
 7062SOL    HW232820   3.928   1.151   4.025  1.4946 -0.2037 -0.2977
 7063SOL     OW32821   2.251   1.591  13.131  0.7517 -0.2260 -0.2675
 7063SOL    HW132822   2.178   1.632  13.085  0.6045 -0.7673 -0.5258
 7063SOL    HW232823   2.319   1.602  13.065  0.3070 -0.3501 -0.7524
 7064SOL     OW32824   3.124   0.647   1.997 -0.2601  0.0081  0.0151
 7064SOL    HW132825   3.135   0.728   2.047  3.0635  0.3831 -1.3891
 7064SOL    HW232826   3.031   0.655   1.975 -0.1299  2.2046  0.2285
 7065SOL     OW32827   2.135   0.421   7.138 -0.2344  0.3277  0.2142
 7065SOL    HW132828   2.116   0.506   7.096 -1.5570 -1.5560 -3.0079
 7065SOL    HW232829   2.087   0.426   7.220 -0.3875 -1.1258  0.1993
 7066SOL     OW32830   0.091   4.437  16.738  0.2721 -0.0070  0.4189
 7066SOL    HW132831   0.023   4.369  16.742  0.8148 -0.7729 -3.2130
 7066SOL    HW232832   0.134   4.412  16.657  0.2764 -1.2371  0.8081
 7067SOL     OW32833   2.898   1.203   9.862  0.3495  0.1340 -0.2425
 7067SOL    HW132834   2.807   1.189   9.835  1.2874 -2.8244 -1.8023
 7067SOL    HW232835   2.940   1.119   9.848 -2.5164 -1.4769  0.9034
 7068SOL     OW32836   0.528   0.195  11.097  0.3300 -0.5233  0.0581
 7068SOL    HW132837   0.445   0.242  11.091  0.5352 -0.4150 -1.9251
 7068SOL    HW232838   0.584   0.254  11.047  0.8215 -0.4264  0.7132
 7069SOL     OW32839   2.378   0.450   6.507  0.1895  0.1979 -0.4447
 7069SOL    HW132840   2.430   0.482   6.580  1.4922 -1.2520 -0.7280
 7069SOL    HW232841   2.288   0.434   6.536  1.5048 -3.1309  1.7905
 7070SOL     OW32842   4.485   2.579   1.564 -0.3679 -0.0131  0.0948
 7070SOL    HW132843   4.453   2.490   1.578  0.5789 -0.4360 -0.4691
 7070SOL    HW232844   4.441   2.623   1.637 -3.5474 -1.0580 -1.2053
 7071SOL     OW32845   0.713   1.534  12.339 -0.1133  0.2583  0.4605
 7071SOL    HW132846   0.647   1.592  12.377 -0.6550  1.3073 -2.0933
 7071SOL    HW232847   0.741   1.502  12.425  1.1604 -1.4342 -0.5861
 7072SOL     OW32848   3.937   0.210  14.266 -0.0318  0.8070  0.2842
 7072SOL    HW132849   3.967   0.274  14.331 -0.4929  1.7625 -0.4354
 7072SOL    HW232850   4.020   0.168  14.244 -1.6330 -1.2004 -1.9264
 7073SOL     OW32851   0.746   1.136   5.718 -0.2899  0.2982 -0.1732
 7073SOL    HW132852   0.823   1.143   5.661 -0.9564  2.4655 -0.7812
 7073SOL    HW232853   0.690   1.197   5.671  1.2985  1.0642 -1.0849
 7074SOL     OW32854   4.225   2.986   6.480 -0.0024  0.0873 -0.6910
 7074SOL    HW132855   4.254   3.035   6.557 -2.4705 -1.4370  1.1993
 7074SOL    HW232856   4.151   2.932   6.508  0.4209 -0.1443 -0.0119
 7075SOL     OW32857   1.114   2.326   4.060  0.0767  0.4919 -0.4697
 7075SOL    HW132858   1.108   2.239   4.019 -1.2082  1.2260 -1.8814
 7075SOL    HW232859   1.110   2.293   4.149 -1.6982  0.2384 -0.6411
 7076SOL     OW32860   1.692   4.606   6.351 -0.4336  0.1666 -0.0416
 7076SOL    HW132861   1.608   4.593   6.395  0.7733 -1.6879  1.7587
 7076SOL    HW232862   1.745   4.621   6.429 -0.4878  1.6429 -0.2995
 7077SOL     OW32863   1.668   3.703   9.466  0.6787  0.1490 -0.5057
 7077SOL    HW132864   1.718   3.763   9.411  0.0337  1.7740  0.6798
 7077SOL    HW232865   1.614   3.759   9.521 -0.4951  0.2414 -1.7491
 7078SOL     OW32866   0.174   4.496   6.475  0.2268  0.3365 -0.7009
 7078SOL    HW132867   0.166   4.569   6.413 -0.1668 -0.2210 -1.2979
 7078SOL    HW232868   0.270   4.486   6.477  0.0161 -1.4481  0.2228
 7079SOL     OW32869   0.248   3.119   9.342  0.1743 -0.6445 -0.2824
 7079SOL    HW132870   0.231   3.111   9.436 -0.7833 -0.7666 -0.4594
 7079SOL    HW232871   0.218   3.210   9.337  1.1390 -0.4516 -2.3851
 7080SOL     OW32872   1.541   0.865  15.973  0.5398 -0.1592 -0.0226
 7080SOL    HW132873   1.527   0.865  16.067 -1.6987  1.1979 -0.3492
 7080SOL    HW232874   1.467   0.810  15.947  0.2391  1.1661 -2.0213
 7081SOL     OW32875   0.616   0.496   0.454 -0.5117 -0.4571 -0.1140
 7081SOL    HW132876   0.599   0.555   0.380 -0.9248 -1.7296 -1.0444
 7081SOL    HW232877   0.670   0.433   0.407 -2.2425 -2.0627  0.0394
 7082SOL     OW32878   3.192   0.544   5.107 -1.0288  0.0793  0.1372
 7082SOL    HW132879   3.154   0.556   5.020  0.3491 -0.6992 -0.5659
 7082SOL    HW232880   3.151   0.618   5.152 -1.0155  0.9006 -1.2114
 7083SOL     OW32881   2.040   0.775   9.776  0.1873  0.4127 -0.2630
 7083SOL    HW132882   2.074   0.770   9.866  1.8561 -0.8363 -0.9702
 7083SOL    HW232883   2.044   0.684   9.747  2.8817 -0.1168  1.7079
 7084SOL     OW32884   4.031   3.233   5.140  0.0854 -0.0503  0.3525
 7084SOL    HW132885   3.943   3.193   5.145 -0.4243  0.7144 -2.5271
 7084SOL    HW232886   4.069   3.194   5.219 -2.1677  1.2761  2.1029
 7085SOL     OW32887   4.214   1.510  12.763 -0.2929 -0.7675  0.1965
 7085SOL    HW132888   4.243   1.529  12.674 -0.4034  0.2101  0.3703
 7085SOL    HW232889   4.267   1.578  12.805  0.3560 -1.3851  0.3935
 7086SOL     OW32890   2.710   4.308   8.096  0.1467 -0.2004  0.2076
 7086SOL    HW132891   2.646   4.359   8.145 -0.1240 -2.5697  2.3124
 7086SOL    HW232892   2.764   4.379   8.060  1.4008 -0.9564  0.6022
 7087SOL     OW32893   3.003   4.123  17.464  0.3638  0.5569 -0.1934
 7087SOL    HW132894   2.994   4.102  17.557  0.4334  0.5613 -0.1859
 7087SOL    HW232895   3.094   4.099  17.448  0.8271  2.3401 -0.2230
 7088SOL     OW32896   0.338   2.939  12.957  0.8772 -0.0778  0.4275
 7088SOL    HW132897   0.289   2.999  13.013 -1.3410  1.6899 -3.4005
 7088SOL    HW232898   0.423   2.982  12.947  2.6859 -4.0296 -1.5176
 7089SOL     OW32899   0.556   3.600   3.954  0.0814  0.7599 -0.4172
 7089SOL    HW132900   0.571   3.692   3.929 -0.6856  0.9563 -0.1354
 7089SOL    HW232901   0.485   3.581   3.893 -0.2607  2.5098 -0.5790
 7090SOL     OW32902   0.771   0.003   9.178 -0.1772 -0.0213 -0.0467
 7090SOL    HW132903   0.770   4.647   9.179  1.4024 -0.0536 -1.6644
 7090SOL    HW232904   0.682   0.013   9.142 -0.5586 -1.5131  0.5112
 7091SOL     OW32905   1.724   0.490   9.559 -0.1061  0.0050  0.2180
 7091SOL    HW132906   1.768   0.499   9.475  2.1263 -0.6580  1.3236
 7091SOL    HW232907   1.677   0.409   9.539  1.0486 -0.1194 -1.9384
 7092SOL     OW32908   0.395   2.322   4.077  0.1252 -0.0125 -0.0708
 7092SOL    HW132909   0.441   2.387   4.130 -0.8960  0.7143 -0.0798
 7092SOL    HW232910   0.439   2.348   3.996 -0.8426  0.6550 -0.3878
 7093SOL     OW32911   0.914   4.379   7.473  0.2762 -0.4031  0.4289
 7093SOL    HW132912   0.870   4.327   7.406 -0.8125  0.5893  0.3827
 7093SOL    HW232913   0.985   4.319   7.495  2.0005  1.1822 -0.7982
 7094SOL     OW32914   2.253   2.408   5.583 -0.2485  0.1015 -1.5088
 7094SOL    HW132915   2.270   2.381   5.492 -0.1044 -0.9656 -1.1589
 7094SOL    HW232916   2.264   2.503   5.582 -1.5292  0.2744  1.1926
 7095SOL     OW32917   3.829   0.042   5.974 -0.6150 -0.5275  0.1519
 7095SOL    HW132918   3.763   0.102   5.940 -1.7967 -1.7001  0.3733
 7095SOL    HW232919   3.876   0.015   5.895 -1.8249 -0.8465 -0.4522
 7096SOL     OW32920   4.566   2.348   8.622  0.8878 -0.0343 -0.8205
 7096SOL    HW132921   4.613   2.379   8.545  1.5728  0.5654 -0.1696
 7096SOL    HW232922   4.566   2.256   8.598 -2.7752 -0.2839  0.1762
 7097SOL     OW32923   2.864   2.151   6.509 -0.5236  0.0688  0.0961
 7097SOL    HW132924   2.936   2.166   6.570 -0.9059  0.8044  0.3554
 7097SOL    HW232925   2.883   2.190   6.424  4.5172  2.5447  2.4055
 7098SOL     OW32926   2.640   4.212   9.746  0.0974  0.2909  0.5165
 7098SOL    HW132927   2.629   4.117   9.738  0.3373  0.3055  0.0131
 7098SOL    HW232928   2.623   4.229   9.654 -0.4528 -2.1299  0.1736
 7099SOL     OW32929   2.936   2.473   4.872 -0.2979  0.5567 -0.5561
 7099SOL    HW132930   2.967   2.559   4.899  0.9444 -0.1804  0.3534
 7099SOL    HW232931   2.892   2.487   4.788 -1.0546  1.1430 -0.0621
 7100SOL     OW32932   3.202   2.519   1.667 -0.2524  1.1185  0.5790
 7100SOL    HW132933   3.187   2.608   1.633  0.9958  1.1169  0.0261
 7100SOL    HW232934   3.121   2.485   1.630  0.2043 -1.3101  1.8454
 7101SOL     OW32935   1.853   1.594   4.854  0.0179 -0.0070 -0.5380
 7101SOL    HW132936   1.795   1.670   4.850 -1.2967 -0.9995 -0.3218
 7101SOL    HW232937   1.901   1.617   4.775  0.0970 -0.0711 -0.5100
 7102SOL     OW32938   3.433   0.373   7.102 -0.4822  0.1839  0.1596
 7102SOL    HW132939   3.456   0.323   7.180  0.1054  0.3176  0.0696
 7102SOL    HW232940   3.420   0.453   7.152 -2.0720 -1.3362  2.1790
 7103SOL     OW32941   0.655   4.611   4.382  0.1747 -0.3904  0.2871
 7103SOL    HW132942   0.726   4.597   4.444 -0.1882 -2.0145  0.3390
 7103SOL    HW232943   0.704   4.646   4.307  1.6011  0.7995  1.7850
 7104SOL     OW32944   4.375   3.099  11.033  0.5863 -0.1312  0.1028
 7104SOL    HW132945   4.468   3.100  11.054  1.2115  0.3960 -2.7293
 7104SOL    HW232946   4.342   3.133  11.116  2.6228  1.0840  0.4112
 7105SOL     OW32947   1.557   1.643   6.077  0.3293 -0.2977  0.7487
 7105SOL    HW132948   1.613   1.644   6.154  1.1597 -0.7038  0.1476
 7105SOL    HW232949   1.586   1.561   6.036  0.1134  1.2101 -2.4211
 7106SOL     OW32950   2.151   2.506  14.996 -0.0538  0.7993  0.2904
 7106SOL    HW132951   2.166   2.433  15.055  0.0391  1.8326  1.5232
 7106SOL    HW232952   2.202   2.473  14.922 -1.6092  0.3862 -0.6157
 7107SOL     OW32953   3.618   0.331  11.094 -0.7326 -0.5498 -0.5342
 7107SOL    HW132954   3.545   0.305  11.038 -2.9778 -0.7985  2.5660
 7107SOL    HW232955   3.572   0.337  11.177 -0.4594 -2.4624 -0.2602
 7108SOL     OW32956   3.291   4.470   5.639 -0.4068  0.8836  0.1325
 7108SOL    HW132957   3.345   4.400   5.675  1.6827  1.0219 -2.7785
 7108SOL    HW232958   3.236   4.489   5.716 -2.5461 -2.6283 -0.5340
 7109SOL     OW32959   3.374   2.050   4.333  0.2522 -0.6229 -0.3480
 7109SOL    HW132960   3.410   2.127   4.289  0.3179 -0.0833  0.6483
 7109SOL    HW232961   3.279   2.062   4.323 -0.0645 -2.4773  0.4017
 7110SOL     OW32962   2.371   0.697   9.213 -0.8789 -0.1126 -0.9397
 7110SOL    HW132963   2.318   0.636   9.266  0.6298 -1.2821 -0.7649
 7110SOL    HW232964   2.358   0.655   9.128 -1.6413 -0.3114 -0.7214
 7111SOL     OW32965   2.146   0.893   6.904  0.1746  0.1161  0.1813
 7111SOL    HW132966   2.232   0.936   6.904 -0.2187  0.8947  3.5545
 7111SOL    HW232967   2.102   0.966   6.947 -1.8516 -1.6334  1.0874
 7112SOL     OW32968   4.384   2.239   4.426  0.0566 -0.2180 -0.3508
 7112SOL    HW132969   4.456   2.198   4.378  1.9683  0.9608  1.5111
 7112SOL    HW232970   4.371   2.175   4.496  1.4791  0.6421  0.7002
 7113SOL     OW32971   0.753   3.161   3.905 -0.2868 -0.2124  0.4409
 7113SOL    HW132972   0.789   3.079   3.872 -0.2515  0.3612 -0.9527
 7113SOL    HW232973   0.697   3.196   3.835 -0.4269 -1.2600  0.0355
 7114SOL     OW32974   3.785   1.180   4.617  0.2942  0.4265  0.1585
 7114SOL    HW132975   3.753   1.218   4.699  0.4266 -1.3103  0.9991
 7114SOL    HW232976   3.818   1.257   4.570  0.8731 -0.3324 -0.6551
 7115SOL     OW32977   1.697   1.188  15.979 -0.1762 -0.5600  0.4548
 7115SOL    HW132978   1.738   1.258  16.029 -2.6342  0.2680  1.3021
 7115SOL    HW232979   1.645   1.232  15.912 -0.0354  1.7488  1.8776
 7116SOL     OW32980   1.851   4.274   9.976  0.1340 -0.4585  0.0909
 7116SOL    HW132981   1.873   4.253  10.067 -1.4216  1.1422  0.8378
 7116SOL    HW232982   1.892   4.202   9.929  0.5849  1.4822 -2.5071
 7117SOL     OW32983   3.144   2.429   5.532 -0.4611  0.4507 -0.3116
 7117SOL    HW132984   3.157   2.462   5.621  1.0229 -0.7524 -0.0727
 7117SOL    HW232985   3.192   2.495   5.483  0.1141  0.3908  0.1753
 7118SOL     OW32986   4.475   4.639  14.477 -0.5451 -0.6495  0.0471
 7118SOL    HW132987   4.477   4.609  14.567 -1.3717 -0.9234 -0.0313
 7118SOL    HW232988   4.399   4.697  14.470 -1.3582 -1.7173  0.0455
 7119SOL     OW32989   0.316   1.159   5.100 -0.4386 -0.1604  0.0361
 7119SOL    HW132990   0.354   1.075   5.126 -3.0987 -1.8657 -1.5914
 7119SOL    HW232991   0.230   1.161   5.142  0.0298 -0.1322  0.9988
 7120SOL     OW32992   0.785   4.221   7.287 -0.5159 -0.0858  0.1697
 7120SOL    HW132993   0.793   4.127   7.307  2.2651  0.2517  0.7440
 7120SOL    HW232994   0.760   4.204   7.196 -1.4577 -1.1097  0.6176
 7121SOL     OW32995   0.216   3.563   6.240 -0.2811  0.0924 -0.5520
 7121SOL    HW132996   0.141   3.623   6.241 -1.0752 -0.8872 -0.7748
 7121SOL    HW232997   0.232   3.542   6.148 -3.7791  3.2702 -1.8969
 7122SOL     OW32998   1.617   2.874   2.352  0.1337 -0.2254  0.5100
 7122SOL    HW132999   1.694   2.905   2.305  0.9639 -1.0976  1.2856
 7122SOL    HW233000   1.542   2.910   2.305  0.9818  1.3009  0.3329
 7123SOL     OW33001   2.127   0.931   5.535  0.0779 -0.1745  0.0106
 7123SOL    HW133002   2.213   0.920   5.577 -0.6621 -0.9154  1.3252
 7123SOL    HW233003   2.084   0.846   5.540 -1.8778  0.8992  1.3305
 7124SOL     OW33004   2.202   3.002   4.634  1.1788 -0.0809  0.2808
 7124SOL    HW133005   2.171   3.092   4.641  0.3671 -0.3865  0.6036
 7124SOL    HW233006   2.234   2.985   4.723 -0.0489  2.8147  1.2594
 7125SOL     OW33007   3.567   1.552  17.566  0.3932  0.2082  0.3006
 7125SOL    HW133008   3.496   1.566  17.628  0.1363  1.3647 -0.2545
 7125SOL    HW233009   3.585   1.460  17.583 -2.2974 -0.5591 -0.9995
 7126SOL     OW33010   1.508   0.691   6.342  0.4974  0.9443 -0.5934
 7126SOL    HW133011   1.426   0.679   6.390  1.8409 -0.7855  1.2946
 7126SOL    HW233012   1.472   0.718   6.257 -0.9749 -0.7651 -0.5147
 7127SOL     OW33013   2.252   1.379   2.060  0.9119  0.3848 -0.3733
 7127SOL    HW133014   2.268   1.285   2.066  0.4892  0.2793 -0.8074
 7127SOL    HW233015   2.279   1.414   2.144  0.5315 -1.4109  0.4830
 7128SOL     OW33016   4.371   4.697   8.310 -0.1414 -0.7103  0.1904
 7128SOL    HW133017   4.275   4.702   8.308 -0.0113  1.3270 -0.9890
 7128SOL    HW233018   4.387   4.603   8.321 -0.6802 -0.7087  0.9809
 7129SOL     OW33019   2.028   2.569   5.027 -0.2019  0.0777 -0.0227
 7129SOL    HW133020   2.123   2.579   5.036 -0.1146  0.7892 -1.7813
 7129SOL    HW233021   2.014   2.610   4.942 -1.2197  0.8504  0.5288
 7130SOL     OW33022   4.266   3.515   6.638  0.6566  0.1356  0.0590
 7130SOL    HW133023   4.215   3.453   6.586 -2.1449  1.4881  1.2099
 7130SOL    HW233024   4.226   3.600   6.620 -1.6381 -1.1232 -0.7873
 7131SOL     OW33025   4.715   4.439   4.143  0.3753 -0.1348  0.3564
 7131SOL    HW133026   4.737   4.380   4.071  0.3703 -1.6191  1.5849
 7131SOL    HW233027   4.646   4.486   4.096  0.1634 -0.4465  0.3584
 7132SOL     OW33028   0.387   3.657  15.237 -0.5915  0.0875  0.7060
 7132SOL    HW133029   0.449   3.647  15.165 -1.4803  1.3627 -0.2336
 7132SOL    HW233030   0.347   3.741  15.215  1.9076  0.9168 -0.6660
 7133SOL     OW33031   2.179   2.970   2.487  0.1975  0.1509  0.2440
 7133SOL    HW133032   2.212   2.977   2.576  1.7232 -0.9010 -0.2431
 7133SOL    HW233033   2.102   2.914   2.495 -1.5783  2.3302 -1.5607
 7134SOL     OW33034   1.224   1.001   2.604  0.0707 -0.0837 -0.2090
 7134SOL    HW133035   1.239   1.067   2.536 -1.9373 -1.3012 -1.8274
 7134SOL    HW233036   1.234   0.921   2.554 -1.4252  1.5905 -3.1705
 7135SOL     OW33037   0.198   1.104   3.453  0.0835  0.4944 -0.2218
 7135SOL    HW133038   0.138   1.029   3.451  2.3982 -1.3967  1.1796
 7135SOL    HW233039   0.153   1.170   3.400  1.6163  2.0940  0.4694
 7136SOL     OW33040   1.989   1.182   3.558  0.1656 -0.2899 -0.6251
 7136SOL    HW133041   1.928   1.118   3.594 -0.0627  1.2242  1.6111
 7136SOL    HW233042   1.928   1.223   3.496  1.7857  2.2640 -0.5277
 7137SOL     OW33043   2.273   1.926   7.632  0.2779 -0.1660 -0.6621
 7137SOL    HW133044   2.239   1.916   7.721  2.1744 -0.7118 -0.0178
 7137SOL    HW233045   2.199   1.909   7.573 -0.4353 -0.6634  0.3825
 7138SOL     OW33046   1.506   0.923   0.378  0.1693 -0.2709  0.3110
 7138SOL    HW133047   1.527   0.986   0.447  0.2852 -0.3071  0.3090
 7138SOL    HW233048   1.521   0.839   0.420  1.1228 -0.1011  0.2975
 7139SOL     OW33049   1.948   3.371   1.480  0.2960  0.8659  0.0833
 7139SOL    HW133050   2.040   3.386   1.456  0.2415  1.1294  0.0390
 7139SOL    HW233051   1.910   3.428   1.413  0.7533 -0.8160 -1.6380
 7140SOL     OW33052   2.541   0.922  13.788  0.3324  0.7473  0.2604
 7140SOL    HW133053   2.459   0.890  13.752  1.2293  1.1256 -2.0929
 7140SOL    HW233054   2.541   0.886  13.877 -1.8444 -0.0041 -0.0570
 7141SOL     OW33055   3.600   0.180   4.401  0.2486  0.3806 -0.3863
 7141SOL    HW133056   3.662   0.166   4.473  0.9707  0.2711 -1.0267
 7141SOL    HW233057   3.548   0.100   4.398 -0.8783  1.0721  0.6192
 7142SOL     OW33058   4.442   3.552   1.105  0.2091 -0.0530 -0.0656
 7142SOL    HW133059   4.427   3.615   1.175  0.2964  0.4060 -0.4591
 7142SOL    HW233060   4.520   3.595   1.069  0.6547 -0.5697  0.2878
 7143SOL     OW33061   3.194   4.112   4.855  0.5965  0.7008 -0.0797
 7143SOL    HW133062   3.258   4.173   4.819 -1.4612  2.7942 -0.1651
 7143SOL    HW233063   3.146   4.079   4.779 -0.4562 -0.5248  1.1138
 7144SOL     OW33064   1.439   2.186   2.094 -0.7501  0.9386  0.4610
 7144SOL    HW133065   1.426   2.116   2.030  0.1466  0.7612  0.4705
 7144SOL    HW233066   1.464   2.255   2.033 -0.8433  1.0681  0.5687
 7145SOL     OW33067   1.229   0.369   3.981 -0.0842  0.2010  0.2089
 7145SOL    HW133068   1.142   0.330   3.994 -0.4898  0.4485 -1.7581
 7145SOL    HW233069   1.250   0.333   3.895  0.1084 -1.4818  0.9629
 7146SOL     OW33070   4.080   1.188   2.933  0.0734 -0.0644  0.0575
 7146SOL    HW133071   4.092   1.256   2.999  0.8928 -0.1832  0.0375
 7146SOL    HW233072   4.093   1.105   2.977 -0.1280 -0.0625  0.1198
 7147SOL     OW33073   0.510   1.783   6.901  0.0638  0.0977 -0.6920
 7147SOL    HW133074   0.573   1.779   6.829 -3.1961  1.9987 -3.6392
 7147SOL    HW233075   0.501   1.690   6.920  0.4316 -0.0222 -1.0980
 7148SOL     OW33076   3.930   2.890   3.298  0.2858  0.3348  0.1592
 7148SOL    HW133077   3.990   2.912   3.227  2.9494 -2.0295  1.6767
 7148SOL    HW233078   3.899   2.803   3.272  1.1481  0.1237 -0.1772
 7149SOL     OW33079   2.456   3.644   5.733  0.1990  0.3417  0.1444
 7149SOL    HW133080   2.434   3.695   5.811 -1.6000 -3.0028  1.8180
 7149SOL    HW233081   2.532   3.697   5.710 -1.4036  1.5925 -2.2753
 7150SOL     OW33082   3.729   3.687   6.511 -0.4624  0.3198  0.5546
 7150SOL    HW133083   3.699   3.722   6.427 -0.6281  0.1225  0.5303
 7150SOL    HW233084   3.676   3.608   6.526  0.3974 -0.4939 -0.6647
 7151SOL     OW33085   2.307   0.504  13.009 -0.6230 -0.0570 -0.7086
 7151SOL    HW133086   2.245   0.513  13.081 -0.4837 -0.8867 -0.4898
 7151SOL    HW233087   2.305   0.409  12.998  0.1321  0.3057 -3.8164
 7152SOL     OW33088   4.447   0.468  15.566  0.7859  0.0282 -0.3278
 7152SOL    HW133089   4.476   0.377  15.561  0.3393 -0.1215 -0.2343
 7152SOL    HW233090   4.525   0.521  15.550  2.1845 -1.7582  0.6093
 7153SOL     OW33091   0.355   2.164  14.457 -0.0251 -0.6945 -0.3685
 7153SOL    HW133092   0.361   2.073  14.427 -2.9645 -1.0591  0.1117
 7153SOL    HW233093   0.421   2.209  14.405 -1.0395 -0.1161 -1.1584
 7154SOL     OW33094   3.144   1.956   7.910  0.4870  0.0277 -0.1423
 7154SOL    HW133095   3.062   1.954   7.861 -0.6313 -0.7070  1.7635
 7154SOL    HW233096   3.122   1.956   8.004  1.3197  0.4277  0.0561
 7155SOL     OW33097   2.451   3.624   2.132 -0.2973  0.0625 -0.0611
 7155SOL    HW133098   2.418   3.638   2.043  1.5199  0.2924 -0.7022
 7155SOL    HW233099   2.433   3.706   2.178 -0.2420 -0.0946  0.2417
 7156SOL     OW33100   2.644   0.224   8.020 -0.6648 -0.4306  0.0109
 7156SOL    HW133101   2.643   0.254   8.111  1.8949  2.6489 -1.0061
 7156SOL    HW233102   2.637   0.128   8.026 -4.7797 -0.0863  0.2304
 7157SOL     OW33103   0.050   2.692   6.502 -0.1982 -0.1730  0.2520
 7157SOL    HW133104   0.106   2.767   6.481  0.9495 -0.7852  1.1147
 7157SOL    HW233105   0.120   2.627   6.497  1.0738  1.1860  0.2001
 7158SOL     OW33106   3.013   3.086  16.415  0.7462 -0.0345  0.2412
 7158SOL    HW133107   2.931   3.037  16.424  2.6214 -2.8501  2.1120
 7158SOL    HW233108   3.081   3.026  16.445  0.2200 -1.1914 -0.9047
 7159SOL     OW33109   0.196   2.801   4.608  0.1452 -0.5044 -0.7595
 7159SOL    HW133110   0.279   2.767   4.642  0.3630  1.2777  0.4716
 7159SOL    HW233111   0.171   2.725   4.555 -2.0507  0.0509 -0.5207
 7160SOL     OW33112   1.970   1.695   4.083  0.0513  0.2060 -0.2365
 7160SOL    HW133113   2.041   1.751   4.114  1.0219 -2.6451  2.7423
 7160SOL    HW233114   1.923   1.685   4.166  0.2980  0.1921 -0.0994
 7161SOL     OW33115   1.762   2.550   7.872  0.3433  0.0442  0.1544
 7161SOL    HW133116   1.758   2.569   7.778 -0.8856  0.1859  0.2366
 7161SOL    HW233117   1.714   2.628   7.900 -0.3569 -0.2585 -0.2228
 7162SOL     OW33118   3.628   0.767  12.045  0.3309  0.6137 -0.3921
 7162SOL    HW133119   3.647   0.852  12.085  0.9320 -0.2326  1.0903
 7162SOL    HW233120   3.686   0.709  12.094 -0.9190 -1.7273 -1.7191
 7163SOL     OW33121   4.665   0.854   0.742  0.4553  0.2833  0.6942
 7163SOL    HW133122   4.726   0.927   0.729  1.4154 -0.6921 -0.3769
 7163SOL    HW233123   4.729   0.793   0.778 -0.2488  0.9932  3.1005
 7164SOL     OW33124   2.436   4.226   7.558 -0.3323 -0.8049  0.7688
 7164SOL    HW133125   2.515   4.185   7.594  0.0579 -0.6843  0.0514
 7164SOL    HW233126   2.482   4.289   7.502 -0.8020  2.2432  3.8366
 7165SOL     OW33127   2.715   4.677  11.243 -0.2740 -0.0108 -0.3802
 7165SOL    HW133128   2.798   4.630  11.241 -1.5253 -2.2087 -1.0297
 7165SOL    HW233129   2.689   4.637  11.326  0.5411  1.2428  0.4684
 7166SOL     OW33130   3.307   3.629   3.528 -0.0399 -0.0198  0.0850
 7166SOL    HW133131   3.278   3.551   3.574  1.5273 -1.0780 -0.7255
 7166SOL    HW233132   3.278   3.693   3.593  1.1759 -1.7620  2.3252
 7167SOL     OW33133   1.618   1.021   8.374 -0.3337 -0.0035 -0.1568
 7167SOL    HW133134   1.694   0.969   8.349 -0.5929  0.1468 -1.2370
 7167SOL    HW233135   1.624   1.042   8.468  0.1741  0.0264 -0.1971
 7168SOL     OW33136   4.676   4.181   9.124 -0.0097  0.1686 -0.3429
 7168SOL    HW133137   4.679   4.161   9.030 -3.7648 -0.0498 -0.4384
 7168SOL    HW233138   4.620   4.259   9.128 -1.2900 -0.6785 -1.5760
 7169SOL     OW33139   1.145   2.501   2.973  0.0397 -0.0679  0.3376
 7169SOL    HW133140   1.096   2.455   2.905 -1.4148  3.4484 -0.9796
 7169SOL    HW233141   1.097   2.583   2.957  3.8908  1.5955 -2.8198
 7170SOL     OW33142   4.644   1.699   0.420 -0.4133 -0.3792 -0.3113
 7170SOL    HW133143   4.566   1.678   0.368 -1.4416  1.8655  0.3396
 7170SOL    HW233144   4.610   1.776   0.465 -1.6102 -1.0156 -0.1299
 7171SOL     OW33145   2.644   4.498   9.919 -0.2763 -0.0577 -0.4449
 7171SOL    HW133146   2.561   4.546   9.908 -0.5387 -0.1012  1.3643
 7171SOL    HW233147   2.609   4.409   9.915 -1.1884  0.2935 -0.2561
 7172SOL     OW33148   4.269   2.120   6.045  0.2212  0.3396  0.6155
 7172SOL    HW133149   4.279   2.092   6.136 -2.8314  1.8777  1.4292
 7172SOL    HW233150   4.343   2.180   6.039 -0.4484  1.2221  1.1153
 7173SOL     OW33151   0.525   4.070   2.507  0.4818  0.1869  0.4595
 7173SOL    HW133152   0.590   4.008   2.474 -0.0656  0.0275 -0.3258
 7173SOL    HW233153   0.484   4.092   2.424  0.0816 -1.7662  0.1381
 7174SOL     OW33154   3.284   3.634  14.042  0.8025 -0.3119  0.1441
 7174SOL    HW133155   3.265   3.693  13.969  2.8426 -0.2671 -0.3452
 7174SOL    HW233156   3.203   3.583  14.036 -1.5743  3.5001 -0.0200
 7175SOL     OW33157   2.628   4.359   9.221  0.1761 -0.5539  0.4817
 7175SOL    HW133158   2.649   4.329   9.309  2.0736 -0.2088  0.1563
 7175SOL    HW233159   2.716   4.352   9.183  0.2899  4.1410 -0.0910
 7176SOL     OW33160   3.732   3.780   1.737  0.3018 -0.1484 -0.5417
 7176SOL    HW133161   3.813   3.738   1.708  0.5137 -0.6165  0.7192
 7176SOL    HW233162   3.694   3.715   1.796  0.9721  0.1032  0.1690
 7177SOL     OW33163   2.141   4.004   5.732 -0.0315  0.4514  0.5662
 7177SOL    HW133164   2.120   3.954   5.811 -2.4725  3.2294  1.6933
 7177SOL    HW233165   2.229   4.032   5.757 -0.3372  0.4783  1.6215
 7178SOL     OW33166   0.655   2.984   2.649 -0.1855 -0.3406  0.0371
 7178SOL    HW133167   0.704   3.004   2.729 -1.0445 -1.8707  0.9408
 7178SOL    HW233168   0.703   3.037   2.585 -0.3942 -1.8898 -1.3970
 7179SOL     OW33169   4.373   0.727  11.781  0.0834  0.2696  0.2257
 7179SOL    HW133170   4.451   0.723  11.725 -0.4386  2.7758 -0.6562
 7179SOL    HW233171   4.421   0.707  11.861  0.3293  1.8563  0.4757
 7180SOL     OW33172   0.778   1.490   7.267  0.2405  0.4754 -0.3322
 7180SOL    HW133173   0.726   1.543   7.328 -0.4789 -1.2069  0.5138
 7180SOL    HW233174   0.767   1.404   7.308 -0.6892  0.0681 -1.4333
 7181SOL     OW33175   4.693   1.803   4.210  0.2735  0.2093  0.1235
 7181SOL    HW133176   4.738   1.884   4.186  1.0341 -0.3656 -0.4005
 7181SOL    HW233177   0.028   1.748   4.235  0.3430  0.4137  0.3612
 7182SOL     OW33178   0.720   2.596   9.566 -0.1403 -0.7816 -0.4805
 7182SOL    HW133179   0.785   2.615   9.633 -1.8768  3.5480 -0.0192
 7182SOL    HW233180   0.676   2.681   9.573 -1.5234 -1.4840 -0.6013
 7183SOL     OW33181   4.051   1.971   4.594 -0.1163 -0.2446 -0.1729
 7183SOL    HW133182   4.003   2.045   4.631 -0.1958 -0.9026  1.0469
 7183SOL    HW233183   4.055   1.995   4.501  0.1197  0.3123 -0.0218
 7184SOL     OW33184   0.517   1.585   4.663  0.6533  0.4099 -0.4546
 7184SOL    HW133185   0.610   1.565   4.675  0.0418 -1.4823  1.1906
 7184SOL    HW233186   0.498   1.599   4.755  0.3312  0.4865 -0.5351
 7185SOL     OW33187   0.994   2.027   4.652 -0.3379  0.3519  0.7970
 7185SOL    HW133188   1.025   2.049   4.739  0.5278  3.6754 -0.3540
 7185SOL    HW233189   0.992   2.113   4.611  0.4917  0.2249  0.4918
 7186SOL     OW33190   0.827   1.066   4.505 -0.7754 -0.6679  0.0609
 7186SOL    HW133191   0.797   1.156   4.510  0.5450 -0.3313  1.5833
 7186SOL    HW233192   0.919   1.092   4.507 -0.4516 -1.5552 -2.9293
 7187SOL     OW33193   0.745   1.383  12.979 -0.2477  0.0651  0.5460
 7187SOL    HW133194   0.666   1.432  13.002  0.5237  2.8315 -2.8206
 7187SOL    HW233195   0.718   1.329  12.904  0.4978  0.1152  0.2464
 7188SOL     OW33196   0.327   1.422  13.669  0.1513 -0.2004 -0.3551
 7188SOL    HW133197   0.385   1.368  13.722  0.2968 -1.3531 -1.6544
 7188SOL    HW233198   0.359   1.399  13.582  2.3202 -0.6724  0.5895
 7189SOL     OW33199   2.666   3.787   4.962 -0.7671  0.1473  0.2791
 7189SOL    HW133200   2.701   3.847   4.897  0.9809 -1.0462  0.1098
 7189SOL    HW233201   2.682   3.844   5.037 -0.3021  0.0857  0.2264
 7190SOL     OW33202   0.208   2.057   5.706  0.2347 -0.3877  0.4831
 7190SOL    HW133203   0.230   2.143   5.670 -1.9111  0.1302  0.4178
 7190SOL    HW233204   0.156   2.011   5.640 -0.6653  1.9440 -0.4402
 7191SOL     OW33205   2.250   0.240   2.576  0.2738  0.2169 -0.4811
 7191SOL    HW133206   2.309   0.227   2.650  0.1372  0.5240 -0.3221
 7191SOL    HW233207   2.295   0.191   2.506 -3.0806 -2.3296 -0.8212
 7192SOL     OW33208   3.567   0.702   7.964 -0.0138  0.2683 -1.1260
 7192SOL    HW133209   3.585   0.632   7.901  1.4517 -1.5572  1.3264
 7192SOL    HW233210   3.657   0.722   7.990  0.0372 -1.9833  0.5365
 7193SOL     OW33211   2.531   1.385   5.016  0.3428 -0.2261 -0.1602
 7193SOL    HW133212   2.582   1.465   5.030  0.5936 -0.4517  0.2080
 7193SOL    HW233213   2.496   1.371   5.104 -1.4757 -2.6672 -1.2775
 7194SOL     OW33214   1.982   0.149  16.238  0.0768  0.2576 -0.1717
 7194SOL    HW133215   1.993   0.203  16.160 -0.6302 -1.1143 -1.2184
 7194SOL    HW233216   1.895   0.110  16.228  0.0368  0.6776 -1.5130
 7195SOL     OW33217   0.944   2.721   8.025  0.2621  0.3020 -0.7643
 7195SOL    HW133218   0.888   2.666   8.080  1.8939 -1.7365 -1.0989
 7195SOL    HW233219   0.962   2.789   8.089 -0.0125  1.2654 -1.7162
 7196SOL     OW33220   3.931   0.740   5.104 -0.0403  0.4950 -0.4853
 7196SOL    HW133221   3.871   0.706   5.037  1.1844 -2.0200 -0.2834
 7196SOL    HW233222   3.874   0.809   5.140 -0.2721  0.7837 -1.3883
 7197SOL     OW33223   0.830   1.487   3.317  0.0484 -0.3578 -0.4429
 7197SOL    HW133224   0.734   1.483   3.314  0.1413 -1.9851 -1.4236
 7197SOL    HW233225   0.837   1.478   3.412 -2.3457 -2.1542 -0.4473
 7198SOL     OW33226   0.412   1.751   3.454 -0.1601  0.4126  0.0770
 7198SOL    HW133227   0.488   1.756   3.512 -0.1912  0.0945  0.1460
 7198SOL    HW233228   0.412   1.841   3.419  2.5284  0.2179 -0.4785
 7199SOL     OW33229   3.486   3.006   1.412 -0.4848  0.3282  0.4840
 7199SOL    HW133230   3.563   3.025   1.359 -1.0136 -0.6740 -0.6325
 7199SOL    HW233231   3.481   2.911   1.409  0.4770  0.2823  0.2425
 7200SOL     OW33232   3.021   2.456   3.124  0.0302 -0.3253 -0.2833
 7200SOL    HW133233   3.022   2.499   3.039 -1.3898  0.8807  0.3131
 7200SOL    HW233234   3.113   2.461   3.151 -0.2326 -1.3967  0.8339
 7201SOL     OW33235   1.678   2.229   2.254  0.5351 -0.2169  0.1319
 7201SOL    HW133236   1.649   2.244   2.344  0.6184 -0.0557  0.1333
 7201SOL    HW233237   1.601   2.189   2.214 -0.0908  1.0598  0.0601
 7202SOL     OW33238   0.237   2.279  13.889  0.4076 -0.0499 -0.4248
 7202SOL    HW133239   0.300   2.207  13.896  0.3084  0.0630  1.6778
 7202SOL    HW233240   0.216   2.275  13.796 -4.8544 -0.1534  0.7342
 7203SOL     OW33241   2.607   4.241   6.828 -0.6406  0.3283 -0.5525
 7203SOL    HW133242   2.670   4.170   6.839 -0.0645  0.3659 -3.8848
 7203SOL    HW233243   2.573   4.221   6.741 -3.1599  0.9358  0.2669
 7204SOL     OW33244   3.483   0.170   7.307  0.2339  0.0083 -0.0674
 7204SOL    HW133245   3.541   0.197   7.378 -1.1376 -0.2796  1.1716
 7204SOL    HW233246   3.505   0.078   7.299  2.0640  0.3151  1.4919
 7205SOL     OW33247   1.001   4.026   8.942  0.2680  0.0405 -0.1928
 7205SOL    HW133248   0.964   4.040   8.855 -1.2162 -2.8915 -0.0232
 7205SOL    HW233249   1.062   3.955   8.926 -0.7563 -0.2439 -2.8466
 7206SOL     OW33250   3.968   3.424   7.512 -0.8986 -0.2363 -0.4866
 7206SOL    HW133251   4.010   3.509   7.505 -2.9363  1.0978  3.5385
 7206SOL    HW233252   3.982   3.399   7.603 -0.4310  0.4886 -0.3617
 7207SOL     OW33253   4.049   0.471  11.139  0.4705  0.4047  0.1941
 7207SOL    HW133254   4.088   0.393  11.178  0.9480  0.3333 -0.4260
 7207SOL    HW233255   3.969   0.444  11.094  1.7260  0.9821 -2.3414
 7208SOL     OW33256   4.304   0.105  15.773  0.1001 -0.1606 -0.3622
 7208SOL    HW133257   4.258   0.186  15.795  3.5320  0.9381  2.7848
 7208SOL    HW233258   4.329   0.087  15.864 -0.4865 -2.6875 -0.6923
 7209SOL     OW33259   1.959   0.388   9.688 -0.1083  0.3908 -0.2462
 7209SOL    HW133260   1.877   0.435   9.678 -0.2803 -0.0896 -1.0418
 7209SOL    HW233261   2.025   0.454   9.711 -0.6386  0.8288  0.0136
 7210SOL     OW33262   4.544   1.241   4.599 -0.4850 -0.5072 -0.7907
 7210SOL    HW133263   4.471   1.255   4.539 -0.6708 -0.5183 -0.5697
 7210SOL    HW233264   4.589   1.165   4.561 -0.1382 -1.8799  2.3129
 7211SOL     OW33265   3.296   2.421   1.896  0.1792 -0.3817 -0.1137
 7211SOL    HW133266   3.333   2.340   1.861 -1.1004 -0.9153 -0.2465
 7211SOL    HW233267   3.274   2.456   1.810 -0.4576 -1.3858 -0.3593
 7212SOL     OW33268   0.003   2.837   4.955 -0.5072  0.7682  0.3526
 7212SOL    HW133269   4.721   2.870   4.867  0.7713  1.7902  0.4157
 7212SOL    HW233270   0.000   2.744   4.931 -1.0184  0.6378  0.9231
 7213SOL     OW33271   2.030   0.313  16.026  0.6334 -0.3461  0.2819
 7213SOL    HW133272   2.015   0.398  16.067 -0.8601 -0.7368  0.5609
 7213SOL    HW233273   1.989   0.328  15.940  3.1079  1.0990 -0.6523
 7214SOL     OW33274   4.469   2.964   8.526 -0.3185  0.0090  0.3532
 7214SOL    HW133275   4.426   3.049   8.513  0.5419  0.7364  2.1439
 7214SOL    HW233276   4.487   2.954   8.620 -2.9047 -0.3492  0.8119
 7215SOL     OW33277   2.658   2.240  16.640 -0.2079 -0.1753  0.0854
 7215SOL    HW133278   2.748   2.257  16.612  0.6561 -2.6065  1.4177
 7215SOL    HW233279   2.665   2.147  16.658  0.0974 -0.3693 -1.0414
 7216SOL     OW33280   0.086   1.514   8.186 -0.1137  0.0761  0.0211
 7216SOL    HW133281   0.058   1.566   8.261  2.2120  2.7601 -0.9772
 7216SOL    HW233282   0.133   1.581   8.135 -0.4436  2.7862  3.2920
 7217SOL     OW33283   4.695   3.351   5.793  0.2908 -0.3856 -0.4528
 7217SOL    HW133284   4.618   3.395   5.757  0.7467  1.3044  0.6325
 7217SOL    HW233285   0.025   3.392   5.740 -0.9333  1.6057 -0.5023
 7218SOL     OW33286   2.910   0.640   7.070  0.1478 -0.4296 -0.3208
 7218SOL    HW133287   2.857   0.561   7.072 -1.3591  0.5516 -1.1039
 7218SOL    HW233288   2.846   0.697   7.112  0.2839 -1.4016  1.1950
 7219SOL     OW33289   3.633   3.919   1.951 -0.5014  0.5035  1.1404
 7219SOL    HW133290   3.680   3.908   1.869 -1.3394  0.9836  0.5922
 7219SOL    HW233291   3.691   3.880   2.016  0.5438  0.2293  0.0369
 7220SOL     OW33292   2.170   3.980  13.494  0.1844  0.0557  0.4238
 7220SOL    HW133293   2.259   3.946  13.506  0.4929  0.8074  0.2668
 7220SOL    HW233294   2.191   4.059  13.444  0.2413  1.1966  2.2191
 7221SOL     OW33295   0.478   4.540   7.034  0.3814  0.5695 -0.3226
 7221SOL    HW133296   0.427   4.508   7.108 -0.7957 -1.0661 -1.8424
 7221SOL    HW233297   0.418   4.604   6.996 -1.2520 -1.9989 -2.0207
 7222SOL     OW33298   0.432   3.941   4.688 -0.5729  0.0470 -0.0456
 7222SOL    HW133299   0.384   3.863   4.716  2.9815 -2.4258 -0.9056
 7222SOL    HW233300   0.508   3.938   4.747 -2.2369 -0.3730  2.0850
 7223SOL     OW33301   1.337   4.321   7.000  0.6648 -0.0134  0.1653
 7223SOL    HW133302   1.282   4.313   7.078  1.0051  1.3191  0.5333
 7223SOL    HW233303   1.373   4.233   6.987 -0.5683 -0.7092  1.5151
 7224SOL     OW33304   0.235   4.412   4.927 -0.2944 -0.0238  0.3004
 7224SOL    HW133305   0.297   4.477   4.893 -2.4447  0.9420 -1.7301
 7224SOL    HW233306   0.279   4.329   4.910  3.9546  2.1319  0.7384
 7225SOL     OW33307   2.204   1.924   1.514 -0.0277  0.5367  0.7699
 7225SOL    HW133308   2.178   2.007   1.555  1.0306 -0.0282  2.5952
 7225SOL    HW233309   2.146   1.856   1.548 -0.4740  0.2936 -0.4740
 7226SOL     OW33310   2.301   1.119   5.831  0.0649 -0.4876 -0.1255
 7226SOL    HW133311   2.285   1.109   5.925 -0.7338  0.0213 -0.2125
 7226SOL    HW233312   2.389   1.155   5.823  0.4423 -1.2170  0.6524
 7227SOL     OW33313   4.075   0.469  10.786  0.8273  0.5101  0.1061
 7227SOL    HW133314   3.994   0.432  10.752  1.1375  0.7501 -0.8886
 7227SOL    HW233315   4.084   0.420  10.868 -0.4480 -1.7532 -1.0888
 7228SOL     OW33316   2.950   2.151   2.234  0.2361  0.3944 -0.3981
 7228SOL    HW133317   2.938   2.089   2.162  0.2109  2.6547 -2.3730
 7228SOL    HW233318   2.914   2.097   2.304 -1.8560  2.7904  0.3653
 7229SOL     OW33319   1.512   3.844   9.641 -0.1778  0.4857  0.2168
 7229SOL    HW133320   1.559   3.849   9.724 -0.2366  1.1513  0.2116
 7229SOL    HW233321   1.447   3.914   9.655  1.0919  0.8580  4.1429
 7230SOL     OW33322   3.607   3.326   0.576 -0.3405 -0.1657  0.6894
 7230SOL    HW133323   3.592   3.352   0.485  1.6941  1.1547  0.7329
 7230SOL    HW233324   3.571   3.404   0.618  1.2849 -0.0850  1.9256
 7231SOL     OW33325   4.399   4.285   9.425 -0.2227  0.0118 -0.2995
 7231SOL    HW133326   4.421   4.322   9.340 -1.6062  0.3161 -0.5209
 7231SOL    HW233327   4.322   4.236   9.397 -1.3511  0.8861  1.2267
 7232SOL     OW33328   2.674   1.569  10.701  0.3306 -0.2556  0.0274
 7232SOL    HW133329   2.769   1.562  10.696  0.5838  3.0880  0.2973
 7232SOL    HW233330   2.668   1.641  10.764  0.8663 -0.5037  0.3665
 7233SOL     OW33331   1.724   3.593   5.532 -0.1675  0.4169  0.2352
 7233SOL    HW133332   1.671   3.516   5.510  1.9522 -0.3985 -2.0214
 7233SOL    HW233333   1.657   3.644   5.578 -1.8720  0.0654 -1.8287
 7234SOL     OW33334   4.201   1.147   0.742  0.0447  0.7670 -0.2869
 7234SOL    HW133335   4.182   1.061   0.780 -3.3221  1.4323 -0.4776
 7234SOL    HW233336   4.234   1.191   0.819  0.3033  1.5185 -0.8272
 7235SOL     OW33337   4.340   2.078   4.632 -0.0200 -0.0075  0.1211
 7235SOL    HW133338   4.265   2.033   4.592  0.2791 -0.1732 -0.2561
 7235SOL    HW233339   4.391   1.997   4.635  1.8734  1.2353  1.4189
 7236SOL     OW33340   0.551   2.159  13.290  0.4506 -0.3430  0.3750
 7236SOL    HW133341   0.627   2.158  13.348 -0.3850  2.2890  1.4890
 7236SOL    HW233342   0.566   2.088  13.228  0.4627 -0.0879  0.0873
 7237SOL     OW33343   3.514   1.181   3.274  0.2143 -0.3268 -0.7337
 7237SOL    HW133344   3.435   1.145   3.314  2.5533 -1.7105  2.6472
 7237SOL    HW233345   3.508   1.267   3.315 -1.4920 -0.2601 -1.1451
 7238SOL     OW33346   3.003   0.421   0.966 -0.6757 -0.4191  0.2588
 7238SOL    HW133347   3.070   0.483   0.940  1.4641 -4.0504 -2.8967
 7238SOL    HW233348   2.933   0.423   0.900  0.8392  2.0277 -1.2885
 7239SOL     OW33349   3.602   2.102  10.619 -0.4738  0.5577  0.2286
 7239SOL    HW133350   3.566   2.097  10.531 -0.4454  1.7443  0.1524
 7239SOL    HW233351   3.613   2.008  10.634 -1.1517  0.4169 -0.1553
 7240SOL     OW33352   0.500   2.412   3.812 -0.1746  0.2064  0.5829
 7240SOL    HW133353   0.535   2.359   3.741 -1.4430 -1.1618  0.9819
 7240SOL    HW233354   0.574   2.473   3.820  0.0226 -0.2579  2.1995
 7241SOL     OW33355   0.035   3.525  17.539 -0.4175  0.4778  0.7381
 7241SOL    HW133356   0.024   3.430  17.549  0.8014  0.1590 -0.9358
 7241SOL    HW233357   0.126   3.536  17.511 -0.5022 -1.9454 -0.5116
 7242SOL     OW33358   0.140   3.344   7.561  0.1169 -0.3555 -0.1304
 7242SOL    HW133359   0.104   3.277   7.619 -0.3023  1.3587  1.6361
 7242SOL    HW233360   0.103   3.423   7.602  0.2273 -0.0880 -0.5491
 7243SOL     OW33361   4.381   1.419   1.766  0.2556  0.8139 -0.1096
 7243SOL    HW133362   4.314   1.354   1.746  2.4851 -1.5491  0.0616
 7243SOL    HW233363   4.331   1.479   1.821 -0.9768  1.3337 -1.7963
 7244SOL     OW33364   3.570   2.506   2.747 -0.6480 -0.3555  0.5855
 7244SOL    HW133365   3.625   2.584   2.753 -1.6034  0.2324  1.6634
 7244SOL    HW233366   3.486   2.549   2.763  0.3598  0.8767  2.5260
 7245SOL     OW33367   3.858   1.294   7.145  0.6417  0.5501  0.2028
 7245SOL    HW133368   3.913   1.370   7.126  0.9326  0.0055 -1.1426
 7245SOL    HW233369   3.795   1.292   7.072 -0.4416 -2.6221  1.2178
 7246SOL     OW33370   2.429   1.932   2.289  0.6076 -0.5258 -0.1521
 7246SOL    HW133371   2.401   1.853   2.335  1.0486  0.6957  2.2320
 7246SOL    HW233372   2.352   1.990   2.293  0.2481 -0.8747 -1.9202
 7247SOL     OW33373   1.340   1.131  16.499  0.6332  0.3427 -0.0253
 7247SOL    HW133374   1.390   1.128  16.581  1.4068  0.2321 -0.5026
 7247SOL    HW233375   1.406   1.093  16.441 -0.0879 -2.1628  0.7752
 7248SOL     OW33376   0.646   1.736   4.194 -0.4090  0.2914  0.6767
 7248SOL    HW133377   0.647   1.677   4.118 -1.9860  0.6193  0.4052
 7248SOL    HW233378   0.557   1.723   4.226 -0.4602  2.9069  1.5476
 7249SOL     OW33379   2.890   1.333  16.992  0.0132 -0.1819  0.3630
 7249SOL    HW133380   2.811   1.366  16.948 -0.3547 -0.4350  0.8332
 7249SOL    HW233381   2.954   1.340  16.921 -1.3933  0.3414 -0.8588
 7250SOL     OW33382   2.867   1.941   0.976 -0.0725  0.0962  0.3159
 7250SOL    HW133383   2.922   1.870   1.011  0.0283  0.9631  1.9069
 7250SOL    HW233384   2.801   1.885   0.936 -0.9269  0.6138  1.0130
 7251SOL     OW33385   1.807   2.725   2.767  0.1268  0.1435 -0.8828
 7251SOL    HW133386   1.859   2.794   2.808 -1.4933 -0.4540  2.1623
 7251SOL    HW233387   1.833   2.644   2.812 -3.7666 -2.2264 -2.9054
 7252SOL     OW33388   0.325   0.580   8.209  0.4369  0.0607  0.4197
 7252SOL    HW133389   0.263   0.652   8.223  1.0634  1.2751 -3.0511
 7252SOL    HW233390   0.397   0.612   8.155 -1.8228  3.8313 -0.3491
 7253SOL     OW33391   0.471   0.677   6.435 -0.2377  0.0234 -0.0508
 7253SOL    HW133392   0.538   0.744   6.446  1.2309 -1.4799  0.0119
 7253SOL    HW233393   0.391   0.726   6.456 -0.9205 -0.2656 -1.9906
 7254SOL     OW33394   1.426   4.634   3.607  0.4889  0.2688  0.1338
 7254SOL    HW133395   1.500   4.579   3.580  2.2022  2.3134  0.5837
 7254SOL    HW233396   1.435   4.637   3.702 -2.5973  0.0877  0.4293
 7255SOL     OW33397   2.638   2.955   8.062 -0.5860 -0.1171  0.0680
 7255SOL    HW133398   2.701   2.934   7.993 -0.7593 -0.8701  0.1422
 7255SOL    HW233399   2.702   2.951   8.132 -1.5762 -2.2032  0.8466
 7256SOL     OW33400   4.279   3.121   1.506 -0.7895 -0.6519 -0.3039
 7256SOL    HW133401   4.302   3.029   1.494  1.5773 -0.1363  0.2341
 7256SOL    HW233402   4.295   3.134   1.600  0.2010 -1.4288 -0.3711
 7257SOL     OW33403   3.381   0.281  10.905  0.1702  0.2683  0.2317
 7257SOL    HW133404   3.318   0.330  10.959 -0.4203 -1.4690  1.1390
 7257SOL    HW233405   3.328   0.207  10.875  1.0927 -0.7525  1.1077
 7258SOL     OW33406   0.562   1.778   9.709  0.1852  0.3196 -0.0729
 7258SOL    HW133407   0.472   1.798   9.684  0.8844  2.3717 -0.9920
 7258SOL    HW233408   0.553   1.726   9.789  0.2293 -0.0509 -0.3096
 7259SOL     OW33409   3.061   2.298   4.547 -0.1981  0.4638  0.1937
 7259SOL    HW133410   2.981   2.333   4.510 -1.6868 -3.5135 -0.3363
 7259SOL    HW233411   3.072   2.233   4.478 -0.5381  0.9121 -0.2842
 7260SOL     OW33412   4.221   3.074  15.646 -0.2154  0.4684 -0.2165
 7260SOL    HW133413   4.227   3.143  15.712  2.0485 -0.1555  0.2524
 7260SOL    HW233414   4.312   3.044  15.642 -0.1737  0.5193  0.3469
 7261SOL     OW33415   2.232   2.323  10.403  0.3379  0.3667  0.2648
 7261SOL    HW133416   2.177   2.286  10.472  2.5880 -2.4459  0.5306
 7261SOL    HW233417   2.309   2.269  10.420  1.1121  1.5529  0.5311
 7262SOL     OW33418   0.225   2.624   4.967 -0.3886 -0.3421 -0.3149
 7262SOL    HW133419   0.194   2.543   5.007  0.6733 -0.3370  0.5283
 7262SOL    HW233420   0.217   2.591   4.878 -4.7727 -0.7719  0.2449
 7263SOL     OW33421   1.807   0.110   2.302 -0.1108  0.4334 -0.0186
 7263SOL    HW133422   1.851   0.040   2.350  0.2022 -1.1260 -2.5665
 7263SOL    HW233423   1.854   0.111   2.218 -0.3092 -0.7891 -0.1418
 7264SOL     OW33424   1.638   1.648   3.898  0.2129 -0.0526 -0.2036
 7264SOL    HW133425   1.584   1.677   3.825 -0.2110  0.9635  0.5191
 7264SOL    HW233426   1.584   1.581   3.940  1.0750 -0.3857  0.3662
 7265SOL     OW33427   2.617   1.883   8.527 -0.0424  0.3804 -0.3325
 7265SOL    HW133428   2.547   1.819   8.540  1.0683 -1.4042 -3.1299
 7265SOL    HW233429   2.657   1.863   8.612  1.8755  2.1362 -0.8185
 7266SOL     OW33430   4.298   2.087   7.698 -0.2148 -0.1188  0.2204
 7266SOL    HW133431   4.313   2.178   7.724  0.0217 -0.1185  0.0799
 7266SOL    HW233432   4.204   2.098   7.680 -0.3421 -0.5224  0.6412
 7267SOL     OW33433   2.537   0.245   6.085 -0.4337 -0.1319  0.2582
 7267SOL    HW133434   2.628   0.269   6.068 -0.5381  1.8254  2.4267
 7267SOL    HW233435   2.517   0.214   5.996 -1.2309 -2.6246  1.3143
 7268SOL     OW33436   2.765   3.470  14.484  0.2680 -0.6755  0.4188
 7268SOL    HW133437   2.843   3.497  14.532  0.1753  0.5587 -0.1176
 7268SOL    HW233438   2.746   3.387  14.529 -0.4968 -2.0481 -2.4082
 7269SOL     OW33439   3.786   4.451   3.472 -0.0031  0.6372  0.4354
 7269SOL    HW133440   3.794   4.421   3.562  2.7874 -0.6781 -0.2791
 7269SOL    HW233441   3.703   4.416   3.440 -0.1213 -0.7137  2.2482
 7270SOL     OW33442   0.706   2.573   3.841  0.5552  0.2833 -0.0369
 7270SOL    HW133443   0.683   2.649   3.894 -0.0921  0.1823 -0.1679
 7270SOL    HW233444   0.738   2.619   3.763  1.4503 -0.0314  0.1514
 7271SOL     OW33445   0.326   2.933  14.074  0.2222  0.2303  0.1742
 7271SOL    HW133446   0.403   2.922  14.019  0.4281  1.1870  0.2578
 7271SOL    HW233447   0.360   2.982  14.150  2.4291 -1.4094  0.2125
 7272SOL     OW33448   0.673   0.195  16.754 -1.0944 -0.2077  0.1122
 7272SOL    HW133449   0.578   0.186  16.764 -1.0143  0.4042  1.4041
 7272SOL    HW233450   0.691   0.255  16.827  0.5517  0.2051 -0.6493
 7273SOL     OW33451   4.538   1.254  14.353 -0.1917 -0.0067  0.6001
 7273SOL    HW133452   4.561   1.162  14.361 -1.1006 -0.3587 -0.8866
 7273SOL    HW233453   4.601   1.282  14.287 -0.7324  0.7029  0.3802
 7274SOL     OW33454   4.277   1.103   1.446  0.2622 -0.0249 -0.4537
 7274SOL    HW133455   4.270   1.047   1.523  0.2741  0.5471 -0.0392
 7274SOL    HW233456   4.325   1.043   1.388 -1.5488 -1.8415 -0.0795
 7275SOL     OW33457   3.909   1.003   6.242  0.4017  0.1590 -0.9030
 7275SOL    HW133458   3.815   1.024   6.245  0.3598 -0.1801  0.2671
 7275SOL    HW233459   3.951   1.052   6.313  0.8559 -1.3664 -0.1114
 7276SOL     OW33460   4.136   1.382  12.338  0.0250  0.1458  0.0690
 7276SOL    HW133461   4.098   1.321  12.275  0.8013  2.2532 -2.4138
 7276SOL    HW233462   4.060   1.425  12.378  0.3110  0.1355  0.6167
 7277SOL     OW33463   3.225   2.745   7.036 -0.5106  0.0374 -0.2257
 7277SOL    HW133464   3.189   2.784   7.116  0.8276 -2.1149  1.4176
 7277SOL    HW233465   3.154   2.711   6.981 -0.4782 -0.2044 -0.1184
 7278SOL     OW33466   0.737   1.522   1.582  0.1872  0.3497 -0.3256
 7278SOL    HW133467   0.830   1.508   1.600 -0.2575 -0.3002  1.4379
 7278SOL    HW233468   0.736   1.530   1.486 -0.4533  0.5035 -0.3049
 7279SOL     OW33469   1.826   3.677   3.036  0.3511  0.3820 -0.4316
 7279SOL    HW133470   1.843   3.647   2.947 -0.5123 -2.9515  0.5291
 7279SOL    HW233471   1.831   3.595   3.085  0.7897  1.4669  1.3469
 7280SOL     OW33472   0.005   1.347  17.486  0.2542  0.1033  0.2142
 7280SOL    HW133473   0.094   1.319  17.465 -0.2373 -1.3752  0.0822
 7280SOL    HW233474   4.691   1.293  17.427  0.0363  1.5577 -0.9061
 7281SOL     OW33475   3.107   1.670   7.076  0.5123 -0.2181 -0.3108
 7281SOL    HW133476   3.106   1.687   7.170 -0.8096  1.1830 -0.5672
 7281SOL    HW233477   3.081   1.578   7.084  1.6758 -0.5213 -0.0708
 7282SOL     OW33478   2.063   2.783   6.122 -0.2859  0.4377 -0.6183
 7282SOL    HW133479   2.054   2.751   6.032  0.3273 -0.9862 -0.1633
 7282SOL    HW233480   2.043   2.709   6.179  1.6360  0.8234  0.5502
 7283SOL     OW33481   1.778   3.247   3.702 -0.4479  0.1025  0.2528
 7283SOL    HW133482   1.865   3.250   3.741  0.8426  1.0594 -2.7096
 7283SOL    HW233483   1.744   3.332   3.733  0.9197  0.2556  1.3228
 7284SOL     OW33484   2.708   1.692  16.688  0.0550 -0.6223 -0.2226
 7284SOL    HW133485   2.721   1.739  16.606 -2.2886 -0.7526 -0.6586
 7284SOL    HW233486   2.688   1.769  16.742  2.9241 -0.2307  0.2875
 7285SOL     OW33487   0.595   4.118  10.416  0.2945 -0.2162 -0.4341
 7285SOL    HW133488   0.504   4.137  10.438  0.8189  0.1172  1.4189
 7285SOL    HW233489   0.624   4.067  10.492 -0.7471  1.8689  1.3477
 7286SOL     OW33490   0.283   4.225   8.162 -0.2704 -0.0862 -0.2703
 7286SOL    HW133491   0.306   4.304   8.211  0.7430 -0.0322 -0.8127
 7286SOL    HW233492   0.345   4.230   8.089  0.6115 -0.1465  0.4737
 7287SOL     OW33493   3.758   1.529   4.927  0.3401  0.2575  0.2559
 7287SOL    HW133494   3.735   1.622   4.930  1.3072  0.5402 -1.3976
 7287SOL    HW233495   3.801   1.519   5.012 -0.7008  2.7071  1.0952
 7288SOL     OW33496   4.672   0.191  14.745  0.3229 -0.3571 -0.0969
 7288SOL    HW133497   4.631   0.183  14.831  1.4943 -2.3725  0.2711
 7288SOL    HW233498   4.734   0.119  14.740  1.2270  0.3659  0.7674
 7289SOL     OW33499   2.483   1.169  10.543 -0.5987  0.1367  0.5250
 7289SOL    HW133500   2.432   1.142  10.619  0.2879 -2.2445  0.2919
 7289SOL    HW233501   2.517   1.083  10.518  0.9501  0.5888  1.0786
 7290SOL     OW33502   2.766   1.142   3.819 -0.1959 -0.2159  0.0484
 7290SOL    HW133503   2.689   1.199   3.827  0.6737  0.6073  2.6106
 7290SOL    HW233504   2.762   1.110   3.729 -0.2161  0.4840 -0.1999
 7291SOL     OW33505   4.075   0.334   2.707  0.3626 -0.3845  0.4811
 7291SOL    HW133506   4.134   0.400   2.743  1.0260 -0.8405  0.2282
 7291SOL    HW233507   3.994   0.345   2.758 -1.1977  0.9155 -2.2859
 7292SOL     OW33508   0.230   4.335  16.512  0.1773  0.0454 -0.1141
 7292SOL    HW133509   0.273   4.286  16.442 -0.9566 -0.1449 -0.6910
 7292SOL    HW233510   0.275   4.290  16.584  0.8444  1.4421  0.3445
 7293SOL     OW33511   4.015   1.382  13.236 -0.0910 -0.5820 -1.8501
 7293SOL    HW133512   4.077   1.389  13.308  1.1766 -1.9246 -2.8003
 7293SOL    HW233513   3.955   1.316  13.270  0.1383  0.4711  0.5467
 7294SOL     OW33514   2.550   2.941   8.775 -0.4699  0.3761  0.4174
 7294SOL    HW133515   2.535   2.863   8.827 -1.5103 -1.9938 -3.4401
 7294SOL    HW233516   2.546   2.905   8.686 -0.6717 -0.6279  0.8375
 7295SOL     OW33517   1.771   2.586  10.283  0.2578 -0.3854 -0.5115
 7295SOL    HW133518   1.864   2.605  10.274  0.1213 -0.3394 -1.8510
 7295SOL    HW233519   1.740   2.613  10.197 -0.8115 -1.3646 -0.4426
 7296SOL     OW33520   2.770   4.520  16.721 -0.0253  0.2177 -0.5636
 7296SOL    HW133521   2.811   4.437  16.697  0.0181  0.0506  0.1149
 7296SOL    HW233522   2.696   4.493  16.776 -0.4123  0.7802 -0.8049
 7297SOL     OW33523   1.048   1.300   9.046  0.2982  0.0973 -0.4978
 7297SOL    HW133524   0.965   1.263   9.078  0.8653  0.1716  1.0854
 7297SOL    HW233525   1.024   1.312   8.954 -1.0366 -0.6427 -0.2427
 7298SOL     OW33526   2.168   3.975   7.939 -0.4364 -0.0449 -0.1543
 7298SOL    HW133527   2.105   3.918   7.984 -1.8382 -0.3370 -2.4439
 7298SOL    HW233528   2.124   4.059   7.937 -0.5175 -0.0886 -0.2144
 7299SOL     OW33529   3.300   0.897   6.611  0.3470 -0.3581 -0.3293
 7299SOL    HW133530   3.279   0.814   6.569  2.3184  0.2394 -2.4384
 7299SOL    HW233531   3.219   0.948   6.602  0.2538 -0.6208 -0.9427
 7300SOL     OW33532   0.997   1.098   5.260 -0.0835  0.2621  0.0646
 7300SOL    HW133533   1.016   1.152   5.336 -3.0289 -0.9492  1.6572
 7300SOL    HW233534   1.009   1.158   5.186 -0.6261  0.1178 -0.1382
 7301SOL     OW33535   2.947   4.465   2.731  0.8399  0.1441 -0.1345
 7301SOL    HW133536   3.014   4.470   2.662 -1.6460 -2.6617 -2.7419
 7301SOL    HW233537   3.007   4.464   2.805 -0.6162  1.3712  1.0401
 7302SOL     OW33538   3.609   0.896   7.498 -0.4835  0.1201 -0.7789
 7302SOL    HW133539   3.697   0.923   7.525 -0.7536  0.0405  0.1864
 7302SOL    HW233540   3.548   0.957   7.540 -0.0823 -1.3565  1.9273
 7303SOL     OW33541   2.690   1.196   7.232 -0.1438 -0.8294  0.0935
 7303SOL    HW133542   2.767   1.207   7.177 -0.3951  1.6567  0.2303
 7303SOL    HW233543   2.712   1.151   7.313  0.5597 -1.1476 -0.2747
 7304SOL     OW33544   2.921   3.479   7.429  0.0247 -0.1218  0.2909
 7304SOL    HW133545   2.999   3.479   7.484 -0.1160 -2.1824  0.4741
 7304SOL    HW233546   2.927   3.574   7.421  2.9051 -0.2409  1.0381
 7305SOL     OW33547   2.629   1.833   4.493  0.2432  0.6476  0.0613
 7305SOL    HW133548   2.677   1.909   4.460  0.2329  0.3505 -0.6300
 7305SOL    HW233549   2.645   1.832   4.588 -1.4180  0.3339  0.3324
 7306SOL     OW33550   3.896   1.836   8.622  0.1879  0.2304 -0.0285
 7306SOL    HW133551   3.949   1.911   8.595  0.2095  0.3815  0.4305
 7306SOL    HW233552   3.950   1.772   8.575  0.8339  1.6926 -1.2583
 7307SOL     OW33553   0.761   3.134   7.680 -0.5492 -0.3119  0.2841
 7307SOL    HW133554   0.771   3.043   7.711 -1.0277 -0.0943  1.0689
 7307SOL    HW233555   0.758   3.119   7.585 -1.0962  2.2646 -0.0876
 7308SOL     OW33556   1.271   1.713   6.120 -0.3398 -0.0542  0.5265
 7308SOL    HW133557   1.213   1.651   6.164  0.7293 -1.7020 -0.3737
 7308SOL    HW233558   1.357   1.674   6.137 -0.3325 -0.4131 -0.3144
 7309SOL     OW33559   0.146   0.280  16.138 -0.1995 -0.0629 -0.4325
 7309SOL    HW133560   0.110   0.234  16.214  1.5862  0.9263  1.0170
 7309SOL    HW233561   0.077   0.295  16.074  1.0757 -0.0797 -1.7973
 7310SOL     OW33562   4.210   4.184   6.419 -0.3080 -0.0951  0.6159
 7310SOL    HW133563   4.121   4.213   6.397  1.0225  0.9715 -3.3828
 7310SOL    HW233564   4.196   4.150   6.507 -1.7209 -1.4762 -0.1444
 7311SOL     OW33565   2.790   3.697  11.914  0.0459  0.1124 -0.4733
 7311SOL    HW133566   2.881   3.668  11.923 -0.6758 -2.0654 -0.1134
 7311SOL    HW233567   2.748   3.632  11.857 -0.9988 -1.0328  1.6182
 7312SOL     OW33568   3.834   0.409   5.754  0.6281 -0.6657 -0.7451
 7312SOL    HW133569   3.873   0.335   5.709 -1.9373 -2.1434 -0.5145
 7312SOL    HW233570   3.855   0.482   5.696 -0.3535 -0.6889 -1.1289
 7313SOL     OW33571   4.333   3.160   9.264 -0.2733 -0.5098 -0.0451
 7313SOL    HW133572   4.397   3.116   9.319  0.9699 -0.7149 -1.6592
 7313SOL    HW233573   4.283   3.203   9.334 -0.6553 -2.7508  1.0515
 7314SOL     OW33574   2.022   3.441   2.268 -0.2705  0.2023  0.1052
 7314SOL    HW133575   2.025   3.385   2.190  1.9884 -0.2546  0.4976
 7314SOL    HW233576   1.971   3.389   2.330 -1.5137 -0.1105 -1.1678
 7315SOL     OW33577   3.438   1.143   8.206 -0.1849  0.4299  0.7195
 7315SOL    HW133578   3.343   1.132   8.214 -0.4175  1.0912 -1.1942
 7315SOL    HW233579   3.468   1.093   8.282  1.0657  1.3705  0.8424
 7316SOL     OW33580   1.950   4.418  13.360 -0.5303 -0.6444 -0.3286
 7316SOL    HW133581   1.938   4.331  13.397 -0.4840 -0.6687 -0.3725
 7316SOL    HW233582   1.887   4.422  13.288 -2.4030  2.1903  1.4269
 7317SOL     OW33583   2.278   1.990  13.704  0.4655 -0.4192 -0.4409
 7317SOL    HW133584   2.365   2.028  13.689  1.5380 -1.9791  1.8334
 7317SOL    HW233585   2.223   2.034  13.640  0.3269 -0.5559 -0.4144
 7318SOL     OW33586   3.919   0.231   4.656  0.1224  0.3681  0.1905
 7318SOL    HW133587   3.944   0.302   4.716  0.7196 -0.0787  0.4779
 7318SOL    HW233588   3.922   0.277   4.572 -1.0471 -1.5653 -0.9127
 7319SOL     OW33589   2.591   1.601  17.628  0.2820 -0.2934 -0.1394
 7319SOL    HW133590   2.552   1.518  17.655  0.3810 -0.2625  0.0955
 7319SOL    HW233591   2.682   1.573  17.630  0.0550 -0.9987  0.2933
 7320SOL     OW33592   0.777   0.858   1.456 -0.1305 -0.3948 -0.3079
 7320SOL    HW133593   0.737   0.942   1.480  0.4949 -0.2260  0.1481
 7320SOL    HW233594   0.867   0.886   1.469  0.5374 -0.8731 -3.9258
 7321SOL     OW33595   0.743   4.060   3.603 -0.3678 -0.0637 -0.8787
 7321SOL    HW133596   0.712   3.978   3.564 -4.2201  1.0620 -0.1868
 7321SOL    HW233597   0.837   4.048   3.610 -0.2477  1.6115  0.4841
 7322SOL     OW33598   4.704   1.542  15.910 -0.3674 -0.4960 -0.1176
 7322SOL    HW133599   4.655   1.624  15.915 -1.2937 -1.2456  3.5577
 7322SOL    HW233600   4.710   1.533  15.815  1.4033  2.7446 -0.2961
 7323SOL     OW33601   4.281   0.179   4.706  0.2178  0.2151  1.0818
 7323SOL    HW133602   4.318   0.251   4.655  0.3086  0.5039  1.5497
 7323SOL    HW233603   4.243   0.230   4.778  0.4822  1.3503  0.4091
 7324SOL     OW33604   1.787   3.859  10.117  0.2820  0.3614  0.2712
 7324SOL    HW133605   1.869   3.817  10.142 -0.8094 -1.9976 -0.1470
 7324SOL    HW233606   1.798   3.940  10.166 -1.4634  2.1545 -2.2770
 7325SOL     OW33607   4.524   0.667  17.186 -0.0846  0.1023  0.2227
 7325SOL    HW133608   4.473   0.726  17.131  0.1041  0.6506  0.6309
 7325SOL    HW233609   4.467   0.650  17.261 -0.0296 -2.3568 -0.3139
 7326SOL     OW33610   1.665   4.442  16.406  0.1045  0.2685  0.0164
 7326SOL    HW133611   1.615   4.474  16.481 -0.5600  2.7332 -1.4671
 7326SOL    HW233612   1.754   4.476  16.416 -0.1014  0.6394  0.5568
 7327SOL     OW33613   3.674   4.109   3.391  0.0289 -0.1875 -0.1676
 7327SOL    HW133614   3.738   4.089   3.459  1.0070  2.3784 -0.3046
 7327SOL    HW233615   3.709   4.067   3.312  1.2318 -1.5835  1.0985
 7328SOL     OW33616   2.724   2.910   0.954 -0.4918  0.5217 -0.1583
 7328SOL    HW133617   2.700   2.926   0.862  1.5781  1.0634 -0.5991
 7328SOL    HW233618   2.797   2.968   0.975  0.8579 -0.5831 -1.8139
 7329SOL     OW33619   3.753   2.694   2.010  0.0697 -0.2747  0.2073
 7329SOL    HW133620   3.724   2.649   2.090 -1.8587 -3.2497 -2.1808
 7329SOL    HW233621   3.718   2.633   1.946  1.4316 -4.0254  2.9996
 7330SOL     OW33622   4.115   3.678  15.014 -0.3517 -0.8201  0.1982
 7330SOL    HW133623   4.186   3.638  14.965 -1.3511 -0.3254 -1.6601
 7330SOL    HW233624   4.143   3.689  15.105  0.2816 -0.2092 -0.0725
 7331SOL     OW33625   1.892   4.158   1.894 -0.3878 -0.5462 -0.1205
 7331SOL    HW133626   1.959   4.146   1.961 -1.5103 -0.4808  1.0182
 7331SOL    HW233627   1.839   4.079   1.904 -1.9442  0.7104  1.6400
 7332SOL     OW33628   4.382   4.431  11.607  0.5301  0.2163 -0.0041
 7332SOL    HW133629   4.433   4.351  11.597 -1.4053 -1.2162  1.4684
 7332SOL    HW233630   4.392   4.445  11.701  0.6682 -0.2559  0.0529
 7333SOL     OW33631   2.568   0.692   4.012  0.2933  0.1016 -0.4567
 7333SOL    HW133632   2.561   0.771   3.958 -0.9977 -0.6747 -1.4356
 7333SOL    HW233633   2.664   0.690   4.013  0.2717 -1.2856 -1.1253
 7334SOL     OW33634   3.000   3.718  14.553  0.3075 -0.2175  0.3292
 7334SOL    HW133635   3.043   3.735  14.469 -0.4353  4.1168  0.8574
 7334SOL    HW233636   3.078   3.719  14.610  1.1898 -0.0425 -0.8805
 7335SOL     OW33637   2.476   3.242   1.858  0.1338 -0.1302  0.2296
 7335SOL    HW133638   2.414   3.286   1.800  0.7079 -0.4299 -0.6126
 7335SOL    HW233639   2.420   3.250   1.936 -0.9220  0.0739 -0.5485
 7336SOL     OW33640   4.526   1.243   1.967  0.0702  0.0658  0.3425
 7336SOL    HW133641   4.452   1.183   1.972 -1.0160  1.4911  1.3922
 7336SOL    HW233642   4.502   1.309   1.901  2.7608 -0.0231 -0.7352
 7337SOL     OW33643   4.722   0.680  14.093 -0.2458 -0.0632 -0.1968
 7337SOL    HW133644   4.686   0.617  14.155  0.9920 -1.0402 -0.4660
 7337SOL    HW233645   0.060   0.718  14.135 -0.8581  1.5226 -0.5298
 7338SOL     OW33646   1.033   3.070  14.293 -0.7291  0.2066 -0.0599
 7338SOL    HW133647   1.087   3.128  14.238 -0.1108 -0.3076  0.0063
 7338SOL    HW233648   1.073   2.984  14.281 -1.2694 -0.0028 -0.3426
 7339SOL     OW33649   2.250   3.409  12.424  0.2075  0.2212  0.3284
 7339SOL    HW133650   2.219   3.335  12.475 -0.1278 -0.0126 -0.2133
 7339SOL    HW233651   2.270   3.363  12.342  1.1615 -0.3750  0.8980
 7340SOL     OW33652   2.992   2.095  14.373  0.1801 -0.0678  0.1610
 7340SOL    HW133653   2.914   2.148  14.356 -0.2302 -0.5055  0.6571
 7340SOL    HW233654   3.027   2.144  14.448 -1.8501  0.2813  0.8812
 7341SOL     OW33655   0.175   2.146  11.177  0.2270  0.2399  0.2879
 7341SOL    HW133656   0.105   2.081  11.179  0.5834 -0.2112 -1.4727
 7341SOL    HW233657   0.204   2.150  11.268  1.7318  2.1602 -0.2755
 7342SOL     OW33658   4.134   4.182   6.021 -0.2406 -0.3404  0.1234
 7342SOL    HW133659   4.139   4.269   6.060  0.7154 -0.5240  0.4165
 7342SOL    HW233660   4.169   4.201   5.934 -0.6708 -1.0022 -0.2007
 7343SOL     OW33661   4.373   2.942   5.441 -0.6324 -0.7338 -0.2117
 7343SOL    HW133662   4.330   2.907   5.519  0.1223 -0.3793  0.3566
 7343SOL    HW233663   4.349   3.035   5.449 -0.0558 -0.6032 -0.0415
 7344SOL     OW33664   1.908   3.302   6.801 -0.3228 -0.1448 -0.0604
 7344SOL    HW133665   1.944   3.217   6.828  0.4268  0.1357 -0.1783
 7344SOL    HW233666   1.947   3.357   6.869 -0.3033  0.4277 -0.5403
 7345SOL     OW33667   0.101   4.295   4.344  0.6772 -0.0555 -0.9100
 7345SOL    HW133668   0.074   4.353   4.273 -0.3532  0.5118 -0.0452
 7345SOL    HW233669   0.094   4.360   4.413  0.3829 -0.3264 -0.6865
 7346SOL     OW33670   0.819   0.527   7.730  0.2186 -0.0578  0.0950
 7346SOL    HW133671   0.910   0.497   7.731  0.7810  1.6391  0.6339
 7346SOL    HW233672   0.794   0.554   7.642  2.1222 -0.1412 -0.4729
 7347SOL     OW33673   3.722   3.176   1.544  0.0915 -0.1679  0.0660
 7347SOL    HW133674   3.736   3.083   1.525  0.8907 -0.2899  1.2732
 7347SOL    HW233675   3.807   3.215   1.526  0.4741  0.1452  2.5118
 7348SOL     OW33676   0.525   1.051   3.802 -0.2784  0.3737  0.8554
 7348SOL    HW133677   0.539   1.022   3.712 -2.5104  1.8825  0.0302
 7348SOL    HW233678   0.436   1.022   3.823 -0.1641 -1.0223 -0.6057
 7349SOL     OW33679   3.550   3.714   7.495  0.2632  0.2970 -0.2741
 7349SOL    HW133680   3.536   3.776   7.423  1.1570  1.3865  0.4781
 7349SOL    HW233681   3.640   3.684   7.482  0.3584  0.7405 -0.6453
 7350SOL     OW33682   1.539   1.208   1.332 -0.0219  0.0694 -0.1799
 7350SOL    HW133683   1.626   1.193   1.294  0.1771  0.0546  0.2788
 7350SOL    HW233684   1.509   1.117   1.338  0.1045  0.1507  1.9357
 7351SOL     OW33685   3.225   0.741   0.756 -0.0045  0.1766 -0.1027
 7351SOL    HW133686   3.164   0.677   0.719  0.6286 -0.8866  0.6891
 7351SOL    HW233687   3.310   0.701   0.738  0.0294  0.1876  0.0357
 7352SOL     OW33688   1.849   1.428  14.607 -0.0878 -0.0208 -0.0640
 7352SOL    HW133689   1.855   1.365  14.679  0.7161  0.4707  0.2973
 7352SOL    HW233690   1.929   1.413  14.556 -0.5480  0.7287 -1.0106
 7353SOL     OW33691   0.027   0.083  14.337  0.1751  1.0837  0.0469
 7353SOL    HW133692   4.675   0.091  14.311  0.2316 -0.1300 -0.5444
 7353SOL    HW233693   0.055   0.003  14.292 -0.9389  0.4089  0.5529
 7354SOL     OW33694   3.589   2.568   2.218  0.2660  0.1727 -0.1783
 7354SOL    HW133695   3.502   2.546   2.252  0.5685  1.0031  1.1313
 7354SOL    HW233696   3.643   2.518   2.279  2.0526 -1.1532 -2.8328
 7355SOL     OW33697   3.643   1.189   2.352 -0.3592 -0.2747  0.2933
 7355SOL    HW133698   3.634   1.100   2.384 -0.0699 -0.3559  0.1458
 7355SOL    HW233699   3.607   1.240   2.425 -1.9303 -0.5682 -0.2767
 7356SOL     OW33700   3.367   3.664   6.350 -0.0601  0.4213 -0.2473
 7356SOL    HW133701   3.414   3.747   6.359 -0.6111  0.8195 -1.0707
 7356SOL    HW233702   3.365   3.643   6.444  1.2350 -3.5186 -1.1028
 7357SOL     OW33703   3.596   1.295  17.624 -0.4893 -0.1214  0.3372
 7357SOL    HW133704   3.670   1.263  17.573 -0.7078 -1.2189  0.7218
 7357SOL    HW233705   3.621   1.276  17.714 -1.6860 -2.2576  0.1943
 7358SOL     OW33706   2.135   2.534   4.005 -0.7426 -0.4141  0.0172
 7358SOL    HW133707   2.105   2.624   4.004  0.2621 -0.0777 -0.2968
 7358SOL    HW233708   2.154   2.511   3.914 -0.1640 -1.7631  0.4743
 7359SOL     OW33709   0.363   0.112   8.405 -0.3570 -0.1193  0.4096
 7359SOL    HW133710   0.409   0.045   8.355  0.7429  1.0641 -0.1721
 7359SOL    HW233711   0.346   0.168   8.330 -0.5763 -0.2166  0.3879
 7360SOL     OW33712   3.476   0.844  17.615  0.7675  0.5647 -0.0481
 7360SOL    HW133713   3.495   0.753  17.638 -1.6359  0.2855  0.8735
 7360SOL    HW233714   3.468   0.836  17.520  1.1989 -0.2298 -0.0162
 7361SOL     OW33715   2.420   4.205   9.190 -0.4405  0.2560  0.2674
 7361SOL    HW133716   2.487   4.272   9.199  0.1202 -0.5835  2.3251
 7361SOL    HW233717   2.428   4.182   9.097  0.4620 -2.0086  0.8925
 7362SOL     OW33718   0.733   2.759   3.636 -0.0258 -0.7996  0.0914
 7362SOL    HW133719   0.771   2.839   3.673 -2.0224  0.6582 -1.0141
 7362SOL    HW233720   0.773   2.771   3.550 -1.5619 -0.2929 -0.5362
 7363SOL     OW33721   2.729   3.346   1.873 -0.2184 -0.8244  0.1074
 7363SOL    HW133722   2.639   3.315   1.863 -0.1629 -2.0934  3.1974
 7363SOL    HW233723   2.738   3.342   1.969  1.3966  1.4307  0.0499
 7364SOL     OW33724   1.176   4.151   6.734  0.4171 -0.0458  0.0617
 7364SOL    HW133725   1.088   4.145   6.770  0.2654 -0.8608 -0.4382
 7364SOL    HW233726   1.212   4.065   6.757  2.0375  0.7843  0.6424
 7365SOL     OW33727   0.768   3.479   8.356 -0.0480 -0.1347  0.1564
 7365SOL    HW133728   0.720   3.494   8.437  1.6220 -1.2603  1.3537
 7365SOL    HW233729   0.782   3.566   8.319 -0.1062  0.4204  1.4252
 7366SOL     OW33730   1.439   3.432  14.158 -0.6494  0.7588  0.1882
 7366SOL    HW133731   1.449   3.504  14.220 -2.3460  0.1955  1.1129
 7366SOL    HW233732   1.472   3.357  14.207 -0.5122  1.2911  0.9117
 7367SOL     OW33733   1.323   2.318  14.217  0.9698 -0.5253  0.1045
 7367SOL    HW133734   1.299   2.249  14.155 -0.1599  0.2908 -0.3720
 7367SOL    HW233735   1.418   2.305  14.220  0.9941 -0.6708 -1.1202
 7368SOL     OW33736   4.106   4.590   0.948 -0.1003 -0.5332  0.3857
 7368SOL    HW133737   4.072   4.641   1.021  1.8530  1.1547  0.1380
 7368SOL    HW233738   4.192   4.633   0.948  0.4498 -1.6381  1.3871
 7369SOL     OW33739   2.096   4.521  13.130  0.1760 -0.7213 -0.0504
 7369SOL    HW133740   2.032   4.587  13.104  0.7637  0.3074  1.1364
 7369SOL    HW233741   2.069   4.496  13.218  2.1849  2.5391  1.4773
 7370SOL     OW33742   1.033   1.488   6.755 -0.5825  0.1673 -0.2217
 7370SOL    HW133743   1.060   1.570   6.797 -2.0091 -0.9856  2.9747
 7370SOL    HW233744   1.035   1.517   6.664  2.0404 -2.2825 -0.9482
 7371SOL     OW33745   0.307   3.258   7.011 -0.3147  0.0522  0.6381
 7371SOL    HW133746   0.343   3.169   7.003  0.9038  0.4999  1.3078
 7371SOL    HW233747   0.281   3.253   7.103 -2.5367 -2.4820 -0.0949
 7372SOL     OW33748   3.851   4.501  14.686  0.7323 -0.1946  0.1722
 7372SOL    HW133749   3.926   4.554  14.661 -1.2798  0.9676 -3.3150
 7372SOL    HW233750   3.786   4.566  14.711 -0.3577 -1.9862  1.9806
 7373SOL     OW33751   1.875   4.234   7.402 -0.2055 -0.0558  0.0496
 7373SOL    HW133752   1.860   4.302   7.468  1.7141 -0.3375  0.7832
 7373SOL    HW233753   1.964   4.256   7.374  0.2334 -0.7357  0.9087
 7374SOL     OW33754   0.152   3.332   8.126 -0.3412 -0.1469 -0.2958
 7374SOL    HW133755   0.218   3.397   8.102  1.0325 -1.8798 -1.1657
 7374SOL    HW233756   0.152   3.353   8.219 -0.7930  2.6590 -0.9418
 7375SOL     OW33757   4.239   1.030   8.002 -0.2180 -0.4219  0.5291
 7375SOL    HW133758   4.229   1.106   7.944 -2.1596 -2.5144 -1.8652
 7375SOL    HW233759   4.161   0.976   7.990  1.5339 -2.9156  0.3543
 7376SOL     OW33760   2.886   4.285   9.418  0.0535  0.4882 -0.1516
 7376SOL    HW133761   2.874   4.192   9.435 -1.2257  0.7893  0.5382
 7376SOL    HW233762   2.822   4.326   9.475 -0.0787  0.4668 -0.2826
 7377SOL     OW33763   3.668   3.773   5.578  0.6147 -0.0926  0.2557
 7377SOL    HW133764   3.610   3.824   5.635  0.7120 -0.4974  0.7186
 7377SOL    HW233765   3.754   3.797   5.614  0.6453  0.7343 -0.3760
 7378SOL     OW33766   1.991   1.162   5.506  0.1078 -0.3515 -0.0296
 7378SOL    HW133767   2.043   1.088   5.476 -1.2251 -1.1022 -0.4903
 7378SOL    HW233768   2.067   1.205   5.545  0.0873 -0.5712  0.2460
 7379SOL     OW33769   4.241   1.347   1.255  0.3215  0.3625  0.1578
 7379SOL    HW133770   4.240   1.280   1.323 -2.0352 -0.0399 -0.2849
 7379SOL    HW233771   4.149   1.370   1.242  0.9323  3.0572  0.5625
 7380SOL     OW33772   1.444   1.271   0.933  0.0081  0.1859 -0.1788
 7380SOL    HW133773   1.415   1.350   0.886 -0.3924  0.1475  0.0008
 7380SOL    HW233774   1.525   1.303   0.974  0.3184  1.1522 -1.5390
 7381SOL     OW33775   0.715   1.128   1.538 -0.4512 -0.3212  0.0897
 7381SOL    HW133776   0.775   1.202   1.528 -0.1444 -0.2230  2.7448
 7381SOL    HW233777   0.652   1.173   1.481 -2.0563  1.5431  3.3475
 7382SOL     OW33778   3.346   4.360  14.193  0.6952  0.6174 -0.1527
 7382SOL    HW133779   3.440   4.347  14.207  1.0223  1.3261 -1.6638
 7382SOL    HW233780   3.327   4.396  14.279 -2.0394  1.3308 -1.0573
 7383SOL     OW33781   0.361   3.582   7.737  0.1974 -0.2638 -0.7530
 7383SOL    HW133782   0.355   3.486   7.730 -0.4186 -0.2558 -0.2889
 7383SOL    HW233783   0.276   3.609   7.702 -0.1233  1.2967  1.3019
 7384SOL     OW33784   4.382   4.639   6.970 -0.1292 -0.3882  0.4621
 7384SOL    HW133785   4.320   4.570   6.949  0.2991 -1.0276  1.2987
 7384SOL    HW233786   4.462   4.590   6.953  0.4207  0.1882  1.3566
 7385SOL     OW33787   4.621   4.657  15.397 -0.4549  0.3633 -0.8317
 7385SOL    HW133788   4.689   4.593  15.377 -0.1705  1.1734 -2.4688
 7385SOL    HW233789   4.587   4.620  15.478 -0.7088  0.8773 -0.7056
 7386SOL     OW33790   2.579   1.359  14.304 -0.4271  0.1504  0.0344
 7386SOL    HW133791   2.504   1.355  14.244  0.9616  2.2586 -1.8433
 7386SOL    HW233792   2.538   1.396  14.382  0.3984 -1.0039  1.0186
 7387SOL     OW33793   3.650   0.329  14.622  1.1356 -0.0138  0.3090
 7387SOL    HW133794   3.713   0.388  14.665 -0.2143  1.2425  0.5360
 7387SOL    HW233795   3.671   0.245  14.664 -0.6728 -0.0170  1.1998
 7388SOL     OW33796   1.455   0.789   5.093  0.0973  0.0653  0.2287
 7388SOL    HW133797   1.370   0.811   5.132  0.1540 -2.6601  1.8879
 7388SOL    HW233798   1.509   0.848   5.146 -0.2954 -1.8875  2.7634
 7389SOL     OW33799   1.555   0.456   2.372  0.5667 -0.7060 -0.0034
 7389SOL    HW133800   1.542   0.416   2.286 -0.4401 -1.2391  0.3962
 7389SOL    HW233801   1.587   0.375   2.413 -0.2408 -0.7642  0.5094
 7390SOL     OW33802   2.936   1.905  15.017 -0.3042 -0.1845  0.3502
 7390SOL    HW133803   2.981   1.926  14.936 -1.1839  1.8908  0.3942
 7390SOL    HW233804   2.999   1.855  15.069  2.4603 -0.2888 -3.1161
 7391SOL     OW33805   4.124   1.448   4.847  0.6679  0.3420  0.0214
 7391SOL    HW133806   4.097   1.538   4.834  0.1191  0.1317 -0.2729
 7391SOL    HW233807   4.121   1.452   4.943  0.4908 -0.8828  0.0739
 7392SOL     OW33808   2.698   4.166   3.463  0.3813  0.0372  0.3557
 7392SOL    HW133809   2.760   4.194   3.395 -1.2459  1.7305 -0.4354
 7392SOL    HW233810   2.614   4.197   3.428  2.1182  3.3585 -0.8794
 7393SOL     OW33811   3.312   3.925   1.220  0.3480 -0.2491  0.0025
 7393SOL    HW133812   3.376   3.968   1.163  0.2646  1.2245  1.0061
 7393SOL    HW233813   3.339   3.943   1.310  0.3785 -0.5185  0.0458
 7394SOL     OW33814   1.622   4.489   9.278  0.8037 -0.3500  0.6392
 7394SOL    HW133815   1.558   4.532   9.335  0.2062 -3.3506  2.1829
 7394SOL    HW233816   1.574   4.410   9.255 -1.9168  1.0083  1.6490
 7395SOL     OW33817   2.825   0.631   2.889 -0.5105  0.0793  0.7302
 7395SOL    HW133818   2.841   0.655   2.980 -0.3534 -1.9196  1.2391
 7395SOL    HW233819   2.828   0.714   2.843  1.3828 -1.0241 -1.1563
 7396SOL     OW33820   0.885   4.624   4.167 -0.0160 -0.3745  0.1673
 7396SOL    HW133821   0.965   4.608   4.217 -0.3660 -0.1229  0.8063
 7396SOL    HW233822   0.919   4.605   4.080 -0.5529  1.6429 -0.4757
 7397SOL     OW33823   0.075   2.577  15.354  0.3005  0.0094  0.1340
 7397SOL    HW133824   0.110   2.496  15.391  3.6603  1.0138 -0.8551
 7397SOL    HW233825   0.154   2.621  15.324  0.0606  0.9874  0.9521
 7398SOL     OW33826   1.443   3.626   8.488  0.3898  0.6750 -0.0082
 7398SOL    HW133827   1.417   3.718   8.483  0.2843  0.6410 -0.0902
 7398SOL    HW233828   1.434   3.605   8.395 -0.9791  0.2978  0.2190
 7399SOL     OW33829   3.448   0.400  13.533 -0.5434  0.0239 -0.4794
 7399SOL    HW133830   3.423   0.359  13.617 -0.5820  0.1438 -0.4324
 7399SOL    HW233831   3.429   0.327  13.475 -2.4229  0.2513 -0.1532
 7400SOL     OW33832   3.333   3.921   4.992  0.3375 -0.4167 -0.4226
 7400SOL    HW133833   3.250   3.881   5.018  0.7196 -0.8782  0.0790
 7400SOL    HW233834   3.301   3.995   4.940 -3.5710 -1.7578  0.0211
 7401SOL     OW33835   2.655   3.787   5.309  0.0998 -0.2222  0.2976
 7401SOL    HW133836   2.565   3.778   5.275 -0.4582 -0.9003  1.9787
 7401SOL    HW233837   2.695   3.832   5.234 -0.8300  1.6740  0.9291
 7402SOL     OW33838   0.645   3.616   2.063 -0.1492  0.6128 -0.3042
 7402SOL    HW133839   0.671   3.660   1.982 -1.0824  1.7125 -0.0020
 7402SOL    HW233840   0.562   3.661   2.076 -1.4281 -1.5151 -1.0984
 7403SOL     OW33841   2.046   0.815   9.260 -0.3015  0.3597 -0.2115
 7403SOL    HW133842   2.089   0.817   9.346  2.3546 -1.4504 -1.4971
 7403SOL    HW233843   2.118   0.801   9.198  0.1909 -1.7168  0.8314
 7404SOL     OW33844   0.555   4.368   8.158 -0.1349 -0.2160  0.0283
 7404SOL    HW133845   0.630   4.428   8.146 -0.9816  0.1974 -3.0643
 7404SOL    HW233846   0.570   4.311   8.083  1.1300  0.6501 -0.3790
 7405SOL     OW33847   1.531   1.950   1.391  0.1164  0.4589  0.3542
 7405SOL    HW133848   1.620   1.956   1.356  0.9095 -0.7695  2.1122
 7405SOL    HW233849   1.475   1.952   1.314  1.0743 -1.2550 -0.3955
 7406SOL     OW33850   0.025   2.487   5.156 -0.1437 -0.0379 -0.4487
 7406SOL    HW133851   0.015   2.398   5.189 -0.1145  0.4419  0.8655
 7406SOL    HW233852   4.687   2.502   5.102  0.7169  1.1217 -1.3478
 7407SOL     OW33853   3.742   0.278   0.919  0.3660 -0.1676 -0.1620
 7407SOL    HW133854   3.678   0.259   0.849  0.1779  3.2039 -0.8840
 7407SOL    HW233855   3.716   0.368   0.937  1.0294 -0.2131  0.9797
 7408SOL     OW33856   4.370   2.200  14.799  0.1677 -0.2818  0.2339
 7408SOL    HW133857   4.335   2.289  14.795  1.8120  0.3724  0.3901
 7408SOL    HW233858   4.299   2.161  14.851 -0.2371 -0.3781 -0.3845
 7409SOL     OW33859   0.757   1.636  11.740 -0.8887  1.2042  0.4737
 7409SOL    HW133860   0.772   1.669  11.651  5.2798  1.9966  1.7954
 7409SOL    HW233861   0.685   1.692  11.768 -1.7930 -1.1396  2.7859
 7410SOL     OW33862   4.618   3.540   3.680  0.8568 -0.1438  0.3160
 7410SOL    HW133863   4.554   3.523   3.749  0.3466 -3.5251 -1.0088
 7410SOL    HW233864   4.565   3.595   3.622  1.6195 -1.1870 -1.3703
 7411SOL     OW33865   2.252   2.593   1.348  0.1515  0.1255  0.1839
 7411SOL    HW133866   2.244   2.654   1.421 -0.8315 -0.9283  0.9735
 7411SOL    HW233867   2.219   2.654   1.282 -0.5127 -0.8720 -0.4117
 7412SOL     OW33868   2.786   1.765  10.382 -0.0540  0.2521  0.3116
 7412SOL    HW133869   2.860   1.738  10.328  0.5324  0.2256  1.1350
 7412SOL    HW233870   2.844   1.780  10.456 -1.5198  0.3856  1.4388
 7413SOL     OW33871   4.659   3.432   1.879 -0.2248  0.1895 -0.6386
 7413SOL    HW133872   4.648   3.525   1.898 -0.4830  0.0256  0.0340
 7413SOL    HW233873   4.575   3.421   1.834 -1.5639 -0.8150  2.0891
 7414SOL     OW33874   0.070   0.085   5.913 -0.0115  0.4474 -0.1853
 7414SOL    HW133875   0.090   0.073   5.820 -0.0934  2.0668 -0.4038
 7414SOL    HW233876   0.152   0.053   5.951  0.1088 -1.7801 -2.3635
 7415SOL     OW33877   3.290   3.276   4.126 -0.2279  0.0738  0.5949
 7415SOL    HW133878   3.199   3.292   4.101 -0.3146 -0.6726  0.4319
 7415SOL    HW233879   3.328   3.364   4.125 -0.3692  0.0812 -2.7165
 7416SOL     OW33880   1.555   4.425   2.558  0.0974 -0.4785 -0.4659
 7416SOL    HW133881   1.645   4.453   2.575  0.0109  0.9860 -2.4317
 7416SOL    HW233882   1.554   4.379   2.475 -2.1562  0.8273 -1.1758
 7417SOL     OW33883   2.013   4.707   6.109  0.0536  0.1557  0.7225
 7417SOL    HW133884   2.056   4.696   6.194  0.4362  1.1053  0.6456
 7417SOL    HW233885   1.992   0.061   6.114  0.0516  0.2012 -0.0445
 7418SOL     OW33886   4.127   1.566  14.370  0.1816 -0.4159 -0.5015
 7418SOL    HW133887   4.056   1.509  14.342 -0.2081  0.4455 -1.2686
 7418SOL    HW233888   4.115   1.560  14.464 -0.8210  0.4189 -0.5757
 7419SOL     OW33889   0.777   2.449  12.146  0.2222 -0.1768  0.2304
 7419SOL    HW133890   0.773   2.409  12.233  2.1002 -1.1163 -0.1219
 7419SOL    HW233891   0.855   2.413  12.106 -0.4753 -0.2041 -1.1112
 7420SOL     OW33892   2.680   0.807   7.610 -0.3182  0.5601  0.6154
 7420SOL    HW133893   2.699   0.794   7.703  1.1082 -1.5828  0.0127
 7420SOL    HW233894   2.592   0.768   7.609 -0.6652  1.3211  0.8116
 7421SOL     OW33895   4.564   4.443   9.580  0.2717 -0.3823 -0.2125
 7421SOL    HW133896   4.496   4.399   9.529 -1.0756 -0.7419  1.9126
 7421SOL    HW233897   4.559   4.530   9.541 -2.7295  0.3376  1.8517
 7422SOL     OW33898   1.069   2.341  16.738  0.2805  0.2102 -0.2168
 7422SOL    HW133899   1.141   2.278  16.746 -1.2783 -1.5204  0.1617
 7422SOL    HW233900   1.087   2.409  16.802  0.8276  0.0875 -0.2424
 7423SOL     OW33901   1.224   4.221  12.737 -0.0924 -0.3753  0.2728
 7423SOL    HW133902   1.134   4.188  12.741 -0.3189  0.1575 -0.2997
 7423SOL    HW233903   1.261   4.142  12.698 -1.1766 -0.2965 -0.9533
 7424SOL     OW33904   2.994   1.112   7.593  0.2953  0.3062  0.4378
 7424SOL    HW133905   3.020   1.153   7.676  0.9739  2.3781 -0.8107
 7424SOL    HW233906   3.078   1.092   7.551  1.7145  1.7256  2.5723
 7425SOL     OW33907   1.118   3.840   4.445  0.4155 -0.2519  0.0542
 7425SOL    HW133908   1.213   3.849   4.454  0.2865  0.8896  0.2627
 7425SOL    HW233909   1.103   3.751   4.478  0.0936 -0.0171  0.5433
 7426SOL     OW33910   3.125   3.510   3.880  0.5383 -0.0465  0.3580
 7426SOL    HW133911   3.127   3.474   3.791 -0.0470 -1.0963  0.7612
 7426SOL    HW233912   3.185   3.583   3.872 -0.2067  0.6932  1.6406
 7427SOL     OW33913   2.790   1.848   9.403 -0.7894  0.7626  0.0447
 7427SOL    HW133914   2.871   1.870   9.449 -1.0962 -1.0832  1.4625
 7427SOL    HW233915   2.817   1.785   9.336 -0.5782  1.1651 -0.2444
 7428SOL     OW33916   3.606   4.351  14.248  0.7188  0.5899 -0.2705
 7428SOL    HW133917   3.662   4.277  14.271  0.7124  0.7186  0.1580
 7428SOL    HW233918   3.669   4.417  14.279 -0.6058  1.5368  0.4208
 7429SOL     OW33919   1.990   0.874   2.456 -0.2700  0.7556 -0.2314
 7429SOL    HW133920   1.908   0.860   2.408 -0.2545  1.4156 -0.4403
 7429SOL    HW233921   2.055   0.828   2.402 -0.2437 -0.0377  0.4683
 7430SOL     OW33922   0.438   2.120   1.046 -0.3448  0.2379 -0.3872
 7430SOL    HW133923   0.377   2.056   1.083 -1.0465  1.3722  0.4181
 7430SOL    HW233924   0.441   2.187   1.114 -0.2371  0.5201 -0.6727
 7431SOL     OW33925   0.694   0.345   3.686  0.2701 -0.0036  0.0190
 7431SOL    HW133926   0.747   0.269   3.708 -0.3484 -0.9533 -1.8025
 7431SOL    HW233927   0.629   0.287   3.647 -0.1622 -0.2268  1.0762
 7432SOL     OW33928   1.151   3.227   0.699  0.0207  0.0586 -0.0141
 7432SOL    HW133929   1.234   3.207   0.742 -0.5771 -2.2965  0.0679
 7432SOL    HW233930   1.157   3.322   0.708  0.4068 -0.1444  1.9861
 7433SOL     OW33931   3.710   0.440   2.575  0.1251 -0.7073 -0.0786
 7433SOL    HW133932   3.796   0.467   2.544  0.9105 -0.9890  1.8639
 7433SOL    HW233933   3.670   0.421   2.490 -0.6993  2.3126 -0.3816
 7434SOL     OW33934   1.017   3.581   6.703 -0.0356 -0.0532 -0.4082
 7434SOL    HW133935   1.015   3.577   6.608 -3.3469 -2.8217 -0.2388
 7434SOL    HW233936   1.091   3.527   6.729  0.4376  0.1873 -1.2737
 7435SOL     OW33937   1.135   3.188   7.927  0.0820 -0.1935  0.3930
 7435SOL    HW133938   1.203   3.231   7.875  0.8180  1.4186  2.6668
 7435SOL    HW233939   1.144   3.099   7.893  1.1714  0.0886 -0.0548
 7436SOL     OW33940   0.939   3.081   4.348  0.2945  0.0848  0.1962
 7436SOL    HW133941   0.981   3.025   4.284  0.8742 -0.0356  0.6905
 7436SOL    HW233942   0.910   3.151   4.289 -0.1406 -0.1655  0.1104
 7437SOL     OW33943   1.273   0.743   2.494  0.1571 -0.0475 -0.5883
 7437SOL    HW133944   1.178   0.732   2.487  0.1425 -1.1227  1.2841
 7437SOL    HW233945   1.292   0.660   2.538  3.1353  0.9910  0.1104
 7438SOL     OW33946   2.545   0.684   8.743  0.7815 -0.1788 -0.1155
 7438SOL    HW133947   2.572   0.628   8.670 -0.2598  0.2331 -0.8338
 7438SOL    HW233948   2.578   0.766   8.705  0.5978  0.1506  0.4334
 7439SOL     OW33949   2.884   2.018   2.786  0.3238 -0.1370 -0.1075
 7439SOL    HW133950   2.794   2.049   2.794  0.3330  0.3074 -1.7017
 7439SOL    HW233951   2.908   2.090   2.728  1.1959  0.0262  0.4497
 7440SOL     OW33952   3.629   3.061   2.143 -0.5533  0.4193 -0.6369
 7440SOL    HW133953   3.620   2.970   2.169  2.2753  0.6785  1.2283
 7440SOL    HW233954   3.540   3.096   2.145 -0.3094  1.0471 -0.6705
 7441SOL     OW33955   1.315   1.888   4.902 -0.1419  0.5332 -0.0963
 7441SOL    HW133956   1.240   1.835   4.927 -0.1973 -0.0268 -1.4416
 7441SOL    HW233957   1.367   1.902   4.981  0.8852  0.9380 -0.8396
 7442SOL     OW33958   2.741   0.984   4.593  0.4387  0.6263 -0.2919
 7442SOL    HW133959   2.655   1.001   4.555 -1.1008  1.0620  3.3891
 7442SOL    HW233960   2.797   0.957   4.520  0.1675  0.3023 -0.3770
 7443SOL     OW33961   3.694   1.921   6.882 -0.5272 -0.2647 -0.3671
 7443SOL    HW133962   3.695   1.878   6.796 -1.8317 -1.3971  0.1992
 7443SOL    HW233963   3.602   1.921   6.905 -0.6411 -0.0654 -0.8275
 7444SOL     OW33964   1.967   2.138   0.787  0.0118 -0.7102  0.2490
 7444SOL    HW133965   2.008   2.064   0.831  1.1281 -0.4476 -0.3554
 7444SOL    HW233966   1.898   2.156   0.852  1.1357  1.2940  0.8842
 7445SOL     OW33967   4.311   2.505   6.284  0.5376  0.0084  0.3333
 7445SOL    HW133968   4.219   2.489   6.301  0.3742  0.3503 -0.2438
 7445SOL    HW233969   4.352   2.471   6.364  0.9654 -0.2444  0.0098
 7446SOL     OW33970   2.431   1.658   8.479  0.6382 -0.0940 -0.5446
 7446SOL    HW133971   2.411   1.696   8.564  2.0821 -2.2988  0.7716
 7446SOL    HW233972   2.387   1.573   8.485  0.8681 -0.2041 -0.3987
 7447SOL     OW33973   2.956   3.295   5.564  0.0812  0.2707  0.6211
 7447SOL    HW133974   3.014   3.340   5.625 -0.4860 -0.4445  1.6725
 7447SOL    HW233975   2.929   3.218   5.614  1.1513  0.5578  1.6421
 7448SOL     OW33976   2.988   3.187   6.025 -0.7376  0.0255 -0.5517
 7448SOL    HW133977   2.920   3.146   5.971 -0.4775 -0.8009 -0.2546
 7448SOL    HW233978   2.986   3.278   5.994  0.2085  0.3807  0.4344
 7449SOL     OW33979   2.517   1.865  17.546 -0.0366 -0.7255  0.7106
 7449SOL    HW133980   2.607   1.875  17.577  0.7553 -1.1358 -1.4789
 7449SOL    HW233981   2.514   1.770  17.559  1.9887 -0.8305  0.4863
 7450SOL     OW33982   4.414   3.055   4.309  0.1314  0.1535 -0.8640
 7450SOL    HW133983   4.366   3.087   4.233  0.3143  1.2163 -0.5378
 7450SOL    HW233984   4.368   3.094   4.384 -1.0635  1.1119 -2.1003
 7451SOL     OW33985   1.113   1.833   8.488 -0.3805 -0.4440 -0.0212
 7451SOL    HW133986   1.031   1.874   8.516 -2.2559 -4.6488  0.7040
 7451SOL    HW233987   1.177   1.882   8.540 -0.1637  0.0244 -0.7191
 7452SOL     OW33988   2.863   4.003   7.823 -0.1920  0.1892 -0.1968
 7452SOL    HW133989   2.915   3.934   7.780  0.6983  1.0023 -0.4294
 7452SOL    HW233990   2.826   3.953   7.896  1.0495 -1.3627 -0.6106
 7453SOL     OW33991   1.778   2.219   7.416  0.2015  0.3946 -0.2420
 7453SOL    HW133992   1.713   2.265   7.363  1.3874 -2.0399 -3.7829
 7453SOL    HW233993   1.767   2.263   7.500 -1.3267  0.1189 -0.3018
 7454SOL     OW33994   0.494   0.671   8.032  0.2507 -0.1595  0.2764
 7454SOL    HW133995   0.555   0.596   8.034 -0.6461 -0.9365 -1.7632
 7454SOL    HW233996   0.476   0.699   7.943 -0.6218 -2.0974 -0.1558
 7455SOL     OW33997   2.634   1.745   6.056 -0.0931 -0.2855 -0.2719
 7455SOL    HW133998   2.679   1.777   5.978 -1.1707  2.0504  0.0798
 7455SOL    HW233999   2.606   1.826   6.098 -0.9500 -1.3734  1.2389
 7456SOL     OW34000   1.482   2.309   6.255 -0.0090  0.0348  0.0407
 7456SOL    HW134001   1.532   2.386   6.227  0.7728  0.2147  1.9451
 7456SOL    HW234002   1.402   2.348   6.291  0.6990 -0.1472  1.8012
 7457SOL     OW34003   0.412   2.587   7.856 -0.0804 -0.3897 -0.4778
 7457SOL    HW134004   0.433   2.538   7.777 -1.0469 -0.2560 -0.8219
 7457SOL    HW234005   0.343   2.644   7.820  0.0884 -0.0343 -0.2372
 7458SOL     OW34006   4.077   1.287   6.624  0.0361  0.5227 -0.0754
 7458SOL    HW134007   3.982   1.288   6.614 -0.0965  0.6544  1.2528
 7458SOL    HW234008   4.098   1.380   6.627  0.5190  0.3542  1.6684
 7459SOL     OW34009   4.127   2.664   1.617  0.4961  0.0894 -0.1145
 7459SOL    HW134010   4.073   2.739   1.593 -0.5843 -1.3753 -2.2322
 7459SOL    HW234011   4.082   2.619   1.689 -0.1993  2.3200  0.8578
 7460SOL     OW34012   3.818   2.349  14.396  0.2291  0.2152  0.3961
 7460SOL    HW134013   3.748   2.414  14.381 -0.7862 -0.6780  1.2512
 7460SOL    HW234014   3.777   2.275  14.441  1.1998 -0.8511 -0.4769
 7461SOL     OW34015   2.857   4.379   9.697  0.2500  0.1700 -0.4106
 7461SOL    HW134016   2.858   4.471   9.723  1.5164 -0.3718  1.4862
 7461SOL    HW234017   2.776   4.337   9.728  1.2266 -1.8199 -0.5326
 7462SOL     OW34018   2.362   1.391   5.254  0.8078 -0.2967 -0.5043
 7462SOL    HW134019   2.305   1.437   5.316 -1.2816 -0.6178 -2.1746
 7462SOL    HW234020   2.289   1.347   5.210  0.1328 -1.2860  1.5718
 7463SOL     OW34021   4.043   0.757  10.861 -0.4866 -0.3389 -0.0966
 7463SOL    HW134022   4.056   0.667  10.832 -1.0857 -0.0778 -1.1930
 7463SOL    HW234023   3.956   0.754  10.901 -0.4385  1.7998  0.2000
 7464SOL     OW34024   0.540   1.122   4.727  0.1909  0.5564 -0.0772
 7464SOL    HW134025   0.516   1.128   4.635 -2.8100  2.0184  0.8329
 7464SOL    HW234026   0.455   1.086   4.753 -0.4344  1.4715 -0.8568
 7465SOL     OW34027   2.935   1.893   2.327 -0.3124 -0.4949  0.1541
 7465SOL    HW134028   3.001   1.824   2.334  0.9798  0.3899 -3.4138
 7465SOL    HW234029   2.912   1.900   2.234  1.9660 -3.0236 -0.5848
 7466SOL     OW34030   2.534   1.712   2.827  0.4946  0.0552 -0.2913
 7466SOL    HW134031   2.576   1.626   2.833  0.2554  0.0494  1.2486
 7466SOL    HW234032   2.566   1.753   2.746 -2.0424  0.4858 -1.0865
 7467SOL     OW34033   0.050   0.373   3.733 -0.7847  0.4836 -0.1679
 7467SOL    HW134034   0.124   0.313   3.740 -1.6777 -0.7839 -1.4492
 7467SOL    HW234035   0.040   0.358   3.639 -3.7941  1.0542  0.0413
 7468SOL     OW34036   1.899   3.228   9.147 -0.2561  0.3834 -0.8906
 7468SOL    HW134037   1.839   3.154   9.163 -0.6123  0.7141 -0.7004
 7468SOL    HW234038   1.983   3.184   9.160  0.1839  1.3083 -0.6580
 7469SOL     OW34039   0.730   3.306   4.856 -0.0658 -0.2058 -0.4717
 7469SOL    HW134040   0.758   3.358   4.781  1.9052 -1.0847 -0.3271
 7469SOL    HW234041   0.808   3.312   4.910 -0.4266 -0.9155  0.1299
 7470SOL     OW34042   2.994   4.581  11.238 -0.1879  0.1959  0.5607
 7470SOL    HW134043   3.086   4.554  11.231 -0.2034  0.4597 -0.5904
 7470SOL    HW234044   3.002   4.670  11.203  0.4715  1.0253  2.8070
 7471SOL     OW34045   4.098   2.371  10.703 -0.2537 -0.1712  0.3115
 7471SOL    HW134046   4.009   2.337  10.708 -0.8738  1.5864  1.1737
 7471SOL    HW234047   4.108   2.466  10.713  2.2729 -0.3963 -0.1731
 7472SOL     OW34048   0.089   0.973  16.189  0.0831  0.2133 -0.1233
 7472SOL    HW134049   0.167   0.969  16.245  0.6625  1.4674 -0.8277
 7472SOL    HW234050   0.019   0.944  16.248  0.3410  1.1506  0.6531
 7473SOL     OW34051   1.386   0.692  16.498  0.2027  0.1299 -0.1000
 7473SOL    HW134052   1.478   0.668  16.486  0.3890  0.5192  0.6238
 7473SOL    HW234053   1.352   0.629  16.561 -1.0561 -0.6674 -1.5711
 7474SOL     OW34054   0.942   3.993   3.909  0.0620 -0.4453  0.1562
 7474SOL    HW134055   0.889   3.931   3.960  2.3785 -0.5463  2.4469
 7474SOL    HW234056   0.935   3.953   3.822  3.3238 -0.0698 -0.2603
 7475SOL     OW34057   1.801   2.141   1.768  0.0242 -0.6063 -0.2869
 7475SOL    HW134058   1.713   2.177   1.753  0.5278  1.7787  2.3981
 7475SOL    HW234059   1.783   2.051   1.741  1.7281 -1.3469  1.0475
 7476SOL     OW34060   0.550   2.113   9.141 -0.1528 -0.0358  0.3434
 7476SOL    HW134061   0.488   2.117   9.068 -0.3696 -2.0688  0.4112
 7476SOL    HW234062   0.491   2.108   9.216 -0.6476  0.1321 -0.0327
 7477SOL     OW34063   3.559   2.194   5.504 -0.1796 -0.1105  0.7893
 7477SOL    HW134064   3.526   2.157   5.422 -1.8990  1.8047  0.6237
 7477SOL    HW234065   3.654   2.184   5.498 -0.3631 -1.5797  0.3825
 7478SOL     OW34066   1.583   1.381  12.382  0.2852  0.5335 -0.0752
 7478SOL    HW134067   1.614   1.318  12.317  0.2173  0.5555 -0.1293
 7478SOL    HW234068   1.655   1.444  12.379  0.8780 -0.1249  0.3718
 7479SOL     OW34069   0.478   3.494   6.539  0.2621  0.7439 -0.2382
 7479SOL    HW134070   0.546   3.462   6.597  0.8274  1.8177 -0.2970
 7479SOL    HW234071   0.528   3.559   6.489  1.6801  0.2480  0.5518
 7480SOL     OW34072   0.636   4.554  17.188 -0.3019 -0.5408 -0.0773
 7480SOL    HW134073   0.586   4.532  17.110 -0.0340  0.7146 -0.5990
 7480SOL    HW234074   0.568   4.596  17.240  2.0626  0.2973  2.3692
 7481SOL     OW34075   1.840   4.256   0.616  0.0721 -0.7210  0.6228
 7481SOL    HW134076   1.832   4.351   0.624 -0.3179 -0.4169 -3.5018
 7481SOL    HW234077   1.934   4.244   0.606  0.2440 -0.0127  1.4654
 7482SOL     OW34078   0.445   2.742  16.829 -0.1547  0.2366  0.0005
 7482SOL    HW134079   0.499   2.711  16.902 -1.0408 -0.1446  0.4847
 7482SOL    HW234080   0.470   2.834  16.826 -0.8331  0.4480  1.1547
 7483SOL     OW34081   2.374   3.051   6.103  0.5445  0.2176  0.3813
 7483SOL    HW134082   2.336   3.030   6.018 -0.9568 -1.1130  1.3812
 7483SOL    HW234083   2.382   3.145   6.087 -0.1879  0.3800  0.9733
 7484SOL     OW34084   2.858   4.031  17.012  0.2119  0.8832  0.3922
 7484SOL    HW134085   2.847   3.992  17.099 -0.2391  2.1133  0.8882
 7484SOL    HW234086   2.795   4.104  17.012  1.1851  1.7077 -0.5916
 7485SOL     OW34087   4.226   0.746   9.459  0.2856  0.0506  0.1807
 7485SOL    HW134088   4.255   0.655   9.448 -1.3436 -0.2565 -1.6309
 7485SOL    HW234089   4.198   0.769   9.370 -0.2852 -0.7368  0.1614
 7486SOL     OW34090   0.638   1.165   0.641 -0.2195  0.3260  0.2329
 7486SOL    HW134091   0.625   1.118   0.724  0.2958 -1.5040 -0.7160
 7486SOL    HW234092   0.648   1.099   0.573  1.5015  0.2319  0.5799
 7487SOL     OW34093   3.152   3.057   4.231 -0.6452 -0.2087  0.6302
 7487SOL    HW134094   3.093   3.099   4.293 -0.4525  2.2412 -0.8351
 7487SOL    HW234095   3.216   3.129   4.229 -0.3743 -0.4415  1.0253
 7488SOL     OW34096   0.846   0.495   8.399 -0.1534  0.2335 -0.5926
 7488SOL    HW134097   0.817   0.411   8.362  0.7846 -1.3313  2.1869
 7488SOL    HW234098   0.759   0.535   8.390 -0.5676 -0.6221 -0.4671
 7489SOL     OW34099   1.472   2.008   6.901  0.4296  0.1672  0.4549
 7489SOL    HW134100   1.565   2.026   6.890  0.0445  0.3087 -2.6720
 7489SOL    HW234101   1.478   1.917   6.931 -1.4281  0.7746  2.6640
 7490SOL     OW34102   2.088   4.703   1.923  0.7741  0.1347  0.1383
 7490SOL    HW134103   2.118   0.021   1.993 -2.3421  2.7692 -0.6976
 7490SOL    HW234104   1.999   4.684   1.951  1.0003 -1.0549  0.0657
 7491SOL     OW34105   3.321   4.488   5.142 -0.2065  0.1455  0.5305
 7491SOL    HW134106   3.351   4.461   5.228  0.2168  0.2241  0.4077
 7491SOL    HW234107   3.297   4.405   5.101  1.2953  0.5839 -1.2794
 7492SOL     OW34108   0.583   2.968  15.674 -0.1289  0.3371  0.1040
 7492SOL    HW134109   0.553   3.014  15.596  0.5749  0.6653  0.0297
 7492SOL    HW234110   0.553   3.020  15.748  0.4004 -1.7369  1.7869
 7493SOL     OW34111   0.255   2.178   2.509 -0.6062 -0.1100 -0.4267
 7493SOL    HW134112   0.167   2.194   2.473 -0.1609  0.2995 -1.3401
 7493SOL    HW234113   0.293   2.150   2.426  0.5272  0.7313 -0.1914
 7494SOL     OW34114   1.506   0.978  16.335  0.2348 -0.1691 -0.1180
 7494SOL    HW134115   1.490   1.057  16.283  0.2449 -0.7514 -1.0090
 7494SOL    HW234116   1.465   0.914  16.278  0.7160 -0.9752  0.4454
 7495SOL     OW34117   2.542   0.645   6.216 -0.5661 -0.2518 -0.4706
 7495SOL    HW134118   2.538   0.598   6.299 -0.1022  1.0754  0.2915
 7495SOL    HW234119   2.468   0.706   6.222 -0.3064  0.0919 -0.7793
 7496SOL     OW34120   1.565   3.485  17.616  0.2968 -0.2366  1.0624
 7496SOL    HW134121   1.599   3.402  17.582 -1.1456  0.8055 -2.8604
 7496SOL    HW234122   1.651   3.527  17.625  1.1244 -1.4694 -1.0142
 7497SOL     OW34123   0.405   4.201   5.319  0.8239  0.4110  0.0147
 7497SOL    HW134124   0.488   4.185   5.363  0.3243 -0.8723  0.4874
 7497SOL    HW234125   0.398   4.296   5.306 -0.1384  0.1849 -1.1235
 7498SOL     OW34126   2.609   2.473  11.041  0.4742 -0.0169  0.0782
 7498SOL    HW134127   2.551   2.508  11.109 -0.6154 -3.9681  1.2111
 7498SOL    HW234128   2.694   2.496  11.078  0.4572 -0.6085  0.4850
 7499SOL     OW34129   1.126   2.936   3.861 -0.0303 -0.6484  0.6166
 7499SOL    HW134130   1.202   2.884   3.886 -1.0039 -1.5434  1.7021
 7499SOL    HW234131   1.168   3.004   3.808  1.7776 -1.6113  0.8157
 7500SOL     OW34132   2.519   4.515   2.333 -0.5128  0.1348  0.0224
 7500SOL    HW134133   2.511   4.602   2.295 -1.2386 -0.3913 -1.0708
 7500SOL    HW234134   2.568   4.537   2.412  0.3131  2.3611 -1.1302
 7501SOL     OW34135   4.316   0.799   9.927 -0.0416 -0.1638  0.3029
 7501SOL    HW134136   4.296   0.734   9.860 -2.2654 -1.0319  1.7911
 7501SOL    HW234137   4.336   0.873   9.870  2.1884 -1.1113 -0.1611
 7502SOL     OW34138   2.686   4.027  12.160 -0.0309 -0.4182  0.0524
 7502SOL    HW134139   2.608   4.018  12.106 -1.4665 -0.5018  2.1599
 7502SOL    HW234140   2.662   4.080  12.236  0.9358 -1.7724  1.2974
 7503SOL     OW34141   0.336   4.334   6.899 -0.1817  0.1603  0.5486
 7503SOL    HW134142   0.349   4.424   6.929 -1.2863 -0.0350  1.6281
 7503SOL    HW234143   0.414   4.287   6.929 -0.5506 -0.8242 -0.0172
 7504SOL     OW34144   1.377   3.999   9.116 -0.8844  0.0502 -0.2775
 7504SOL    HW134145   1.344   3.916   9.081 -4.2438  0.7970  1.1001
 7504SOL    HW234146   1.378   4.057   9.039 -1.1304  1.7379  0.9778
 7505SOL     OW34147   1.444   3.144   6.948  0.4053  0.1287  0.2775
 7505SOL    HW134148   1.352   3.121   6.940  0.6613 -0.1524 -1.9520
 7505SOL    HW234149   1.456   3.196   7.027 -0.2151  0.5817  0.0693
 7506SOL     OW34150   1.804   0.998  14.653 -0.4664  0.3826  0.1296
 7506SOL    HW134151   1.782   1.030  14.565  1.0538  3.1374  0.7730
 7506SOL    HW234152   1.836   0.908  14.640 -1.3295  0.3558 -1.9246
 7507SOL     OW34153   2.298   2.108   9.076 -0.0015  0.0495 -0.2425
 7507SOL    HW134154   2.332   2.033   9.028  0.3714 -1.4314  2.3016
 7507SOL    HW234155   2.357   2.130   9.148 -2.3879  0.5786  1.5597
 7508SOL     OW34156   4.170   2.471   0.195  0.0615  0.0069  0.1033
 7508SOL    HW134157   4.114   2.393   0.194  1.5148 -1.0244 -0.5583
 7508SOL    HW234158   4.203   2.460   0.283 -0.5179  0.9366  0.4462
 7509SOL     OW34159   0.780   1.761   1.213  0.2607 -0.1078  0.4260
 7509SOL    HW134160   0.729   1.680   1.211 -0.2588  0.2098  0.6412
 7509SOL    HW234161   0.733   1.826   1.161 -1.8989  1.2840  4.0760
 7510SOL     OW34162   2.699   3.328  17.020  0.5376  0.3382 -0.6016
 7510SOL    HW134163   2.717   3.264  16.950  1.5757 -0.7644  0.6816
 7510SOL    HW234164   2.699   3.411  16.972 -0.9588  0.8716  0.3429
 7511SOL     OW34165   0.404   1.980   6.578  0.4397 -0.3513  0.3344
 7511SOL    HW134166   0.323   1.931   6.595 -1.3461  1.9778 -1.4271
 7511SOL    HW234167   0.395   1.987   6.483  1.5403 -0.8644  0.1983
 7512SOL     OW34168   2.856   4.369   0.702  0.2585 -0.0103 -0.7096
 7512SOL    HW134169   2.835   4.373   0.796  1.3048  1.8624 -0.5384
 7512SOL    HW234170   2.793   4.431   0.665 -1.3701 -2.6582 -2.2885
 7513SOL     OW34171   3.325   4.594  14.086  0.6516 -0.5062 -0.5622
 7513SOL    HW134172   3.393   4.617  14.149  0.2477 -4.5155  1.3206
 7513SOL    HW234173   3.303   4.502  14.103  0.7992 -0.5741 -0.7437
 7514SOL     OW34174   1.854   0.249   5.866 -0.1766 -0.7559 -0.2541
 7514SOL    HW134175   1.894   0.320   5.917 -0.9759  0.7412 -1.6933
 7514SOL    HW234176   1.764   0.254   5.899 -0.3612 -0.5524 -0.7916
 7515SOL     OW34177   2.400   1.643   3.934 -0.4624  0.8563  0.8827
 7515SOL    HW134178   2.338   1.712   3.913  1.0671  1.4307 -1.7283
 7515SOL    HW234179   2.440   1.621   3.850 -2.1528 -0.7828  0.5013
 7516SOL     OW34180   4.462   0.205   7.097  0.4749 -0.1078 -0.1499
 7516SOL    HW134181   4.464   0.294   7.062 -0.3566  0.4727  1.2755
 7516SOL    HW234182   4.403   0.217   7.172 -0.9422  0.8485 -1.4199
 7517SOL     OW34183   3.580   3.767  14.206 -0.2559  0.3515 -0.0184
 7517SOL    HW134184   3.510   3.765  14.271  1.2174  0.1269  1.5622
 7517SOL    HW234185   3.540   3.815  14.134 -0.9630  1.1661  0.9140
 7518SOL     OW34186   2.645   2.184   6.139 -0.0104  0.0810  0.0153
 7518SOL    HW134187   2.683   2.242   6.204  1.8741  1.9025 -2.6823
 7518SOL    HW234188   2.682   2.226   6.061  0.9630 -0.0778  0.4000
 7519SOL     OW34189   3.468   3.091  11.432 -0.6467  0.4838  0.1262
 7519SOL    HW134190   3.484   3.003  11.465 -2.1384  0.2607  0.2432
 7519SOL    HW234191   3.381   3.079  11.394 -0.4750 -1.8864  0.5241
 7520SOL     OW34192   1.451   4.444   9.681  0.5355  0.0909 -0.7236
 7520SOL    HW134193   1.381   4.382   9.701 -0.4979  1.0256 -1.4912
 7520SOL    HW234194   1.512   4.445   9.755 -1.3460 -0.1336  0.8349
 7521SOL     OW34195   2.957   0.944  11.640  0.4377  0.9827  0.4053
 7521SOL    HW134196   2.909   0.912  11.564  1.4446 -0.0279  0.1916
 7521SOL    HW234197   2.895   1.004  11.681 -0.5182  0.0571  0.3164
 7522SOL     OW34198   3.341   1.696   7.527  0.2934 -0.4093  0.4834
 7522SOL    HW134199   3.427   1.736   7.514  0.1728 -0.7664 -1.3198
 7522SOL    HW234200   3.316   1.736   7.610 -0.8362  1.7049 -0.8750
 7523SOL     OW34201   1.865   0.275   1.573  0.5947  0.5439  0.1371
 7523SOL    HW134202   1.914   0.303   1.496  0.3378  1.6512  0.3757
 7523SOL    HW234203   1.901   0.189   1.592 -1.8375 -1.0453 -2.5442
 7524SOL     OW34204   0.490   2.517  17.516  0.0458 -0.2242 -0.0405
 7524SOL    HW134205   0.558   2.534  17.451 -0.1238  1.8933  0.3301
 7524SOL    HW234206   0.467   2.430  17.484 -0.1453  0.0659 -0.7056
 7525SOL     OW34207   3.364   0.892   4.168 -0.3446 -0.0832 -0.0213
 7525SOL    HW134208   3.375   0.850   4.253  2.2212 -0.4716 -0.5534
 7525SOL    HW234209   3.361   0.813   4.114  0.9613  0.4919 -0.9163
 7526SOL     OW34210   1.501   0.331   5.092  0.0501 -0.4699  0.4102
 7526SOL    HW134211   1.430   0.391   5.114 -0.9059 -1.3158 -0.3039
 7526SOL    HW234212   1.509   0.269   5.165  0.8796  1.0303  1.5759
 7527SOL     OW34213   1.396   4.732  15.893  0.2396 -0.2181  0.3768
 7527SOL    HW134214   1.334   4.679  15.944  1.2072 -2.1622 -0.4923
 7527SOL    HW234215   1.353   0.079  15.892 -0.2716 -0.4780 -0.3413
 7528SOL     OW34216   2.467   4.246   2.588  0.1527  0.6597 -0.6259
 7528SOL    HW134217   2.464   4.317   2.651  1.5711  1.1438 -1.1116
 7528SOL    HW234218   2.525   4.185   2.633 -0.5538  2.5145  2.7886
 7529SOL     OW34219   4.483   2.460   9.335  0.0474 -0.1403  0.1968
 7529SOL    HW134220   4.414   2.513   9.295 -0.5096 -1.0445 -0.0567
 7529SOL    HW234221   4.436   2.377   9.347 -1.7785  1.0892  1.5512
 7530SOL     OW34222   2.412   2.340   5.353 -0.0766 -0.1923  0.5913
 7530SOL    HW134223   2.484   2.402   5.356 -0.1625  0.0822 -3.4729
 7530SOL    HW234224   2.444   2.275   5.416 -0.5621 -0.9729  0.0331
 7531SOL     OW34225   4.499   3.736   5.663 -0.3556 -0.5379 -0.4745
 7531SOL    HW134226   4.460   3.793   5.729  1.3643 -0.2027  0.2535
 7531SOL    HW234227   4.489   3.789   5.584  0.7677 -2.0751 -1.6544
 7532SOL     OW34228   3.780   4.379   2.737 -0.0737 -0.3798  0.7817
 7532SOL    HW134229   3.874   4.359   2.737  0.3484  1.6368  2.2882
 7532SOL    HW234230   3.751   4.324   2.809 -1.2523 -1.1271 -0.2693
 7533SOL     OW34231   4.259   4.217  16.756 -0.4072  0.3947 -0.0471
 7533SOL    HW134232   4.342   4.172  16.767 -0.8486  0.1064  1.9438
 7533SOL    HW234233   4.199   4.149  16.786 -1.4482  1.5598  0.5327
 7534SOL     OW34234   3.683   0.961   1.612  0.1248  0.5213 -0.3882
 7534SOL    HW134235   3.633   1.033   1.650 -0.6683 -0.3012  0.1260
 7534SOL    HW234236   3.768   0.979   1.652 -0.4861 -1.2097  1.7050
 7535SOL     OW34237   0.083   4.385  10.098  0.5794 -0.0072  0.5321
 7535SOL    HW134238   0.093   4.337  10.180  3.2207  0.3968  0.4642
 7535SOL    HW234239   0.071   4.309  10.041 -0.8763 -0.1881  1.0726
 7536SOL     OW34240   0.295   1.944  11.364  0.1852  0.3005 -0.1899
 7536SOL    HW134241   0.237   1.869  11.351  0.4300  0.2003 -0.7000
 7536SOL    HW234242   0.232   2.007  11.400  1.3490  1.1019  0.4388
 7537SOL     OW34243   3.163   3.774  13.552 -0.4575  0.5090  0.2091
 7537SOL    HW134244   3.166   3.731  13.467  0.1693 -0.2153  0.6000
 7537SOL    HW234245   3.088   3.831  13.532 -1.0702 -0.4849 -0.3132
 7538SOL     OW34246   3.923   2.256   6.959 -0.0278 -0.3382 -0.4628
 7538SOL    HW134247   3.960   2.336   6.922  0.6357 -0.8895 -1.0035
 7538SOL    HW234248   3.996   2.195   6.963  0.1331 -0.3754 -3.5415
 7539SOL     OW34249   0.222   0.354   6.316  0.4124 -0.4196  0.2731
 7539SOL    HW134250   0.288   0.286   6.328  1.1314 -0.0739 -1.7048
 7539SOL    HW234251   0.145   0.298   6.329  0.3826 -0.3635  0.3386
 7540SOL     OW34252   1.918   2.393   8.706 -0.3653  0.2251  0.0767
 7540SOL    HW134253   1.854   2.321   8.705  0.1210 -0.2170  0.6205
 7540SOL    HW234254   1.859   2.468   8.713 -0.7390  0.1315 -2.1309
 7541SOL     OW34255   4.048   3.695   7.828 -0.3422  0.5934  0.3290
 7541SOL    HW134256   3.964   3.655   7.804 -0.0876  0.0139  0.4180
 7541SOL    HW234257   4.083   3.620   7.876  0.5613 -0.1356 -1.4827
 7542SOL     OW34258   3.088   0.677   7.416 -0.0065  0.2609 -0.1388
 7542SOL    HW134259   3.096   0.670   7.321 -1.0067 -1.3698 -0.1067
 7542SOL    HW234260   3.101   0.588   7.448  0.0752  0.2867 -0.1027
 7543SOL     OW34261   1.967   0.075   3.871 -0.2316  0.0287  0.4280
 7543SOL    HW134262   1.980   0.154   3.924  1.3741 -1.6430  2.5428
 7543SOL    HW234263   1.876   0.051   3.887 -0.5761  0.2971 -1.1877
 7544SOL     OW34264   2.382   3.833   5.940 -0.0855 -0.3432  0.1400
 7544SOL    HW134265   2.444   3.848   6.011  0.5064  1.3241 -0.7311
 7544SOL    HW234266   2.390   3.917   5.896 -1.8848 -0.3113 -0.0885
 7545SOL     OW34267   2.964   2.190   8.987 -0.2889 -0.2166  0.0811
 7545SOL    HW134268   2.938   2.255   9.052  0.5612 -1.0963  1.2986
 7545SOL    HW234269   3.058   2.202   8.975  0.1496 -1.4675  2.2362
 7546SOL     OW34270   4.539   0.005   1.274 -0.3378  0.2277 -0.2740
 7546SOL    HW134271   4.572   0.003   1.364 -1.2326  1.0908  0.0747
 7546SOL    HW234272   4.550   4.656   1.240 -1.4071  0.1308 -0.3426
 7547SOL     OW34273   1.036   1.827   8.202  0.1944 -0.2783  0.0332
 7547SOL    HW134274   1.018   1.919   8.181  0.8043 -0.1252  0.1607
 7547SOL    HW234275   1.057   1.837   8.295  1.6815  1.0960 -0.4416
 7548SOL     OW34276   0.809   4.201   2.299  0.5030  0.1665  0.9143
 7548SOL    HW134277   0.776   4.270   2.357 -0.5390  0.9269 -0.5603
 7548SOL    HW234278   0.795   4.121   2.350 -0.0712 -0.8547 -0.8286
 7549SOL     OW34279   1.863   1.068   9.096 -0.2171  0.0933 -0.8123
 7549SOL    HW134280   1.932   1.057   9.030  0.0421 -0.0369 -0.5183
 7549SOL    HW234281   1.825   1.152   9.071 -0.6730 -0.5188 -2.1999
 7550SOL     OW34282   3.197   3.678   4.794  0.0725 -0.0186  0.4464
 7550SOL    HW134283   3.237   3.594   4.819  0.9734 -0.2225 -1.6735
 7550SOL    HW234284   3.168   3.645   4.709  1.3653  0.5824 -0.2255
 7551SOL     OW34285   4.413   3.570   7.195 -0.0099 -0.4490  0.7577
 7551SOL    HW134286   4.359   3.537   7.124  0.3792 -1.1693  0.8045
 7551SOL    HW234287   4.472   3.621   7.140 -1.2588  1.4302  1.1337
 7552SOL     OW34288   0.829   0.291   6.418  0.0129 -0.3850 -1.4436
 7552SOL    HW134289   0.860   0.354   6.354  1.4585 -0.7303 -1.0823
 7552SOL    HW234290   0.744   0.331   6.439  1.0320  0.6321  0.7743
 7553SOL     OW34291   4.264   0.769  14.437 -0.9920 -0.0120 -0.0150
 7553SOL    HW134292   4.246   0.716  14.359  1.2511 -1.0260  0.1739
 7553SOL    HW234293   4.183   0.760  14.488 -0.2408  0.2874  1.2289
 7554SOL     OW34294   0.798   2.348   0.179  0.6590 -0.1419 -0.3626
 7554SOL    HW134295   0.773   2.372   0.269  0.5005  0.5151 -0.5846
 7554SOL    HW234296   0.817   2.432   0.137  3.7448 -1.0074 -0.6695
 7555SOL     OW34297   2.548   4.462   3.156  0.0213 -0.1336  0.1602
 7555SOL    HW134298   2.631   4.456   3.109 -0.1933 -0.6293 -0.1466
 7555SOL    HW234299   2.563   4.533   3.220 -0.7776  0.6447 -0.5117
 7556SOL     OW34300   2.594   4.611  10.234  0.2294  0.3128  0.1358
 7556SOL    HW134301   2.689   4.620  10.235  0.1131  1.5743 -0.1882
 7556SOL    HW234302   2.569   4.700  10.209 -0.4840  0.1963  0.4331
 7557SOL     OW34303   1.040   0.402   5.281  0.5304 -0.9460  0.5814
 7557SOL    HW134304   0.980   0.339   5.241  0.2073 -0.3187  0.0876
 7557SOL    HW234305   1.073   0.443   5.201 -0.7247  1.1253  1.1273
 7558SOL     OW34306   2.558   0.257   3.783  0.1654  0.1749 -0.2391
 7558SOL    HW134307   2.559   0.343   3.742 -0.9038 -0.4023 -1.4861
 7558SOL    HW234308   2.463   0.246   3.794  0.0413  1.8729  0.4023
 7559SOL     OW34309   1.301   2.716   8.581 -0.0851  0.0876 -0.3730
 7559SOL    HW134310   1.386   2.726   8.540  0.8743 -0.4984  1.4899
 7559SOL    HW234311   1.257   2.775   8.519  1.8890  0.3813 -1.4643
 7560SOL     OW34312   4.416   0.579   0.244  0.4418  0.0104 -0.2313
 7560SOL    HW134313   4.346   0.541   0.297 -0.8757  0.5828 -1.5447
 7560SOL    HW234314   4.412   0.671   0.269  0.8174 -0.2832  0.9083
 7561SOL     OW34315   1.430   1.947   9.313 -0.3358 -0.1238  0.3862
 7561SOL    HW134316   1.431   1.854   9.290 -1.1293  0.0396 -0.2913
 7561SOL    HW234317   1.336   1.964   9.318 -0.5503 -2.0621  2.9175
 7562SOL     OW34318   2.642   4.554   0.748 -0.1955 -0.3792 -0.3065
 7562SOL    HW134319   2.729   4.592   0.757  0.3005 -1.0763 -2.1978
 7562SOL    HW234320   2.590   4.611   0.805  1.4608 -0.9730  1.8117
 7563SOL     OW34321   4.357   2.617   5.361 -0.1666  0.4083 -0.0694
 7563SOL    HW134322   4.449   2.640   5.373  0.3274 -1.3934 -0.4309
 7563SOL    HW234323   4.337   2.680   5.292 -1.9081  0.7834  0.7777
 7564SOL     OW34324   1.374   4.544   7.217 -0.5113  0.5644  0.3907
 7564SOL    HW134325   1.315   4.469   7.205 -0.0917  0.2856  0.0717
 7564SOL    HW234326   1.343   4.578   7.301 -0.7921  0.0938  0.4783
 7565SOL     OW34327   3.367   2.763   2.874  1.0548 -0.3507 -0.2606
 7565SOL    HW134328   3.291   2.708   2.890  0.6125 -0.1060 -1.5334
 7565SOL    HW234329   3.337   2.849   2.904  0.7919 -1.2660  2.1046
 7566SOL     OW34330   3.488   0.155   3.560  0.0125  0.2482 -0.3251
 7566SOL    HW134331   3.563   0.208   3.533 -1.3320  1.8018 -1.0240
 7566SOL    HW234332   3.513   0.112   3.642  0.4452 -2.2451 -1.7912
 7567SOL     OW34333   3.428   0.101  14.913  0.2286 -0.5807 -0.3374
 7567SOL    HW134334   3.399   0.149  14.991  1.8604  2.2312 -1.4523
 7567SOL    HW234335   3.405   0.016  14.950  0.7327 -0.2315  0.7832
 7568SOL     OW34336   3.427   0.049  15.639 -0.1119  0.0184  0.1376
 7568SOL    HW134337   3.518   0.026  15.618  0.1220  0.2516  0.8816
 7568SOL    HW234338   3.402   0.108  15.567 -1.3920 -0.1912  0.4165
 7569SOL     OW34339   2.225   1.383   1.643 -0.3089  0.2295 -0.0321
 7569SOL    HW134340   2.139   1.374   1.684 -0.3568  0.1260 -0.1523
 7569SOL    HW234341   2.267   1.303   1.674 -0.4170  0.9235  1.9333
 7570SOL     OW34342   4.327   0.479   7.773  0.4202  0.2635 -0.2399
 7570SOL    HW134343   4.406   0.454   7.821 -0.8184 -3.3498 -0.0285
 7570SOL    HW234344   4.306   0.561   7.817  0.3113  0.8500 -1.4028
 7571SOL     OW34345   2.721   2.870  15.651 -0.4103  0.8439  0.0237
 7571SOL    HW134346   2.654   2.804  15.631  1.0662 -0.3989 -0.9037
 7571SOL    HW234347   2.744   2.848  15.741  0.5928  0.7561 -0.2495
 7572SOL     OW34348   4.406   4.171   5.260  0.0564  0.9303 -0.5198
 7572SOL    HW134349   4.476   4.236   5.267 -0.2899  0.8806  3.0662
 7572SOL    HW234350   4.464   4.094   5.253 -1.0487  0.1097 -0.6948
 7573SOL     OW34351   2.475   4.325   5.635 -0.0711 -0.5755 -0.2115
 7573SOL    HW134352   2.382   4.342   5.646  0.6934  3.1139  0.5970
 7573SOL    HW234353   2.472   4.325   5.540 -1.7856 -2.2848 -0.1592
 7574SOL     OW34354   3.085   3.823  11.761  0.3693 -0.3367  0.2496
 7574SOL    HW134355   3.010   3.802  11.706  0.3699  1.4867 -0.4502
 7574SOL    HW234356   3.081   3.742  11.813  2.3119 -2.1143 -2.3988
 7575SOL     OW34357   4.137   2.319   1.333  0.5164  0.3146 -0.1593
 7575SOL    HW134358   4.113   2.326   1.425 -0.2834 -1.0877 -0.2697
 7575SOL    HW234359   4.210   2.257   1.339 -0.8039 -1.1751  0.3654
 7576SOL     OW34360   0.082   2.868   5.775 -0.1345 -0.2032  0.5117
 7576SOL    HW134361   0.167   2.891   5.738 -0.8419  0.5984 -0.6150
 7576SOL    HW234362   0.123   2.853   5.860  0.9913  0.0414  0.0182
 7577SOL     OW34363   3.274   4.481  14.455  0.0557 -0.4887 -0.1111
 7577SOL    HW134364   3.209   4.447  14.518 -1.1764  0.0240 -1.1254
 7577SOL    HW234365   3.247   4.572  14.446  1.6844  0.1188  0.9560
 7578SOL     OW34366   4.501   0.485   8.510 -0.2064 -0.4191  0.1626
 7578SOL    HW134367   4.536   0.567   8.477  1.9296 -2.1034 -1.7136
 7578SOL    HW234368   4.453   0.451   8.434 -0.5898 -0.5011  0.4362
 7579SOL     OW34369   1.202   3.380   5.565 -0.1899  0.4301  0.2454
 7579SOL    HW134370   1.279   3.374   5.508 -2.7839 -1.6517 -3.0322
 7579SOL    HW234371   1.193   3.289   5.593  0.6824  0.7292  1.4621
 7580SOL     OW34372   1.453   4.545  16.601 -0.9328  0.2500 -0.4466
 7580SOL    HW134373   1.414   4.465  16.567  1.9167 -0.8214 -1.1661
 7580SOL    HW234374   1.389   4.564  16.670  0.5577 -1.0679  1.2549
 7581SOL     OW34375   0.356   3.909   6.148  0.4988  0.4441 -0.4426
 7581SOL    HW134376   0.315   3.943   6.069  2.3225  2.9651 -0.3051
 7581SOL    HW234377   0.343   3.983   6.209 -1.3408  0.4630 -0.8661
 7582SOL     OW34378   4.559   0.803   0.501  0.2126  0.4712 -0.3059
 7582SOL    HW134379   4.538   0.711   0.489 -1.6904  0.6614  1.4828
 7582SOL    HW234380   4.602   0.804   0.587  1.1386 -1.8031 -0.7533
 7583SOL     OW34381   2.466   0.108   8.323 -0.0617 -0.0562  0.5307
 7583SOL    HW134382   2.536   0.043   8.321  0.6768  0.7235  0.9059
 7583SOL    HW234383   2.387   0.080   8.277  0.4044  1.3271 -1.1145
 7584SOL     OW34384   3.353   3.694   7.726 -0.2560  0.6467 -0.4611
 7584SOL    HW134385   3.363   3.599   7.741  0.4914  1.0579  1.6311
 7584SOL    HW234386   3.408   3.703   7.649  0.8384  1.2806  0.3924
 7585SOL     OW34387   1.672   4.558  12.555  0.6020 -0.2907  0.2232
 7585SOL    HW134388   1.626   4.475  12.561 -3.2783  1.9083  0.8194
 7585SOL    HW234389   1.653   4.584  12.465 -0.4396  2.2311  1.1620
 7586SOL     OW34390   1.346   2.295  11.357 -0.4918  0.3387  0.0068
 7586SOL    HW134391   1.382   2.206  11.353 -0.3159  0.5086 -2.5356
 7586SOL    HW234392   1.313   2.297  11.267 -0.7823 -2.6359  0.0533
 7587SOL     OW34393   0.812   4.461   8.153 -0.4743  0.0138  0.0836
 7587SOL    HW134394   0.845   4.398   8.217 -0.4884 -0.4504 -0.3608
 7587SOL    HW234395   0.879   4.526   8.172 -1.0230  0.7479 -0.4941
 7588SOL     OW34396   4.176   1.182  10.533  0.7223 -0.5826  0.2740
 7588SOL    HW134397   4.151   1.108  10.588 -1.0810 -0.3557 -0.2431
 7588SOL    HW234398   4.201   1.254  10.590  3.4193 -2.4454  1.4586
 7589SOL     OW34399   0.654   2.262   8.128 -0.0023  0.3318 -0.0706
 7589SOL    HW134400   0.560   2.248   8.137  0.0872 -1.2916 -1.5763
 7589SOL    HW234401   0.692   2.284   8.213 -2.8988 -0.4362  1.4097
 7590SOL     OW34402   1.896   1.725   3.825 -0.1075  0.0668 -0.6581
 7590SOL    HW134403   1.919   1.721   3.917 -0.7066 -2.8792 -0.6504
 7590SOL    HW234404   1.801   1.719   3.837  0.1612 -0.8904  0.9056
 7591SOL     OW34405   2.184   4.525   3.224  0.0709  0.4435 -0.2564
 7591SOL    HW134406   2.171   4.610   3.266 -0.9296  0.2385 -0.1534
 7591SOL    HW234407   2.097   4.491   3.201 -0.9521  1.4243  2.2075
 7592SOL     OW34408   2.684   1.218   1.854  0.0539 -0.0234  0.2272
 7592SOL    HW134409   2.627   1.266   1.914  0.7959  0.7229  0.3446
 7592SOL    HW234410   2.748   1.289   1.846  2.9179 -2.8795 -2.3154
 7593SOL     OW34411   4.557   0.666   8.932  0.1795  0.3774  0.5095
 7593SOL    HW134412   4.613   0.718   8.874  0.6037  0.3324  0.8752
 7593SOL    HW234413   4.560   0.587   8.877  0.3719 -0.5261  1.8228
 7594SOL     OW34414   4.211   3.240  15.972 -0.6434 -1.0744 -0.2015
 7594SOL    HW134415   4.224   3.289  15.891  0.6136  1.0284  1.2701
 7594SOL    HW234416   4.152   3.300  16.017  1.2004 -0.3519  1.2485
 7595SOL     OW34417   2.138   4.679   9.846 -0.1557  0.0270  0.4521
 7595SOL    HW134418   2.123   4.720   9.761  1.2106 -0.5481 -0.0743
 7595SOL    HW234419   2.050   4.646   9.863  0.4690 -0.3666  2.9493
 7596SOL     OW34420   0.471   3.673   6.258 -0.4470  0.1149 -0.3306
 7596SOL    HW134421   0.395   3.617   6.247 -1.4466  1.5431 -0.7421
 7596SOL    HW234422   0.455   3.752   6.206  0.2020  0.6177  0.2224
 7597SOL     OW34423   2.169   0.643   5.716 -0.2895  0.1758 -0.0702
 7597SOL    HW134424   2.261   0.663   5.732 -0.0091 -0.8811 -0.3583
 7597SOL    HW234425   2.149   0.571   5.774  0.6939 -1.0245 -1.2119
 7598SOL     OW34426   2.535   3.605  14.433  0.3211  0.1483  0.1772
 7598SOL    HW134427   2.534   3.648  14.518  2.2660  3.6611 -1.5688
 7598SOL    HW234428   2.611   3.550  14.450 -1.2131 -0.6835  4.3354
 7599SOL     OW34429   0.520   1.589   8.271 -0.4193 -0.1088 -0.0981
 7599SOL    HW134430   0.605   1.628   8.290 -0.3887  1.0649 -2.6404
 7599SOL    HW234431   0.462   1.654   8.310  0.7127  0.0146  1.3585
 7600SOL     OW34432   3.660   3.568   1.971 -0.1579 -0.2252  0.3571
 7600SOL    HW134433   3.662   3.473   1.970  2.6982 -0.1471 -1.8512
 7600SOL    HW234434   3.726   3.587   2.038 -0.6811  0.2628  0.7306
 7601SOL     OW34435   1.173   0.838   8.119 -0.3120 -0.1013 -0.2048
 7601SOL    HW134436   1.105   0.781   8.084 -1.6636  1.1416  0.3741
 7601SOL    HW234437   1.116   0.883   8.182  1.2583  2.6470 -0.7511
 7602SOL     OW34438   2.524   4.410   5.982  0.2418 -0.5617  0.2245
 7602SOL    HW134439   2.483   4.456   5.909  2.9895  2.8320  0.7642
 7602SOL    HW234440   2.475   4.442   6.057 -0.2679 -1.4083  0.2479
 7603SOL     OW34441   0.937   3.549   7.812 -0.1373  0.7073  0.2749
 7603SOL    HW134442   0.932   3.548   7.716 -0.2817  3.6499  0.2668
 7603SOL    HW234443   0.923   3.457   7.837 -0.6664  0.4556 -0.9136
 7604SOL     OW34444   3.689   0.952   4.379 -0.3318  0.0111 -0.2924
 7604SOL    HW134445   3.693   0.879   4.317  1.6643  2.1919 -2.7229
 7604SOL    HW234446   3.768   0.939   4.431 -0.1982  1.1823 -0.2059
 7605SOL     OW34447   3.560   0.026   2.538 -0.2646  0.2669  0.1344
 7605SOL    HW134448   3.504   0.102   2.522 -0.7263 -0.5536 -2.0888
 7605SOL    HW234449   3.616   0.029   2.460  1.6012  0.2277  1.4704
 7606SOL     OW34450   4.334   2.135   5.092 -0.0692 -0.0535  0.2996
 7606SOL    HW134451   4.365   2.154   5.181  0.9454  2.5091 -0.6009
 7606SOL    HW234452   4.261   2.196   5.082 -0.5302 -0.4187  1.3757
 7607SOL     OW34453   2.304   3.224   5.390  0.1577  0.4438 -0.2671
 7607SOL    HW134454   2.276   3.254   5.303 -0.8597  0.3187  0.0154
 7607SOL    HW234455   2.220   3.203   5.431  1.2305 -4.3420 -0.5136
 7608SOL     OW34456   0.434   0.557   4.457  0.4360  0.1792 -0.5561
 7608SOL    HW134457   0.482   0.638   4.475  0.2829  0.3277 -0.8090
 7608SOL    HW234458   0.510   0.506   4.484  0.2518  0.4282  0.4077
 7609SOL     OW34459   2.587   0.126   4.857 -0.3236 -0.5247 -0.1266
 7609SOL    HW134460   2.567   0.111   4.765  0.9915  1.8341 -0.7856
 7609SOL    HW234461   2.646   0.200   4.851 -0.8180 -0.2115 -1.1870
 7610SOL     OW34462   1.890   3.462   4.513  0.0629 -0.3706 -0.1058
 7610SOL    HW134463   1.972   3.436   4.471  0.8468 -1.3696  2.0110
 7610SOL    HW234464   1.847   3.377   4.527 -0.5166  0.3835  2.8221
 7611SOL     OW34465   3.266   2.384   5.053 -0.7404 -0.1278 -0.1730
 7611SOL    HW134466   3.315   2.367   4.972 -0.6259 -3.3066  0.5569
 7611SOL    HW234467   3.190   2.330   5.032 -0.9177  0.9165 -2.2851
 7612SOL     OW34468   4.464   4.638   3.636 -0.0416  0.0182  0.0859
 7612SOL    HW134469   4.462   4.626   3.541  0.7149  1.7569 -0.1533
 7612SOL    HW234470   4.550   4.680   3.643  0.3758 -0.2128 -3.4546
 7613SOL     OW34471   3.612   4.158   2.127 -0.2193  0.6487  0.3256
 7613SOL    HW134472   3.635   4.082   2.074 -2.8990 -0.4446  0.7490
 7613SOL    HW234473   3.519   4.165   2.105 -0.3365 -1.6851  0.0967
 7614SOL     OW34474   3.818   3.569   7.755  0.0540 -0.0170 -0.3484
 7614SOL    HW134475   3.763   3.647   7.756 -0.3372 -0.3106  1.1072
 7614SOL    HW234476   3.801   3.527   7.671 -1.6405  0.2249 -0.1182
 7615SOL     OW34477   0.687   1.109   3.192 -0.0166 -0.4076 -0.5836
 7615SOL    HW134478   0.632   1.034   3.167 -1.3264 -0.2029  1.6661
 7615SOL    HW234479   0.769   1.060   3.186  1.5364  2.3665 -2.3526
 7616SOL     OW34480   3.508   2.069   1.349 -0.3647 -0.2244 -0.6451
 7616SOL    HW134481   3.571   2.020   1.402  0.9140  1.1913 -0.8360
 7616SOL    HW234482   3.458   2.101   1.424 -0.8556 -3.1772  0.2787
 7617SOL     OW34483   2.273   3.306  12.162 -0.1472  1.0160 -0.5390
 7617SOL    HW134484   2.359   3.267  12.148 -0.3234  0.0754  0.9861
 7617SOL    HW234485   2.261   3.375  12.097 -1.1851 -0.4309 -1.9095
 7618SOL     OW34486   4.327   3.853  10.167  0.2151  0.5367  0.3138
 7618SOL    HW134487   4.242   3.850  10.211 -0.5242  0.7493 -1.1248
 7618SOL    HW234488   4.328   3.778  10.108  1.6158  0.7111  0.1089
 7619SOL     OW34489   1.827   1.414  16.378 -0.0954 -0.1106 -0.0950
 7619SOL    HW134490   1.830   1.318  16.385  0.5222 -0.1600 -0.9004
 7619SOL    HW234491   1.843   1.437  16.469  0.7693  1.8503 -0.7290
 7620SOL     OW34492   3.866   4.311   0.586  0.0133 -0.4943 -0.0859
 7620SOL    HW134493   3.958   4.334   0.571 -0.1335  0.1081 -0.0553
 7620SOL    HW234494   3.849   4.356   0.669 -1.6365 -0.9598 -0.1759
 7621SOL     OW34495   2.065   4.667   6.358  0.1993  0.4404  0.3501
 7621SOL    HW134496   1.982   4.693   6.398 -0.1716 -0.2282  0.0110
 7621SOL    HW234497   2.062   4.574   6.378  1.0599 -0.1464 -2.2605
 7622SOL     OW34498   1.798   1.549  12.332  0.7902  0.6159  0.2858
 7622SOL    HW134499   1.879   1.573  12.287  1.7813 -2.4957  0.3905
 7622SOL    HW234500   1.839   1.528  12.416 -1.5435  1.2648  1.5775
 7623SOL     OW34501   3.874   1.111   6.853  0.4556  0.0102  0.3833
 7623SOL    HW134502   3.792   1.061   6.857  0.7180 -0.5508 -1.5565
 7623SOL    HW234503   3.912   1.070   6.931  2.2224  2.5517  0.8453
 7624SOL     OW34504   1.830   1.828   2.413 -0.1267  0.0310  0.3946
 7624SOL    HW134505   1.814   1.737   2.388  1.9500 -0.5855  1.2596
 7624SOL    HW234506   1.852   1.875   2.333  0.6647 -0.4315  0.3343
 7625SOL     OW34507   0.977   1.689   5.173  0.2350 -0.4939  0.2188
 7625SOL    HW134508   0.946   1.628   5.106 -2.5228  1.3093 -0.1589
 7625SOL    HW234509   0.962   1.636   5.251 -0.7485 -0.2515  0.1865
 7626SOL     OW34510   0.150   3.556  15.104  0.5040  0.2403 -0.4315
 7626SOL    HW134511   0.171   3.505  15.025  2.0238  0.3482 -0.0866
 7626SOL    HW234512   0.228   3.608  15.120  1.3815 -1.3120  0.3526
 7627SOL     OW34513   1.016   1.785   4.875  0.5745  0.5471  0.4870
 7627SOL    HW134514   0.984   1.874   4.885  0.2901  0.5587 -0.5277
 7627SOL    HW234515   0.934   1.736   4.886  0.0210  0.8366 -2.5041
 7628SOL     OW34516   0.672   0.833   3.623  0.2633  0.2718  0.7873
 7628SOL    HW134517   0.677   0.752   3.674  0.2314 -0.4474 -0.3377
 7628SOL    HW234518   0.587   0.817   3.583  0.6957  2.0920 -0.8570
 7629SOL     OW34519   1.905   4.628   2.441  0.5641  0.2765  0.2059
 7629SOL    HW134520   1.878   4.581   2.520  0.7442 -1.3600 -0.7076
 7629SOL    HW234521   1.996   4.641   2.466  1.0321  0.4582 -1.6124
 7630SOL     OW34522   4.195   3.958   6.186  0.1439  0.2768 -0.1874
 7630SOL    HW134523   4.175   4.033   6.129  3.0986  1.2824  0.1287
 7630SOL    HW234524   4.226   3.997   6.267  0.6901  1.8020 -1.1358
 7631SOL     OW34525   2.981   1.887  13.320  0.6837 -0.1137  0.1028
 7631SOL    HW134526   3.073   1.899  13.297 -0.0057  0.1647 -2.5618
 7631SOL    HW234527   2.944   1.976  13.312 -2.5953 -1.4995 -0.0622
 7632SOL     OW34528   2.798   0.347   6.003 -0.1069  0.1808 -0.7622
 7632SOL    HW134529   2.851   0.427   6.002 -1.9418  1.3994 -0.5868
 7632SOL    HW234530   2.867   0.287   6.030 -0.0490  0.2888 -0.6668
 7633SOL     OW34531   4.553   1.115   0.844 -0.0528  0.2404  0.0886
 7633SOL    HW134532   4.502   1.115   0.763  0.9836  1.6919 -0.5731
 7633SOL    HW234533   4.643   1.119   0.812 -0.7786  2.2586 -1.7653
 7634SOL     OW34534   3.357   2.143   7.954  0.2097 -0.5603 -0.3531
 7634SOL    HW134535   3.308   2.173   8.031  0.7612 -1.9525  0.5195
 7634SOL    HW234536   3.280   2.111   7.906 -0.9233 -0.5797  1.4853
 7635SOL     OW34537   0.955   4.053   6.846 -0.6571  0.4390  0.1346
 7635SOL    HW134538   1.008   4.001   6.906 -0.1475  1.5970  0.6802
 7635SOL    HW234539   0.878   4.078   6.898 -0.1242 -0.5469  1.4056
 7636SOL     OW34540   0.265   4.237   9.567  0.3128 -0.2157  0.3081
 7636SOL    HW134541   0.210   4.222   9.490 -1.1833 -0.9866  1.5097
 7636SOL    HW234542   0.209   4.199   9.636 -0.4029  0.6973  0.2294
 7637SOL     OW34543   1.497   0.128   5.262  0.6720 -0.5793  0.9110
 7637SOL    HW134544   1.518   0.037   5.243 -0.5981 -0.7226  0.1739
 7637SOL    HW234545   1.555   0.150   5.335  1.6157  1.0195 -0.3357
 7638SOL     OW34546   0.407   2.205   5.117  0.1841 -0.2431 -0.1190
 7638SOL    HW134547   0.361   2.134   5.072 -1.5215 -0.6147  2.1972
 7638SOL    HW234548   0.406   2.182   5.210 -0.8582  0.5770  0.0750
 7639SOL     OW34549   3.194   4.568   6.799 -0.0461 -0.2779  0.0760
 7639SOL    HW134550   3.256   4.640   6.808 -0.1512 -0.1763 -0.0109
 7639SOL    HW234551   3.220   4.527   6.717 -0.4365 -2.5418  1.0824
 7640SOL     OW34552   1.558   3.790  16.682 -0.1154  0.2086 -0.0560
 7640SOL    HW134553   1.493   3.798  16.612 -0.2186 -1.0709 -0.1008
 7640SOL    HW234554   1.510   3.812  16.761  0.4056 -0.0224  0.3233
 7641SOL     OW34555   4.275   0.226   5.396  0.7188  0.0734 -0.2734
 7641SOL    HW134556   4.184   0.227   5.365  0.5234  0.9301  0.3223
 7641SOL    HW234557   4.274   0.318   5.423 -2.1160  0.2582 -0.9573
 7642SOL     OW34558   1.795   1.693   4.310  0.5459 -0.1875 -0.6444
 7642SOL    HW134559   1.708   1.655   4.294  0.3238 -0.6033  1.6545
 7642SOL    HW234560   1.761   1.772   4.352  1.8791  0.9659 -1.7445
 7643SOL     OW34561   4.662   1.544  14.598 -0.0722 -0.5546  0.5359
 7643SOL    HW134562   4.699   1.456  14.611  0.9219 -0.3619 -0.9473
 7643SOL    HW234563   4.697   1.593  14.672  1.4380  1.0949 -1.2650
 7644SOL     OW34564   3.578   3.874   4.901  0.1385 -0.3133 -0.3268
 7644SOL    HW134565   3.577   3.785   4.938  0.1636  0.2477  1.0249
 7644SOL    HW234566   3.498   3.911   4.938  1.8945  1.3949  1.6813
 7645SOL     OW34567   2.334   2.003  10.512  0.7104 -0.4442  0.2385
 7645SOL    HW134568   2.373   1.917  10.527  1.8744 -0.1423 -0.9614
 7645SOL    HW234569   2.257   2.000  10.568 -0.8793 -0.6748 -1.9687
 7646SOL     OW34570   2.197   3.934   5.494  0.0217  0.1229 -0.4167
 7646SOL    HW134571   2.170   3.970   5.578 -0.4656 -1.4318  0.0884
 7646SOL    HW234572   2.141   3.857   5.497 -0.3759  0.4646  0.7521
 7647SOL     OW34573   4.072   3.364   7.022  0.3684  0.1396  0.2738
 7647SOL    HW134574   4.051   3.413   7.101 -1.8860 -3.5462  1.9788
 7647SOL    HW234575   4.007   3.401   6.963  2.7766  2.1008 -1.1505
 7648SOL     OW34576   1.718   0.429  17.458 -0.0940  0.4952  0.2979
 7648SOL    HW134577   1.660   0.400  17.529 -1.5217 -1.9297 -1.8781
 7648SOL    HW234578   1.680   0.515  17.438  0.4979  1.4176  3.0032
 7649SOL     OW34579   1.963   2.730   5.475  0.3973 -0.1822 -0.2377
 7649SOL    HW134580   2.058   2.733   5.489  0.3896  0.9435 -0.4571
 7649SOL    HW234581   1.943   2.648   5.429 -1.0107 -0.1591  0.3470
 7650SOL     OW34582   2.046   2.235   8.306  0.3249 -0.1700 -0.2839
 7650SOL    HW134583   1.981   2.294   8.267 -1.1753 -1.3361  0.4440
 7650SOL    HW234584   2.021   2.152   8.264  2.1583 -1.3021  0.8507
 7651SOL     OW34585   1.683   2.242   3.330 -0.4063  0.0055 -0.0964
 7651SOL    HW134586   1.630   2.307   3.283  1.3397  2.6795  1.5916
 7651SOL    HW234587   1.624   2.187   3.381  0.5100  0.6737  1.7202
 7652SOL     OW34588   3.717   0.275   0.095 -0.1641  0.2838 -0.5142
 7652SOL    HW134589   3.776   0.332   0.145 -1.1524 -0.1233  1.1260
 7652SOL    HW234590   3.755   0.189   0.115  1.7217  2.0867  3.7766
 7653SOL     OW34591   4.024   4.714   6.140  0.0028 -0.0341 -0.2344
 7653SOL    HW134592   4.057   0.064   6.152  0.1909 -0.1526  0.1256
 7653SOL    HW234593   3.955   4.731   6.077  2.4255  1.3166 -2.5447
 7654SOL     OW34594   0.064   2.315  14.149  0.1599 -0.0554 -0.1719
 7654SOL    HW134595   0.038   2.224  14.146  2.1717 -0.5931 -1.6090
 7654SOL    HW234596   0.109   2.310  14.065 -1.6609  1.7656 -1.2408
 7655SOL     OW34597   2.318   2.439   7.965 -0.2522  0.0433  0.1144
 7655SOL    HW134598   2.350   2.399   8.045  3.0919  2.1687 -0.1629
 7655SOL    HW234599   2.268   2.372   7.919  0.9467 -0.1150 -0.9682
 7656SOL     OW34600   0.181   3.120   3.787 -0.3319  0.0592  0.0766
 7656SOL    HW134601   0.215   3.164   3.709 -1.5358 -3.5248 -2.4733
 7656SOL    HW234602   0.220   3.172   3.857 -0.8350 -0.1322  0.4948
 7657SOL     OW34603   4.108   2.419   5.806  0.4093  0.2837  0.0565
 7657SOL    HW134604   4.185   2.444   5.755 -0.3528 -0.3067 -1.3772
 7657SOL    HW234605   4.049   2.493   5.791 -0.5122  0.0841  2.7711
 7658SOL     OW34606   0.269   4.143   6.548  0.1464  0.1131 -0.2221
 7658SOL    HW134607   0.276   4.172   6.457 -1.0682 -3.9945 -1.6051
 7658SOL    HW234608   0.274   4.048   6.547  0.1559  0.1096  1.1544
 7659SOL     OW34609   2.664   2.120   3.550 -0.5144  0.4533  0.1964
 7659SOL    HW134610   2.594   2.151   3.492  0.9474  0.9709 -1.2979
 7659SOL    HW234611   2.620   2.061   3.612 -0.3624 -1.4340 -1.4773
 7660SOL     OW34612   1.174   4.462  12.908  0.2040  0.0105  0.0715
 7660SOL    HW134613   1.268   4.482  12.906  0.3186 -0.3703  1.3960
 7660SOL    HW234614   1.174   4.374  12.870  0.3043  0.6397 -1.3769
 7661SOL     OW34615   4.597   0.442   8.765  0.0410 -0.0112 -0.1652
 7661SOL    HW134616   4.574   0.435   8.673 -0.8980  0.2682  0.0534
 7661SOL    HW234617   4.693   0.442   8.768  0.0715  0.4751 -1.3262
 7662SOL     OW34618   4.158   2.417   2.453  0.7736  0.4853 -0.5106
 7662SOL    HW134619   4.202   2.451   2.375  0.5149  0.3132 -0.7340
 7662SOL    HW234620   4.217   2.344   2.468  0.0358  0.2417  1.1083
 7663SOL     OW34621   2.529   3.853  10.481  1.0311  0.3923 -0.1122
 7663SOL    HW134622   2.581   3.853  10.562 -0.0763 -1.1611  0.6013
 7663SOL    HW234623   2.598   3.856  10.415  0.0794  0.0633 -1.1108
 7664SOL     OW34624   0.084   0.700   0.187 -0.0420  0.3846 -0.0468
 7664SOL    HW134625   0.026   0.776   0.178  1.5866  1.6310 -0.1573
 7664SOL    HW234626   0.027   0.632   0.222  1.5448 -2.1369 -2.4430
 7665SOL     OW34627   0.949   2.217   4.477 -0.0431 -0.1572  0.4430
 7665SOL    HW134628   0.998   2.296   4.499  2.5582 -1.5210 -0.4959
 7665SOL    HW234629   0.899   2.251   4.403  3.9224  2.0375 -1.2087
 7666SOL     OW34630   3.114   3.441  15.706 -0.3770  0.2968  0.1997
 7666SOL    HW134631   3.110   3.505  15.777  0.7206 -0.4773  0.9484
 7666SOL    HW234632   3.040   3.472  15.653  0.6370  1.0358 -0.7832
 7667SOL     OW34633   0.657   2.823   3.961  0.2096 -0.0015  0.4234
 7667SOL    HW134634   0.606   2.894   4.000  1.3047  1.1299 -0.2053
 7667SOL    HW234635   0.739   2.870   3.973 -0.3881  1.2002 -0.1115
 7668SOL     OW34636   0.869   0.122   3.718  0.4252 -0.1687 -0.2513
 7668SOL    HW134637   0.861   0.058   3.789 -0.0704  0.5155  0.3090
 7668SOL    HW234638   0.907   0.062   3.654 -0.5429 -0.5028 -0.5118
 7669SOL     OW34639   2.614   2.694   5.749  0.2898 -0.9252 -0.5415
 7669SOL    HW134640   2.648   2.605   5.760  1.9563  0.1027  2.7124
 7669SOL    HW234641   2.603   2.735   5.835  1.6683 -1.0354 -0.3034
 7670SOL     OW34642   3.189   1.169   1.032  0.3238  0.3269  0.3593
 7670SOL    HW134643   3.155   1.082   1.010  3.6763 -0.9629  0.2280
 7670SOL    HW234644   3.175   1.167   1.126 -0.8784  0.8948  0.1818
 7671SOL     OW34645   1.776   1.770   2.045  0.1273  0.5608  0.3468
 7671SOL    HW134646   1.707   1.746   2.106  0.0102  1.2785  0.5004
 7671SOL    HW234647   1.734   1.745   1.963  0.8897  0.5669 -0.0533
 7672SOL     OW34648   2.210   2.893   7.365 -0.2673 -0.4929  0.3341
 7672SOL    HW134649   2.284   2.934   7.320  0.4047  0.0001  1.9129
 7672SOL    HW234650   2.236   2.803   7.343 -0.2173 -0.4353  0.1543
 7673SOL     OW34651   2.330   1.382   8.044 -0.1884  0.1607 -0.1164
 7673SOL    HW134652   2.380   1.460   8.018 -2.3392  1.2321 -1.0871
 7673SOL    HW234653   2.252   1.391   7.990 -0.5889 -0.4327  0.3684
 7674SOL     OW34654   4.582   1.631   3.430  0.1626 -0.4635 -0.8776
 7674SOL    HW134655   4.598   1.600   3.519  1.0986  0.1949 -0.8182
 7674SOL    HW234656   4.644   1.593   3.367  0.0361 -3.2454  0.6494
 7675SOL     OW34657   2.844   2.913   4.985 -0.2842  0.4928  0.1724
 7675SOL    HW134658   2.870   2.928   5.075 -0.1890  0.4886  0.1464
 7675SOL    HW234659   2.764   2.964   4.978 -1.2581 -0.9889  0.6439
 7676SOL     OW34660   1.426   2.290   8.302 -0.3915 -0.5759  0.4589
 7676SOL    HW134661   1.388   2.259   8.219 -0.9210  1.9344 -0.2409
 7676SOL    HW234662   1.430   2.381   8.274  0.1477 -0.5588  0.5880
 7677SOL     OW34663   3.916   3.678  10.828  0.3338 -0.4773 -0.1127
 7677SOL    HW134664   3.867   3.600  10.854 -1.1285  0.7268  0.7499
 7677SOL    HW234665   3.990   3.652  10.773 -0.1635 -2.4903  0.1416
 7678SOL     OW34666   2.016   1.895   3.616  0.0282 -0.2949  0.0359
 7678SOL    HW134667   1.933   1.872   3.659  0.9484 -0.0574  1.9474
 7678SOL    HW234668   1.976   1.914   3.531 -1.0496 -2.3940  0.0550
 7679SOL     OW34669   0.145   0.602   9.001 -0.2514  0.3725  0.0938
 7679SOL    HW134670   0.218   0.602   9.063 -0.2874  0.0963  0.1326
 7679SOL    HW234671   0.172   0.677   8.947 -3.1611  2.0911  0.9935
 7680SOL     OW34672   0.213   2.787   7.801 -0.4813  0.1129 -0.0340
 7680SOL    HW134673   0.150   2.833   7.856 -1.0526 -0.7036 -0.0076
 7680SOL    HW234674   0.278   2.857   7.796  0.8578 -1.3524 -3.1158
 7681SOL     OW34675   4.454   3.403   4.603 -0.3958  0.1456 -0.4801
 7681SOL    HW134676   4.484   3.346   4.674 -1.2691  0.9165  0.5035
 7681SOL    HW234677   4.402   3.338   4.555 -1.8344 -0.5876  2.0917
 7682SOL     OW34678   3.917   3.166   7.479 -0.0286  0.0864  0.0013
 7682SOL    HW134679   4.011   3.151   7.480  0.0246  0.4118 -0.6864
 7682SOL    HW234680   3.918   3.261   7.475  0.7952  0.0784  0.1485
 7683SOL     OW34681   1.168   1.850   1.788 -0.1616 -0.5849 -0.3265
 7683SOL    HW134682   1.103   1.859   1.718 -1.1350  0.7031  0.7368
 7683SOL    HW234683   1.134   1.778   1.841  1.4258 -0.3444  1.0430
 7684SOL     OW34684   4.614   1.165  11.278  0.0677 -0.4352  0.2074
 7684SOL    HW134685   4.620   1.249  11.324 -1.3222 -0.5216  0.5659
 7684SOL    HW234686   4.536   1.168  11.222 -1.1877  1.2538  2.0472
 7685SOL     OW34687   0.016   0.505   8.316  1.0032  0.1529  0.5800
 7685SOL    HW134688   0.097   0.481   8.271  0.3720  1.1786 -1.1287
 7685SOL    HW234689   4.718   0.418   8.329  0.9325 -0.2272 -2.0446
 7686SOL     OW34690   2.003   2.120  15.817  0.2679  0.5209  0.3461
 7686SOL    HW134691   1.915   2.098  15.848 -0.2868  1.6212 -0.4384
 7686SOL    HW234692   1.988   2.205  15.774 -1.5142 -0.7022 -1.4522
 7687SOL     OW34693   3.186   1.907   2.049 -0.2740 -0.0725  0.4089
 7687SOL    HW134694   3.251   1.886   2.117  0.1478  2.3904  0.7810
 7687SOL    HW234695   3.144   1.983   2.089 -1.8947 -1.6209  1.6382
 7688SOL     OW34696   4.442   2.763  10.548  0.7041 -0.6083  0.3056
 7688SOL    HW134697   4.516   2.801  10.595 -0.7784  1.5860  0.8326
 7688SOL    HW234698   4.425   2.683  10.599  0.6146  0.2349  1.5922
 7689SOL     OW34699   2.691   0.069   1.950  0.4793 -0.4029  0.0440
 7689SOL    HW134700   2.613   0.121   1.968 -0.7140 -1.3533 -2.3367
 7689SOL    HW234701   2.688   0.069   1.854 -0.7435 -2.6300  0.0795
 7690SOL     OW34702   2.874   2.031   1.791  0.2758 -0.3800 -0.1210
 7690SOL    HW134703   2.795   2.046   1.738  0.8787 -0.4870 -1.0468
 7690SOL    HW234704   2.912   2.117   1.805  0.4156 -0.7012  1.3981
 7691SOL     OW34705   1.707   3.889   4.663 -0.5371 -0.4148 -0.5814
 7691SOL    HW134706   1.681   3.832   4.735 -0.7287  1.5445  0.8780
 7691SOL    HW234707   1.774   3.828   4.632  0.3058  1.4265 -2.3960
 7692SOL     OW34708   3.397   0.907   0.215 -0.2473 -0.1621  0.2411
 7692SOL    HW134709   3.405   0.818   0.179  0.0863 -0.7039  1.6436
 7692SOL    HW234710   3.350   0.944   0.141  1.4171  2.1453  0.3516
 7693SOL     OW34711   3.595   4.676  17.077  0.7916 -0.0912  0.6547
 7693SOL    HW134712   3.651   4.610  17.118  1.6902 -0.4725 -1.1566
 7693SOL    HW234713   3.648   4.698  17.000  0.6188  1.4312  0.9694
 7694SOL     OW34714   3.307   0.582   3.006  0.3664 -0.4431 -0.5254
 7694SOL    HW134715   3.346   0.659   3.048 -0.3617  0.1338 -0.9188
 7694SOL    HW234716   3.242   0.631   2.956 -0.3642 -0.3183  0.5561
 7695SOL     OW34717   1.136   3.385  14.536 -0.4802  0.0317  0.3751
 7695SOL    HW134718   1.225   3.352  14.526 -0.2536  0.0844  2.1422
 7695SOL    HW234719   1.154   3.427  14.620 -0.7620 -0.7734  0.8461
 7696SOL     OW34720   4.246   0.146  10.716  0.0768  0.3725  0.1654
 7696SOL    HW134721   4.185   0.161  10.789  0.4063 -0.6380  0.6611
 7696SOL    HW234722   4.330   0.180  10.747  0.6681 -0.4616 -0.5454
 7697SOL     OW34723   0.328   4.679   8.609 -0.0067  0.4406  0.1993
 7697SOL    HW134724   0.232   4.687   8.616  0.0927  0.2547  1.7764
 7697SOL    HW234725   0.353   0.003   8.542  1.2565 -0.1418  0.1392
 7698SOL     OW34726   1.770   1.364   4.577  0.2711 -0.5028 -0.3053
 7698SOL    HW134727   1.832   1.434   4.601  1.0548 -1.0957 -0.5991
 7698SOL    HW234728   1.807   1.292   4.627  1.1338  0.6705  0.7714
 7699SOL     OW34729   0.647   3.948   4.843 -0.8037  0.4536  0.6749
 7699SOL    HW134730   0.622   4.000   4.920  0.8789  2.2180  0.0367
 7699SOL    HW234731   0.635   3.858   4.872 -2.7432  0.1384 -1.1135
 7700SOL     OW34732   1.146   0.748   7.151  0.1279  0.0459 -0.1485
 7700SOL    HW134733   1.147   0.666   7.102  3.0838 -1.2940  2.1293
 7700SOL    HW234734   1.051   0.759   7.143 -0.1172 -0.3617  2.2717
 7701SOL     OW34735   3.707   2.426   7.067  0.1708 -0.2427  0.5465
 7701SOL    HW134736   3.631   2.425   7.009 -0.8343  1.1407  1.8133
 7701SOL    HW234737   3.766   2.360   7.031 -0.9845 -1.3763  0.7464
 7702SOL     OW34738   4.737   4.523   7.258 -0.1932  0.2665  0.0506
 7702SOL    HW134739   4.664   4.471   7.292  0.2442  0.6755  1.5888
 7702SOL    HW234740   0.032   4.454   7.201  1.4938 -0.2951  1.7463
 7703SOL     OW34741   1.180   0.952   9.443  0.1904  0.3742  0.0911
 7703SOL    HW134742   1.227   0.890   9.388 -0.3103  0.1287 -0.0637
 7703SOL    HW234743   1.149   1.010   9.374 -0.5126 -0.8175 -0.5938
 7704SOL     OW34744   3.911   3.712   4.136 -0.2229 -0.2837 -0.2076
 7704SOL    HW134745   3.860   3.782   4.175  0.6778  0.0741  0.3370
 7704SOL    HW234746   3.979   3.708   4.204  0.3864  0.5623 -0.7647
 7705SOL     OW34747   1.158   1.275   6.512  0.7196  0.0331  0.3831
 7705SOL    HW134748   1.197   1.361   6.522  0.9223 -0.1404  1.1016
 7705SOL    HW234749   1.065   1.296   6.502  0.7605  0.8514  1.7908
 7706SOL     OW34750   0.927   2.434  17.053  0.2900 -0.4376 -0.2217
 7706SOL    HW134751   0.932   2.375  17.128 -1.3016  0.6513  0.7252
 7706SOL    HW234752   0.842   2.399  17.026 -0.1174  0.3536  0.0241
 7707SOL     OW34753   1.394   4.508   6.173 -0.3588 -0.0534 -0.1513
 7707SOL    HW134754   1.383   4.556   6.255 -2.9604  0.3734 -0.7678
 7707SOL    HW234755   1.380   4.416   6.194  1.1224  0.3808  2.7189
 7708SOL     OW34756   2.954   1.892  12.315 -0.8923 -0.6560 -0.0303
 7708SOL    HW134757   2.869   1.920  12.279 -1.1111  2.0805  2.5718
 7708SOL    HW234758   3.008   1.954  12.266 -0.7158 -0.5812  0.2590
 7709SOL     OW34759   1.176   2.886   9.863  1.0503 -0.0938 -0.8742
 7709SOL    HW134760   1.080   2.889   9.866  1.0824 -0.1840  0.1682
 7709SOL    HW234761   1.201   2.978   9.876  3.6647 -1.2882  2.3735
 7710SOL     OW34762   0.877   3.957   7.309 -0.3719 -0.0695 -0.5114
 7710SOL    HW134763   0.912   3.983   7.393  1.7792 -1.1289 -1.0847
 7710SOL    HW234764   0.835   3.877   7.340 -0.4232  0.4724  0.8149
 7711SOL     OW34765   1.470   1.053   2.710 -0.4989  0.1974 -0.2729
 7711SOL    HW134766   1.509   0.970   2.680  0.5441 -0.3062  2.4658
 7711SOL    HW234767   1.379   1.041   2.683 -0.3453  1.7156 -1.4453
 7712SOL     OW34768   4.711   1.956  12.197 -0.6002  0.0480  0.0897
 7712SOL    HW134769   4.700   2.051  12.192 -0.3934 -0.0729 -2.3115
 7712SOL    HW234770   4.635   1.931  12.144 -0.4922 -2.2610  1.0291
 7713SOL     OW34771   1.362   0.295   8.594  0.7390  0.1397  0.0153
 7713SOL    HW134772   1.423   0.291   8.521  1.6133  1.0415  0.7040
 7713SOL    HW234773   1.297   0.347   8.547  0.9653  0.1846 -0.2453
 7714SOL     OW34774   2.482   4.250   8.565 -0.4885 -0.3208  0.9043
 7714SOL    HW134775   2.571   4.284   8.570 -0.4582 -0.1036 -1.0960
 7714SOL    HW234776   2.437   4.295   8.636  0.3316 -1.2518  2.0098
 7715SOL     OW34777   1.071   4.057   8.450  0.5343 -0.5191 -0.0120
 7715SOL    HW134778   1.159   4.090   8.470  1.3266 -2.3957 -0.3332
 7715SOL    HW234779   1.040   4.043   8.539 -1.9742 -0.9042 -0.9538
 7716SOL     OW34780   2.646   4.495   6.265  0.3159  0.0556 -0.1999
 7716SOL    HW134781   2.704   4.423   6.290  0.1176 -0.2815 -0.7008
 7716SOL    HW234782   2.689   4.520   6.182  0.5081  0.6984  0.0916
 7717SOL     OW34783   4.170   0.774  17.574  0.3631 -0.2423 -0.5263
 7717SOL    HW134784   4.079   0.778  17.545 -0.1516  1.7147  1.3500
 7717SOL    HW234785   4.207   0.850  17.528  0.8424 -0.6291 -0.7815
 7718SOL     OW34786   0.297   0.338   2.166 -0.5344  0.1264 -0.7154
 7718SOL    HW134787   0.388   0.364   2.150 -1.0322  1.2546 -1.7181
 7718SOL    HW234788   0.263   0.373   2.084 -2.1060 -0.3679 -0.2620
 7719SOL     OW34789   1.624   3.105   7.726 -0.0686 -0.1532 -0.3861
 7719SOL    HW134790   1.584   3.112   7.813  1.8643 -0.5524  0.5414
 7719SOL    HW234791   1.700   3.049   7.745 -0.9221 -1.1064  0.2473
 7720SOL     OW34792   1.438   3.449  13.883 -0.1770 -1.0846 -0.4665
 7720SOL    HW134793   1.443   3.462  13.977 -1.8130  1.7163 -0.7640
 7720SOL    HW234794   1.411   3.539  13.866 -1.6524 -1.3846  0.2957
 7721SOL     OW34795   2.201   1.705   8.052  0.1010  0.1347  1.0234
 7721SOL    HW134796   2.276   1.722   8.109  3.8843  0.5353 -4.0703
 7721SOL    HW234797   2.138   1.658   8.107 -0.8496  0.0758 -0.1181
 7722SOL     OW34798   1.210   4.427   0.338  0.2974 -0.4415 -0.0023
 7722SOL    HW134799   1.127   4.386   0.316 -0.9952  1.9219  0.5812
 7722SOL    HW234800   1.257   4.406   0.257  1.1930 -1.9495  0.8910
 7723SOL     OW34801   0.430   0.151  17.012  0.4173  0.5596  0.4375
 7723SOL    HW134802   0.491   0.077  17.014  0.8001  0.8775  0.3806
 7723SOL    HW234803   0.385   0.130  16.930 -0.0626 -0.6119  0.9943
 7724SOL     OW34804   1.652   2.658  16.188  0.1787  0.2800 -0.8126
 7724SOL    HW134805   1.608   2.742  16.192 -0.2594 -0.0058  0.3695
 7724SOL    HW234806   1.588   2.599  16.228 -0.6824  2.4980  1.0705
 7725SOL     OW34807   2.167   4.422   5.931  0.6450 -0.0790  0.3915
 7725SOL    HW134808   2.175   4.394   5.840  2.3013  1.1464  0.1632
 7725SOL    HW234809   2.206   4.509   5.922 -0.0367  0.0599 -1.1179
 7726SOL     OW34810   1.926   3.014   7.977 -0.6440  0.4582  0.5994
 7726SOL    HW134811   1.921   2.990   7.885 -0.9405  0.7221  0.5452
 7726SOL    HW234812   2.004   2.969   8.008 -0.8083 -0.2320  0.0021
 7727SOL     OW34813   3.824   2.285   3.076 -0.1269 -0.6253 -0.5466
 7727SOL    HW134814   3.874   2.354   3.118 -0.3898 -0.3459 -0.6945
 7727SOL    HW234815   3.834   2.211   3.137  3.0005 -0.4897 -0.8772
 7728SOL     OW34816   0.619   4.700   6.472 -0.0503 -0.2188  0.6573
 7728SOL    HW134817   0.575   4.685   6.555 -1.5017  0.6676  0.0630
 7728SOL    HW234818   0.706   4.691   6.509  0.7913 -1.0839 -1.4859
 7729SOL     OW34819   2.182   2.050   4.769  0.1512  0.2046  0.3167
 7729SOL    HW134820   2.145   2.138   4.768  1.2615  0.6856  0.7500
 7729SOL    HW234821   2.165   2.008   4.854 -0.5512  0.4980  0.3215
 7730SOL     OW34822   1.617   0.236   9.467  0.0944 -0.2507 -0.2945
 7730SOL    HW134823   1.566   0.252   9.388 -0.0460 -1.1292 -0.3838
 7730SOL    HW234824   1.550   0.213   9.532 -1.0073  0.0578 -1.3166
 7731SOL     OW34825   2.973   4.472   9.199  0.4343 -0.2415  0.6033
 7731SOL    HW134826   2.930   4.557   9.195 -0.9911 -0.9133  1.7524
 7731SOL    HW234827   2.937   4.442   9.282 -1.6608 -1.4315 -0.7382
 7732SOL     OW34828   0.611   3.197   3.674  0.9439  0.1837  0.0684
 7732SOL    HW134829   0.525   3.206   3.633  0.7068 -0.4120  0.4279
 7732SOL    HW234830   0.650   3.282   3.653  3.3983 -0.5628  1.6369
 7733SOL     OW34831   3.448   2.170   6.288  0.1049  0.2352  0.1249
 7733SOL    HW134832   3.459   2.262   6.261  0.2157  0.5477  1.2321
 7733SOL    HW234833   3.523   2.150   6.343 -0.9809 -1.5815  0.9386
 7734SOL     OW34834   4.065   1.512   7.081 -0.0159  0.2952  0.4060
 7734SOL    HW134835   4.155   1.485   7.063 -0.1272  0.3824 -0.2903
 7734SOL    HW234836   4.054   1.570   7.005  0.7857  0.7077  0.5981
 7735SOL     OW34837   2.840   1.962   7.078  0.2136 -0.1915 -0.2036
 7735SOL    HW134838   2.838   1.871   7.111  1.8467 -0.7049 -1.5597
 7735SOL    HW234839   2.778   2.004   7.138  1.3962 -0.0049  0.8768
 7736SOL     OW34840   3.958   1.508   9.357 -0.0981 -0.1176 -0.2568
 7736SOL    HW134841   4.021   1.513   9.285 -1.8931 -0.4799 -1.8439
 7736SOL    HW234842   3.886   1.464   9.311  1.7032 -1.5031 -1.7555
 7737SOL     OW34843   1.704   4.514   8.995  0.0556  0.3624 -0.2668
 7737SOL    HW134844   1.657   4.549   9.071 -1.2695  0.5245 -1.1571
 7737SOL    HW234845   1.761   4.591   8.987  2.5305 -1.5084 -0.4618
 7738SOL     OW34846   2.698   1.302   2.557 -0.1677 -0.4453 -0.3967
 7738SOL    HW134847   2.715   1.333   2.646  3.9471  1.8530 -1.9969
 7738SOL    HW234848   2.632   1.366   2.532  1.3067  1.3613  0.3563
 7739SOL     OW34849   3.118   2.301   4.826 -0.4875  0.0771 -0.1001
 7739SOL    HW134850   3.053   2.370   4.839 -0.5012  0.1405 -0.5062
 7739SOL    HW234851   3.110   2.300   4.731  2.3217 -2.1136 -0.3225
 7740SOL     OW34852   0.572   0.280   5.904  0.0116 -0.1712 -0.2920
 7740SOL    HW134853   0.608   0.345   5.965  0.6655 -0.1139 -0.7440
 7740SOL    HW234854   0.531   0.333   5.835  1.1655 -0.9803 -1.5973
 7741SOL     OW34855   3.385   0.397   8.310 -0.0203 -0.1450 -0.5628
 7741SOL    HW134856   3.374   0.374   8.218  0.1928 -1.0887 -0.3484
 7741SOL    HW234857   3.300   0.385   8.353 -0.0508  0.0543 -0.5650
 7742SOL     OW34858   1.367   4.029  16.822 -0.3907  0.7523  0.0597
 7742SOL    HW134859   1.300   4.093  16.796  1.1677  0.7540 -3.9638
 7742SOL    HW234860   1.317   3.974  16.882  1.2369 -2.4942 -1.5863
 7743SOL     OW34861   3.712   0.609   5.300  0.3440  0.1887 -0.1893
 7743SOL    HW134862   3.680   0.540   5.241 -0.7877  0.5293  0.0199
 7743SOL    HW234863   3.667   0.593   5.384  0.4802 -0.2610 -0.1996
 7744SOL     OW34864   0.063   2.601   9.659  0.3359 -0.3869  0.1127
 7744SOL    HW134865   4.713   2.626   9.633  0.4215 -1.7617 -1.5342
 7744SOL    HW234866   0.066   2.513   9.622 -1.8832 -1.0021  1.3438
 7745SOL     OW34867   1.160   4.668  16.023  0.0930 -0.1653  0.6847
 7745SOL    HW134868   1.092   4.618  16.069 -1.2255 -0.0622 -1.1003
 7745SOL    HW234869   1.119   4.661  15.936  0.7773 -1.7720  0.4780
 7746SOL     OW34870   3.359   3.362  16.596  0.2216 -0.1241 -0.0078
 7746SOL    HW134871   3.374   3.321  16.681 -1.2007 -0.4323  0.1031
 7746SOL    HW234872   3.411   3.442  16.598 -0.5507  0.3456  1.3526
 7747SOL     OW34873   3.680   2.762   3.944 -0.0069  0.6940  0.3462
 7747SOL    HW134874   3.763   2.801   3.917 -1.0084  0.9464 -2.2807
 7747SOL    HW234875   3.622   2.770   3.869  0.4362 -0.6705 -0.1458
 7748SOL     OW34876   4.371   1.647   5.162  0.1722  0.2985  0.4182
 7748SOL    HW134877   4.313   1.570   5.157 -0.4381  0.6953  1.4030
 7748SOL    HW234878   4.347   1.684   5.077 -2.0467  2.9033  2.1750
 7749SOL     OW34879   1.340   2.389  15.157 -0.3741 -0.6141 -0.2376
 7749SOL    HW134880   1.271   2.344  15.108 -0.1463 -3.5546  2.1377
 7749SOL    HW234881   1.397   2.316  15.180  2.5655  0.8443 -2.8756
 7750SOL     OW34882   3.621   3.643  16.827 -0.1179 -0.1764 -0.1770
 7750SOL    HW134883   3.637   3.736  16.840  0.6615 -0.3908  0.4569
 7750SOL    HW234884   3.558   3.632  16.756 -0.4665 -0.8661  0.2307
 7751SOL     OW34885   3.953   1.260   2.338 -0.0910 -0.2915 -0.1163
 7751SOL    HW134886   3.934   1.175   2.300  0.5895 -0.9886  1.1136
 7751SOL    HW234887   3.881   1.304   2.293 -0.0366  0.5301  0.5966
 7752SOL     OW34888   2.188   2.943  12.343  0.1160  0.5401  0.8576
 7752SOL    HW134889   2.207   2.851  12.323 -0.2558  0.9619 -1.4334
 7752SOL    HW234890   2.216   2.956  12.434  1.4076  3.0323  0.1012
 7753SOL     OW34891   4.069   4.694   7.109 -0.9406 -0.2688  0.0183
 7753SOL    HW134892   4.035   4.604   7.112 -1.2695 -0.0469  2.5082
 7753SOL    HW234893   3.989   0.005   7.123 -0.5376  0.0496  1.1657
 7754SOL     OW34894   3.001   2.433   7.130 -0.4072  0.0592 -0.3634
 7754SOL    HW134895   3.019   2.341   7.148 -1.6535  0.0199  0.7137
 7754SOL    HW234896   3.080   2.444   7.077 -0.0670 -1.8189 -0.2549
 7755SOL     OW34897   2.803   2.479   2.570 -0.4316 -0.4368  0.3986
 7755SOL    HW134898   2.829   2.553   2.514 -0.2913 -1.4318 -0.8669
 7755SOL    HW234899   2.710   2.500   2.578 -0.6816 -1.3567 -0.1608
 7756SOL     OW34900   0.930   2.995   8.535  0.3298 -0.4940 -0.2096
 7756SOL    HW134901   0.916   2.917   8.481 -2.1012 -0.2338  0.0515
 7756SOL    HW234902   1.021   3.021   8.520 -0.0700  1.0103 -0.0583
 7757SOL     OW34903   3.806   1.527   5.944 -0.3105 -0.3865 -0.6751
 7757SOL    HW134904   3.728   1.577   5.920 -1.5958 -1.4556  1.2391
 7757SOL    HW234905   3.780   1.449   5.896 -1.4061 -1.1141  1.1375
 7758SOL     OW34906   0.480   0.198  11.510  0.0372 -0.4465 -0.1538
 7758SOL    HW134907   0.415   0.219  11.444 -1.0664  1.3957  1.5242
 7758SOL    HW234908   0.564   0.222  11.471 -0.2285  0.3599 -0.2372
 7759SOL     OW34909   3.109   2.242   6.653 -0.1516 -0.0280 -0.2297
 7759SOL    HW134910   3.130   2.335   6.658  0.3020 -0.3253  3.1360
 7759SOL    HW234911   3.184   2.215   6.601 -1.8910  0.1264 -2.8695
 7760SOL     OW34912   0.090   1.940   8.799 -0.3996  0.7639 -0.5896
 7760SOL    HW134913   0.143   1.978   8.729  0.7333  0.6634  0.2181
 7760SOL    HW234914   0.087   2.010   8.865  0.4808  0.8940 -0.6953
 7761SOL     OW34915   0.798   4.289   5.002 -0.6861  0.3894 -0.5009
 7761SOL    HW134916   0.853   4.337   4.940  0.3704  0.3441  0.4014
 7761SOL    HW234917   0.750   4.236   4.938 -0.1857 -0.8826  0.1915
 7762SOL     OW34918   2.496   2.802   3.431 -0.5988  0.2476  0.3978
 7762SOL    HW134919   2.587   2.817   3.405 -1.7373  0.8320 -3.2739
 7762SOL    HW234920   2.448   2.837   3.356 -2.0081 -1.8177  0.3434
 7763SOL     OW34921   2.061   1.715  12.502  0.1978 -0.6797 -0.0786
 7763SOL    HW134922   1.985   1.750  12.547 -0.5066 -0.7765 -1.2029
 7763SOL    HW234923   2.121   1.711  12.577  0.7597  0.4535 -0.4693
 7764SOL     OW34924   2.533   2.151   8.809 -0.3993 -0.1902  0.1996
 7764SOL    HW134925   2.604   2.095   8.839 -0.1433  1.5821  2.8764
 7764SOL    HW234926   2.462   2.107   8.855 -0.6198  1.0282  1.0214
 7765SOL     OW34927   1.479   3.514   6.278  0.0502 -0.4785  0.1330
 7765SOL    HW134928   1.477   3.430   6.323  0.3553 -0.5183  0.0694
 7765SOL    HW234929   1.386   3.516   6.254  0.0146 -0.4327  0.2746
 7766SOL     OW34930   4.099   1.747   6.902 -0.3177  0.7927  0.0884
 7766SOL    HW134931   4.178   1.754   6.848 -0.2842  1.6150  0.2429
 7766SOL    HW234932   4.036   1.697   6.850 -2.1927 -0.1374  3.2435
 7767SOL     OW34933   3.317   0.673   8.268 -0.6840 -0.7397 -0.0388
 7767SOL    HW134934   3.335   0.581   8.285  0.1061 -0.5483  0.1248
 7767SOL    HW234935   3.271   0.692   8.350 -0.6851 -1.6365  0.1720
 7768SOL     OW34936   3.766   3.598   5.387  0.5941  0.1262  0.3503
 7768SOL    HW134937   3.800   3.527   5.441  0.3339 -0.9092 -0.8636
 7768SOL    HW234938   3.721   3.646   5.457 -2.1744  0.0739 -1.3906
 7769SOL     OW34939   4.116   0.524   2.415  0.8498  0.2186  0.3102
 7769SOL    HW134940   4.155   0.458   2.357 -0.1651  1.7623 -2.1344
 7769SOL    HW234941   4.183   0.591   2.399 -0.8223  2.1372  1.4983
 7770SOL     OW34942   2.523   2.491   3.444 -0.2037 -0.5116  0.1255
 7770SOL    HW134943   2.492   2.403   3.423 -0.1591 -0.0653 -1.7950
 7770SOL    HW234944   2.451   2.519   3.500 -0.8061 -1.4885 -0.1634
 7771SOL     OW34945   1.946   0.182   9.921 -0.2194  0.3109  0.3212
 7771SOL    HW134946   1.874   0.169   9.859 -0.4253  3.2386 -0.0396
 7771SOL    HW234947   1.911   0.258   9.967 -0.6466  1.0176 -1.1711
 7772SOL     OW34948   2.671   0.992   5.245  0.4240  0.4390 -0.5326
 7772SOL    HW134949   2.635   1.058   5.305  0.3227  0.6311 -0.8076
 7772SOL    HW234950   2.673   1.035   5.160 -0.8692  2.9013  0.6804
 7773SOL     OW34951   0.145   1.147   7.894 -0.5316  0.2438  0.3883
 7773SOL    HW134952   0.145   1.190   7.980 -1.6135  0.6152  0.2082
 7773SOL    HW234953   0.055   1.164   7.867 -0.9893  0.1220  1.8539
 7774SOL     OW34954   2.841   2.475   3.844 -0.0046  0.3101  0.3886
 7774SOL    HW134955   2.862   2.391   3.805 -0.2037  0.7200 -0.6018
 7774SOL    HW234956   2.780   2.512   3.780  1.7774  0.4488 -1.2402
 7775SOL     OW34957   1.716   0.314   7.858  0.1326 -0.2458 -0.0307
 7775SOL    HW134958   1.645   0.358   7.905 -0.4063 -0.2630 -0.8275
 7775SOL    HW234959   1.671   0.286   7.779  0.2633  0.4470 -0.3436
 7776SOL     OW34960   1.036   0.214  10.141 -0.3511 -0.2347 -0.2690
 7776SOL    HW134961   1.041   0.297  10.188  2.3286  0.9277 -2.6170
 7776SOL    HW234962   1.027   0.147  10.208 -0.8247  1.4951  1.3979
 7777SOL     OW34963   4.326   1.424  12.514 -0.4110  0.1595  0.3918
 7777SOL    HW134964   4.376   1.342  12.508 -0.3608  0.3122 -1.2825
 7777SOL    HW234965   4.255   1.406  12.452 -1.7230  2.1293  1.2973
 7778SOL     OW34966   3.680   0.200   7.520 -0.5133  0.0931  0.4756
 7778SOL    HW134967   3.680   0.185   7.614 -0.4180 -1.8249  0.1700
 7778SOL    HW234968   3.674   0.295   7.511  1.6196  0.1622 -0.1088
 7779SOL     OW34969   3.385   2.876   3.199 -0.2331  0.0940  0.6597
 7779SOL    HW134970   3.414   2.837   3.116  0.6254  0.5436  0.7481
 7779SOL    HW234971   3.366   2.965   3.171  0.1447 -0.3736 -1.1122
 7780SOL     OW34972   4.194   1.883  16.269 -0.2921 -0.2228  0.6871
 7780SOL    HW134973   4.117   1.934  16.246 -0.0620  0.0893  0.6026
 7780SOL    HW234974   4.155   1.797  16.280 -0.5503 -0.0079  1.4362
 7781SOL     OW34975   3.667   1.667   3.125  0.3363 -0.3368  0.2475
 7781SOL    HW134976   3.674   1.742   3.066  1.4574 -0.4096  0.2766
 7781SOL    HW234977   3.760   1.657   3.148  0.3925 -1.5169 -0.4987
 7782SOL     OW34978   0.608   3.675   4.856 -0.2657  0.5131  0.0810
 7782SOL    HW134979   0.681   3.635   4.904  1.3530  0.3366 -2.5292
 7782SOL    HW234980   0.556   3.595   4.842  0.3236  0.0504  0.5683
 7783SOL     OW34981   0.447   1.248  12.622 -0.0856  0.1352  0.3980
 7783SOL    HW134982   0.378   1.305  12.587 -0.8202 -1.8837 -1.4483
 7783SOL    HW234983   0.452   1.280  12.712 -0.5160  2.2072 -0.3157
 7784SOL     OW34984   2.698   0.595  11.736  0.5341  0.2226 -0.5764
 7784SOL    HW134985   2.667   0.536  11.806 -0.0544 -1.5272 -2.3033
 7784SOL    HW234986   2.770   0.635  11.785 -0.2372  1.2150 -0.2651
 7785SOL     OW34987   0.459   3.953  10.614 -0.0024  0.0844  0.6992
 7785SOL    HW134988   0.472   3.883  10.678  0.9191  0.5049  0.9735
 7785SOL    HW234989   0.526   4.012  10.647 -0.4100  0.4035  0.9588
 7786SOL     OW34990   4.177   2.342   5.020 -0.5536 -0.1307  0.8086
 7786SOL    HW134991   4.218   2.429   5.028  0.8274 -0.7691  0.6506
 7786SOL    HW234992   4.206   2.307   4.937 -0.5987  5.3907 -1.5594
 7787SOL     OW34993   4.067   1.567   2.258  0.9153 -0.3564  0.1729
 7787SOL    HW134994   4.030   1.529   2.178 -3.3693 -0.3070  2.1163
 7787SOL    HW234995   3.985   1.584   2.305  0.4415 -0.0069 -0.7740
 7788SOL     OW34996   2.472   4.069   6.116 -1.1378  0.0322 -0.1025
 7788SOL    HW134997   2.388   4.115   6.122 -1.8973 -1.6017  1.7383
 7788SOL    HW234998   2.522   4.096   6.193  1.1843  1.3105 -2.0600
 7789SOL     OW34999   4.090   1.143   5.713  0.4809  0.1763 -0.1915
 7789SOL    HW135000   4.036   1.222   5.703 -2.1275 -1.3396  2.0106
 7789SOL    HW235001   4.084   1.114   5.804  0.7665  0.1784 -0.1706
 7790SOL     OW35002   4.450   4.241  14.821  0.2931  0.1992 -0.6113
 7790SOL    HW135003   4.465   4.198  14.737  1.6102  2.3700 -1.4755
 7790SOL    HW235004   4.530   4.290  14.837  0.1190  0.0506  0.7561
 7791SOL     OW35005   4.521   1.379  11.437  0.2141 -0.3132 -0.2942
 7791SOL    HW135006   4.475   1.314  11.490 -0.4801 -0.0456 -0.5620
 7791SOL    HW235007   4.532   1.452  11.499  1.6144 -0.3697 -0.4708
 7792SOL     OW35008   0.163   1.441   3.671 -0.0846  0.0144 -0.2075
 7792SOL    HW135009   0.115   1.358   3.672 -0.6394  0.3534  2.5423
 7792SOL    HW235010   0.125   1.486   3.747 -0.1463 -2.2407  1.0849
 7793SOL     OW35011   4.713   4.082   5.048  0.1630 -0.2290  0.1786
 7793SOL    HW135012   4.666   4.159   5.014  2.0220  1.2409  0.9691
 7793SOL    HW235013   0.030   4.116   5.118  1.4795  0.2439 -1.1117
 7794SOL     OW35014   0.081   0.039  13.607 -0.4757 -0.2613  0.4529
 7794SOL    HW135015   0.102   0.103  13.539 -0.3195  0.2657  1.0063
 7794SOL    HW235016   0.097   0.086  13.688 -0.6687 -0.0432  0.3635
 7795SOL     OW35017   0.141   2.418  16.460  0.5175  0.5379 -0.5954
 7795SOL    HW135018   0.112   2.508  16.478 -0.8774 -0.4047  1.8040
 7795SOL    HW235019   0.177   2.396  16.545  0.5112  1.5622 -0.3193
 7796SOL     OW35020   3.884   2.912   3.860 -0.2836 -0.0632 -0.3709
 7796SOL    HW135021   3.860   2.960   3.781  0.0897  0.0147 -0.4365
 7796SOL    HW235022   3.970   2.946   3.887  1.4105 -3.3216 -1.6007
 7797SOL     OW35023   2.491   4.253   3.327 -0.2819  0.0899 -0.7766
 7797SOL    HW135024   2.479   4.178   3.269  0.0899 -2.5362  2.5213
 7797SOL    HW235025   2.537   4.320   3.276 -1.4939  1.0158 -0.6771
 7798SOL     OW35026   0.547   0.373   9.056 -0.2250 -0.0590  0.2477
 7798SOL    HW135027   0.587   0.355   9.141  2.3976 -1.0007 -1.1679
 7798SOL    HW235028   0.541   0.285   9.019  2.6273  0.9014 -2.5512
 7799SOL     OW35029   4.303   3.811   5.474  0.4056  0.4161 -0.5846
 7799SOL    HW135030   4.302   3.822   5.379  2.1393 -0.1079 -0.6714
 7799SOL    HW235031   4.274   3.720   5.483  2.5277 -0.3209 -1.1187
 7800SOL     OW35032   2.520   0.479   8.439  0.1812  0.0923  0.1764
 7800SOL    HW135033   2.495   0.569   8.459 -2.2821 -0.4477 -0.4626
 7800SOL    HW235034   2.591   0.468   8.503  0.6858 -0.5624 -0.4948
 7801SOL     OW35035   2.238   0.137   5.338  0.5295  0.5267 -0.4884
 7801SOL    HW135036   2.285   0.060   5.369 -0.7801 -0.9867 -2.3008
 7801SOL    HW235037   2.264   0.116   5.248 -0.2476  1.4699 -0.9360
 7802SOL     OW35038   2.712   1.529   3.170 -0.1707  0.1444  0.1269
 7802SOL    HW135039   2.802   1.533   3.136 -0.5923  0.3109 -0.9776
 7802SOL    HW235040   2.716   1.608   3.224 -1.1631  0.5328 -0.3739
 7803SOL     OW35041   1.522   1.760  11.289  0.2479  0.3968 -0.7859
 7803SOL    HW135042   1.576   1.689  11.326 -1.2756 -1.4429 -2.0876
 7803SOL    HW235043   1.558   1.760  11.200  0.9153  2.4209 -0.5180
 7804SOL     OW35044   0.167   2.042   8.571  0.4269  0.3497  0.1889
 7804SOL    HW135045   0.251   2.089   8.577  0.4585  0.3309 -0.1169
 7804SOL    HW235046   0.166   2.024   8.477  4.2600 -1.0382  0.4085
 7805SOL     OW35047   0.181   3.258   4.205 -0.3880 -0.6185 -0.5574
 7805SOL    HW135048   0.147   3.169   4.217 -0.7627 -0.9137 -3.7052
 7805SOL    HW235049   0.103   3.312   4.215 -0.1340 -0.7095  1.8152
 7806SOL     OW35050   1.055   0.449   3.325 -0.0725  0.3083  0.0607
 7806SOL    HW135051   0.984   0.433   3.263 -0.7806  0.0711  0.9380
 7806SOL    HW235052   1.055   0.371   3.380 -0.3257 -0.8211 -1.5509
 7807SOL     OW35053   0.798   2.559   6.134 -0.1698  0.2471 -0.4656
 7807SOL    HW135054   0.784   2.633   6.075  2.0164 -0.3058 -1.7138
 7807SOL    HW235055   0.868   2.511   6.089  0.3067 -0.0117  0.5595
 7808SOL     OW35056   3.334   0.454   5.699  0.2133 -0.3267 -0.0606
 7808SOL    HW135057   3.313   0.385   5.762  1.9585 -1.7517 -1.0098
 7808SOL    HW235058   3.246   0.462   5.661 -0.1559  2.8088  1.4616
 7809SOL     OW35059   2.702   2.146   9.905 -0.1773  0.3144 -0.2391
 7809SOL    HW135060   2.765   2.098   9.851 -0.2908 -0.6810  0.5393
 7809SOL    HW235061   2.638   2.077   9.921 -0.0443 -0.0166 -1.1236
 7810SOL     OW35062   2.053   3.325   3.801 -0.4174 -0.0703  0.0240
 7810SOL    HW135063   2.115   3.282   3.742  1.4499 -0.1521  2.0555
 7810SOL    HW235064   2.078   3.417   3.795  1.6847 -0.6152  0.1684
 7811SOL     OW35065   0.718   3.450  13.268  0.3759  0.1699  0.0094
 7811SOL    HW135066   0.757   3.362  13.276 -0.9831 -0.3193  1.1687
 7811SOL    HW235067   0.640   3.439  13.322 -1.2832  1.1494 -2.2126
 7812SOL     OW35068   1.206   3.239   3.855 -0.0144 -0.2252  0.1916
 7812SOL    HW135069   1.138   3.306   3.864  2.6661  2.2026  2.5386
 7812SOL    HW235070   1.200   3.192   3.938  2.0715  0.2402  0.6133
 7813SOL     OW35071   1.948   2.779  15.655 -0.0913  0.4451 -0.1315
 7813SOL    HW135072   1.863   2.790  15.612 -0.4517 -2.9310 -0.3203
 7813SOL    HW235073   1.991   2.864  15.653  1.6783 -0.4754 -1.3996
 7814SOL     OW35074   2.058   0.798   0.642 -0.7041 -0.0633 -0.1711
 7814SOL    HW135075   2.006   0.720   0.620  0.7583 -1.2804  0.7075
 7814SOL    HW235076   2.145   0.760   0.631  1.1173  3.9049  0.6006
 7815SOL     OW35077   2.929   3.883   4.352 -0.6150 -0.0769  0.9589
 7815SOL    HW135078   2.890   3.797   4.368 -1.3863  0.1214  0.1090
 7815SOL    HW235079   2.860   3.928   4.305  3.5603  3.1453 -2.0427
 7816SOL     OW35080   3.856   2.126   3.861 -0.6832  0.2194 -0.0791
 7816SOL    HW135081   3.878   2.032   3.862 -1.1370  0.1364  2.4907
 7816SOL    HW235082   3.773   2.123   3.908 -1.5340  0.9956 -1.5392
 7817SOL     OW35083   2.484   3.789   7.347 -0.0431 -0.4574 -0.2395
 7817SOL    HW135084   2.550   3.829   7.291 -0.3075  1.0475  0.5259
 7817SOL    HW235085   2.409   3.847   7.344  0.2848  0.1172  2.3441
 7818SOL     OW35086   1.284   2.718   7.331 -0.4158 -0.5382 -0.0209
 7818SOL    HW135087   1.319   2.780   7.267 -0.8723  0.1121  0.3498
 7818SOL    HW235088   1.331   2.637   7.315 -0.0776 -0.2455 -0.5246
 7819SOL     OW35089   0.977   3.387   5.923 -0.2357 -0.2790  0.4754
 7819SOL    HW135090   0.896   3.338   5.908  0.4753 -1.4938  0.6161
 7819SOL    HW235091   1.044   3.319   5.921  0.9475  0.8716  2.6865
 7820SOL     OW35092   3.182   4.184   5.781  0.1319  0.1588  0.2100
 7820SOL    HW135093   3.112   4.246   5.802  1.3716  0.5967  3.1258
 7820SOL    HW235094   3.164   4.162   5.690  0.6695  0.1758  0.0977
 7821SOL     OW35095   4.042   3.561   3.063 -0.2587 -0.5533  0.2082
 7821SOL    HW135096   4.043   3.471   3.028 -0.1682 -0.9728  1.3035
 7821SOL    HW235097   4.105   3.606   3.006  0.3880 -0.0901  1.3062
 7822SOL     OW35098   3.429   4.244   8.329  0.1172  0.0663 -0.5412
 7822SOL    HW135099   3.336   4.224   8.320  0.3128 -0.2716 -1.8341
 7822SOL    HW235100   3.476   4.187   8.269  0.7524 -1.2057  1.1533
 7823SOL     OW35101   0.774   2.975   2.912  0.1976  0.2904  0.6232
 7823SOL    HW135102   0.862   2.998   2.880 -1.3795  0.4961 -3.5614
 7823SOL    HW235103   0.779   2.994   3.006  3.4974  0.4640  0.4116
 7824SOL     OW35104   4.052   2.675   8.995 -0.2166  0.3611 -0.5396
 7824SOL    HW135105   4.025   2.762   9.023 -1.6942  0.8685 -3.5553
 7824SOL    HW235106   4.080   2.701   8.907  1.0332  1.8064  0.2716
 7825SOL     OW35107   4.663   1.672   2.787  0.1822  0.2446 -0.0535
 7825SOL    HW135108   4.674   1.762   2.756 -1.0527  0.7569  0.9650
 7825SOL    HW235109   4.574   1.655   2.756  0.3354 -1.5333  0.4656
 7826SOL     OW35110   3.847   4.574   2.330  0.1848 -0.3793 -0.0471
 7826SOL    HW135111   3.784   4.524   2.382 -0.9994  0.7890 -0.3642
 7826SOL    HW235112   3.887   4.500   2.284 -2.0497 -0.4129 -1.9217
 7827SOL     OW35113   1.510   2.524   5.840 -0.3058  0.1100 -0.0260
 7827SOL    HW135114   1.420   2.515   5.807 -0.6015  1.0712  0.5276
 7827SOL    HW235115   1.542   2.446   5.794 -2.4839 -0.1338 -1.1332
 7828SOL     OW35116   2.188   1.984  11.958  0.1144  0.4105 -0.1849
 7828SOL    HW135117   2.230   1.990  12.044  0.4380  0.1273 -0.3245
 7828SOL    HW235118   2.202   2.064  11.909 -1.6836  1.2834  0.7412
 7829SOL     OW35119   2.180   2.036  11.171  0.9475 -0.1143  0.3988
 7829SOL    HW135120   2.198   2.043  11.265  2.6803  2.1059 -0.1027
 7829SOL    HW235121   2.125   1.958  11.159  2.0949 -0.9370  0.5384
 7830SOL     OW35122   2.777   4.173   5.442 -0.5807  0.1602  0.0518
 7830SOL    HW135123   2.813   4.259   5.421  0.1582 -0.0742  0.3505
 7830SOL    HW235124   2.698   4.171   5.388  0.9835 -2.3355 -2.1718
 7831SOL     OW35125   1.130   4.124   4.860 -0.2142 -0.2365 -0.0856
 7831SOL    HW135126   1.180   4.091   4.935 -1.2692  0.5588  0.9823
 7831SOL    HW235127   1.070   4.186   4.903  0.0280  0.9056 -1.4151
 7832SOL     OW35128   1.336   0.714   8.949  0.4496  0.4040  0.2285
 7832SOL    HW135129   1.410   0.656   8.968  0.1998 -0.2412 -0.7935
 7832SOL    HW235130   1.358   0.745   8.861  1.4342 -1.3057 -0.1250
 7833SOL     OW35131   2.055   0.933  14.453 -0.1982 -0.1015 -0.3752
 7833SOL    HW135132   2.009   0.867  14.504  0.6508 -0.1766  0.3005
 7833SOL    HW235133   2.093   0.982  14.526 -1.2680 -1.7517  1.2555
 7834SOL     OW35134   2.314   3.993   7.433  0.4171  0.3249  0.6365
 7834SOL    HW135135   2.329   4.087   7.428  1.6765 -0.0828 -3.6620
 7834SOL    HW235136   2.313   3.965   7.524 -1.8031  0.3919  0.6412
 7835SOL     OW35137   3.006   3.297   4.356  0.2064  0.1622  0.0647
 7835SOL    HW135138   3.014   3.285   4.261 -0.6099  5.0821 -0.5964
 7835SOL    HW235139   2.932   3.241   4.381  1.7114 -1.7754  0.1914
 7836SOL     OW35140   3.012   3.869   2.656  0.3120  0.1298 -0.4088
 7836SOL    HW135141   3.079   3.851   2.721 -1.6371  1.2219  1.9047
 7836SOL    HW235142   2.940   3.892   2.714 -0.6204  0.0672 -1.5284
 7837SOL     OW35143   0.332   4.548  14.508  0.1051  0.0082  0.4703
 7837SOL    HW135144   0.428   4.538  14.509 -0.1882 -2.7054  2.2090
 7837SOL    HW235145   0.306   4.478  14.568  1.6668  0.5213  1.7794
 7838SOL     OW35146   1.331   1.575   1.369 -0.3129  0.2625 -0.2086
 7838SOL    HW135147   1.357   1.524   1.292 -0.2163 -0.9483  0.6172
 7838SOL    HW235148   1.331   1.501   1.430  0.9239  1.4968  1.3041
 7839SOL     OW35149   3.587   0.087   7.996 -0.0650 -0.1493  0.0342
 7839SOL    HW135150   3.552   0.100   8.085 -0.0110 -0.7232  0.1387
 7839SOL    HW235151   3.658   0.033   8.030  0.7601  1.6800  1.2543
 7840SOL     OW35152   4.610   3.608   4.578 -0.4096 -0.0274 -0.2625
 7840SOL    HW135153   4.560   3.641   4.653 -0.5058  2.5301 -1.4550
 7840SOL    HW235154   4.588   3.515   4.587  1.2990 -0.3794  0.2242
 7841SOL     OW35155   4.049   4.718  13.844  0.0503  0.3698 -0.7725
 7841SOL    HW135156   4.117   4.693  13.907  0.0881 -0.0873 -0.9956
 7841SOL    HW235157   4.047   4.652  13.775  0.1063  1.3997 -1.7562
 7842SOL     OW35158   2.667   2.992   8.353 -0.3899  0.6794  0.6936
 7842SOL    HW135159   2.742   3.045   8.378 -0.3378  0.6320  0.6369
 7842SOL    HW235160   2.604   3.062   8.334 -0.8182  0.4084  1.1059
 7843SOL     OW35161   0.967   0.102   8.937  0.2206 -0.3467  0.5644
 7843SOL    HW135162   1.049   0.097   8.888 -0.3792 -1.1649 -0.3576
 7843SOL    HW235163   0.937   0.018   8.902  0.4658  1.1060 -3.0864
 7844SOL     OW35164   3.095   4.185   7.678  0.0314  0.0102  0.2230
 7844SOL    HW135165   3.021   4.159   7.622  0.6558 -0.5400 -0.3472
 7844SOL    HW235166   3.158   4.114   7.675  1.2285  1.0733  0.1194
 7845SOL     OW35167   0.405   3.489   8.096 -0.0558 -0.0448  0.5237
 7845SOL    HW135168   0.497   3.505   8.076 -0.4765  0.8873 -0.6598
 7845SOL    HW235169   0.380   3.442   8.017  0.1297  0.2168  0.3106
 7846SOL     OW35170   1.420   3.994  11.567 -0.6657  0.0244 -0.3573
 7846SOL    HW135171   1.443   3.902  11.574 -0.1191  0.1391 -0.6485
 7846SOL    HW235172   1.487   4.036  11.512  2.0004 -3.7230  0.0735
 7847SOL     OW35173   2.900   4.516  15.095 -0.0460 -0.3190  0.5048
 7847SOL    HW135174   2.847   4.462  15.152  0.3439  2.1957  3.2275
 7847SOL    HW235175   2.932   4.446  15.037 -1.1320 -0.3369 -0.0634
 7848SOL     OW35176   0.557   3.695   5.298 -0.0201  0.3031  0.9120
 7848SOL    HW135177   0.587   3.763   5.239  1.1321 -1.7400 -0.8760
 7848SOL    HW235178   0.502   3.639   5.243  2.1366 -0.3074 -0.6218
 7849SOL     OW35179   3.356   0.505   1.871  0.2015 -0.2241 -0.0916
 7849SOL    HW135180   3.417   0.528   1.941 -0.9119  1.8073  0.2138
 7849SOL    HW235181   3.283   0.549   1.914 -1.1348 -2.4153 -0.1524
 7850SOL     OW35182   0.674   1.687   5.289 -1.1315  0.7196 -0.1377
 7850SOL    HW135183   0.672   1.731   5.374  2.4019 -0.3858  0.5335
 7850SOL    HW235184   0.584   1.695   5.257 -0.6011 -0.7336 -2.0013
 7851SOL     OW35185   3.013   2.811   6.357 -0.1910  0.0360  0.0415
 7851SOL    HW135186   3.091   2.789   6.306  0.5655 -0.7443  1.5494
 7851SOL    HW235187   2.969   2.858   6.286  0.5058  0.5636 -0.0398
 7852SOL     OW35188   3.381   4.519  14.873 -0.0417 -0.0105  0.1235
 7852SOL    HW135189   3.306   4.564  14.911  0.6556  0.1504  1.3255
 7852SOL    HW235190   3.342   4.450  14.821 -1.5971  0.5675  0.5175
 7853SOL     OW35191   1.678   2.375   9.334 -0.3584 -0.1121  0.0389
 7853SOL    HW135192   1.716   2.462   9.349 -0.6330  0.0426 -0.1556
 7853SOL    HW235193   1.620   2.392   9.259  0.7931 -0.1255 -0.8543
 7854SOL     OW35194   3.706   3.836   2.521  0.0420  0.2405 -0.1932
 7854SOL    HW135195   3.793   3.874   2.531  1.3290 -2.4918 -1.1271
 7854SOL    HW235196   3.706   3.766   2.587  2.8947 -0.1690 -0.6054
 7855SOL     OW35197   3.045   0.845   6.829  0.0880  0.6009 -0.3107
 7855SOL    HW135198   3.037   0.893   6.746 -0.8727  0.1298 -0.4952
 7855SOL    HW235199   2.971   0.784   6.824 -0.5392  1.3151  0.4320
 7856SOL     OW35200   2.651   3.382   5.351  0.5595 -0.4654  0.7187
 7856SOL    HW135201   2.727   3.426   5.389  1.1066 -0.2642 -0.6025
 7856SOL    HW235202   2.586   3.392   5.420 -0.2285  0.5093 -0.1440
 7857SOL     OW35203   4.190   1.449   8.478 -0.2534 -0.0514  0.2163
 7857SOL    HW135204   4.126   1.520   8.484  0.8615  0.9223  0.6209
 7857SOL    HW235205   4.268   1.482   8.522  1.0012 -3.1643  0.2658
 7858SOL     OW35206   0.276   0.642   3.889  0.7716  0.2192 -0.1757
 7858SOL    HW135207   0.330   0.576   3.933 -0.8685 -1.6853 -1.0286
 7858SOL    HW235208   0.199   0.587   3.877 -0.3557  2.3693 -2.8912
 7859SOL     OW35209   2.126   4.681  16.316  0.2974  0.2916 -0.0104
 7859SOL    HW135210   2.107   0.023  16.269 -3.0956  0.5358  1.7906
 7859SOL    HW235211   2.200   4.656  16.261 -0.5053 -2.2419  0.0325
 7860SOL     OW35212   2.153   2.814   3.036  0.0943  0.2668 -0.4180
 7860SOL    HW135213   2.094   2.848   2.970 -1.1980 -1.8753 -0.3714
 7860SOL    HW235214   2.221   2.772   2.982 -0.4118  0.4246 -1.1735
 7861SOL     OW35215   2.150   4.725   8.285  0.0203 -0.0010 -0.1781
 7861SOL    HW135216   2.060   4.722   8.253 -0.7113  0.6735  1.8055
 7861SOL    HW235217   2.175   0.058   8.229 -0.0259  0.3191  0.2151
 7862SOL     OW35218   2.873   0.365   7.518  0.0735 -0.6795 -0.5785
 7862SOL    HW135219   2.862   0.407   7.603  1.9536  0.8536 -1.0910
 7862SOL    HW235220   2.804   0.394   7.457 -0.4437 -2.0238 -0.6286
 7863SOL     OW35221   2.022   0.712  13.491  0.2863 -0.3781 -0.2386
 7863SOL    HW135222   2.042   0.784  13.550 -0.4221  0.0200 -0.4924
 7863SOL    HW235223   1.949   0.739  13.435 -0.2985  0.0862  0.7549
 7864SOL     OW35224   1.660   1.101   6.673  0.7388 -0.0764 -0.2544
 7864SOL    HW135225   1.736   1.102   6.731 -0.0558 -1.1949  0.8171
 7864SOL    HW235226   1.602   1.134   6.742 -1.8739 -1.8895 -1.5735
 7865SOL     OW35227   3.262   3.347   4.856  0.0476 -0.3309 -0.1320
 7865SOL    HW135228   3.212   3.324   4.935  0.4010 -4.5724 -1.1781
 7865SOL    HW235229   3.203   3.332   4.782 -0.5663  0.0548  0.2735
 7866SOL     OW35230   0.972   1.553   5.733 -0.8938  0.2113  0.6397
 7866SOL    HW135231   0.929   1.510   5.807 -1.1560 -0.8404 -0.1240
 7866SOL    HW235232   0.899   1.576   5.676 -0.5718 -2.0381 -0.7027
 7867SOL     OW35233   1.215   4.575   3.427 -0.0189  0.2787 -0.1206
 7867SOL    HW135234   1.272   4.583   3.503 -0.0495  2.1604 -0.2925
 7867SOL    HW235235   1.193   4.484   3.407 -0.5016  0.7352 -1.6804
 7868SOL     OW35236   4.275   3.208   3.112 -0.0449  0.1335 -0.2173
 7868SOL    HW135237   4.205   3.274   3.114  1.8454  2.0772  1.9890
 7868SOL    HW235238   4.346   3.267   3.137 -0.6505  1.3827 -1.4142
 7869SOL     OW35239   1.617   0.461   8.460 -0.1549  0.0082 -0.0280
 7869SOL    HW135240   1.652   0.525   8.523  0.2404 -0.7103  0.4873
 7869SOL    HW235241   1.671   0.386   8.484 -0.4938  0.3481  1.7982
 7870SOL     OW35242   3.640   1.160   5.223 -0.6055  0.1333  0.0585
 7870SOL    HW135243   3.656   1.068   5.245 -1.9382  0.5845  2.9033
 7870SOL    HW235244   3.603   1.159   5.134 -1.1355 -0.0258  0.2777
 7871SOL     OW35245   2.577   0.985   2.318 -0.5506  0.0452  0.3451
 7871SOL    HW135246   2.576   1.064   2.264  1.7541  0.6642  1.2271
 7871SOL    HW235247   2.578   0.909   2.260  0.1278 -0.0025  0.4187
 7872SOL     OW35248   4.369   4.045  13.088 -0.2880  0.7278  0.4929
 7872SOL    HW135249   4.353   4.122  13.143  2.6915  0.3156  1.9271
 7872SOL    HW235250   4.291   4.043  13.032  1.5177 -0.8676 -1.9925
 7873SOL     OW35251   3.258   3.331   2.253 -0.5759 -0.2307 -0.2946
 7873SOL    HW135252   3.335   3.285   2.221  0.4428  1.9445 -0.9583
 7873SOL    HW235253   3.291   3.420   2.247 -2.1105  0.4865  1.8951
 7874SOL     OW35254   0.325   0.088   5.775  0.1795  0.4436  0.0353
 7874SOL    HW135255   0.317   0.007   5.826  1.7931 -0.0362 -0.4725
 7874SOL    HW235256   0.359   0.150   5.839 -0.9931 -0.2525  1.3297
 7875SOL     OW35257   0.141   0.046   4.787  0.7977 -0.0542  0.8705
 7875SOL    HW135258   0.107   0.070   4.873 -0.8758  1.2877 -0.1812
 7875SOL    HW235259   0.100   0.110   4.730 -1.4168 -1.1816  1.2075
 7876SOL     OW35260   2.653   1.753  10.885  0.4041  0.0256  0.0183
 7876SOL    HW135261   2.721   1.805  10.928  3.9892 -3.2825 -1.7087
 7876SOL    HW235262   2.604   1.825  10.843  0.0639 -1.1145 -1.5266
 7877SOL     OW35263   1.897   3.910   7.326  0.1018  0.2207  0.5025
 7877SOL    HW135264   1.967   3.845   7.314 -0.2145 -0.2932  1.4085
 7877SOL    HW235265   1.918   3.958   7.246 -0.7651 -0.8829 -0.3944
 7878SOL     OW35266   0.640   3.710   4.595 -0.0244  0.5529 -0.5663
 7878SOL    HW135267   0.626   3.701   4.689 -1.0045 -1.5639 -0.9207
 7878SOL    HW235268   0.574   3.650   4.560  0.0630 -0.1884  0.5523
 7879SOL     OW35269   2.445   1.582  12.926 -0.9397 -0.1231  0.2113
 7879SOL    HW135270   2.462   1.636  12.849  1.3151 -0.6650  0.3225
 7879SOL    HW235271   2.505   1.510  12.906 -0.7668  1.6381 -5.6795
 7880SOL     OW35272   2.187   0.407   2.948  0.0599 -0.0211 -0.3214
 7880SOL    HW135273   2.106   0.430   2.994  1.1538 -0.3388  1.7776
 7880SOL    HW235274   2.240   0.487   2.950  0.1744 -0.0998 -0.2114
 7881SOL     OW35275   2.668   0.309  13.571 -0.9623  0.1386  0.2369
 7881SOL    HW135276   2.732   0.379  13.559 -2.8799  2.1685  1.8311
 7881SOL    HW235277   2.597   0.359  13.610  0.0395  1.2203  0.6768
 7882SOL     OW35278   1.203   3.467   3.292 -0.0345 -1.0366 -0.0532
 7882SOL    HW135279   1.282   3.483   3.344  0.0988 -1.8599  0.0047
 7882SOL    HW235280   1.139   3.440   3.357 -1.3818  1.3956 -0.3802
 7883SOL     OW35281   0.333   0.453   7.171 -0.3804 -0.2740  0.2901
 7883SOL    HW135282   0.276   0.393   7.218  0.5010 -0.6910  0.8366
 7883SOL    HW235283   0.288   0.536   7.164 -1.1907 -0.5678  2.2519
 7884SOL     OW35284   0.932   2.653  13.334 -0.3409 -0.1518 -0.1846
 7884SOL    HW135285   0.983   2.690  13.406 -0.4614 -0.1414 -0.1034
 7884SOL    HW235286   0.848   2.618  13.364 -0.4804  1.2207  1.0648
 7885SOL     OW35287   4.148   4.293   3.477 -0.0384 -0.7393 -0.4900
 7885SOL    HW135288   4.062   4.331   3.496  0.5070  0.8851 -1.2199
 7885SOL    HW235289   4.151   4.296   3.381 -2.8370 -1.4571 -0.5865
 7886SOL     OW35290   0.552   0.101   9.518 -0.6114 -0.0104  0.7054
 7886SOL    HW135291   0.597   0.168   9.570  0.7814  0.3314 -0.9092
 7886SOL    HW235292   0.482   0.151   9.477 -2.0078 -0.0699  3.0637
 7887SOL     OW35293   1.603   2.358   3.666 -0.0972  0.2012  0.0576
 7887SOL    HW135294   1.550   2.299   3.720  0.5330 -1.7904 -1.5103
 7887SOL    HW235295   1.535   2.410   3.623 -0.5456 -0.4297 -0.0086
 7888SOL     OW35296   4.354   1.008   8.323 -0.5784  0.4746 -0.2862
 7888SOL    HW135297   4.283   1.057   8.282  0.6913  0.8100 -2.0651
 7888SOL    HW235298   4.348   1.037   8.414 -1.5189  2.0992 -0.8730
 7889SOL     OW35299   2.235   0.221   9.910 -0.1118 -0.7016  0.2004
 7889SOL    HW135300   2.232   0.128   9.887 -0.0921 -0.4486 -0.8531
 7889SOL    HW235301   2.141   0.238   9.916 -0.0443  0.3929 -1.7507
 7890SOL     OW35302   1.606   2.921   5.199 -0.0600 -0.7515  0.2550
 7890SOL    HW135303   1.551   2.914   5.121  0.8084 -1.1706 -0.3175
 7890SOL    HW235304   1.692   2.892   5.167  1.4118 -0.2832  3.7441
 7891SOL     OW35305   4.058   1.125   8.999  0.4692 -0.1091  0.3269
 7891SOL    HW135306   4.113   1.194   8.962  2.0440 -1.2454  0.5352
 7891SOL    HW235307   4.062   1.065   8.924  0.6376 -1.0132  1.0495
 7892SOL     OW35308   2.404   4.494   9.148  0.2265  0.3069  0.3473
 7892SOL    HW135309   2.356   4.415   9.174 -2.0260  0.7567 -2.3853
 7892SOL    HW235310   2.490   4.470   9.113 -0.0860 -0.7947  0.3544
 7893SOL     OW35311   4.115   0.982  10.714  0.4098  0.0900 -0.1668
 7893SOL    HW135312   4.117   0.886  10.718  1.3963  0.0214 -2.4162
 7893SOL    HW235313   4.028   1.003  10.748 -0.9293 -2.5529 -1.9757
 7894SOL     OW35314   3.166   3.080   5.242  0.1890  0.3773 -0.2765
 7894SOL    HW135315   3.142   3.171   5.259 -1.3287  0.1749 -1.3329
 7894SOL    HW235316   3.166   3.086   5.147 -1.9056  0.5954 -0.2577
 7895SOL     OW35317   1.815   1.292   9.493 -0.1340 -0.3197  0.4196
 7895SOL    HW135318   1.809   1.311   9.399 -0.6643 -0.4915  0.4225
 7895SOL    HW235319   1.834   1.199   9.485  1.0188 -0.1158  0.8097
 7896SOL     OW35320   0.905   3.974   6.573 -0.7050 -0.1929  0.7955
 7896SOL    HW135321   0.947   3.995   6.657 -1.4439  0.1390  1.0912
 7896SOL    HW235322   0.854   4.055   6.569  0.5672  0.5873  0.2950
 7897SOL     OW35323   2.153   1.329   4.211  0.0428  0.0371  0.2550
 7897SOL    HW135324   2.059   1.324   4.228  0.0918 -0.2706  0.4300
 7897SOL    HW235325   2.164   1.367   4.124  0.4441 -0.3900  0.1203
 7898SOL     OW35326   3.239   2.518  12.267  0.1345 -0.2468 -0.3129
 7898SOL    HW135327   3.195   2.582  12.211 -1.3381 -1.4140 -0.4895
 7898SOL    HW235328   3.239   2.551  12.358 -0.0372  0.4656 -0.5660
 7899SOL     OW35329   4.240   3.998  10.563  0.1437  0.0951  0.1941
 7899SOL    HW135330   4.160   3.950  10.544  1.2916 -2.1355  1.0177
 7899SOL    HW235331   4.283   3.927  10.611  0.4024  0.3862  0.3977
 7900SOL     OW35332   4.606   4.261  12.544 -0.1625 -0.8682  0.0898
 7900SOL    HW135333   4.678   4.277  12.605 -1.1863  1.1662  0.7568
 7900SOL    HW235334   4.651   4.223  12.468  1.5454 -1.7773  1.5649
 7901SOL     OW35335   0.475   2.370   6.796  0.0045 -0.0526 -0.1611
 7901SOL    HW135336   0.559   2.355   6.840  0.6662  0.3026 -1.2871
 7901SOL    HW235337   0.472   2.463   6.772 -1.7655 -0.4477 -1.4633
 7902SOL     OW35338   0.374   1.720   4.182 -0.2549  0.0235 -0.2693
 7902SOL    HW135339   0.346   1.749   4.095 -0.3210  1.2144  0.1513
 7902SOL    HW235340   0.300   1.668   4.214  2.0221 -1.8531  1.9231
 7903SOL     OW35341   4.736   3.318   6.461  0.7289 -0.1124  0.0426
 7903SOL    HW135342   4.715   3.240   6.513 -0.4840 -0.1858 -0.5634
 7903SOL    HW235343   0.019   3.387   6.524 -2.0536  0.4713  0.3714
 7904SOL     OW35344   1.300   2.612  13.160  0.5072  0.1143  0.2875
 7904SOL    HW135345   1.279   2.706  13.158  2.9242  0.7246  2.6603
 7904SOL    HW235346   1.326   2.596  13.070  1.2777 -1.8048  0.8502
 7905SOL     OW35347   2.630   3.589  14.034 -0.4483 -0.3360  0.0309
 7905SOL    HW135348   2.706   3.563  14.086 -0.0773  2.1274  0.6855
 7905SOL    HW235349   2.562   3.542  14.082 -0.6063  0.6874  0.8081
 7906SOL     OW35350   0.639   2.748   1.937 -0.2358 -0.3823 -0.5560
 7906SOL    HW135351   0.585   2.674   1.907 -0.5527  0.5605 -2.2892
 7906SOL    HW235352   0.632   2.728   2.031  0.3064 -2.5281 -0.9706
 7907SOL     OW35353   3.663   0.353   2.292  0.7614  0.2488  0.4148
 7907SOL    HW135354   3.720   0.397   2.229  0.5248  0.7094  0.5229
 7907SOL    HW235355   3.676   0.259   2.275  0.9584  0.3110  0.2246
 7908SOL     OW35356   0.475   3.460  14.948 -0.7114  0.4297  0.5059
 7908SOL    HW135357   0.529   3.520  15.000  1.0036 -1.0886  0.5146
 7908SOL    HW235358   0.507   3.488  14.862 -1.2415  1.5750  0.6904
 7909SOL     OW35359   1.749   4.623   8.659  0.3048 -0.5847  0.6285
 7909SOL    HW135360   1.811   4.597   8.727  1.5124 -1.8969 -0.9557
 7909SOL    HW235361   1.784   4.565   8.591 -0.9283 -2.2232  1.3760
 7910SOL     OW35362   4.035   2.076   7.619 -0.3300 -0.0220  0.3676
 7910SOL    HW135363   4.022   2.018   7.543  3.3909 -0.6241  0.1882
 7910SOL    HW235364   4.020   2.160   7.576  0.7978  0.3879  0.7880
 7911SOL     OW35365   1.662   3.097   1.733  0.0142 -0.1253  0.0008
 7911SOL    HW135366   1.600   3.169   1.722  0.7591  0.2147 -1.9140
 7911SOL    HW235367   1.613   3.025   1.773  1.2386  0.4742  2.5981
 7912SOL     OW35368   3.661   0.733  17.430 -0.0956  0.2506 -0.3344
 7912SOL    HW135369   3.689   0.723  17.339  3.1689 -2.7825  1.0002
 7912SOL    HW235370   3.596   0.665  17.447  0.6850 -0.3120  0.4502
 7913SOL     OW35371   4.550   3.624  14.783 -0.0935 -0.0958 -0.2220
 7913SOL    HW135372   4.579   3.691  14.845  1.3663  0.0667 -1.0856
 7913SOL    HW235373   4.610   3.553  14.809 -0.8249  0.3553  2.6992
 7914SOL     OW35374   3.923   3.457   4.695  0.1638  0.2709  0.3617
 7914SOL    HW135375   3.842   3.415   4.722  0.8807 -0.7465  0.9261
 7914SOL    HW235376   3.901   3.550   4.705 -0.4405  0.0644  0.9830
 7915SOL     OW35377   1.653   3.542  16.035  0.4041  0.0373  0.3065
 7915SOL    HW135378   1.674   3.485  15.962 -3.4952  1.6843 -2.0878
 7915SOL    HW235379   1.653   3.631  16.000  0.9643 -0.8255 -1.8375
 7916SOL     OW35380   3.444   4.670   1.831 -0.1985  0.1094  0.4664
 7916SOL    HW135381   3.445   4.679   1.736  2.7172  0.0755  0.4984
 7916SOL    HW235382   3.438   0.023   1.858  1.1650 -0.6624  3.3812
 7917SOL     OW35383   3.002   4.074   5.245  0.0406 -0.1133 -0.5998
 7917SOL    HW135384   2.945   4.118   5.308 -0.2335 -2.5499  0.8605
 7917SOL    HW235385   3.040   4.143   5.191  1.9930 -1.1835 -0.6268
 7918SOL     OW35386   1.212   3.246  16.271 -0.3099 -0.1035  0.0863
 7918SOL    HW135387   1.206   3.266  16.178 -1.5990  1.3538  0.4854
 7918SOL    HW235388   1.301   3.212  16.262 -0.4279 -0.5502  0.6601
 7919SOL     OW35389   3.593   1.590   3.825 -0.6097  0.2834  0.0647
 7919SOL    HW135390   3.609   1.653   3.755 -0.7103  0.5638  0.2945
 7919SOL    HW235391   3.669   1.605   3.881  0.5154 -0.7368 -1.1748
 7920SOL     OW35392   2.447   2.081  11.147 -0.7150 -0.6979 -0.0166
 7920SOL    HW135393   2.354   2.063  11.133 -0.9480 -0.0060  0.6637
 7920SOL    HW235394   2.479   2.067  11.058 -1.9944 -0.5897 -0.4977
 7921SOL     OW35395   4.493   2.885   6.407  0.1381  0.0751 -0.1578
 7921SOL    HW135396   4.410   2.927   6.431  0.5531  0.5060  0.5288
 7921SOL    HW235397   4.495   2.811   6.467 -0.8262  1.2944  1.3721
 7922SOL     OW35398   3.571   1.474   8.746 -0.3149  0.2247  0.2163
 7922SOL    HW135399   3.645   1.444   8.799 -0.8055 -1.6711 -0.1555
 7922SOL    HW235400   3.587   1.431   8.662 -0.3075 -0.4561  0.5667
 7923SOL     OW35401   1.420   0.089   5.818  0.2419 -0.2442 -0.0713
 7923SOL    HW135402   1.422   0.172   5.771  0.5121 -1.1988 -1.7420
 7923SOL    HW235403   1.421   0.110   5.911 -2.4318 -0.1566 -0.0560
 7924SOL     OW35404   2.765   2.358  13.342  0.3485  0.4949  0.3039
 7924SOL    HW135405   2.719   2.432  13.302 -0.8553 -1.5927 -2.1230
 7924SOL    HW235406   2.811   2.390  13.420  0.7040  0.4571  0.1117
 7925SOL     OW35407   1.130   2.028  16.454  0.3930 -0.1363  0.3371
 7925SOL    HW135408   1.179   2.070  16.525 -1.9818  0.0526  1.8360
 7925SOL    HW235409   1.109   2.100  16.394  1.6636 -0.8216 -0.9321
 7926SOL     OW35410   3.467   2.657  10.720 -0.0012 -0.6405 -0.7143
 7926SOL    HW135411   3.374   2.681  10.715  0.1464 -0.0906 -0.8306
 7926SOL    HW235412   3.465   2.595  10.793 -0.5501  2.4060  1.8297
 7927SOL     OW35413   3.752   4.135   3.103 -0.3090 -0.3576  0.0276
 7927SOL    HW135414   3.715   4.222   3.114 -0.6247 -0.4385 -0.4416
 7927SOL    HW235415   3.709   4.107   3.023  0.1738 -1.2752  0.0891
 7928SOL     OW35416   2.220   2.745   9.292  0.5761 -0.3698 -0.1758
 7928SOL    HW135417   2.291   2.809   9.280  0.1756  0.2297  0.6041
 7928SOL    HW235418   2.261   2.660   9.276 -1.5515 -1.4838  0.3437
 7929SOL     OW35419   2.497   2.695  12.120 -0.2593 -0.1414  0.1264
 7929SOL    HW135420   2.481   2.643  12.042  2.9587 -0.5488 -0.2654
 7929SOL    HW235421   2.536   2.630  12.179 -1.1425  0.5741  1.4981
 7930SOL     OW35422   2.753   0.745   3.635  0.1542 -0.2695 -0.3553
 7930SOL    HW135423   2.806   0.822   3.614  1.7103 -0.7475  1.7613
 7930SOL    HW235424   2.748   0.695   3.554 -1.8814 -0.5797 -0.0431
 7931SOL     OW35425   1.880   3.342   0.099 -0.8882 -0.0353  0.1692
 7931SOL    HW135426   1.906   3.330   0.007  0.4937  1.4683  0.3612
 7931SOL    HW235427   1.790   3.375   0.092 -0.9006  0.0152  0.5594
 7932SOL     OW35428   4.665   0.217   8.174 -0.3284 -1.0953 -0.0821
 7932SOL    HW135429   4.718   0.218   8.253 -0.7433  1.7367  0.1762
 7932SOL    HW235430   4.576   0.195   8.202 -0.8438  0.8607 -0.1911
 7933SOL     OW35431   0.632   0.698  13.018 -0.4572  0.0139  0.2882
 7933SOL    HW135432   0.650   0.627  13.079  0.0207 -0.9712 -1.0113
 7933SOL    HW235433   0.651   0.647  12.939  1.0569 -0.1287  0.7454
 7934SOL     OW35434   0.139   0.442   0.541 -0.2581 -0.0011  0.1012
 7934SOL    HW135435   0.148   0.355   0.579 -1.7320 -0.8042 -1.4371
 7934SOL    HW235436   0.145   0.423   0.448  0.0817  1.1783 -0.1171
 7935SOL     OW35437   3.722   4.170   5.549  0.2046 -0.2871 -0.1110
 7935SOL    HW135438   3.768   4.100   5.502  0.1922 -1.9122  2.3603
 7935SOL    HW235439   3.792   4.189   5.611 -0.7075  1.1772  0.4801
 7936SOL     OW35440   0.727   0.066   5.720 -0.3723  0.3725  0.7624
 7936SOL    HW135441   0.732   0.161   5.714  2.6988  0.1677 -0.1609
 7936SOL    HW235442   0.656   0.065   5.784 -0.4785 -2.0141  0.6075
 7937SOL     OW35443   2.039   1.770   8.412  0.0253 -0.9741  0.0711
 7937SOL    HW135444   2.026   1.695   8.355 -3.8925  1.2804 -1.9934
 7937SOL    HW235445   2.097   1.732   8.478 -2.9357 -1.0850  2.6059
 7938SOL     OW35446   4.601   4.504   6.910 -0.5354 -0.1977  0.3741
 7938SOL    HW135447   4.649   4.474   6.987 -0.6322  1.1973  0.9787
 7938SOL    HW235448   4.675   4.537   6.859 -0.5178 -0.4550  0.2321
 7939SOL     OW35449   1.853   4.139   2.361 -0.6320 -0.3170  0.3931
 7939SOL    HW135450   1.837   4.082   2.286  1.2391  0.1207 -0.3197
 7939SOL    HW235451   1.828   4.085   2.436  0.1597  0.2042  1.0313
 7940SOL     OW35452   2.789   1.619  11.332 -0.3655  0.4773 -1.4698
 7940SOL    HW135453   2.708   1.667  11.313 -0.5313  1.0339  0.6707
 7940SOL    HW235454   2.846   1.694  11.346  1.0602 -0.9288  0.2875
 7941SOL     OW35455   2.704   1.168  11.211 -0.1742  0.1590 -0.3566
 7941SOL    HW135456   2.782   1.221  11.228 -1.4493  1.0630  2.7317
 7941SOL    HW235457   2.733   1.082  11.243 -0.4740  0.4911  0.8309
 7942SOL     OW35458   3.651   4.669   3.715 -0.2532  0.0614 -0.0016
 7942SOL    HW135459   3.738   4.630   3.714 -0.1376  0.2804  1.0355
 7942SOL    HW235460   3.664   0.009   3.767 -0.7742 -0.7893  1.4434
 7943SOL     OW35461   0.573   0.643   5.414  0.1489  0.3354  0.6832
 7943SOL    HW135462   0.631   0.705   5.370  0.1944 -0.7587 -0.8099
 7943SOL    HW235463   0.489   0.690   5.416  0.7867  1.6343 -1.9402
 7944SOL     OW35464   0.948   2.365   2.824  0.9510 -0.1841 -0.4824
 7944SOL    HW135465   0.997   2.283   2.826  0.4897 -0.4586 -0.0361
 7944SOL    HW235466   0.874   2.326   2.778  0.4832  0.0231  0.0778
 7945SOL     OW35467   0.690   4.735   6.963  0.4709 -0.1535  0.1827
 7945SOL    HW135468   0.758   4.669   6.944 -0.4446 -1.1709  0.4684
 7945SOL    HW235469   0.615   4.676   6.962 -0.3309  0.8477  2.3166
 7946SOL     OW35470   4.045   4.083  17.646 -0.0258  0.5265 -0.3038
 7946SOL    HW135471   4.007   4.157  17.600  0.4425  0.2951 -1.0648
 7946SOL    HW235472   4.073   4.133  17.723 -1.5817  1.5642 -0.4108
 7947SOL     OW35473   0.730   4.439   2.444 -0.5724 -0.6822 -0.0212
 7947SOL    HW135474   0.662   4.507   2.439  0.9960  0.8052 -1.0897
 7947SOL    HW235475   0.801   4.498   2.468 -0.9059 -0.7137  1.0522
 7948SOL     OW35476   2.380   4.043   9.403  0.4954  0.0086  0.4696
 7948SOL    HW135477   2.377   4.090   9.320 -0.9754  0.6692  0.8997
 7948SOL    HW235478   2.376   4.109   9.473 -0.6827 -0.3985  0.7846
 7949SOL     OW35479   1.298   0.107   9.003  0.2880 -0.0200 -0.2548
 7949SOL    HW135480   1.308   0.190   8.956 -0.9463 -0.1266 -0.7076
 7949SOL    HW235481   1.313   0.047   8.929 -1.1201  1.0211 -1.3858
 7950SOL     OW35482   3.995   0.944   7.171 -0.4913  0.2227  0.2431
 7950SOL    HW135483   3.989   0.907   7.083 -1.1209  0.9838 -0.0361
 7950SOL    HW235484   3.940   0.883   7.220  0.3367 -0.8523 -0.1737
 7951SOL     OW35485   2.358   2.299  11.331 -0.0170 -0.0423 -0.4941
 7951SOL    HW135486   2.392   2.212  11.309 -0.3188  0.0911 -1.4932
 7951SOL    HW235487   2.286   2.271  11.388 -0.6700  1.9260 -0.3548
 7952SOL     OW35488   3.568   1.153   6.737 -0.3253  0.0560  0.2440
 7952SOL    HW135489   3.557   1.103   6.818  2.2651 -1.2151 -0.1667
 7952SOL    HW235490   3.542   1.238   6.771  0.0105  0.2159  0.0989
 7953SOL     OW35491   3.699   1.107   7.252 -0.2851  0.3208 -0.3294
 7953SOL    HW135492   3.758   1.182   7.248  0.6104 -0.3505  0.4229
 7953SOL    HW235493   3.734   1.050   7.320 -0.3835 -0.1631 -0.6856
 7954SOL     OW35494   3.130   4.287   2.318  0.3860 -0.7019  0.5188
 7954SOL    HW135495   3.075   4.251   2.248  0.3385  0.5210 -0.0820
 7954SOL    HW235496   3.093   4.370   2.347 -0.2634 -1.0997  0.8230
 7955SOL     OW35497   0.316   4.577   2.888  0.8255 -0.2303 -0.4287
 7955SOL    HW135498   0.232   4.611   2.855  1.3189  1.0735 -0.2976
 7955SOL    HW235499   0.378   4.593   2.817  1.0887  0.3808 -0.0541
 7956SOL     OW35500   3.201   3.977   2.506 -0.0071 -0.4447  0.5171
 7956SOL    HW135501   3.153   3.983   2.424  0.4059  0.7148  0.3638
 7956SOL    HW235502   3.145   3.913   2.550 -3.1729  2.2796  0.3603
 7957SOL     OW35503   3.472   0.954   0.966 -0.7874  0.2663 -0.3487
 7957SOL    HW135504   3.539   1.017   0.993  0.3189 -0.4260 -1.4792
 7957SOL    HW235505   3.429   0.994   0.891 -0.6421  0.3937 -0.3638
 7958SOL     OW35506   1.178   4.573   2.660  0.3003  0.9186  0.3794
 7958SOL    HW135507   1.199   4.486   2.624 -2.3410  0.3685  0.1704
 7958SOL    HW235508   1.260   4.604   2.698 -0.3072  2.9584  0.0061
 7959SOL     OW35509   3.675   0.832   2.360  0.3561  0.1358 -0.3923
 7959SOL    HW135510   3.667   0.841   2.455 -1.2437 -0.3062 -0.4849
 7959SOL    HW235511   3.744   0.766   2.360  0.7156  0.5125  1.2450
 7960SOL     OW35512   1.822   0.569   4.904  0.0751 -0.2902  0.3377
 7960SOL    HW135513   1.808   0.630   4.976 -0.1390  0.5046 -0.3800
 7960SOL    HW235514   1.879   0.501   4.940  1.2627  0.9186  0.7083
 7961SOL     OW35515   1.283   2.486   3.932  0.0708 -0.2512 -0.5029
 7961SOL    HW135516   1.222   2.463   4.003  1.4651  1.4953  1.2521
 7961SOL    HW235517   1.256   2.427   3.862 -3.9683 -0.4239  1.2189
 7962SOL     OW35518   2.569   3.725  13.795  0.1754 -0.5784 -0.2933
 7962SOL    HW135519   2.489   3.770  13.822  0.0480 -0.9268 -0.0942
 7962SOL    HW235520   2.604   3.697  13.880  2.0338  1.8694 -0.2252
 7963SOL     OW35521   0.429   3.014   6.995 -0.1846 -0.0090  0.1749
 7963SOL    HW135522   0.454   3.064   6.917 -1.3587 -0.7722 -0.6977
 7963SOL    HW235523   0.424   2.926   6.957 -3.1879  0.7918 -1.3058
 7964SOL     OW35524   3.055   1.676   6.051  0.2017 -0.5745  0.1910
 7964SOL    HW135525   3.111   1.694   6.127  0.7272  0.1327 -0.3640
 7964SOL    HW235526   3.115   1.613   6.011 -0.0302 -0.9557  0.4532
 7965SOL     OW35527   3.339   1.150   5.678 -0.3747  0.0702 -0.0187
 7965SOL    HW135528   3.379   1.086   5.737 -1.9706 -0.1971  0.7617
 7965SOL    HW235529   3.338   1.092   5.601 -1.4119 -0.3079  0.2755
 7966SOL     OW35530   3.937   3.206  10.028 -0.6986  0.9810 -0.5020
 7966SOL    HW135531   3.845   3.213  10.053 -0.3235  1.7637  0.6612
 7966SOL    HW235532   3.988   3.167  10.099 -2.8718 -1.2789 -0.2058
 7967SOL     OW35533   0.650   3.976  16.829  0.2581 -0.2877 -0.3824
 7967SOL    HW135534   0.696   3.909  16.880  2.2507  1.0863 -0.3977
 7967SOL    HW235535   0.591   4.023  16.888  0.8018  1.8838 -1.5952
 7968SOL     OW35536   1.260   4.331   4.017 -0.2755  0.4196  0.0196
 7968SOL    HW135537   1.190   4.273   4.047 -0.8269  0.2019 -1.6706
 7968SOL    HW235538   1.319   4.337   4.092 -0.3563 -0.0701  0.1207
 7969SOL     OW35539   4.493   3.263   7.597 -0.3094  0.1603 -0.3118
 7969SOL    HW135540   4.478   3.351   7.630 -0.8029  0.4509 -1.3274
 7969SOL    HW235541   4.475   3.213   7.677 -2.3427  1.1696 -0.1594
 7970SOL     OW35542   1.773   1.473  13.555  0.2626 -0.4415  0.2273
 7970SOL    HW135543   1.701   1.471  13.491 -1.2490  1.1254  1.8774
 7970SOL    HW235544   1.828   1.413  13.505 -1.6552 -0.0445 -2.3703
 7971SOL     OW35545   2.740   2.540   3.594  0.1989  0.2760 -0.2906
 7971SOL    HW135546   2.665   2.518   3.539  0.4327 -2.3554  0.4527
 7971SOL    HW235547   2.728   2.633   3.613  0.6960  0.2838 -0.0026
 7972SOL     OW35548   0.282   1.266   4.204  0.4142 -0.0301 -0.4666
 7972SOL    HW135549   0.263   1.247   4.112 -2.3115  2.2225 -0.3435
 7972SOL    HW235550   0.368   1.306   4.190  0.3246 -0.3680 -2.0570
 7973SOL     OW35551   1.457   1.571   7.557 -0.1956  0.4585  0.3049
 7973SOL    HW135552   1.542   1.575   7.601  0.4123 -5.3744 -0.3557
 7973SOL    HW235553   1.468   1.529   7.473 -2.2738  1.6814 -0.6002
 7974SOL     OW35554   4.071   0.338   6.806  0.4461 -0.2107  0.0649
 7974SOL    HW135555   4.090   0.422   6.848 -0.8369 -0.4063  1.0188
 7974SOL    HW235556   4.139   0.283   6.845  1.2810  1.0174  0.3327
 7975SOL     OW35557   1.180   2.022   3.981  0.0241  0.2952  0.6826
 7975SOL    HW135558   1.261   2.011   4.031  0.3683 -2.2648 -0.4290
 7975SOL    HW235559   1.119   1.976   4.039  0.6688 -0.7778  0.5124
 7976SOL     OW35560   1.627   2.770   0.118  0.5598 -0.3902 -0.2287
 7976SOL    HW135561   1.645   2.694   0.174  0.0645  0.7613  1.5015
 7976SOL    HW235562   1.535   2.787   0.134  0.1850 -1.4377 -1.2582
 7977SOL     OW35563   1.783   1.275   3.396 -0.6856 -0.5048 -0.1525
 7977SOL    HW135564   1.786   1.201   3.336 -2.4127 -0.1823 -0.6158
 7977SOL    HW235565   1.802   1.349   3.339  1.1132 -0.7670  0.0922
 7978SOL     OW35566   4.311   2.166  17.735  0.1216 -0.2476  0.1983
 7978SOL    HW135567   4.310   2.113   0.059  2.1750  0.3957  0.6593
 7978SOL    HW235568   4.377   2.231   0.003 -1.5362  0.9180  1.6619
 7979SOL     OW35569   0.157   3.828   9.869  0.3245 -0.0709 -0.2689
 7979SOL    HW135570   0.204   3.806   9.950  1.1741  1.5652 -0.3203
 7979SOL    HW235571   0.067   3.834   9.900 -0.1067  1.9913 -1.9229
 7980SOL     OW35572   1.277   4.120  11.753 -0.1691 -0.3098 -0.5604
 7980SOL    HW135573   1.325   4.089  11.676 -1.5537 -1.0292 -1.1225
 7980SOL    HW235574   1.355   4.119  11.809 -1.0345 -0.7286  0.6139
 7981SOL     OW35575   4.019   2.824   5.392 -0.0949 -0.1979 -0.5254
 7981SOL    HW135576   4.051   2.807   5.480 -1.8627 -0.5271  0.0647
 7981SOL    HW235577   4.056   2.912   5.389 -1.7727  0.5990  2.0628
 7982SOL     OW35578   2.369   4.310   9.942 -0.4234 -0.6919  0.1455
 7982SOL    HW135579   2.274   4.323   9.938 -0.0387  1.7320 -1.3222
 7982SOL    HW235580   2.386   4.217   9.953 -0.4516 -0.6940  0.1701
 7983SOL     OW35581   3.238   0.653  13.767  0.1900 -0.1507  0.3225
 7983SOL    HW135582   3.299   0.686  13.833  0.3966 -0.4482  0.2812
 7983SOL    HW235583   3.178   0.724  13.746 -0.4065 -0.7189  0.1333
 7984SOL     OW35584   3.390   4.310   4.799  0.0707 -0.3232  0.1624
 7984SOL    HW135585   3.447   4.331   4.872  1.5256 -0.0824 -1.0344
 7984SOL    HW235586   3.436   4.344   4.722 -1.1705  2.5672  0.7152
 7985SOL     OW35587   1.770   0.366   8.210 -0.4184 -0.1959  0.1763
 7985SOL    HW135588   1.816   0.306   8.150  0.5431  1.5234 -0.8106
 7985SOL    HW235589   1.733   0.305   8.274  0.1362 -0.5441  0.1701
 7986SOL     OW35590   2.143   1.510  12.325 -0.1792 -0.3396  0.0064
 7986SOL    HW135591   2.120   1.542  12.238 -2.1685  1.9610  1.3776
 7986SOL    HW235592   2.105   1.571  12.389  1.6364  2.2554 -1.3912
 7987SOL     OW35593   0.129   1.619   3.918 -0.2146  0.2033 -0.0533
 7987SOL    HW135594   0.067   1.644   3.850  2.0011 -0.7654 -2.4073
 7987SOL    HW235595   0.145   1.704   3.958 -0.7019  0.7568 -1.0579
 7988SOL     OW35596   3.140   1.342   6.613 -0.2924 -0.3382  0.0048
 7988SOL    HW135597   3.132   1.405   6.542 -2.5843  0.5976  1.0811
 7988SOL    HW235598   3.187   1.393   6.680  2.2807 -1.7353 -0.7662
 7989SOL     OW35599   1.160   3.597  15.028 -0.7398 -0.1010  0.1918
 7989SOL    HW135600   1.153   3.631  15.117 -0.0578 -1.3575  0.7416
 7989SOL    HW235601   1.241   3.545  15.035 -0.8382 -0.3773 -0.7342
 7990SOL     OW35602   4.447   4.583   3.374  0.7680  0.6730  0.0639
 7990SOL    HW135603   4.409   4.567   3.288  0.7353  1.1143 -0.0030
 7990SOL    HW235604   4.424   4.676   3.376  0.7562  0.6953 -1.0444
 7991SOL     OW35605   4.445   3.513   7.698 -0.2853 -0.2444 -0.5039
 7991SOL    HW135606   4.439   3.542   7.789  0.8685 -1.9750  0.1231
 7991SOL    HW235607   4.481   3.594   7.663  1.7165  0.0813  2.2717
 7992SOL     OW35608   1.749   2.832  15.489  0.3141 -0.1272  0.1912
 7992SOL    HW135609   1.706   2.818  15.405 -0.1049  2.1253  0.0282
 7992SOL    HW235610   1.767   2.926  15.492  0.5681 -0.2426  2.8548
 7993SOL     OW35611   2.305   2.226  12.520 -0.3253 -0.6634  0.7274
 7993SOL    HW135612   2.285   2.306  12.569  1.2058 -1.7205  3.0869
 7993SOL    HW235613   2.370   2.248  12.453  0.3275  0.2246  1.6506
 7994SOL     OW35614   3.286   1.481  17.304 -0.1450  0.1897  0.3486
 7994SOL    HW135615   3.287   1.534  17.224 -0.1672  2.4976  1.8900
 7994SOL    HW235616   3.206   1.430  17.296 -1.4965  2.5461 -1.0348
 7995SOL     OW35617   1.213   4.113   8.770  0.2648 -0.3904 -0.1896
 7995SOL    HW135618   1.212   4.017   8.764 -1.5674 -0.2100 -2.6227
 7995SOL    HW235619   1.303   4.127   8.801 -0.6880  2.1964  1.3571
 7996SOL     OW35620   1.457   0.985  15.611 -0.3670  0.6302 -0.0072
 7996SOL    HW135621   1.550   0.964  15.605  0.1056  2.9880 -0.9966
 7996SOL    HW235622   1.436   1.040  15.535  1.7409 -0.1576 -1.1603
 7997SOL     OW35623   2.566   2.798   4.252  0.3886 -0.1425 -0.3199
 7997SOL    HW135624   2.517   2.736   4.198 -2.5472  3.0965 -1.3651
 7997SOL    HW235625   2.603   2.857   4.186 -1.5946 -0.4309 -1.6831
 7998SOL     OW35626   1.729   3.693  13.823 -0.0895  0.4875 -0.2111
 7998SOL    HW135627   1.709   3.669  13.913  0.4570  1.3532  0.1385
 7998SOL    HW235628   1.824   3.700  13.833  0.1311 -1.6663 -0.7271
 7999SOL     OW35629   0.254   4.706   3.128  0.4201  0.1082  0.0859
 7999SOL    HW135630   0.158   4.705   3.128  0.4397 -1.6914 -3.6299
 7999SOL    HW235631   0.271   4.636   3.065 -1.2648 -2.1678  2.1568
 8000SOL     OW35632   2.917   0.265   8.249 -0.1750  0.4421  0.1150
 8000SOL    HW135633   2.881   0.207   8.316 -1.9882 -1.4025 -2.4641
 8000SOL    HW235634   2.828   0.293   8.228 -0.1317 -0.1290 -0.8338
 8001SOL     OW35635   3.698   1.917   7.270  0.1938 -0.3817 -0.2752
 8001SOL    HW135636   3.748   1.842   7.237  0.9359 -0.5502  1.2528
 8001SOL    HW235637   3.751   1.991   7.242 -0.8301  1.0012  1.4433
 8002SOL     OW35638   3.323   1.193   2.205 -0.7275  0.2600 -0.0273
 8002SOL    HW135639   3.373   1.273   2.224  1.6214 -0.5236 -3.0631
 8002SOL    HW235640   3.263   1.189   2.280 -1.1835  0.2554 -0.3991
 8003SOL     OW35641   1.193   3.080   8.807 -0.4100 -0.0135 -0.1407
 8003SOL    HW135642   1.212   3.038   8.891  1.2837  0.6708 -0.1879
 8003SOL    HW235643   1.196   3.171   8.837 -0.2217  0.3733 -1.3462
 8004SOL     OW35644   1.169   0.593   3.603 -0.5641  0.0516 -0.8208
 8004SOL    HW135645   1.123   0.512   3.625 -1.7949  0.9741  0.0349
 8004SOL    HW235646   1.258   0.566   3.625 -0.4643  0.4743 -0.6931
 8005SOL     OW35647   4.541   3.670   1.945 -0.2855 -0.3117  0.3071
 8005SOL    HW135648   4.573   3.712   2.025 -0.2015  0.4046 -0.0981
 8005SOL    HW235649   4.565   3.733   1.877 -0.9481  1.2362  1.4953
 8006SOL     OW35650   3.835   0.431   0.311 -0.0254  0.3387 -0.1064
 8006SOL    HW135651   3.864   0.352   0.355 -2.2676 -0.0516  0.6870
 8006SOL    HW235652   3.912   0.483   0.330 -0.4380  0.6442  0.7546
 8007SOL     OW35653   0.091   4.702   2.806  0.7694 -0.0823  0.2218
 8007SOL    HW135654   0.086   4.720   2.712  3.2127 -0.4796  0.0027
 8007SOL    HW235655   0.043   0.040   2.835 -0.6378  0.0352 -2.4111
 8008SOL     OW35656   0.007   2.349  14.877  0.0140  0.0931  0.2563
 8008SOL    HW135657   4.737   2.292  14.800  0.2141  0.1536  0.1866
 8008SOL    HW235658   4.696   2.418  14.834 -1.0522 -1.8060 -1.5410
 8009SOL     OW35659   1.721   3.093   7.074 -0.5376 -0.2538  0.1062
 8009SOL    HW135660   1.814   3.083   7.094 -0.2764  2.4288  0.1846
 8009SOL    HW235661   1.723   3.104   6.979 -0.6817  1.4542  0.3067
 8010SOL     OW35662   4.638   4.525   6.488 -0.0989 -0.2626  0.1507
 8010SOL    HW135663   4.628   4.620   6.485  0.9731 -0.1565 -0.1568
 8010SOL    HW235664   4.552   4.492   6.464 -1.2256  1.3707  1.9724
 8011SOL     OW35665   1.020   3.560   9.383 -0.2213 -0.4588 -0.6243
 8011SOL    HW135666   0.986   3.506   9.454 -2.9091  0.6786 -1.0407
 8011SOL    HW235667   1.067   3.627   9.432 -0.6243  0.0849 -0.9818
 8012SOL     OW35668   3.068   4.692   2.486  0.1907  0.0489 -0.2001
 8012SOL    HW135669   3.024   4.640   2.419 -0.3781 -0.7610  0.7819
 8012SOL    HW235670   3.148   4.642   2.504 -0.0826 -0.2001  0.3311
 8013SOL     OW35671   0.294   0.919   3.914  0.3600  0.1059  0.1116
 8013SOL    HW135672   0.290   0.829   3.884 -0.0909  0.0085  0.4653
 8013SOL    HW235673   0.209   0.950   3.882 -0.2622 -2.4980 -0.7025
 8014SOL     OW35674   0.411   4.691   5.534  0.4988 -0.2057 -0.3427
 8014SOL    HW135675   0.376   4.722   5.618 -0.6657 -2.5772  0.0459
 8014SOL    HW235676   0.423   4.597   5.547 -1.4234 -0.5340 -0.9141
 8015SOL     OW35677   2.539   2.637   2.278 -0.4318  0.7795  0.4175
 8015SOL    HW135678   2.508   2.721   2.243 -0.4286  0.8269  0.5299
 8015SOL    HW235679   2.594   2.610   2.205 -0.9739 -1.9357  1.0214
 8016SOL     OW35680   2.255   3.271   2.057 -0.4174  0.0916 -0.1347
 8016SOL    HW135681   2.211   3.278   1.973  2.0341 -1.2246 -1.5337
 8016SOL    HW235682   2.190   3.218   2.103 -0.1906  0.7362  0.9471
 8017SOL     OW35683   4.587   1.536   4.935 -0.7652  0.1436 -0.6980
 8017SOL    HW135684   4.648   1.478   4.890  1.5207  1.0474  1.2122
 8017SOL    HW235685   4.523   1.471   4.964 -1.7134  1.2342 -0.3372
 8018SOL     OW35686   1.474   4.201   1.893  0.0115  0.0956  0.9169
 8018SOL    HW135687   1.531   4.206   1.816  1.1382  1.8581  1.8651
 8018SOL    HW235688   1.389   4.207   1.850 -1.8639 -0.5847  4.5368
 8019SOL     OW35689   0.863   1.149   7.590 -1.0384  0.0802 -0.5547
 8019SOL    HW135690   0.799   1.157   7.518 -2.4023 -1.5237  0.4750
 8019SOL    HW235691   0.893   1.059   7.579  0.9124  0.9427 -2.2989
 8020SOL     OW35692   2.739   1.660   1.806  0.6353  0.0637 -0.6773
 8020SOL    HW135693   2.662   1.712   1.783  1.8487  1.7939 -0.7865
 8020SOL    HW235694   2.780   1.672   1.720  0.7491 -0.6316 -0.7251
 8021SOL     OW35695   4.427   3.770  14.559  0.1103  0.3388  0.1831
 8021SOL    HW135696   4.471   3.728  14.633  0.6715 -0.1107 -0.4089
 8021SOL    HW235697   4.431   3.696  14.498  1.9029  0.2918  0.3596
 8022SOL     OW35698   3.609   4.590  13.416 -0.5235  1.3304  0.3837
 8022SOL    HW135699   3.625   4.501  13.386  0.4898  1.3157  0.9576
 8022SOL    HW235700   3.524   4.577  13.458  1.3072  0.4375  3.8383
 8023SOL     OW35701   1.290   1.200  17.234  0.1212  0.2530  0.5292
 8023SOL    HW135702   1.273   1.127  17.293 -0.3172 -0.0118  0.0751
 8023SOL    HW235703   1.241   1.171  17.157  1.8169 -2.9447  0.6562
 8024SOL     OW35704   2.148   2.428   4.693  0.0094  0.6373 -0.7867
 8024SOL    HW135705   2.244   2.424   4.689 -0.0394 -0.9977 -0.3132
 8024SOL    HW235706   2.134   2.381   4.775  0.0829 -1.7619 -2.1231
 8025SOL     OW35707   4.283   2.567   9.187  0.3194  0.6079 -0.3032
 8025SOL    HW135708   4.322   2.596   9.104  0.1244 -1.3344 -1.0821
 8025SOL    HW235709   4.208   2.626   9.189  0.7813  1.2155 -0.8158
 8026SOL     OW35710   0.660   0.010   7.339 -0.3245  0.1113 -0.5240
 8026SOL    HW135711   0.677   4.671   7.286 -1.0926 -0.1246 -0.4105
 8026SOL    HW235712   0.705   4.730   7.422 -0.6449  2.2977  0.1503
 8027SOL     OW35713   4.049   1.607  13.086 -0.0670 -0.2360 -0.0886
 8027SOL    HW135714   4.039   1.534  13.148 -2.3044 -0.8143 -1.1523
 8027SOL    HW235715   3.966   1.599  13.039  0.9957  1.5793 -2.2527
 8028SOL     OW35716   3.288   3.279   2.815 -0.0295 -0.4233 -0.2837
 8028SOL    HW135717   3.295   3.302   2.723  0.6541 -1.2653 -0.4426
 8028SOL    HW235718   3.375   3.305   2.845 -0.8793 -0.6713  2.4216
 8029SOL     OW35719   1.067   4.062  13.082 -0.4533 -0.2768 -0.0598
 8029SOL    HW135720   1.085   4.155  13.088 -1.6930  0.0769 -1.8731
 8029SOL    HW235721   1.054   4.055  12.987  1.9258 -2.7566 -0.2132
 8030SOL     OW35722   0.826   4.423  17.369  0.1727  0.3764 -0.2417
 8030SOL    HW135723   0.775   4.401  17.447  2.5518  1.6592  1.6788
 8030SOL    HW235724   0.764   4.449  17.302 -2.2648 -2.0742  1.0544
 8031SOL     OW35725   3.594   0.029  13.178  0.3611 -0.0150  0.5151
 8031SOL    HW135726   3.590   4.698  13.242  0.9899  0.2937  0.8817
 8031SOL    HW235727   3.501   0.055  13.175 -0.2176 -2.1179  0.6171
 8032SOL     OW35728   4.137   1.788  12.369 -0.1813  0.2034 -0.7636
 8032SOL    HW135729   4.226   1.754  12.359 -0.7480 -2.1467  2.2619
 8032SOL    HW235730   4.118   1.761  12.459  2.3976 -0.7484 -0.5093
 8033SOL     OW35731   0.170   0.798   4.173  0.1556 -0.3398  0.0422
 8033SOL    HW135732   0.088   0.793   4.123  0.8041 -0.6088 -0.9844
 8033SOL    HW235733   0.240   0.818   4.112  2.5732 -2.1169  2.2143
 8034SOL     OW35734   2.795   2.476   9.530 -0.0644  0.0267  0.3574
 8034SOL    HW135735   2.747   2.530   9.467 -0.7316  0.5249  1.2846
 8034SOL    HW235736   2.734   2.477   9.605 -0.9904  0.3869 -0.3982
 8035SOL     OW35737   4.599   0.981  17.603  0.7536 -0.3798 -0.1696
 8035SOL    HW135738   4.610   1.033  17.523  1.2975  1.4365  1.0925
 8035SOL    HW235739   4.688   0.946  17.600  0.9742  0.1844 -0.2018
 8036SOL     OW35740   0.944   1.100   2.510 -0.3190  1.2096  0.5040
 8036SOL    HW135741   0.974   1.153   2.437 -1.9418  2.7991  1.0027
 8036SOL    HW235742   1.027   1.067   2.545  0.4787  1.2533 -1.3662
 8037SOL     OW35743   3.179   1.188  13.015 -0.7167 -0.4472 -0.3854
 8037SOL    HW135744   3.137   1.271  12.992  1.5380  0.4240 -1.3150
 8037SOL    HW235745   3.101   1.142  13.046 -0.3486 -0.6402  0.2542
 8038SOL     OW35746   3.344   0.945   5.194 -0.0855  0.2203  0.2500
 8038SOL    HW135747   3.427   0.957   5.147  0.1045 -0.9027  0.2924
 8038SOL    HW235748   3.285   0.997   5.139 -0.1063  0.1811  0.2350
 8039SOL     OW35749   0.722   0.646  13.381  0.5088  0.3808  0.0179
 8039SOL    HW135750   0.767   0.712  13.329 -0.8108  0.1409 -1.4324
 8039SOL    HW235751   0.655   0.702  13.423  0.0022 -0.6423  0.5688
 8040SOL     OW35752   1.533   3.305   2.782  0.3775  0.0407  0.5391
 8040SOL    HW135753   1.552   3.326   2.691 -0.2237  1.5439  0.7615
 8040SOL    HW235754   1.547   3.210   2.773 -2.1653 -0.5352  2.6677
 8041SOL     OW35755   0.668   3.862   3.434  0.4789  0.4083  0.3087
 8041SOL    HW135756   0.578   3.830   3.427  0.9755 -0.6069 -1.3253
 8041SOL    HW235757   0.702   3.834   3.349 -1.1199 -0.9041  0.1203
 8042SOL     OW35758   4.668   3.534   2.533 -0.9434  0.0042  0.3549
 8042SOL    HW135759   0.015   3.498   2.513 -0.6437  1.2894 -0.6747
 8042SOL    HW235760   4.675   3.612   2.478 -0.8010  0.2332  0.6980
 8043SOL     OW35761   1.365   2.628   6.922 -0.0576 -0.0045  0.4189
 8043SOL    HW135762   1.413   2.703   6.957 -0.9274  0.6318  0.2303
 8043SOL    HW235763   1.275   2.639   6.954 -0.5105 -0.9785 -0.5082
 8044SOL     OW35764   3.448   1.431  15.389  0.6184 -0.6784 -0.5271
 8044SOL    HW135765   3.541   1.449  15.375  1.0318 -1.4083  1.2852
 8044SOL    HW235766   3.444   1.370  15.462 -0.7079  0.4180  0.3387
 8045SOL     OW35767   1.052   1.535   4.468  0.3593 -0.5838  0.2985
 8045SOL    HW135768   1.020   1.625   4.471 -0.1716 -0.7923  0.8827
 8045SOL    HW235769   1.021   1.507   4.381 -4.0173  2.7267  0.7933
 8046SOL     OW35770   1.471   2.612   3.531  0.1442  0.2395 -0.0141
 8046SOL    HW135771   1.495   2.631   3.441 -1.0203  0.2687 -0.3215
 8046SOL    HW235772   1.540   2.660   3.575 -0.6251  0.3970  1.0206
 8047SOL     OW35773   1.766   1.008   2.579 -0.1053 -0.0931 -0.0028
 8047SOL    HW135774   1.847   0.976   2.541  0.2230 -1.1168  1.5565
 8047SOL    HW235775   1.715   0.928   2.593  0.9750 -0.5519  1.2587
 8048SOL     OW35776   4.609   3.772  11.555  0.8912 -0.2850  0.2298
 8048SOL    HW135777   4.594   3.867  11.556  1.7982 -0.1478  0.7774
 8048SOL    HW235778   4.532   3.729  11.593  2.3565 -2.5145  0.6536
 8049SOL     OW35779   3.038   1.602   5.174 -0.1501  0.1171  0.2163
 8049SOL    HW135780   2.964   1.600   5.113  0.5453  4.6240 -0.7592
 8049SOL    HW235781   3.086   1.526   5.139 -1.2206 -0.1899 -0.6011
 8050SOL     OW35782   3.523   0.187   1.603  0.3696 -0.0613 -0.1606
 8050SOL    HW135783   3.457   0.255   1.608  1.3031  0.8610 -0.4384
 8050SOL    HW235784   3.602   0.229   1.636 -0.8992  1.1906  1.2521
 8051SOL     OW35785   3.130   4.104   9.310  0.1980 -0.4374  0.1675
 8051SOL    HW135786   3.050   4.123   9.358 -0.6131  0.6270 -1.6271
 8051SOL    HW235787   3.177   4.051   9.374  0.1414 -3.5979 -2.3936
 8052SOL     OW35788   4.448   2.036   8.359 -0.3049 -0.1622  0.0602
 8052SOL    HW135789   4.407   2.119   8.338  0.6688  0.5264  0.9093
 8052SOL    HW235790   4.501   2.061   8.434 -0.6707  1.1977 -0.1466
 8053SOL     OW35791   4.618   0.114   6.872 -0.4194 -0.5660  0.5738
 8053SOL    HW135792   4.581   0.130   6.959 -0.8406 -1.2267  0.5215
 8053SOL    HW235793   4.564   0.040   6.844 -1.4209  1.0121 -1.6925
 8054SOL     OW35794   0.090   3.209   0.910 -0.2559  0.2277 -0.2499
 8054SOL    HW135795   0.043   3.209   0.993  1.8651 -0.0347  0.9462
 8054SOL    HW235796   0.130   3.297   0.906 -1.3222  0.6620 -1.3394
 8055SOL     OW35797   2.930   0.717  11.005 -0.3018 -0.4092  0.1318
 8055SOL    HW135798   2.963   0.653  11.067  0.4886  0.3740  0.5315
 8055SOL    HW235799   2.973   0.790  11.050 -1.0533  0.3011 -0.3099
 8056SOL     OW35800   4.703   0.772   5.509 -0.8806 -0.5761  0.8011
 8056SOL    HW135801   0.018   0.786   5.432  1.4715  0.8407  2.6781
 8056SOL    HW235802   4.670   0.683   5.495  1.7961 -1.2633 -1.1557
 8057SOL     OW35803   3.712   4.679   6.773 -0.1598 -0.3609  0.2901
 8057SOL    HW135804   3.686   0.027   6.802  1.9969  0.1705  0.6723
 8057SOL    HW235805   3.807   4.677   6.786 -0.0956  0.4833  0.0067
 8058SOL     OW35806   1.878   2.992   7.691 -0.9704  0.0901 -0.2920
 8058SOL    HW135807   1.885   2.898   7.679  0.4497  0.0314  0.9593
 8058SOL    HW235808   1.913   3.029   7.609  1.4685 -1.7071 -0.0668
 8059SOL     OW35809   4.625   4.481  13.758  0.1121 -0.3856  0.2503
 8059SOL    HW135810   4.679   4.402  13.763  1.1141  0.2296 -0.6236
 8059SOL    HW235811   4.691   4.536  13.801  1.2969  0.4382 -2.6064
 8060SOL     OW35812   4.109   4.329   1.687 -0.5416  0.1302 -0.2932
 8060SOL    HW135813   4.048   4.361   1.754 -0.7931  0.1140 -0.5146
 8060SOL    HW235814   4.176   4.272   1.725 -1.8680 -0.7756  0.6612
 8061SOL     OW35815   1.062   1.081   2.246 -0.0012 -0.7283 -0.0366
 8061SOL    HW135816   1.135   1.117   2.197 -0.8026 -0.4884 -1.0582
 8061SOL    HW235817   0.987   1.095   2.188 -0.8907  0.9391  1.5041
 8062SOL     OW35818   4.737   3.671   7.343 -0.4032  0.1547 -0.2041
 8062SOL    HW135819   0.035   3.583   7.334  0.4179  0.3664  1.0534
 8062SOL    HW235820   4.704   3.694   7.257 -0.7344 -0.3819 -0.2189
 8063SOL     OW35821   3.919   4.431   1.500  0.1974 -0.1048  0.8728
 8063SOL    HW135822   3.866   4.472   1.569  1.7646  0.9381  1.4531
 8063SOL    HW235823   3.987   4.398   1.558 -0.8038 -2.7513  0.5247
 8064SOL     OW35824   1.083   1.522  13.149  0.1757  0.5305 -0.1736
 8064SOL    HW135825   1.063   1.610  13.179  1.4077  0.9735 -0.6143
 8064SOL    HW235826   1.091   1.536  13.054 -0.1588 -1.3880 -0.4860
 8065SOL     OW35827   1.735   2.066   6.803  1.0278 -0.4807 -0.1802
 8065SOL    HW135828   1.781   1.992   6.763  3.1599  0.7575 -0.0161
 8065SOL    HW235829   1.781   2.077   6.886 -1.1611 -4.1790  1.5191
 8066SOL     OW35830   3.887   1.846   7.063  0.1164 -0.1010 -0.1703
 8066SOL    HW135831   3.843   1.899   6.997 -1.9679  0.4874  1.6654
 8066SOL    HW235832   3.969   1.845   7.014  1.2287  0.5053  1.6568
 8067SOL     OW35833   0.086   1.105   0.755  0.2440 -0.5769 -0.2383
 8067SOL    HW135834   0.082   1.117   0.660 -1.5997  0.9470  0.0285
 8067SOL    HW235835   0.171   1.143   0.776  0.4309 -0.6205 -0.9262
 8068SOL     OW35836   2.107   4.312   9.823 -0.4630 -0.7246 -0.2492
 8068SOL    HW135837   2.076   4.387   9.772 -2.0101 -0.9523  0.3535
 8068SOL    HW235838   2.022   4.281   9.854  0.4482 -1.1809  1.7647
 8069SOL     OW35839   0.574   1.772   2.859  0.0919  0.2999  0.5930
 8069SOL    HW135840   0.594   1.865   2.848  0.7579 -0.0964 -1.4920
 8069SOL    HW235841   0.601   1.743   2.772 -1.5126  1.4625 -0.2976
 8070SOL     OW35842   3.381   3.868   0.830 -0.1927 -0.4134 -0.1445
 8070SOL    HW135843   3.325   3.870   0.753  0.0959  2.7672 -0.2649
 8070SOL    HW235844   3.462   3.852   0.783  0.2717  2.5224 -0.3646
 8071SOL     OW35845   1.298   1.323   2.156  0.2200 -0.2325 -0.0293
 8071SOL    HW135846   1.358   1.312   2.082  0.6957  0.0103  0.3211
 8071SOL    HW235847   1.254   1.401   2.122 -1.5670 -0.5071  1.6533
 8072SOL     OW35848   0.443   2.488  10.885 -0.6757 -0.4702 -1.1346
 8072SOL    HW135849   0.382   2.428  10.928  0.9532 -0.4096  1.2364
 8072SOL    HW235850   0.423   2.574  10.921  0.1398  0.3620 -2.6613
 8073SOL     OW35851   4.520   1.403   6.781  0.5708 -0.3764 -0.2318
 8073SOL    HW135852   4.566   1.484   6.804 -0.8366  0.2017  0.5350
 8073SOL    HW235853   4.469   1.433   6.706 -1.3020 -1.4396  0.6166
 8074SOL     OW35854   0.211   0.861   6.385 -0.4204 -0.3596 -0.0365
 8074SOL    HW135855   0.170   0.852   6.299  0.9384  0.1652 -0.7327
 8074SOL    HW235856   0.269   0.935   6.367 -1.1915 -0.5497 -3.2333
 8075SOL     OW35857   4.012   0.709   7.416 -0.3902 -0.3220  0.1791
 8075SOL    HW135858   3.995   0.734   7.507 -1.3389 -2.3837  0.5534
 8075SOL    HW235859   3.931   0.723   7.367 -0.6287 -1.3625  0.2750
 8076SOL     OW35860   3.785   2.889  12.313 -0.3302 -0.2611  0.0040
 8076SOL    HW135861   3.831   2.871  12.395  0.5626  1.0292 -0.2189
 8076SOL    HW235862   3.800   2.983  12.303 -3.5544  0.2116 -0.3386
 8077SOL     OW35863   4.050   4.324   2.789  0.1498 -0.0183 -0.0728
 8077SOL    HW135864   4.088   4.410   2.803 -2.9362  1.0002  2.0161
 8077SOL    HW235865   4.130   4.274   2.803 -1.1437 -2.4255 -1.1306
 8078SOL     OW35866   3.753   4.520   7.075  0.3600 -0.2884  0.5321
 8078SOL    HW135867   3.668   4.562   7.087 -0.9976 -2.5760 -1.1164
 8078SOL    HW235868   3.735   4.474   6.993 -1.7155 -2.0629  1.9917
 8079SOL     OW35869   2.527   3.325   9.797 -0.1423 -0.1894 -0.5254
 8079SOL    HW135870   2.450   3.330   9.740  0.0645 -0.8895 -0.8641
 8079SOL    HW235871   2.500   3.263   9.864 -0.6386  1.5479  0.8931
 8080SOL     OW35872   3.556   0.497   6.185 -0.4968  0.7026  0.3155
 8080SOL    HW135873   3.615   0.531   6.119 -0.3121 -0.7439 -0.2654
 8080SOL    HW235874   3.613   0.437   6.234 -3.7316 -1.2641  1.7537
 8081SOL     OW35875   1.291   0.307  17.533  0.3167  0.0626 -0.1619
 8081SOL    HW135876   1.284   0.318  17.628 -1.9919  0.4781 -0.3826
 8081SOL    HW235877   1.339   0.387  17.510  1.1953 -0.4469 -0.0998
 8082SOL     OW35878   3.160   0.802  12.013  0.6284 -0.3117  0.4474
 8082SOL    HW135879   3.227   0.790  11.946 -0.8459 -2.1270 -0.6866
 8082SOL    HW235880   3.190   0.744  12.083 -1.0162  1.8462  2.9333
 8083SOL     OW35881   1.937   2.287   9.038  0.6220  0.0381  0.2411
 8083SOL    HW135882   2.018   2.317   8.997 -1.4737  1.9635 -2.4643
 8083SOL    HW235883   1.893   2.372   9.045 -0.5933 -0.3229 -3.3780
 8084SOL     OW35884   0.102   4.247   6.730 -0.2034  0.1390 -0.2500
 8084SOL    HW135885   0.183   4.251   6.781 -0.2490 -0.0975 -0.1612
 8084SOL    HW235886   0.135   4.204   6.651 -0.4941 -2.3821  1.0354
 8085SOL     OW35887   0.438   0.154   6.341 -0.1272 -0.4071 -0.1182
 8085SOL    HW135888   0.511   0.113   6.387  1.1739  1.7428 -0.2647
 8085SOL    HW235889   0.458   0.126   6.251  0.1050 -1.4415  0.2565
 8086SOL     OW35890   3.585   4.702   0.837 -0.7791 -0.0822  0.4191
 8086SOL    HW135891   3.680   4.716   0.845 -0.8449  1.4656 -1.6166
 8086SOL    HW235892   3.583   4.633   0.771  3.9628 -0.5192  0.6988
 8087SOL     OW35893   3.747   1.107  14.113  0.0955  0.3090 -0.1385
 8087SOL    HW135894   3.729   1.128  14.204 -0.0440 -0.6942  0.0621
 8087SOL    HW235895   3.811   1.174  14.087 -0.9724  0.8763 -1.3135
 8088SOL     OW35896   2.181   0.307   0.370 -0.0268 -0.0855 -0.2504
 8088SOL    HW135897   2.218   0.336   0.287 -0.9297 -0.5916 -0.8345
 8088SOL    HW235898   2.096   0.283   0.333 -0.1322 -0.6678  0.3494
 8089SOL     OW35899   0.733   3.100   1.682 -0.2743 -0.3658 -0.0794
 8089SOL    HW135900   0.805   3.038   1.673  0.2384  0.4644 -1.6728
 8089SOL    HW235901   0.651   3.053   1.698 -1.5999  2.3904  1.1576
 8090SOL     OW35902   2.950   0.970   3.978  0.1414  0.1584 -0.0679
 8090SOL    HW135903   2.901   1.037   3.931 -0.7740 -1.7404 -1.7916
 8090SOL    HW235904   3.015   1.010   4.035 -0.5482  1.8435 -0.4654
 8091SOL     OW35905   0.727   2.618  10.976  0.0754  0.6843 -0.1026
 8091SOL    HW135906   0.656   2.559  10.948  1.1949 -0.8626  0.3357
 8091SOL    HW235907   0.737   2.598  11.069 -1.0646 -0.4609 -0.2215
 8092SOL     OW35908   4.315   3.747   5.209 -0.0008 -0.0495 -0.1000
 8092SOL    HW135909   4.365   3.827   5.194 -0.2043  0.6422  3.0602
 8092SOL    HW235910   4.263   3.746   5.129  0.0690 -0.6563 -0.1412
 8093SOL     OW35911   1.634   0.177   8.363  0.0192  0.1675 -0.2122
 8093SOL    HW135912   1.651   0.083   8.360  1.2489  0.4378 -1.4077
 8093SOL    HW235913   1.635   0.176   8.459  0.3598  1.3182 -0.2079
 8094SOL     OW35914   0.365   3.314   7.909 -0.2275 -0.3972  0.3269
 8094SOL    HW135915   0.346   3.237   7.962 -1.7016 -0.3332 -0.0988
 8094SOL    HW235916   0.421   3.280   7.839 -1.4321 -0.3888 -0.6489
 8095SOL     OW35917   0.582   4.022  16.565 -0.8486  0.1353 -0.4098
 8095SOL    HW135918   0.591   3.935  16.528 -0.6497  0.8280 -2.0107
 8095SOL    HW235919   0.601   4.003  16.656  0.6562  1.7438 -0.3810
 8096SOL     OW35920   2.281   1.343   9.617  0.5148  0.1887  0.4088
 8096SOL    HW135921   2.324   1.312   9.537  0.0863  0.0586  0.2304
 8096SOL    HW235922   2.231   1.264   9.634  0.4654 -0.1524 -1.2760
 8097SOL     OW35923   4.135   4.157   8.320  0.2283  0.9817  0.9264
 8097SOL    HW135924   4.079   4.185   8.248  2.2222  3.2271  0.2286
 8097SOL    HW235925   4.134   4.065   8.295 -2.3399  1.3899 -0.3556
 8098SOL     OW35926   3.103   1.818   1.791 -0.3773 -0.1279  0.2277
 8098SOL    HW135927   3.138   1.860   1.869  0.7548 -1.0353  0.2070
 8098SOL    HW235928   3.016   1.858   1.784  0.5807  2.0164  0.4095
 8099SOL     OW35929   3.825   3.401   9.754  1.0432  0.2441  0.5786
 8099SOL    HW135930   3.742   3.355   9.770  1.4066 -1.2727 -1.8096
 8099SOL    HW235931   3.878   3.322   9.745 -1.0420 -1.3449  2.3489
 8100SOL     OW35932   3.059   3.657   2.458 -0.5617  0.0164 -0.7007
 8100SOL    HW135933   3.075   3.687   2.369 -0.5568 -0.1539 -0.7587
 8100SOL    HW235934   3.027   3.736   2.501  2.4803  0.3365  0.9784
 8101SOL     OW35935   0.298   3.634  15.535 -0.4612 -0.8159 -0.1826
 8101SOL    HW135936   0.293   3.603  15.444 -1.4926  0.3176 -0.5223
 8101SOL    HW235937   0.391   3.628  15.553 -0.7902 -0.1208  1.6948
 8102SOL     OW35938   2.325   2.325   6.720 -0.3002 -0.0098  0.9502
 8102SOL    HW135939   2.319   2.388   6.648  0.7727  0.9604  1.7046
 8102SOL    HW235940   2.412   2.354   6.749 -1.6550  2.8200  2.1479
 8103SOL     OW35941   1.028   2.149   7.691  0.0843 -0.6512  0.4638
 8103SOL    HW135942   1.059   2.170   7.603  0.2092  1.5314  1.0286
 8103SOL    HW235943   0.954   2.209   7.700  1.2300  1.0354 -1.6617
 8104SOL     OW35944   1.866   3.805   4.242 -0.1369 -0.2224  0.6161
 8104SOL    HW135945   1.899   3.893   4.257  0.2765  0.1895 -2.7557
 8104SOL    HW235946   1.941   3.754   4.273 -0.0788 -0.2995  0.3495
 8105SOL     OW35947   3.603   3.619   8.179  0.3884  0.4634  0.6933
 8105SOL    HW135948   3.686   3.584   8.147 -1.0560 -0.0192 -2.5689
 8105SOL    HW235949   3.606   3.595   8.271  0.1131 -3.0927 -0.2253
 8106SOL     OW35950   2.131   3.811   0.227  0.5550 -0.1728  0.3640
 8106SOL    HW135951   2.092   3.842   0.309  2.4010  0.8948  0.8280
 8106SOL    HW235952   2.098   3.885   0.175 -1.2727 -0.8007  0.6229
 8107SOL     OW35953   0.950   4.294   8.331 -0.7750  0.1992 -0.1948
 8107SOL    HW135954   1.024   4.233   8.337 -0.3424  0.8133  0.7192
 8107SOL    HW235955   0.966   4.351   8.406  0.2128 -1.0989  0.5839
 8108SOL     OW35956   1.938   0.155  13.151 -0.5355 -0.7177 -0.2458
 8108SOL    HW135957   1.976   0.188  13.232  0.8574  1.4892 -1.7906
 8108SOL    HW235958   1.881   0.083  13.178  0.9864 -1.1989  1.6969
 8109SOL     OW35959   4.143   1.506   4.368 -0.1539 -0.1296 -0.4543
 8109SOL    HW135960   4.210   1.537   4.428  0.0836  0.5878 -1.1014
 8109SOL    HW235961   4.087   1.584   4.366  1.4178  0.9792 -0.9636
 8110SOL     OW35962   2.433   0.489  14.406 -0.0579 -0.1501  0.1205
 8110SOL    HW135963   2.465   0.410  14.450 -0.0695 -0.2257 -0.0095
 8110SOL    HW235964   2.338   0.477  14.408  0.0435 -1.0542 -1.3950
 8111SOL     OW35965   2.625   0.658   5.944  0.9967  0.9582  0.0223
 8111SOL    HW135966   2.717   0.655   5.918  1.3591  2.1099  1.1751
 8111SOL    HW235967   2.635   0.647   6.038 -0.4182  0.6366  0.1339
 8112SOL     OW35968   3.974   2.901   6.665 -0.6304  0.3919  0.0310
 8112SOL    HW135969   3.938   2.818   6.634  1.8160 -1.8487  3.1796
 8112SOL    HW235970   3.910   2.939   6.725  0.3347  0.0859  1.2520
 8113SOL     OW35971   1.654   2.888   9.784 -0.0322  0.0087 -0.1232
 8113SOL    HW135972   1.583   2.908   9.845 -0.2007 -0.2571 -0.2304
 8113SOL    HW235973   1.604   2.874   9.703 -1.2280  0.0255  0.6028
 8114SOL     OW35974   1.951   1.975  12.949 -0.8114  0.0772 -0.0680
 8114SOL    HW135975   1.862   1.939  12.956  0.0494 -2.1883 -0.7442
 8114SOL    HW235976   1.953   2.019  12.864 -1.1323  0.3040  0.0423
 8115SOL     OW35977   3.153   2.171   5.430  0.0357 -0.0211  0.2234
 8115SOL    HW135978   3.101   2.206   5.358 -1.5820  0.0786  1.4240
 8115SOL    HW235979   3.169   2.255   5.472 -0.1828  1.0723 -1.8844
 8116SOL     OW35980   2.880   2.063  10.608  0.4798 -0.1861  0.3603
 8116SOL    HW135981   2.784   2.057  10.606  0.6879 -3.3395 -0.4519
 8116SOL    HW235982   2.893   1.973  10.638  0.5473 -0.8258 -1.5394
 8117SOL     OW35983   2.909   0.907   8.885  0.0411 -0.1806  0.1565
 8117SOL    HW135984   2.856   0.934   8.810  0.5219 -0.2970 -0.2199
 8117SOL    HW235985   2.854   0.928   8.961  0.3364  0.9076  0.0639
 8118SOL     OW35986   3.125   4.090   9.047 -0.0038 -0.0421  0.1580
 8118SOL    HW135987   3.149   4.178   9.020  2.6717 -1.0717 -0.7717
 8118SOL    HW235988   3.125   4.105   9.141  1.4656 -0.4880  0.2276
 8119SOL     OW35989   1.178   3.720   8.653  0.2849  0.1613 -0.5014
 8119SOL    HW135990   1.098   3.687   8.613  0.4460 -0.0065 -0.6817
 8119SOL    HW235991   1.239   3.733   8.581  0.3412 -0.2362 -0.5219
 8120SOL     OW35992   4.277   0.548   6.621 -0.1366 -0.2841  0.2052
 8120SOL    HW135993   4.331   0.496   6.680  0.4685 -0.2754 -0.3392
 8120SOL    HW235994   4.338   0.611   6.582  0.4307 -0.5706  0.6201
 8121SOL     OW35995   3.474   1.455   7.522 -0.3824  0.1007 -0.4245
 8121SOL    HW135996   3.416   1.530   7.529  2.5715  2.4487 -1.1134
 8121SOL    HW235997   3.470   1.427   7.431 -2.4020 -0.3976 -0.1877
 8122SOL     OW35998   1.840   4.046   3.777 -0.4880 -0.1538  0.7266
 8122SOL    HW135999   1.831   4.026   3.870 -1.8520 -0.0734  0.6001
 8122SOL    HW236000   1.809   4.136   3.786 -1.0574 -0.1873 -1.0222
 8123SOL     OW36001   0.713   3.643  15.998  0.2714 -0.2925  0.3542
 8123SOL    HW136002   0.625   3.679  16.007 -0.0811 -0.8137 -1.0277
 8123SOL    HW236003   0.698   3.550  16.018 -1.8730 -0.1221 -0.5290
 8124SOL     OW36004   0.494   2.311   7.459 -0.3545 -0.1617 -0.2068
 8124SOL    HW136005   0.511   2.385   7.517 -1.6774  0.9845 -1.2862
 8124SOL    HW236006   0.399   2.306   7.470 -0.4684  2.0982 -0.1144
 8125SOL     OW36007   1.938   4.259   2.836  0.7338 -0.2589  0.2486
 8125SOL    HW136008   1.943   4.165   2.818  1.6704 -0.5326  1.9720
 8125SOL    HW236009   2.021   4.296   2.805  0.3814  1.1743  1.0122
 8126SOL     OW36010   4.542   2.211   9.023 -0.2031 -0.2110  0.1117
 8126SOL    HW136011   4.498   2.130   9.047  1.3656 -0.2672  2.7521
 8126SOL    HW236012   4.477   2.249   8.963 -1.7441  1.8281  3.0894
 8127SOL     OW36013   0.677   3.239   2.449  0.6227 -0.4610 -0.1493
 8127SOL    HW136014   0.631   3.178   2.391  1.5050 -0.2283 -1.0719
 8127SOL    HW236015   0.672   3.322   2.402  0.6804  0.1397  0.8910
 8128SOL     OW36016   3.911   2.082   3.242  0.6787 -0.3201  0.2688
 8128SOL    HW136017   3.945   1.994   3.231  1.5795 -0.0331  0.7965
 8128SOL    HW236018   3.823   2.068   3.277  0.6177  0.2222  0.3394
 8129SOL     OW36019   1.868   2.546   9.035 -0.5668  0.5085 -0.2699
 8129SOL    HW136020   1.938   2.609   9.053  1.3953 -1.2973 -1.5591
 8129SOL    HW236021   1.831   2.576   8.953 -0.9258 -2.4492 -1.1825
 8130SOL     OW36022   3.437   0.009   3.323  0.1111  0.2523  0.6584
 8130SOL    HW136023   3.417   0.046   3.409 -1.1087 -0.3834  0.6456
 8130SOL    HW236024   3.531   0.025   3.312 -0.1972  0.5494 -1.5935
 8131SOL     OW36025   1.402   3.768   2.691 -0.0075  0.2466 -0.1322
 8131SOL    HW136026   1.497   3.773   2.689 -0.1565  2.2159 -1.7480
 8131SOL    HW236027   1.380   3.814   2.611  1.3934  1.8764  0.4163
 8132SOL     OW36028   3.768   4.099   3.911  0.0309 -0.2357 -0.0998
 8132SOL    HW136029   3.781   4.005   3.894 -3.5405 -0.3024 -2.6289
 8132SOL    HW236030   3.710   4.117   3.837 -0.0870  3.3893  0.8809
 8133SOL     OW36031   1.592   3.637   3.385 -0.1230  0.2873  0.1293
 8133SOL    HW136032   1.521   3.698   3.369  0.9183  1.4047 -0.2429
 8133SOL    HW236033   1.557   3.556   3.348  0.5282  0.0056  0.1203
 8134SOL     OW36034   2.848   2.510   8.704 -0.1266 -0.2339  0.4109
 8134SOL    HW136035   2.885   2.422   8.702  2.2536  0.7741  0.8319
 8134SOL    HW236036   2.795   2.507   8.783  1.3898 -4.6294  1.2939
 8135SOL     OW36037   1.591   1.957   8.609  0.2866  0.6648 -0.1402
 8135SOL    HW136038   1.556   1.874   8.642 -2.9800  1.4976 -1.4357
 8135SOL    HW236039   1.640   1.935   8.529  0.7834  0.8824  0.1082
 8136SOL     OW36040   3.552   3.523   6.016  0.6385  0.2642  0.3834
 8136SOL    HW136041   3.485   3.532   6.083 -0.0398 -5.2729  0.4349
 8136SOL    HW236042   3.625   3.500   6.073 -0.3313 -1.9682  0.7186
 8137SOL     OW36043   4.560   0.643  14.412  0.0257 -0.2243 -0.8343
 8137SOL    HW136044   4.484   0.690  14.378  1.3433  1.7197 -1.0637
 8137SOL    HW236045   4.521   0.560  14.440  0.8249 -0.0403  0.8327
 8138SOL     OW36046   3.407   1.101  12.568  0.8813  0.1500 -0.2165
 8138SOL    HW136047   3.408   1.092  12.663  0.0637  1.3916 -0.0877
 8138SOL    HW236048   3.338   1.167  12.554  0.5814  0.1837  1.5180
 8139SOL     OW36049   1.982   2.750   5.828 -0.2657  0.3717 -0.6546
 8139SOL    HW136050   1.902   2.715   5.788 -1.3118 -1.1733  2.7847
 8139SOL    HW236051   2.033   2.672   5.847  0.7876  1.0820 -0.6039
 8140SOL     OW36052   4.176   0.491   7.448 -0.3168  0.0796  0.3905
 8140SOL    HW136053   4.116   0.432   7.494  0.0263 -0.9977 -0.5424
 8140SOL    HW236054   4.120   0.569   7.438 -2.0499 -1.3413 -1.0666
 8141SOL     OW36055   0.142   0.402  14.702  0.5870  0.1371 -0.4879
 8141SOL    HW136056   0.064   0.347  14.716  0.0733  0.9852  0.0204
 8141SOL    HW236057   0.132   0.405  14.607 -2.8555 -4.4626 -0.2617
 8142SOL     OW36058   3.376   0.986   5.457  0.2492  0.1888  0.5210
 8142SOL    HW136059   3.429   0.907   5.445 -1.4707 -0.9092  0.1039
 8142SOL    HW236060   3.354   0.993   5.364 -1.8516 -0.3485  0.9730
 8143SOL     OW36061   2.833   2.354   4.392  1.0471 -0.0380 -0.4334
 8143SOL    HW136062   2.741   2.328   4.390  0.1229  3.1266  0.9087
 8143SOL    HW236063   2.823   2.435   4.342 -0.1830 -0.3087 -0.6337
 8144SOL     OW36064   1.321   2.633   4.445 -0.0379  0.4743  0.3108
 8144SOL    HW136065   1.268   2.712   4.453  0.8931  1.4525 -3.4081
 8144SOL    HW236066   1.392   2.647   4.509 -0.7470 -0.8446  1.3945
 8145SOL     OW36067   2.933   1.556   5.412  0.2212  0.1690 -0.6620
 8145SOL    HW136068   2.842   1.537   5.388  0.4531  0.0324 -1.4445
 8145SOL    HW236069   2.971   1.566   5.324  0.6902 -2.2546 -0.7260
 8146SOL     OW36070   2.716   3.877   0.231 -0.6373  0.3179  0.3991
 8146SOL    HW136071   2.647   3.941   0.213  0.1715  1.2490  0.6026
 8146SOL    HW236072   2.714   3.825   0.151 -1.5453 -1.4370  1.5657
 8147SOL     OW36073   3.865   0.110  14.742  0.0625  0.3317  0.4346
 8147SOL    HW136074   3.803   0.038  14.730 -0.3304  0.7426  0.0441
 8147SOL    HW236075   3.897   0.094  14.831 -0.1666  0.2762  0.5091
 8148SOL     OW36076   1.019   1.383  12.683  0.2030  0.3468 -0.6173
 8148SOL    HW136077   1.095   1.430  12.716  0.5706 -0.1423 -0.7655
 8148SOL    HW236078   1.021   1.305  12.739 -1.4711  3.4825  3.8084
 8149SOL     OW36079   4.430   0.178   3.103 -0.2639  0.5342 -0.3586
 8149SOL    HW136080   4.380   0.129   3.168 -0.4804  2.5424  0.9648
 8149SOL    HW236081   4.428   0.119   3.027 -1.6843  1.9909 -1.4216
 8150SOL     OW36082   3.382   1.279   0.150 -0.3537 -0.2223 -0.2096
 8150SOL    HW136083   3.354   1.208   0.092 -0.0668 -0.7294  0.2737
 8150SOL    HW236084   3.381   1.351   0.087 -0.5390 -0.2810 -0.2770
 8151SOL     OW36085   4.287   3.024  10.624  0.0198 -0.2425  0.2041
 8151SOL    HW136086   4.349   2.971  10.572 -0.1667 -0.1109 -0.1492
 8151SOL    HW236087   4.248   2.956  10.679 -1.7908  0.2527 -0.4798
 8152SOL     OW36088   4.233   1.585   1.939  0.1197  0.2546 -0.5781
 8152SOL    HW136089   4.292   1.604   2.012 -0.5434  0.7344 -0.1624
 8152SOL    HW236090   4.168   1.533   1.988 -1.7723  0.2999 -3.0502
 8153SOL     OW36091   4.589   0.218  15.322 -0.3176  0.2875  0.1502
 8153SOL    HW136092   4.636   0.138  15.346 -0.4959  0.7634  2.0576
 8153SOL    HW236093   4.549   0.229  15.408  1.3610 -0.7182  1.0500
 8154SOL     OW36094   4.689   3.125   2.104  0.0411  0.7544  0.0891
 8154SOL    HW136095   4.725   3.052   2.154 -1.1277 -0.8910 -1.4541
 8154SOL    HW236096   0.029   3.167   2.071  0.1272  1.8650  1.7082
 8155SOL     OW36097   4.629   2.437   4.314 -0.0879 -0.3179  0.5244
 8155SOL    HW136098   4.534   2.449   4.303 -0.2282  0.7077  2.7716
 8155SOL    HW236099   4.649   2.471   4.402  2.2797  0.3647 -0.2816
 8156SOL     OW36100   0.781   4.734  12.645 -0.1220 -0.3403  0.1229
 8156SOL    HW136101   0.869   0.018  12.675 -0.1072  0.4127 -0.4731
 8156SOL    HW236102   0.733   0.029  12.720  0.3293  0.0150  0.2535
 8157SOL     OW36103   0.942   2.402   6.472  0.6081 -0.1402 -0.3932
 8157SOL    HW136104   1.032   2.370   6.481 -0.7350 -3.5137  1.0280
 8157SOL    HW236105   0.897   2.328   6.514 -0.7199 -0.0634 -1.6589
 8158SOL     OW36106   2.767   1.150   3.487  0.6333  0.0076 -0.1509
 8158SOL    HW136107   2.671   1.147   3.491  0.7414 -2.1334  0.9336
 8158SOL    HW236108   2.788   1.182   3.399  1.8535  4.4760  1.7573
 8159SOL     OW36109   1.031   3.889   9.938 -0.1128 -0.4938 -1.1731
 8159SOL    HW136110   0.974   3.960   9.964  0.1396 -0.2529 -1.2788
 8159SOL    HW236111   1.060   3.844  10.018 -1.8142  1.6331  0.6235
 8160SOL     OW36112   0.746   3.630  17.278  0.2144 -0.7412  0.6584
 8160SOL    HW136113   0.756   3.595  17.366 -2.9132  1.2036  1.8063
 8160SOL    HW236114   0.684   3.570  17.236 -2.3264  1.5871  1.0520
 8161SOL     OW36115   2.742   1.109   6.751  0.2583  0.2771 -0.2452
 8161SOL    HW136116   2.763   1.188   6.702 -1.7696  1.2270  0.4181
 8161SOL    HW236117   2.793   1.113   6.832 -1.0068 -0.3247  0.5910
 8162SOL     OW36118   4.127   0.231  10.479 -0.5202  1.1594  0.2848
 8162SOL    HW136119   4.169   0.192  10.556 -2.3824 -1.8020 -0.1850
 8162SOL    HW236120   4.160   0.320  10.491  1.0348  0.6631 -0.3041
 8163SOL     OW36121   2.075   3.981  10.152  0.0781 -0.1277 -0.3812
 8163SOL    HW136122   2.089   3.923  10.227 -0.6156  1.4183  0.9301
 8163SOL    HW236123   2.156   3.957  10.106  1.3839  0.0862  1.7873
 8164SOL     OW36124   0.202   1.937   0.322  0.2933 -0.1416 -0.2873
 8164SOL    HW136125   0.202   1.965   0.230 -2.4591  2.8645  0.6183
 8164SOL    HW236126   0.144   1.864   0.302  2.0590 -1.6403  0.0723
 8165SOL     OW36127   1.484   3.611   0.751  0.2025  0.1726 -0.3587
 8165SOL    HW136128   1.397   3.573   0.755  0.1570  0.3187  0.1381
 8165SOL    HW236129   1.460   3.699   0.781 -0.1210  0.6112 -1.9402
 8166SOL     OW36130   1.631   0.387   4.846 -0.3988  0.6218 -0.1372
 8166SOL    HW136131   1.588   0.366   4.930 -1.1869  0.3273 -0.6149
 8166SOL    HW236132   1.674   0.468   4.872 -1.6262  1.6220 -1.2559
 8167SOL     OW36133   1.578   0.453   4.578 -0.3419 -0.2854 -0.1595
 8167SOL    HW136134   1.588   0.418   4.666  3.1366  0.8257 -0.1334
 8167SOL    HW236135   1.651   0.514   4.584 -2.3246  2.0066  0.8276
 8168SOL     OW36136   2.300   2.283   9.804  0.2671 -0.3784  0.0446
 8168SOL    HW136137   2.269   2.193   9.796  0.3366 -0.3428 -0.5827
 8168SOL    HW236138   2.298   2.284   9.900  2.1708  2.3087  0.0536
 8169SOL     OW36139   1.881   4.686   2.956 -0.1013 -0.4057  0.0662
 8169SOL    HW136140   1.796   4.720   2.986  0.3744 -0.9844  2.0593
 8169SOL    HW236141   1.927   0.031   2.963 -0.1736 -0.5699  2.4229
 8170SOL     OW36142   1.822   1.492   3.240 -0.6934 -0.1522  0.4619
 8170SOL    HW136143   1.908   1.534   3.238  0.2170 -2.0473 -0.9160
 8170SOL    HW236144   1.815   1.462   3.149 -1.3748 -0.9644  0.7800
 8171SOL     OW36145   3.472   2.090   7.323  0.4978 -0.3630  0.1015
 8171SOL    HW136146   3.427   2.078   7.406 -0.7825  1.2413 -0.3732
 8171SOL    HW236147   3.545   2.028   7.332  2.9178  2.3468 -0.8319
 8172SOL     OW36148   1.672   0.643   2.054  0.1936 -0.2471  0.5415
 8172SOL    HW136149   1.598   0.583   2.054 -0.9803  1.1710  1.9342
 8172SOL    HW236150   1.698   0.633   2.146 -0.9634 -2.0433  0.6694
 8173SOL     OW36151   4.031   1.449   6.073  0.1361 -0.0945 -0.1608
 8173SOL    HW136152   3.958   1.478   6.017  0.3370  2.5225  0.9052
 8173SOL    HW236153   4.016   1.358   6.049  3.2175  0.1168 -2.9646
 8174SOL     OW36154   3.206   3.316  17.310  0.5375 -0.0461 -0.6618
 8174SOL    HW136155   3.247   3.346  17.229  1.1172  1.1431  0.0729
 8174SOL    HW236156   3.251   3.232  17.321 -0.4435 -0.2308  1.9030
 8175SOL     OW36157   1.396   1.072  11.466  0.0526 -0.3727  0.2262
 8175SOL    HW136158   1.490   1.086  11.477 -0.2284 -1.2227  3.7033
 8175SOL    HW236159   1.389   1.068  11.371  0.6197  1.4899  0.1050
 8176SOL     OW36160   2.734   2.873   3.330 -0.2773 -0.0936 -0.0580
 8176SOL    HW136161   2.774   2.792   3.298  0.9815  0.9064 -1.0142
 8176SOL    HW236162   2.731   2.922   3.248  2.5169  0.4318  0.1616
 8177SOL     OW36163   4.331   1.387  11.640  0.0971  0.0378  0.6428
 8177SOL    HW136164   4.287   1.379  11.724  1.2379 -1.7728  1.0778
 8177SOL    HW236165   4.250   1.378  11.590 -0.3334 -1.3763  1.6004
 8178SOL     OW36166   4.342   0.367   1.533 -0.2136  0.2482  0.6184
 8178SOL    HW136167   4.290   0.365   1.452 -1.9245  1.1439  1.6968
 8178SOL    HW236168   4.276   0.348   1.600 -0.0988  2.7049  1.4295
 8179SOL     OW36169   4.495   0.732   4.327  0.1001  0.2273 -0.4312
 8179SOL    HW136170   4.508   0.809   4.382 -1.7354 -0.6616  1.2415
 8179SOL    HW236171   4.403   0.726   4.302 -0.2869 -1.4367  1.3935
 8180SOL     OW36172   1.413   1.879   7.739  0.0337  0.1919  0.2234
 8180SOL    HW136173   1.451   1.896   7.825  0.3716  0.2865  0.0555
 8180SOL    HW236174   1.326   1.871   7.778 -0.4721 -0.4679 -1.0129
 8181SOL     OW36175   4.531   3.529  17.418  0.6459 -0.2433  0.1082
 8181SOL    HW136176   4.612   3.527  17.470  0.1567  2.0668  0.9688
 8181SOL    HW236177   4.525   3.434  17.412  2.8056 -0.4869  1.6228
 8182SOL     OW36178   2.337   2.513   9.220 -0.2342  0.5436  0.4949
 8182SOL    HW136179   2.311   2.452   9.288  0.7216 -0.0549  0.3257
 8182SOL    HW236180   2.381   2.454   9.159  3.5724  2.1289  1.6917
 8183SOL     OW36181   4.215   4.655  11.590 -0.4474  0.4116 -0.0022
 8183SOL    HW136182   4.275   4.581  11.586  1.0750  1.6506 -0.3320
 8183SOL    HW236183   4.236   4.680  11.681 -0.6733 -1.0540  0.4492
 8184SOL     OW36184   2.188   4.323   6.812  0.0897 -0.0490 -0.0808
 8184SOL    HW136185   2.131   4.366   6.749  1.3417  0.3643 -0.9280
 8184SOL    HW236186   2.277   4.353   6.798  0.2068 -0.7235 -0.7765
 8185SOL     OW36187   3.381   2.813  17.502  0.1955  0.0505 -0.1678
 8185SOL    HW136188   3.294   2.774  17.498  0.3928 -0.3999 -0.0488
 8185SOL    HW236189   3.372   2.871  17.577 -0.3257  1.3610 -1.2314
 8186SOL     OW36190   1.540   3.491   8.015  0.2518 -0.2267  0.2732
 8186SOL    HW136191   1.564   3.510   7.924 -0.1303  1.0149  0.4301
 8186SOL    HW236192   1.615   3.440   8.045  1.5934  1.4157 -0.2732
 8187SOL     OW36193   3.085   1.985   6.310 -0.5318  0.1623  0.4075
 8187SOL    HW136194   3.010   1.977   6.252 -0.8943 -2.2935  1.1864
 8187SOL    HW236195   3.160   1.997   6.251 -0.5567 -2.7767 -0.2485
 8188SOL     OW36196   0.480   2.410   9.472  0.2163  0.5692  0.0741
 8188SOL    HW136197   0.488   2.366   9.557  1.6539 -1.3804 -1.0528
 8188SOL    HW236198   0.564   2.456   9.466  0.4763  0.1756  0.6550
 8189SOL     OW36199   2.442   3.504   3.923  0.2023  0.0307 -0.0546
 8189SOL    HW136200   2.531   3.482   3.951 -0.8321 -1.2051  2.2058
 8189SOL    HW236201   2.410   3.419   3.894 -0.0934  0.0262  0.2935
 8190SOL     OW36202   1.465   1.608  17.569  0.5106 -0.8868 -0.6890
 8190SOL    HW136203   1.410   1.545  17.524  1.5050 -2.4597  0.2773
 8190SOL    HW236204   1.531   1.624  17.501  1.6020  3.1165  1.2992
 8191SOL     OW36205   1.384   4.265   7.820 -0.0661 -0.3976 -0.1413
 8191SOL    HW136206   1.318   4.281   7.753  2.1528  0.2605 -2.2023
 8191SOL    HW236207   1.455   4.235   7.763 -0.5400 -2.5383  0.4188
 8192SOL     OW36208   2.321   1.745   5.830 -0.1289 -0.0015 -0.0946
 8192SOL    HW136209   2.297   1.701   5.749 -0.8328 -0.9005  0.6063
 8192SOL    HW236210   2.320   1.672   5.892 -1.3868 -0.4610 -0.6649
 8193SOL     OW36211   2.921   1.542  15.011 -0.3785  0.0754  0.5872
 8193SOL    HW136212   2.981   1.593  15.064  0.8305 -0.0685 -0.6510
 8193SOL    HW236213   2.849   1.605  15.008 -0.3935  0.0503  0.4166
 8194SOL     OW36214   1.786   2.688   3.359 -0.1158 -0.7311  0.5116
 8194SOL    HW136215   1.861   2.747   3.348 -0.4800 -0.3443  0.0714
 8194SOL    HW236216   1.812   2.597   3.345  0.5630 -0.4779  0.1476
 8195SOL     OW36217   3.552   1.847   1.726 -0.2738  0.6151 -0.3569
 8195SOL    HW136218   3.538   1.775   1.665 -1.8760  1.7899 -1.3743
 8195SOL    HW236219   3.489   1.831   1.796  1.1126 -1.0898  0.5145
 8196SOL     OW36220   0.880   1.421   4.239 -0.1925  0.7869  0.5049
 8196SOL    HW136221   0.887   1.465   4.154 -0.2226  0.2936  0.2426
 8196SOL    HW236222   0.946   1.352   4.226 -0.2918  0.4441  1.8451
 8197SOL     OW36223   2.847   1.634   9.882 -0.0760  0.5239  0.3808
 8197SOL    HW136224   2.928   1.584   9.891  0.5001  1.2906 -0.5030
 8197SOL    HW236225   2.790   1.606   9.953 -1.2597 -0.9617 -1.1636
 8198SOL     OW36226   3.987   1.157   1.416  0.0779 -0.5811 -0.8687
 8198SOL    HW136227   4.059   1.134   1.357  0.4731 -0.5180 -0.4113
 8198SOL    HW236228   4.009   1.247   1.436  0.7484 -0.6883 -1.1168
 8199SOL     OW36229   0.590   2.549   8.755  0.2145 -0.4537 -0.1397
 8199SOL    HW136230   0.500   2.565   8.782 -0.9310 -3.5277 -2.1529
 8199SOL    HW236231   0.612   2.467   8.801 -1.7001 -0.2811  1.0529
 8200SOL     OW36232   0.806   1.625   9.131 -0.1035  1.1017  0.1712
 8200SOL    HW136233   0.848   1.694   9.079 -0.1117  0.6324 -0.4611
 8200SOL    HW236234   0.745   1.592   9.065  0.4577  2.5048 -1.0541
 8201SOL     OW36235   2.580   3.549   7.394  0.3995  0.5885  0.4141
 8201SOL    HW136236   2.663   3.593   7.376  1.1099 -0.2455  1.5809
 8201SOL    HW236237   2.522   3.621   7.371 -1.7961 -1.2416  0.2044
 8202SOL     OW36238   3.450   3.387   7.091 -0.2128 -0.0065 -0.1535
 8202SOL    HW136239   3.433   3.293   7.082  0.7824 -0.1178 -0.9649
 8202SOL    HW236240   3.543   3.403   7.072 -0.2487  2.5235  1.9479
 8203SOL     OW36241   2.354   0.804   7.937  0.5577  0.4171 -0.5126
 8203SOL    HW136242   2.302   0.843   8.007  0.4354 -1.9454  0.7019
 8203SOL    HW236243   2.437   0.844   7.963  0.0814  0.9822  0.1436
 8204SOL     OW36244   3.158   0.794   8.975 -0.3443 -0.1192  0.3463
 8204SOL    HW136245   3.131   0.712   9.016 -0.2987 -0.2178  0.1812
 8204SOL    HW236246   3.075   0.814   8.931 -0.2966 -0.0401  0.2909
 8205SOL     OW36247   0.238   3.335  14.944  0.2860 -0.1706  0.2042
 8205SOL    HW136248   0.327   3.367  14.954  0.6615 -0.8776 -0.8237
 8205SOL    HW236249   0.262   3.244  14.928 -0.3562 -0.2602 -0.2779
 8206SOL     OW36250   0.125   0.063   6.988 -0.1261  0.3572 -0.2732
 8206SOL    HW136251   0.051   0.094   6.936  0.4944  0.6055 -0.9978
 8206SOL    HW236252   0.092   0.049   7.077  2.7534  2.5201  1.1580
 8207SOL     OW36253   4.339   4.139   4.233 -0.9002  0.1753 -0.9696
 8207SOL    HW136254   4.265   4.176   4.185 -2.4308 -0.6581  0.7539
 8207SOL    HW236255   4.415   4.175   4.187  0.0716 -0.5153  0.1203
 8208SOL     OW36256   3.991   4.112  14.989 -0.3468 -0.0586 -0.0884
 8208SOL    HW136257   3.933   4.187  14.973  0.8587  0.8456 -0.2261
 8208SOL    HW236258   4.057   4.138  15.053  1.7443 -2.9048 -1.0719
 8209SOL     OW36259   0.456   1.481   8.775  0.4825  0.1368  0.4904
 8209SOL    HW136260   0.404   1.513   8.701  0.4429 -1.6984 -0.2746
 8209SOL    HW236261   0.428   1.390   8.786 -1.0363  0.5401 -0.0093
 8210SOL     OW36262   0.406   0.895   2.447 -0.2901  0.1810 -0.3145
 8210SOL    HW136263   0.328   0.909   2.501 -1.6600 -2.5387 -1.5732
 8210SOL    HW236264   0.475   0.902   2.513  0.1128  1.2759 -0.8506
 8211SOL     OW36265   1.603   3.388  13.650 -0.1289 -0.2155  0.0024
 8211SOL    HW136266   1.543   3.333  13.600  1.3476 -0.2820 -1.7247
 8211SOL    HW236267   1.563   3.399  13.736 -2.8133  1.0813 -1.4307
 8212SOL     OW36268   2.101   4.381   9.178  0.9482  0.8548  0.5855
 8212SOL    HW136269   2.040   4.391   9.251 -0.4129 -0.0792 -0.4195
 8212SOL    HW236270   2.166   4.314   9.198 -0.3717 -0.7659 -0.5766
 8213SOL     OW36271   4.152   4.666   4.851  0.7285  0.8532 -0.3653
 8213SOL    HW136272   4.151   4.686   4.758  1.1586  0.6325 -0.4157
 8213SOL    HW236273   4.227   4.715   4.886 -1.2276  1.7151  2.6697
 8214SOL     OW36274   4.050   4.675   8.313  0.3835 -0.2907  0.2582
 8214SOL    HW136275   4.070   4.585   8.339 -0.2709 -0.9169 -1.3446
 8214SOL    HW236276   3.956   4.667   8.299  0.5039 -1.3726  0.0512
 8215SOL     OW36277   1.737   0.840  15.555 -0.1191  0.4502  0.0524
 8215SOL    HW136278   1.780   0.765  15.514 -0.7178  1.0500 -1.6828
 8215SOL    HW236279   1.716   0.897  15.481  0.3091  1.3161  0.5952
 8216SOL     OW36280   1.761   0.286   4.102  0.7247  0.1322 -0.2377
 8216SOL    HW136281   1.730   0.196   4.097 -2.6290  1.3194 -1.0359
 8216SOL    HW236282   1.841   0.283   4.155 -1.4333  0.0234  3.0238
 8217SOL     OW36283   4.150   0.995  11.518  0.2532  0.2471  0.3962
 8217SOL    HW136284   4.125   0.911  11.556  0.4635  0.2331  0.5032
 8217SOL    HW236285   4.147   1.052  11.595 -2.1656  1.2819 -0.4564
 8218SOL     OW36286   0.009   1.435   5.531 -0.8170 -0.0990 -0.4757
 8218SOL    HW136287   0.021   1.480   5.614 -1.1372  1.0949 -1.0723
 8218SOL    HW236288   0.046   1.500   5.471  1.0881  0.1006  0.9034
 8219SOL     OW36289   1.805   0.855   6.998 -0.2928  0.3611 -0.2931
 8219SOL    HW136290   1.817   0.939   7.041 -1.3692  0.9081 -1.0684
 8219SOL    HW236291   1.735   0.823   7.054 -0.3604  1.2253  0.1054
 8220SOL     OW36292   1.649   4.334   5.918 -0.6904 -0.3481 -0.6123
 8220SOL    HW136293   1.718   4.334   5.986 -0.8736  0.7487 -0.4300
 8220SOL    HW236294   1.581   4.292   5.971 -0.7285  0.6563  0.1523
 8221SOL     OW36295   1.988   1.236   0.934 -0.0137  0.1793  0.6287
 8221SOL    HW136296   2.029   1.216   1.018 -2.1163 -1.4095  1.2750
 8221SOL    HW236297   2.061   1.245   0.873  0.4678 -1.4680  0.9778
 8222SOL     OW36298   2.967   3.454   3.478  0.0756  0.0097  0.1652
 8222SOL    HW136299   2.933   3.373   3.441  0.2350  0.4127 -0.8620
 8222SOL    HW236300   2.917   3.521   3.432  0.4157 -0.3797 -0.7504
 8223SOL     OW36301   1.007   1.027   1.560  0.0377 -0.2554 -0.4471
 8223SOL    HW136302   1.004   1.116   1.595  2.3613 -0.2939 -0.1959
 8223SOL    HW236303   1.099   1.024   1.534 -0.3367  3.2335 -2.1528
 8224SOL     OW36304   1.012   0.305   7.133  0.5434 -0.0207 -0.0178
 8224SOL    HW136305   1.002   0.211   7.150 -0.4998 -0.1285 -1.2103
 8224SOL    HW236306   1.011   0.342   7.221  0.9203 -2.4047  0.9861
 8225SOL     OW36307   2.150   4.681   4.721 -0.1819 -1.0032 -0.5884
 8225SOL    HW136308   2.151   4.686   4.817 -1.2877  0.1058 -0.6339
 8225SOL    HW236309   2.233   4.643   4.692  1.1634 -0.0505  1.9424
 8226SOL     OW36310   4.590   1.766  13.604 -0.1783  0.0079 -0.2151
 8226SOL    HW136311   4.514   1.709  13.606 -0.5350  0.4498 -1.2347
 8226SOL    HW236312   4.636   1.763  13.688 -0.8508 -2.5854  0.0839
 8227SOL     OW36313   1.869   3.601  15.295 -0.2564 -0.2990 -0.0845
 8227SOL    HW136314   1.845   3.568  15.381 -1.4078  0.5379 -0.1014
 8227SOL    HW236315   1.942   3.542  15.274 -1.4600 -1.4117 -1.1655
 8228SOL     OW36316   3.230   4.556   1.575 -0.0115  0.0059  0.3961
 8228SOL    HW136317   3.279   4.486   1.619 -0.7642 -2.1429 -2.1380
 8228SOL    HW236318   3.303   4.610   1.546 -2.1944  2.6569 -0.2316
 8229SOL     OW36319   2.387   2.615  11.575 -0.3024 -0.2502  0.1873
 8229SOL    HW136320   2.450   2.603  11.646  2.2014 -0.6657 -2.1076
 8229SOL    HW236321   2.331   2.545  11.608  1.0106 -0.4642  1.9552
 8230SOL     OW36322   0.816   1.100   2.129 -0.6194  0.6786  0.6840
 8230SOL    HW136323   0.766   1.108   2.048  1.6189 -1.3350 -0.8425
 8230SOL    HW236324   0.789   1.009   2.143 -0.4670  0.7443  1.4201
 8231SOL     OW36325   4.190   1.831   2.234 -0.0171  0.0382 -0.7539
 8231SOL    HW136326   4.128   1.900   2.258  0.0186 -0.0019 -0.5523
 8231SOL    HW236327   4.145   1.747   2.239 -0.4821  0.3561  0.3616
 8232SOL     OW36328   3.618   2.841   8.121 -0.0728 -0.2090  0.2230
 8232SOL    HW136329   3.525   2.820   8.122 -0.6342  2.2557  0.9900
 8232SOL    HW236330   3.641   2.760   8.167 -1.2045 -0.2512  0.7023
 8233SOL     OW36331   2.502   2.047   7.513  0.0228  0.5568  0.3175
 8233SOL    HW136332   2.442   1.976   7.538  0.1378 -0.4015 -2.0880
 8233SOL    HW236333   2.503   2.106   7.588 -2.6876 -0.9886  1.5804
 8234SOL     OW36334   1.487   1.487   2.972  0.0424 -0.0374  0.4986
 8234SOL    HW136335   1.459   1.398   2.954  2.5636 -1.1599  2.1035
 8234SOL    HW236336   1.404   1.525   2.999 -0.4298 -1.2956  0.7992
 8235SOL     OW36337   3.415   1.416   0.734  0.2980  0.0920 -0.2546
 8235SOL    HW136338   3.444   1.476   0.664  1.8542 -0.9080 -0.4681
 8235SOL    HW236339   3.323   1.444   0.737 -0.4224 -2.1626 -1.5669
 8236SOL     OW36340   2.998   1.569   3.754 -0.0642  0.0731  0.3062
 8236SOL    HW136341   3.034   1.500   3.697 -1.0475 -0.9180  0.8967
 8236SOL    HW236342   3.036   1.646   3.712  2.3333 -1.9387 -1.3213
 8237SOL     OW36343   1.159   1.492  17.231  0.6232  0.0945 -0.1091
 8237SOL    HW136344   1.136   1.569  17.179 -0.0820  1.0108  1.5640
 8237SOL    HW236345   1.140   1.414  17.179  1.7267  0.7297 -1.4781
 8238SOL     OW36346   3.846   3.729   3.187  0.2418 -0.2972 -0.4542
 8238SOL    HW136347   3.863   3.804   3.131  1.2474  0.7104  1.2236
 8238SOL    HW236348   3.898   3.657   3.152  2.0371  0.7437  0.1003
 8239SOL     OW36349   2.056   3.691  16.439 -0.2801 -0.1242 -0.1638
 8239SOL    HW136350   2.074   3.730  16.525 -1.2318 -1.0103  0.4450
 8239SOL    HW236351   2.028   3.604  16.467 -0.4856 -0.1755 -0.5274
 8240SOL     OW36352   4.736   0.621   3.831 -0.1361 -0.5168 -0.0379
 8240SOL    HW136353   4.644   0.622   3.859 -0.0641 -0.7861  0.2137
 8240SOL    HW236354   0.007   0.527   3.813  0.9028 -0.7725  1.8635
 8241SOL     OW36355   3.167   4.448   4.595 -0.5776 -0.2218  0.5200
 8241SOL    HW136356   3.225   4.375   4.616  1.3466  1.2936  0.5373
 8241SOL    HW236357   3.197   4.513   4.659  1.0805  0.2068 -0.6613
 8242SOL     OW36358   3.616   4.427   7.996 -0.5503 -0.5103 -0.2318
 8242SOL    HW136359   3.687   4.363   7.990 -0.7598 -0.8223  0.6901
 8242SOL    HW236360   3.612   4.456   8.087 -0.3314 -0.3096 -0.2863
 8243SOL     OW36361   4.549   2.903   7.638  0.3042 -0.3845 -0.5298
 8243SOL    HW136362   4.545   2.950   7.555  1.9071 -0.8461 -0.8577
 8243SOL    HW236363   4.618   2.955   7.679 -0.9438 -0.2904  1.5137
 8244SOL     OW36364   0.588   2.617   4.476  0.0008  0.0024 -0.2083
 8244SOL    HW136365   0.601   2.694   4.531  2.0497  0.8853 -1.9715
 8244SOL    HW236366   0.675   2.580   4.459  0.6365  1.3920  0.0707
 8245SOL     OW36367   2.111   4.409   6.372  0.8693 -0.1979  0.1258
 8245SOL    HW136368   2.095   4.316   6.359 -0.7364  0.2184 -0.9149
 8245SOL    HW236369   2.125   4.431   6.280 -1.8519 -0.6692 -0.4076
 8246SOL     OW36370   1.159   1.560  14.030 -0.4430 -0.1534 -0.1471
 8246SOL    HW136371   1.139   1.467  14.026  0.0202 -0.2172 -0.9934
 8246SOL    HW236372   1.158   1.571  14.126  1.0062  0.0209 -0.1536
 8247SOL     OW36373   3.928   2.036   1.719  0.0633 -0.0924  0.2684
 8247SOL    HW136374   3.902   2.051   1.810  0.1788  2.2525 -0.0820
 8247SOL    HW236375   3.972   1.951   1.727  1.2556  0.2918 -2.4436
 8248SOL     OW36376   4.045   2.452   2.706  0.1684  0.1111 -0.4958
 8248SOL    HW136377   4.126   2.469   2.753 -0.4326  1.2949  0.1135
 8248SOL    HW236378   4.090   2.444   2.621 -2.3007  0.9440 -1.8877
 8249SOL     OW36379   0.176   3.184   4.881 -0.4650  0.3302  0.4983
 8249SOL    HW136380   0.181   3.264   4.828  0.8293 -0.4610 -0.5710
 8249SOL    HW236381   0.149   3.232   4.960 -2.0971 -1.8796  1.2974
 8250SOL     OW36382   2.169   1.851   0.110 -0.8389  0.0524  0.7124
 8250SOL    HW136383   2.218   1.932   0.096  1.9206 -1.6685  0.4361
 8250SOL    HW236384   2.170   1.847   0.205  0.8224  1.1281  0.7320
 8251SOL     OW36385   4.530   2.965   8.797  0.0116 -0.2454  0.1824
 8251SOL    HW136386   4.500   2.970   8.887  0.4662 -0.4723  0.3444
 8251SOL    HW236387   4.573   3.050   8.794 -1.1627  0.2453 -2.5764
 8252SOL     OW36388   3.259   3.801   2.792  0.5073 -0.2433  0.5481
 8252SOL    HW136389   3.278   3.775   2.702 -2.9423  2.2051 -0.9029
 8252SOL    HW236390   3.332   3.862   2.802  2.1162 -1.8945 -1.1107
 8253SOL     OW36391   3.782   1.813   4.934  0.1591 -0.2699 -0.3377
 8253SOL    HW136392   3.849   1.870   4.972  1.6688 -0.9498 -2.0373
 8253SOL    HW236393   3.766   1.859   4.852 -0.5129  0.0639 -0.0226
 8254SOL     OW36394   4.736   4.379   5.759 -0.1506 -0.3778  0.0208
 8254SOL    HW136395   0.025   4.358   5.670  0.4483 -0.1010  0.1502
 8254SOL    HW236396   0.037   4.315   5.818 -1.6044  0.2040  1.6568
 8255SOL     OW36397   0.452   3.711  16.620 -0.0219 -0.1356 -0.2929
 8255SOL    HW136398   0.401   3.650  16.566  1.1290 -1.6777  0.3915
 8255SOL    HW236399   0.540   3.704  16.585  0.0337  1.3903 -0.4501
 8256SOL     OW36400   3.995   2.396  14.594 -0.7493 -0.4565  0.3922
 8256SOL    HW136401   3.940   2.422  14.520  1.0443  1.0039 -0.4451
 8256SOL    HW236402   4.079   2.378  14.552 -2.1581 -1.8159 -1.8111
 8257SOL     OW36403   2.447   1.698  15.047  0.2317  0.3260  0.3932
 8257SOL    HW136404   2.421   1.620  14.999 -2.5325  0.2888  1.9579
 8257SOL    HW236405   2.492   1.662  15.124 -0.3493  0.8020  0.9554
 8258SOL     OW36406   4.612   4.455   2.595 -0.0666  0.1866 -0.4432
 8258SOL    HW136407   4.695   4.416   2.567 -0.9959 -0.2270 -2.6678
 8258SOL    HW236408   4.620   4.548   2.577  1.7407  0.4363  1.6475
 8259SOL     OW36409   2.506   3.012   1.717 -0.1967 -0.7137  0.0234
 8259SOL    HW136410   2.599   2.999   1.738 -0.4817 -3.7542 -0.6689
 8259SOL    HW236411   2.481   3.084   1.775 -1.0453 -2.8202  2.2651
 8260SOL     OW36412   2.016   0.036   1.674 -0.3655 -0.6246 -0.1488
 8260SOL    HW136413   2.093   0.079   1.638  3.4854 -3.7510  4.4464
 8260SOL    HW236414   2.042   0.001   1.759 -0.7794 -1.9097 -0.5506
 8261SOL     OW36415   3.455   4.066   6.895  0.0690 -0.1341 -0.2569
 8261SOL    HW136416   3.403   4.144   6.914 -1.9473 -1.3088 -0.8589
 8261SOL    HW236417   3.391   3.998   6.873  1.5828 -1.3905 -0.7913
 8262SOL     OW36418   0.218   3.622   6.498 -0.4139 -0.0377 -0.0102
 8262SOL    HW136419   0.288   3.556   6.496  0.3073  0.6824  1.7343
 8262SOL    HW236420   0.186   3.602   6.410  0.4411  1.2392 -0.5942
 8263SOL     OW36421   0.122   3.748   8.556  0.3550  0.8665  0.2249
 8263SOL    HW136422   0.042   3.698   8.574 -0.4289  1.8266 -0.5782
 8263SOL    HW236423   0.169   3.699   8.489 -0.7784  0.8894 -0.5947
 8264SOL     OW36424   0.368   4.295  10.207 -0.4603 -0.0396 -0.2504
 8264SOL    HW136425   0.318   4.327  10.132  1.8801  0.4927 -1.5842
 8264SOL    HW236426   0.299   4.290  10.273 -1.5176 -0.0652 -1.3602
 8265SOL     OW36427   0.073   3.599   6.713  0.0014 -0.2541  0.1476
 8265SOL    HW136428   0.117   3.621   6.631 -0.9245 -1.3449 -0.6258
 8265SOL    HW236429   4.722   3.627   6.699 -0.3164 -0.3825  1.9207
 8266SOL     OW36430   0.533   3.882   7.473  0.0999 -0.0691 -0.0843
 8266SOL    HW136431   0.468   3.829   7.428 -0.7622 -0.2773  1.3961
 8266SOL    HW236432   0.596   3.810   7.485  1.0086  0.9242  1.2001
 8267SOL     OW36433   2.587   0.792  14.015  1.1538  0.0541  0.5116
 8267SOL    HW136434   2.588   0.723  14.081 -0.9294 -0.2866  0.1672
 8267SOL    HW236435   2.650   0.851  14.056  0.3555  0.0240  1.7750
 8268SOL     OW36436   0.264   3.010   8.392 -0.2762  0.5313 -0.1384
 8268SOL    HW136437   0.311   2.948   8.449  1.4147  2.3024  0.4189
 8268SOL    HW236438   0.198   2.947   8.365  1.1879 -0.0932 -2.2575
 8269SOL     OW36439   4.508   0.723   2.200  0.6211  0.4009 -0.1658
 8269SOL    HW136440   4.451   0.646   2.210  0.3234  0.6199 -0.1882
 8269SOL    HW236441   4.470   0.764   2.123 -3.3962  0.2303  1.6870
 8270SOL     OW36442   2.575   2.840   5.386 -0.6615  0.0215 -0.5266
 8270SOL    HW136443   2.662   2.844   5.347 -0.8022  0.8167 -0.7653
 8270SOL    HW236444   2.571   2.934   5.403 -0.1891 -0.1087  0.2936
 8271SOL     OW36445   4.228   4.432   6.941  0.3920 -0.2797  0.5200
 8271SOL    HW136446   4.203   4.419   7.033 -1.1751  1.7168  0.3627
 8271SOL    HW236447   4.161   4.392   6.886  2.7182 -3.3855 -0.0511
 8272SOL     OW36448   0.203   3.968   5.623  0.2423 -0.5082  0.2712
 8272SOL    HW136449   0.278   3.920   5.656 -0.2827 -0.8274  0.9927
 8272SOL    HW236450   0.132   3.908   5.648  1.3555 -2.9517 -2.3982
 8273SOL     OW36451   3.487   0.852   2.693 -0.2048  0.2603  0.3679
 8273SOL    HW136452   3.426   0.909   2.646  0.4346  0.5777 -0.0765
 8273SOL    HW236453   3.435   0.781   2.731 -0.9034  0.8608  0.5228
 8274SOL     OW36454   0.742   1.323   4.486 -0.6367 -0.2315  0.3824
 8274SOL    HW136455   0.654   1.348   4.458 -0.2599  0.1074 -0.4995
 8274SOL    HW236456   0.781   1.391   4.431 -0.5925  0.4950  1.3337
 8275SOL     OW36457   2.822   1.415   7.105  0.1974 -0.6894  0.0052
 8275SOL    HW136458   2.909   1.429   7.143 -0.5787  1.2763  1.0387
 8275SOL    HW236459   2.808   1.503   7.070  0.6841 -0.3705  0.5996
 8276SOL     OW36460   0.814   3.853  11.253 -0.2361  0.0021 -0.5860
 8276SOL    HW136461   0.823   3.779  11.313  1.3317  2.3020  1.9790
 8276SOL    HW236462   0.898   3.867  11.210 -1.2143  1.6046 -1.9911
 8277SOL     OW36463   2.726   2.048   4.356  0.2588 -0.2175 -0.1097
 8277SOL    HW136464   2.668   2.122   4.371  1.1492  0.4461  0.0169
 8277SOL    HW236465   2.777   2.085   4.284 -0.2192  0.7981  0.0849
 8278SOL     OW36466   0.195   0.357  11.631 -0.6017  0.3525  0.5502
 8278SOL    HW136467   0.265   0.309  11.675  0.8562  1.0731 -1.0021
 8278SOL    HW236468   0.234   0.401  11.556  0.4497 -1.4819  0.0076
 8279SOL     OW36469   2.811   3.231   6.569 -0.4185 -0.1761 -0.3079
 8279SOL    HW136470   2.814   3.136   6.581 -1.7925 -0.0160  1.3971
 8279SOL    HW236471   2.896   3.251   6.531 -0.2661 -2.1724 -1.0170
 8280SOL     OW36472   0.191   2.595  17.312  0.3693  0.0005 -0.5237
 8280SOL    HW136473   0.270   2.559  17.272 -0.1563  0.4642 -1.9855
 8280SOL    HW236474   0.245   2.660  17.357  1.0791 -0.3772 -0.8296
 8281SOL     OW36475   1.042   0.603  17.751 -0.0713 -0.4517 -0.5287
 8281SOL    HW136476   1.116   0.544   0.008 -0.3494 -0.9843 -1.4014
 8281SOL    HW236477   0.989   0.539  17.703 -2.4596  0.3855  0.9900
 8282SOL     OW36478   1.044   3.604   7.495 -0.8594  0.0045  0.1694
 8282SOL    HW136479   1.030   3.683   7.547 -0.3390  0.3688 -0.2420
 8282SOL    HW236480   1.138   3.593   7.485 -1.2063 -1.3963 -1.6124
 8283SOL     OW36481   4.363   0.253  17.392  0.2042 -0.1550  0.4713
 8283SOL    HW136482   4.391   0.202  17.316  0.1930 -1.9230  1.6497
 8283SOL    HW236483   4.301   0.189  17.427  0.8482 -0.1752  1.5750
 8284SOL     OW36484   1.813   3.146   4.461 -0.0207  0.1021 -0.4020
 8284SOL    HW136485   1.908   3.160   4.450 -0.7663  4.3466 -1.4092
 8284SOL    HW236486   1.786   3.127   4.371  1.4494 -0.5709 -0.7041
 8285SOL     OW36487   0.586   1.765   6.635  0.3502  0.1379 -0.2445
 8285SOL    HW136488   0.552   1.852   6.613 -3.4765 -1.4175 -0.5074
 8285SOL    HW236489   0.673   1.775   6.596 -0.5704  0.9456 -2.0811
 8286SOL     OW36490   3.135   0.352   3.108 -0.2914 -0.7699 -0.2183
 8286SOL    HW136491   3.215   0.306   3.133 -0.8751 -0.9240  1.3778
 8286SOL    HW236492   3.147   0.361   3.014  1.1784  0.5900  0.1075
 8287SOL     OW36493   1.551   0.821   2.576  0.8936  0.5719 -0.0688
 8287SOL    HW136494   1.576   0.736   2.613 -1.6030 -0.9304 -1.9006
 8287SOL    HW236495   1.486   0.792   2.512  1.2162  0.0783 -0.1766
 8288SOL     OW36496   1.511   4.691  16.287 -0.7794 -0.6568 -0.2598
 8288SOL    HW136497   1.431   0.004  16.296 -0.0181  0.3676  0.6424
 8288SOL    HW236498   1.518   4.651  16.374  1.0739  0.5780  0.1490
 8289SOL     OW36499   0.704   0.250   1.586  0.1749  0.0912 -0.2518
 8289SOL    HW136500   0.727   0.218   1.499  1.2928  1.5188 -0.4929
 8289SOL    HW236501   0.772   0.207   1.637  0.9356  2.7258  1.0029
 8290SOL     OW36502   4.098   1.522   7.357  0.2991  0.0983  0.0864
 8290SOL    HW136503   4.167   1.466   7.392  0.9618  0.6865 -0.2800
 8290SOL    HW236504   4.110   1.506   7.264 -2.0578  0.6810 -0.3036
 8291SOL     OW36505   4.550   2.053   4.207 -0.0697 -0.1374 -0.4864
 8291SOL    HW136506   4.484   2.108   4.164  0.5572  0.6886 -0.3860
 8291SOL    HW236507   4.504   1.974   4.237  1.2750 -1.7195 -2.5958
 8292SOL     OW36508   1.784   0.755   5.174  0.2618 -0.3336  0.1257
 8292SOL    HW136509   1.699   0.768   5.216  0.4590 -1.2177  0.8083
 8292SOL    HW236510   1.836   0.802   5.239  1.6656 -1.8593  0.1040
 8293SOL     OW36511   1.023   2.134   2.266 -0.2543  0.0984 -0.4792
 8293SOL    HW136512   1.105   2.183   2.259 -1.5243  2.1439 -0.8996
 8293SOL    HW236513   1.036   2.080   2.188 -0.1605 -3.6370  2.1040
 8294SOL     OW36514   0.901   0.798   7.097  0.3204 -0.6880  0.1100
 8294SOL    HW136515   0.812   0.779   7.127  0.4881  0.1236  1.1681
 8294SOL    HW236516   0.898   0.892   7.116 -1.0657  0.0766 -3.9133
 8295SOL     OW36517   2.795   3.955   5.114 -0.2578 -0.1836  0.0254
 8295SOL    HW136518   2.759   4.044   5.112 -1.1899 -0.5515  1.1577
 8295SOL    HW236519   2.878   3.992   5.145 -0.0276  0.0280 -0.8410
 8296SOL     OW36520   4.288   4.419  17.520  0.0023 -0.2260  0.0713
 8296SOL    HW136521   4.247   4.395  17.437  2.0943  1.9682 -1.6006
 8296SOL    HW236522   4.377   4.388  17.507  0.2278 -0.0421  1.1202
 8297SOL     OW36523   4.397   3.185   9.520 -0.1927 -0.1363 -0.1352
 8297SOL    HW136524   4.451   3.230   9.455  1.5025 -1.4461  0.3601
 8297SOL    HW236525   4.393   3.248   9.592  1.2213 -0.3775  0.1535
 8298SOL     OW36526   1.703   0.195   9.803 -0.6367 -0.7169  0.4374
 8298SOL    HW136527   1.657   0.153   9.877  0.0870 -0.1987  1.1776
 8298SOL    HW236528   1.647   0.270   9.785  1.6012  0.7741 -0.1990
 8299SOL     OW36529   3.820   1.568   2.376  0.2101  0.4346 -0.2340
 8299SOL    HW136530   3.772   1.650   2.368  0.0067  0.2338 -1.1967
 8299SOL    HW236531   3.754   1.498   2.382  0.2674  0.1146 -2.9415
 8300SOL     OW36532   1.748   2.462   6.432 -0.4968 -0.3624  0.2168
 8300SOL    HW136533   1.739   2.395   6.500 -0.5937 -0.6284 -0.0580
 8300SOL    HW236534   1.694   2.422   6.363 -1.3704 -0.9864  1.2716
 8301SOL     OW36535   3.344   2.424   8.163  0.2151  0.2243 -0.2942
 8301SOL    HW136536   3.403   2.404   8.236  0.5242  1.1886 -0.2852
 8301SOL    HW236537   3.285   2.348   8.163 -0.2423  0.5909  1.3787
 8302SOL     OW36538   0.524   2.894   7.551 -0.2495  0.4641 -0.0775
 8302SOL    HW136539   0.586   2.821   7.559 -1.4173 -0.5367 -0.1052
 8302SOL    HW236540   0.585   2.960   7.518 -1.7594  3.0756  2.3822
 8303SOL     OW36541   1.322   0.326  17.114 -0.2854  0.6609 -1.1770
 8303SOL    HW136542   1.292   0.285  17.195  0.5186  0.4586 -0.9854
 8303SOL    HW236543   1.372   0.392  17.162  0.2778  0.5581 -1.6250
 8304SOL     OW36544   3.031   1.433   7.542  0.2684 -0.7373 -0.0196
 8304SOL    HW136545   3.018   1.504   7.605 -0.6386 -0.4082 -0.5716
 8304SOL    HW236546   3.126   1.438   7.532  0.4606 -1.6259  1.3703
 8305SOL     OW36547   0.349   0.294   8.194 -0.2856  0.1653  0.7814
 8305SOL    HW136548   0.334   0.387   8.214 -0.1085  0.5651 -0.9230
 8305SOL    HW236549   0.303   0.288   8.110 -2.3419  2.0822  1.7776
 8306SOL     OW36550   1.999   4.345   8.827  0.2720  0.1125 -0.7718
 8306SOL    HW136551   1.915   4.304   8.845  1.6333 -0.6690  3.6945
 8306SOL    HW236552   2.000   4.379   8.916  2.3352 -0.3858 -0.6086
 8307SOL     OW36553   2.832   2.304  14.265  0.8313  0.0576 -0.0911
 8307SOL    HW136554   2.778   2.335  14.192  0.7774  0.5461  0.1602
 8307SOL    HW236555   2.842   2.385  14.314  1.9360  0.0605 -0.3209
 8308SOL     OW36556   0.039   4.530   6.722  0.6263  0.1547  0.1293
 8308SOL    HW136557   0.042   4.542   6.627  2.0787 -1.2768  0.0031
 8308SOL    HW236558   0.064   4.438   6.729 -1.3234 -0.3890 -0.2933
 8309SOL     OW36559   3.709   1.621  15.720 -0.1341  0.4955 -0.0599
 8309SOL    HW136560   3.734   1.565  15.647  0.8216  1.0039 -0.1335
 8309SOL    HW236561   3.688   1.552  15.784 -2.9040  0.1482 -1.3772
 8310SOL     OW36562   2.734   4.618   2.128  0.6679 -0.8960  0.5016
 8310SOL    HW136563   2.688   4.685   2.077 -0.9321 -2.2568  0.1916
 8310SOL    HW236564   2.824   4.633   2.098 -0.1047  1.5546 -0.5968
 8311SOL     OW36565   2.508   4.722   7.785  0.1599 -0.6163  0.8463
 8311SOL    HW136566   2.448   4.704   7.713  0.2126 -2.4266  1.2510
 8311SOL    HW236567   2.480   0.073   7.801 -1.7476 -1.0697  0.0763
 8312SOL     OW36568   0.875   1.609   6.346  0.4043 -0.7544  0.5016
 8312SOL    HW136569   0.946   1.554   6.314 -0.5368 -1.4857 -0.3593
 8312SOL    HW236570   0.898   1.608   6.439 -1.0220 -0.1029  0.8577
 8313SOL     OW36571   3.270   0.450   6.691  0.0333  0.0620 -0.4949
 8313SOL    HW136572   3.349   0.432   6.742 -0.1468  1.1090  0.1574
 8313SOL    HW236573   3.272   0.546   6.691 -0.0534  0.0698 -3.4843
 8314SOL     OW36574   4.326   1.069  14.575  0.5767 -0.2397 -0.1694
 8314SOL    HW136575   4.346   1.162  14.568  0.2114  0.0113  1.9788
 8314SOL    HW236576   4.241   1.054  14.536 -0.2445  0.7191  1.2416
 8315SOL     OW36577   2.604   1.585   6.306  0.0427 -0.4723  0.0668
 8315SOL    HW136578   2.539   1.515   6.318  0.6007 -1.0212 -0.1626
 8315SOL    HW236579   2.597   1.607   6.213  1.6031 -0.0560  0.0607
 8316SOL     OW36580   0.730   2.501   0.881 -0.4614  0.2694 -0.2298
 8316SOL    HW136581   0.781   2.555   0.821  0.9045  0.7553  1.3726
 8316SOL    HW236582   0.653   2.478   0.828 -0.0643 -0.8810 -0.3001
 8317SOL     OW36583   0.909   1.728   3.215 -0.0148  0.5809 -0.2917
 8317SOL    HW136584   0.819   1.761   3.212  0.1078  1.0005  0.8706
 8317SOL    HW236585   0.893   1.634   3.222  0.3741  0.3570 -2.2871
 8318SOL     OW36586   2.434   2.777   4.482 -0.4181 -0.0610 -0.8172
 8318SOL    HW136587   2.508   2.794   4.540 -0.4214 -1.4870 -0.4006
 8318SOL    HW236588   2.479   2.800   4.400  0.6275  1.5629  0.1994
 8319SOL     OW36589   2.263   0.130   8.083  0.0763 -0.3165  0.2547
 8319SOL    HW136590   2.300   0.218   8.072  2.9288 -1.3790  1.3741
 8319SOL    HW236591   2.227   0.113   7.996 -0.8586  0.2804  0.5245
 8320SOL     OW36592   2.611   3.991   8.791 -0.1175  0.4431  0.1172
 8320SOL    HW136593   2.697   4.022   8.765 -0.5163 -0.3190 -2.1152
 8320SOL    HW236594   2.570   4.011   8.706 -1.1943 -0.6519  0.3801
 8321SOL     OW36595   1.531   2.249   4.053 -0.0651 -0.5371  0.0455
 8321SOL    HW136596   1.469   2.235   3.981  0.6234  1.9269 -1.0237
 8321SOL    HW236597   1.608   2.196   4.033 -0.9701 -2.0570  0.5739
 8322SOL     OW36598   2.994   3.540   7.992  0.4796  0.3855 -0.2336
 8322SOL    HW136599   2.924   3.519   7.931 -1.0270  3.0297  0.5836
 8322SOL    HW236600   2.939   3.532   8.071  0.7832  0.0617 -0.0563
 8323SOL     OW36601   2.044   4.027   3.597  0.5337  0.2223 -0.3600
 8323SOL    HW136602   2.066   4.112   3.635  3.0226  0.0868 -1.4974
 8323SOL    HW236603   1.966   4.004   3.647  0.2871 -0.3394 -1.0023
 8324SOL     OW36604   2.950   2.000  13.594  0.1478 -0.2172  0.0668
 8324SOL    HW136605   2.997   1.990  13.512  1.7188 -1.2202  1.0765
 8324SOL    HW236606   2.900   2.082  13.594  0.2357 -0.1477  2.7424
 8325SOL     OW36607   3.429   1.590   8.511 -0.2251 -0.5228 -0.3963
 8325SOL    HW136608   3.487   1.648   8.559 -0.8610 -0.1994 -0.0211
 8325SOL    HW236609   3.404   1.523   8.574 -0.4458  0.4968  0.5790
 8326SOL     OW36610   2.176   1.412   6.606  0.6031 -0.2169 -0.2167
 8326SOL    HW136611   2.171   1.436   6.513  0.3518  0.7578  0.0509
 8326SOL    HW236612   2.127   1.330   6.605  0.7999 -0.3365  0.8174
 8327SOL     OW36613   3.784   2.434   6.451 -0.2730 -0.7557 -0.5525
 8327SOL    HW136614   3.712   2.478   6.406 -0.7662  0.4505  1.3950
 8327SOL    HW236615   3.728   2.383   6.509 -2.0083 -0.7326 -2.1993
 8328SOL     OW36616   0.258   1.268   8.731  0.2165 -0.1410  0.3035
 8328SOL    HW136617   0.241   1.352   8.687  2.6685 -0.0761 -0.5370
 8328SOL    HW236618   0.231   1.200   8.671  0.3146  1.3533 -1.4364
 8329SOL     OW36619   3.738   4.585   4.530 -0.7340  0.6786  0.1847
 8329SOL    HW136620   3.685   4.602   4.607 -2.0763 -1.1815 -0.3239
 8329SOL    HW236621   3.801   4.520   4.562 -1.3502 -1.5510 -3.0744
 8330SOL     OW36622   3.690   0.508   7.802 -0.1702  0.5082 -0.1558
 8330SOL    HW136623   3.707   0.414   7.805  1.1934  0.7155 -1.2794
 8330SOL    HW236624   3.708   0.528   7.711 -1.1497  1.8701 -0.0545
 8331SOL     OW36625   1.597   4.019   9.284  0.1288 -0.0949 -0.7892
 8331SOL    HW136626   1.530   4.010   9.216 -0.9534  0.0267  0.2613
 8331SOL    HW236627   1.557   4.086   9.339 -0.6305 -0.2047 -1.2049
 8332SOL     OW36628   2.390   3.665   6.814  0.0891  0.2537  0.0853
 8332SOL    HW136629   2.363   3.649   6.724  1.6966 -1.2965 -0.1221
 8332SOL    HW236630   2.360   3.585   6.857 -0.1996 -0.8255 -2.1496
 8333SOL     OW36631   2.750   3.049   2.044 -0.4784 -0.0950  0.0996
 8333SOL    HW136632   2.837   3.056   2.084 -0.1452  0.3303 -0.7057
 8333SOL    HW236633   2.723   3.138   2.067  0.9454  0.1193  0.9459
 8334SOL     OW36634   3.329   4.094  11.289  0.8511 -0.5567 -0.0787
 8334SOL    HW136635   3.386   4.171  11.289 -1.3665  1.0822  0.2375
 8334SOL    HW236636   3.284   4.099  11.374  1.3327 -1.3287  0.2194
 8335SOL     OW36637   0.464   0.175   3.927  0.0633 -0.5236  0.3565
 8335SOL    HW136638   0.417   0.172   4.010  1.0005  0.5385  0.9331
 8335SOL    HW236639   0.480   0.082   3.910  2.6508 -0.3012  1.5286
 8336SOL     OW36640   1.202   4.271   3.221  0.0926 -0.9512  0.2739
 8336SOL    HW136641   1.179   4.331   3.150 -0.5547 -1.4965  0.0320
 8336SOL    HW236642   1.270   4.236   3.164  1.1340  2.2455 -0.4697
 8337SOL     OW36643   3.920   0.354   0.699  0.1641 -0.5377  0.1929
 8337SOL    HW136644   3.893   0.344   0.790 -0.0592 -0.7410  0.1029
 8337SOL    HW236645   3.906   0.448   0.693 -0.6334 -0.5528  1.9095
 8338SOL     OW36646   2.732   1.474   7.363 -0.0308 -0.0404  0.0145
 8338SOL    HW136647   2.774   1.558   7.380  0.0015 -0.2707  1.0786
 8338SOL    HW236648   2.759   1.440   7.278  1.4734 -3.7913  1.9800
 8339SOL     OW36649   0.010   0.040   2.176 -0.3595 -0.7330 -0.4179
 8339SOL    HW136650   0.038   0.065   2.088  0.5778 -1.0083 -0.1919
 8339SOL    HW236651   0.075   0.077   2.236  1.8714 -3.4307 -1.1685
 8340SOL     OW36652   3.138   3.917  14.832 -0.5694 -0.1304 -0.1509
 8340SOL    HW136653   3.120   3.904  14.925 -0.3718  1.0733  0.0567
 8340SOL    HW236654   3.202   3.847  14.817  0.4584  0.6333  0.6377
 8341SOL     OW36655   1.764   2.593   5.733 -0.0230  0.0462 -0.6525
 8341SOL    HW136656   1.768   2.504   5.698  0.6519 -0.3991  0.5425
 8341SOL    HW236657   1.699   2.575   5.802 -0.4830  0.9484 -0.8527
 8342SOL     OW36658   0.707   0.522   6.885  0.0858 -0.8896  0.4185
 8342SOL    HW136659   0.670   0.582   6.950 -0.3210 -0.1312 -0.4994
 8342SOL    HW236660   0.673   0.436   6.907 -2.5970 -0.2695 -1.2997
 8343SOL     OW36661   3.028   1.870   2.986 -0.0867 -0.2330  0.0505
 8343SOL    HW136662   2.978   1.932   2.932  0.3231  0.7121  0.7646
 8343SOL    HW236663   3.080   1.822   2.922 -0.0812  0.2251 -0.2927
 8344SOL     OW36664   0.769   2.294   8.789 -0.5130 -0.1763  0.5424
 8344SOL    HW136665   0.737   2.282   8.879 -0.4603  0.3731  0.6336
 8344SOL    HW236666   0.863   2.283   8.799 -0.6363 -0.8829  0.9531
 8345SOL     OW36667   0.785   0.088   3.391  0.3056 -0.7981 -0.1816
 8345SOL    HW136668   0.870   0.050   3.412  0.6844 -0.0953 -0.4306
 8345SOL    HW236669   0.742   0.017   3.344  1.3055 -1.8349  0.4707
 8346SOL     OW36670   3.617   1.552   7.146 -0.2807 -0.2759  0.4716
 8346SOL    HW136671   3.540   1.609   7.148 -0.0642 -0.0143  1.3191
 8346SOL    HW236672   3.671   1.596   7.211 -0.3512 -2.0081  1.7073
 8347SOL     OW36673   3.128   0.518   6.118 -1.0934 -0.0233  0.3618
 8347SOL    HW136674   3.050   0.571   6.134 -0.3134  1.7411 -1.7271
 8347SOL    HW236675   3.137   0.533   6.024 -0.8144  0.2558  0.4339
 8348SOL     OW36676   1.595   1.128  12.593 -0.2113 -0.1773 -0.8645
 8348SOL    HW136677   1.677   1.116  12.641 -1.4406 -2.2429  0.7342
 8348SOL    HW236678   1.619   1.182  12.518 -1.6587  0.4608 -0.8750
 8349SOL     OW36679   2.694   0.930   8.682 -0.1419  0.3527  0.2437
 8349SOL    HW136680   2.681   1.024   8.697  1.8440  0.8913 -1.4054
 8349SOL    HW236681   2.693   0.912   8.588  1.5301 -0.4885  0.3985
 8350SOL     OW36682   2.153   1.916   4.185  0.2437 -0.3529  0.2738
 8350SOL    HW136683   2.234   1.947   4.146 -0.4417 -0.5276 -1.3157
 8350SOL    HW236684   2.191   1.895   4.270  0.6690 -0.8346 -0.0372
 8351SOL     OW36685   0.267   1.061   9.002 -0.0357 -0.3544  1.0068
 8351SOL    HW136686   0.198   1.064   9.067 -0.0383 -0.8184  1.0265
 8351SOL    HW236687   0.259   1.153   8.976 -0.6042 -0.7398 -0.2181
 8352SOL     OW36688   2.701   3.845   7.214  0.1274 -0.2967  0.2045
 8352SOL    HW136689   2.742   3.902   7.149 -0.5991 -0.6973 -0.6077
 8352SOL    HW236690   2.633   3.811   7.156 -0.8070  2.2501 -0.1984
 8353SOL     OW36691   0.672   4.623   4.993 -0.0652  0.5031  0.4520
 8353SOL    HW136692   0.752   4.616   5.045 -0.3757 -2.6414  0.5218
 8353SOL    HW236693   0.693   4.710   4.960 -4.0313  0.4314 -2.2269
 8354SOL     OW36694   3.710   4.493   5.781  0.0384 -0.2645 -0.1493
 8354SOL    HW136695   3.643   4.559   5.765  0.5940  0.2042 -0.5771
 8354SOL    HW236696   3.797   4.521   5.752  1.0697 -1.9024  1.3341
 8355SOL     OW36697   2.084   1.890   4.583  0.9458  0.0249 -0.4983
 8355SOL    HW136698   2.132   1.957   4.631 -1.9036  0.6378  1.4327
 8355SOL    HW236699   2.063   1.811   4.634  0.6435  0.6382  0.3185
 8356SOL     OW36700   2.129   2.700   2.286  0.5024  0.5936  0.0858
 8356SOL    HW136701   2.072   2.635   2.246 -0.3634  1.3992 -0.0151
 8356SOL    HW236702   2.068   2.753   2.338  0.8319 -0.3728  1.4522
 8357SOL     OW36703   0.991   3.010   2.545  0.1647 -0.8884 -0.2231
 8357SOL    HW136704   1.052   2.960   2.492 -0.2864 -1.1232 -0.5160
 8357SOL    HW236705   0.907   3.005   2.499  1.3428 -2.0270 -2.2424
 8358SOL     OW36706   1.032   4.680  11.783 -0.4282 -0.3927  0.1523
 8358SOL    HW136707   1.007   4.614  11.847 -2.1446 -0.0645 -0.1685
 8358SOL    HW236708   1.089   4.725  11.845 -1.0569 -0.3828  0.7265
 8359SOL     OW36709   4.580   1.172  14.965  0.3128 -0.2013  0.1293
 8359SOL    HW136710   4.552   1.203  14.879 -0.8913 -0.6073  0.3750
 8359SOL    HW236711   4.556   1.079  14.967 -0.8035  0.1077  0.7839
 8360SOL     OW36712   1.662   1.013   9.594 -0.4326 -0.5577  0.1886
 8360SOL    HW136713   1.649   0.995   9.687 -1.7046  0.0068  0.1225
 8360SOL    HW236714   1.757   1.002   9.598 -0.5429 -0.9638  1.5399
 8361SOL     OW36715   3.810   0.382  10.698 -0.5807  0.0169 -0.5055
 8361SOL    HW136716   3.722   0.346  10.684 -0.2437 -1.1675  0.4251
 8361SOL    HW236717   3.834   0.398  10.607 -1.8632 -0.0679 -0.8625
 8362SOL     OW36718   0.335   2.833   5.101 -0.1309 -0.5182  0.2625
 8362SOL    HW136719   0.319   2.771   5.030  0.3649 -0.0323 -0.2738
 8362SOL    HW236720   0.248   2.872   5.093 -0.1012 -0.3831  0.5968
 8363SOL     OW36721   1.833   1.233   8.820 -0.0614 -0.1063 -0.3182
 8363SOL    HW136722   1.773   1.175   8.773 -1.0759  0.2788  0.4849
 8363SOL    HW236723   1.799   1.323   8.825 -1.9849 -0.8704  0.3481
 8364SOL     OW36724   3.212   3.560  13.345 -0.4849  0.2759  0.4677
 8364SOL    HW136725   3.159   3.481  13.337 -0.1327  0.4867 -3.8233
 8364SOL    HW236726   3.301   3.526  13.350 -0.2861  0.6434 -0.7474
 8365SOL     OW36727   0.603   2.733   0.235  0.0367  0.2646 -0.2362
 8365SOL    HW136728   0.586   2.719   0.141 -1.6985  1.6555 -0.1417
 8365SOL    HW236729   0.650   2.816   0.226 -0.9437  0.6264 -2.0855
 8366SOL     OW36730   0.333   2.217  13.472  0.0116 -0.3323  0.3583
 8366SOL    HW136731   0.273   2.175  13.411  1.4784  0.1837 -1.4156
 8366SOL    HW236732   0.403   2.236  13.410 -0.3870  0.7934  0.2535
 8367SOL     OW36733   3.547   2.947   7.187  0.2716 -0.3229 -0.2687
 8367SOL    HW136734   3.475   2.895   7.222 -0.0553  0.5827  0.4266
 8367SOL    HW236735   3.493   3.014   7.144  2.0118  2.3661  1.6801
 8368SOL     OW36736   2.130   3.204  12.559 -0.1857  1.0472 -0.0625
 8368SOL    HW136737   2.074   3.164  12.625  1.3410  1.3787  1.4119
 8368SOL    HW236738   2.204   3.144  12.556 -0.2259  1.0987 -2.1564
 8369SOL     OW36739   1.945   2.015   2.781  0.7039 -0.9860  0.1195
 8369SOL    HW136740   2.034   2.050   2.773  0.4669  0.0172  1.8328
 8369SOL    HW236741   1.926   2.059   2.864 -2.2171 -1.2401 -0.4179
 8370SOL     OW36742   1.821   3.813  15.741 -0.6653  0.1472 -0.6024
 8370SOL    HW136743   1.823   3.908  15.735  1.1755  0.0963 -0.6563
 8370SOL    HW236744   1.853   3.796  15.830  0.4524  3.8677 -0.3053
 8371SOL     OW36745   2.932   0.680   3.158  0.0167  0.4979 -0.0909
 8371SOL    HW136746   2.904   0.641   3.241 -0.1128  0.0482 -0.3464
 8371SOL    HW236747   2.999   0.741   3.189  1.2927 -1.3796  0.8010
 8372SOL     OW36748   1.511   1.675   9.289 -0.4943  0.5410 -0.4149
 8372SOL    HW136749   1.594   1.696   9.331  1.4063 -1.0712 -3.3720
 8372SOL    HW236750   1.516   1.582   9.310  1.6328  0.9199  0.7585
 8373SOL     OW36751   0.593   1.132   7.204  0.1890 -0.4429 -0.4130
 8373SOL    HW136752   0.541   1.088   7.271  0.2452 -3.1377 -2.1418
 8373SOL    HW236753   0.525   1.134   7.138  0.1578  2.0084 -0.2937
 8374SOL     OW36754   0.606   1.953  12.663 -0.7103  0.1052 -0.2289
 8374SOL    HW136755   0.616   1.870  12.616  0.2027  1.1093 -1.8169
 8374SOL    HW236756   0.536   1.930  12.723  0.7774  0.3191  1.5845
 8375SOL     OW36757   1.044   0.609   8.668  0.0962 -0.3464 -0.5406
 8375SOL    HW136758   1.073   0.691   8.707 -0.3417 -0.3782 -0.1549
 8375SOL    HW236759   1.121   0.552   8.658 -1.0368 -1.8630 -0.6857
 8376SOL     OW36760   2.466   3.897   1.481  0.5131  0.6006  0.1063
 8376SOL    HW136761   2.502   3.919   1.395  0.0392  0.1454 -0.2055
 8376SOL    HW236762   2.455   3.986   1.513  0.2010  0.8150 -0.6103
 8377SOL     OW36763   0.179   2.151  11.449 -0.2111 -0.0111 -0.0344
 8377SOL    HW136764   0.091   2.179  11.476  0.4725  1.1077  1.0448
 8377SOL    HW236765   0.241   2.207  11.496  0.2382 -1.0471  0.6099
 8378SOL     OW36766   2.882   0.352   3.594  0.3510 -0.1188  0.1662
 8378SOL    HW136767   2.897   0.278   3.654  0.1313 -0.9279 -0.7793
 8378SOL    HW236768   2.913   0.418   3.656 -2.2880  0.3025  1.0552
 8379SOL     OW36769   1.443   4.225   6.100  0.1636 -0.4509  0.0449
 8379SOL    HW136770   1.491   4.142   6.106 -3.0400 -2.2107  1.6700
 8379SOL    HW236771   1.363   4.189   6.062 -0.4011  1.7776 -0.8589
 8380SOL     OW36772   2.874   0.001  11.504  0.4924 -0.2517 -0.1403
 8380SOL    HW136773   2.798   4.683  11.517  2.3122 -2.6430  0.0663
 8380SOL    HW236774   2.926   4.692  11.439 -0.7031 -4.3529  1.9301
 8381SOL     OW36775   2.649   2.517  12.222 -0.8324 -0.0951 -0.0415
 8381SOL    HW136776   2.690   2.468  12.294  1.3674  1.3349 -0.3048
 8381SOL    HW236777   2.724   2.551  12.173 -0.8961 -0.7248 -0.5769
 8382SOL     OW36778   0.815   0.619   4.802  0.1513  0.0542  0.0246
 8382SOL    HW136779   0.792   0.703   4.763 -1.6308 -0.7973 -0.7591
 8382SOL    HW236780   0.848   0.578   4.722 -2.0321  0.2069 -0.9406
 8383SOL     OW36781   3.574   1.485   8.299  0.1699 -0.0841 -0.0704
 8383SOL    HW136782   3.510   1.537   8.349 -1.1978 -0.9223 -0.9418
 8383SOL    HW236783   3.591   1.411   8.357 -1.5513 -0.2685  0.2251
 8384SOL     OW36784   3.400   0.697   5.475 -0.3311  1.1849  0.2181
 8384SOL    HW136785   3.426   0.629   5.537 -0.5232 -0.0152 -1.0124
 8384SOL    HW236786   3.396   0.638   5.400 -0.0050  1.8928 -0.3567
 8385SOL     OW36787   4.440   1.239   7.006  0.9393  0.0524 -0.0768
 8385SOL    HW136788   4.484   1.273   6.927  1.3321  0.3599  0.2762
 8385SOL    HW236789   4.378   1.169   6.984 -1.6434  2.3256  0.0137
 8386SOL     OW36790   2.105   1.700  12.940 -0.2580 -0.4533 -0.2325
 8386SOL    HW136791   2.150   1.698  12.856  1.2209  0.9078  0.5192
 8386SOL    HW236792   2.020   1.740  12.921 -1.1322 -0.2770  4.0054
 8387SOL     OW36793   1.981   2.950  12.064  0.0893  0.2458  0.1458
 8387SOL    HW136794   2.024   2.969  11.981 -1.3342 -0.1789 -0.6914
 8387SOL    HW236795   2.019   3.019  12.120 -1.0961  2.4997 -1.8375
 8388SOL     OW36796   0.094   0.061   7.981  0.9263  0.0169  0.1385
 8388SOL    HW136797   0.018   0.097   8.026  0.1315  0.0262 -1.1941
 8388SOL    HW236798   0.120   0.136   7.928  1.1810 -0.1434  0.0335
 8389SOL     OW36799   4.319   2.390  16.392  0.3591  0.2551  0.1594
 8389SOL    HW136800   4.235   2.399  16.346  0.8024 -2.4403 -1.1895
 8389SOL    HW236801   4.295   2.306  16.431 -0.5884  0.1777 -0.5910
 8390SOL     OW36802   1.259   0.671   6.796 -0.2426 -0.1175  0.2766
 8390SOL    HW136803   1.253   0.641   6.705  0.0008 -1.1812  0.6160
 8390SOL    HW236804   1.218   0.608   6.855 -2.2040  0.5917 -0.3111
 8391SOL     OW36805   0.453   2.774  16.518  0.4114  0.3657  0.6095
 8391SOL    HW136806   0.419   2.739  16.601 -1.5648  0.2671 -0.2411
 8391SOL    HW236807   0.469   2.692  16.471 -1.1430  1.1776 -1.3120
 8392SOL     OW36808   1.079   1.980   8.831  0.3984 -0.1151 -0.2977
 8392SOL    HW136809   1.162   2.004   8.789  1.0713 -0.4522  0.8088
 8392SOL    HW236810   1.047   2.062   8.869  2.8168 -0.2217  2.0271
 8393SOL     OW36811   0.500   0.580   1.549 -0.6271 -0.2595 -0.2552
 8393SOL    HW136812   0.410   0.547   1.546 -0.7699  0.0977  0.0616
 8393SOL    HW236813   0.510   0.580   1.644  0.4031 -1.2979 -0.3738
 8394SOL     OW36814   1.339   4.436  11.134 -0.0232 -0.6788  0.0342
 8394SOL    HW136815   1.382   4.521  11.134 -0.3321 -0.5198  0.0692
 8394SOL    HW236816   1.315   4.436  11.227 -0.7666 -1.1213 -0.1542
 8395SOL     OW36817   3.061   0.350   5.557 -0.5911  0.1334  0.0724
 8395SOL    HW136818   3.012   0.302   5.490 -0.4550 -0.9820  0.7725
 8395SOL    HW236819   3.059   0.438   5.520  2.6203  0.4791  0.7003
 8396SOL     OW36820   0.429   3.463   7.135 -0.2088 -0.1528  0.8314
 8396SOL    HW136821   0.399   3.408   7.063 -0.3391  0.3993  0.4675
 8396SOL    HW236822   0.513   3.492   7.099 -0.8971 -0.9595 -1.3825
 8397SOL     OW36823   2.313   2.546   6.517 -0.2094  0.2363 -0.0456
 8397SOL    HW136824   2.256   2.480   6.477  1.1350 -0.5704 -0.6164
 8397SOL    HW236825   2.372   2.559   6.443  0.1741 -0.8684  0.0564
 8398SOL     OW36826   2.632   1.159  14.794  0.3008  0.0155  0.5926
 8398SOL    HW136827   2.710   1.202  14.826  0.8790  0.2787 -1.1747
 8398SOL    HW236828   2.666   1.112  14.718 -0.3038 -0.7446  0.7862
 8399SOL     OW36829   3.518   2.822  15.792  0.4261 -0.4024  0.3517
 8399SOL    HW136830   3.591   2.841  15.733 -0.2524  3.7399  0.8672
 8399SOL    HW236831   3.566   2.797  15.871  0.8955  0.0444  0.2092
 8400SOL     OW36832   4.587   0.654  15.405 -0.1805 -0.3781 -0.4329
 8400SOL    HW136833   4.551   0.739  15.380 -0.1899 -0.7958 -1.8334
 8400SOL    HW236834   4.662   0.667  15.463  0.3606 -1.0808 -0.9723
 8401SOL     OW36835   0.660   1.854   3.172  0.1450 -0.6697 -0.3222
 8401SOL    HW136836   0.589   1.866   3.109 -0.2839 -0.1476  0.2617
 8401SOL    HW236837   0.687   1.946   3.180 -1.3996 -0.2033 -0.5466
 8402SOL     OW36838   1.014   3.907   7.955 -0.5636  0.1698 -0.0096
 8402SOL    HW136839   1.026   3.843   7.885 -2.1031  0.6064 -0.6712
 8402SOL    HW236840   1.048   3.871   8.037 -2.8082 -0.5900  0.5844
 8403SOL     OW36841   3.546   3.527  10.448  0.2180  0.4313 -0.6687
 8403SOL    HW136842   3.515   3.588  10.514 -0.8165 -1.4905  0.6190
 8403SOL    HW236843   3.503   3.453  10.491  1.2321 -0.6670 -1.5237
 8404SOL     OW36844   1.910   0.337   5.016  0.0347  0.2890 -0.2277
 8404SOL    HW136845   1.882   0.254   4.979 -0.1092 -0.4481  1.5194
 8404SOL    HW236846   1.920   0.315   5.109  0.1432  0.2029 -0.2605
 8405SOL     OW36847   3.751   2.634   4.169 -0.6060  0.1271  0.1602
 8405SOL    HW136848   3.730   2.696   4.099 -2.6034  0.1417  0.7695
 8405SOL    HW236849   3.846   2.623   4.167 -0.3515  2.1226  1.3268
 8406SOL     OW36850   3.468   2.177  10.851  0.0794 -0.5299 -0.4906
 8406SOL    HW136851   3.540   2.136  10.805  1.8829  3.9079 -1.6639
 8406SOL    HW236852   3.435   2.240  10.786  0.6702 -0.4108 -0.6770
 8407SOL     OW36853   4.161   3.464  11.858 -0.9343 -0.1678  0.4424
 8407SOL    HW136854   4.208   3.450  11.940 -0.7582 -0.0735  0.3585
 8407SOL    HW236855   4.143   3.372  11.839 -2.2817 -0.3967  2.8426
 8408SOL     OW36856   0.529   3.667  15.673 -0.2355  0.2278  0.4036
 8408SOL    HW136857   0.496   3.707  15.754 -0.0103  1.3068 -0.0283
 8408SOL    HW236858   0.588   3.605  15.715 -2.0991 -1.0119  1.1873
 8409SOL     OW36859   4.634   3.148   4.543  0.1027  0.3532 -0.1005
 8409SOL    HW136860   4.620   3.103   4.626  1.7825  1.3900  0.7568
 8409SOL    HW236861   4.580   3.098   4.482  0.1131 -0.1597  0.3098
 8410SOL     OW36862   2.348   4.731   7.556 -0.2784  0.0851 -0.0566
 8410SOL    HW136863   2.322   0.079   7.585  1.6501  0.4093  0.6688
 8410SOL    HW236864   2.268   4.691   7.522  0.3720 -1.8289  0.6516
 8411SOL     OW36865   1.042   3.870  13.252  0.5407  0.3424  0.3813
 8411SOL    HW136866   1.050   3.945  13.193  0.5387 -1.0440 -1.3857
 8411SOL    HW236867   1.093   3.917  13.318  2.5160  2.4815 -2.7023
 8412SOL     OW36868   2.873   3.313  16.290 -0.2892 -0.0611 -0.3925
 8412SOL    HW136869   2.848   3.376  16.358 -1.1986 -2.5345  1.5439
 8412SOL    HW236870   2.925   3.247  16.335  0.2621  0.0752 -0.8250
 8413SOL     OW36871   3.323   0.295   4.943  0.1570 -0.0703 -0.2536
 8413SOL    HW136872   3.310   0.207   4.978 -1.0240  0.6059  1.0182
 8413SOL    HW236873   3.285   0.346   5.014  0.6287 -1.0407  0.6964
 8414SOL     OW36874   2.933   3.461  12.125 -0.4041  0.4760 -0.0037
 8414SOL    HW136875   2.947   3.376  12.165 -0.7663  0.0084 -0.8871
 8414SOL    HW236876   2.839   3.463  12.139 -0.5011 -1.1414 -0.4992
 8415SOL     OW36877   2.920   2.995   7.061 -0.4056 -0.1450 -0.2062
 8415SOL    HW136878   2.979   2.928   7.096 -1.0518 -0.6134 -0.0179
 8415SOL    HW236879   2.843   2.976   7.115 -0.3184  0.5992  0.1806
 8416SOL     OW36880   1.190   3.697  17.205 -0.5447  0.6155  0.1974
 8416SOL    HW136881   1.194   3.637  17.279 -0.6655 -0.2926 -0.5249
 8416SOL    HW236882   1.115   3.661  17.158  0.6924 -0.4830 -0.9507
 8417SOL     OW36883   3.118   0.277   1.858 -0.5446  0.0006 -0.1431
 8417SOL    HW136884   3.206   0.313   1.856  0.9047 -3.6883 -1.0959
 8417SOL    HW236885   3.139   0.186   1.880 -1.6370 -0.4635 -1.0250
 8418SOL     OW36886   0.343   3.119   1.545  0.1784 -0.1484 -0.0955
 8418SOL    HW136887   0.266   3.112   1.601  0.8717  4.4916  1.4104
 8418SOL    HW236888   0.337   3.208   1.510  0.0186  0.0156  0.3528
 8419SOL     OW36889   4.112   2.879   4.450  0.2552  0.2639 -0.4780
 8419SOL    HW136890   4.105   2.893   4.355 -0.6459 -1.5250 -0.6713
 8419SOL    HW236891   4.186   2.819   4.458 -0.6471 -0.5146  1.9863
 8420SOL     OW36892   1.013   1.838   5.819 -0.2815 -0.5698 -0.1395
 8420SOL    HW136893   0.972   1.887   5.747 -1.5375 -1.5766 -0.1033
 8420SOL    HW236894   0.987   1.750   5.790 -0.9284 -0.6536  0.6963
 8421SOL     OW36895   4.524   3.487   0.433 -0.2096  0.1421 -0.5063
 8421SOL    HW136896   4.484   3.401   0.444  0.5987  0.0295  1.5771
 8421SOL    HW236897   4.617   3.469   0.418 -0.0305  0.3917  0.2741
 8422SOL     OW36898   0.820   0.635   8.092 -0.4015 -0.6016 -0.3841
 8422SOL    HW136899   0.903   0.601   8.059 -0.4102  0.0552 -1.0924
 8422SOL    HW236900   0.841   0.636   8.185  3.6210 -1.6799 -1.2930
 8423SOL     OW36901   1.816   1.902   8.925  0.2346 -0.4546  0.0572
 8423SOL    HW136902   1.794   1.903   9.018 -1.1973 -1.3074 -0.2680
 8423SOL    HW236903   1.850   1.991   8.935  2.8717 -1.4574 -0.0007
 8424SOL     OW36904   0.165   0.117   1.959  0.3403 -0.5666 -0.1910
 8424SOL    HW136905   0.233   0.184   1.957 -1.1280  0.8811 -1.6649
 8424SOL    HW236906   0.167   0.092   1.866  2.7304 -0.5937 -0.1298
 8425SOL     OW36907   0.165   1.997   3.393 -0.6676 -0.1759 -0.5247
 8425SOL    HW136908   0.259   1.988   3.379 -0.3924  0.8186  0.7126
 8425SOL    HW236909   0.167   2.067   3.458  2.1237  0.0490 -0.8640
 8426SOL     OW36910   1.769   0.684   3.716 -0.3783 -0.4155  0.2491
 8426SOL    HW136911   1.857   0.718   3.699  0.6843 -2.5412  1.4503
 8426SOL    HW236912   1.787   0.620   3.785 -0.1620 -0.6523 -0.0245
 8427SOL     OW36913   4.586   3.105   1.815  0.2001 -0.5767 -0.5668
 8427SOL    HW136914   4.595   3.141   1.904  1.4922 -1.1595 -0.4670
 8427SOL    HW236915   4.494   3.131   1.808  0.9911  2.9340  2.0286
 8428SOL     OW36916   2.431   3.910  13.527  0.2310  0.3817 -0.3550
 8428SOL    HW136917   2.427   3.896  13.622  0.2986  0.3776 -0.3529
 8428SOL    HW236918   2.504   3.854  13.502  0.3694 -0.2403  1.4391
 8429SOL     OW36919   1.646   3.957   3.564 -0.4678  0.1391  0.6291
 8429SOL    HW136920   1.717   3.906   3.525  0.0761  1.3515  0.0643
 8429SOL    HW236921   1.699   4.027   3.600  0.3486 -1.6492  2.8865
 8430SOL     OW36922   3.134   0.131   8.645 -0.1259  0.9319 -0.4585
 8430SOL    HW136923   3.167   0.221   8.648 -2.3481  1.6319  2.9248
 8430SOL    HW236924   3.220   0.092   8.661  0.4630  1.8999 -1.2470
 8431SOL     OW36925   1.210   0.201   3.217 -0.0446  0.5822 -0.4317
 8431SOL    HW136926   1.187   0.142   3.145  0.8549 -0.3001  0.0022
 8431SOL    HW236927   1.200   0.283   3.168 -1.0596 -0.5580 -2.1347
 8432SOL     OW36928   1.263   3.484  10.128 -0.7746  0.1845 -0.2573
 8432SOL    HW136929   1.341   3.532  10.100 -0.3124 -1.6262 -2.0180
 8432SOL    HW236930   1.227   3.472  10.041 -0.8888  0.4597 -0.2480
 8433SOL     OW36931   0.144   3.439   7.251 -0.9702 -0.1318 -0.9280
 8433SOL    HW136932   0.136   3.357   7.298 -1.4959 -0.0116 -0.8138
 8433SOL    HW236933   0.239   3.448   7.245 -0.8259  0.3385  2.0174
 8434SOL     OW36934   0.679   0.836   7.547  0.4870 -0.0736  0.5997
 8434SOL    HW136935   0.673   0.772   7.475 -1.1538  2.5326 -1.5889
 8434SOL    HW236936   0.774   0.845   7.557  0.6112  0.2132 -0.7650
 8435SOL     OW36937   0.684   4.232   4.762 -0.3560 -0.5185  0.2170
 8435SOL    HW136938   0.702   4.139   4.775 -0.3519 -0.6060 -0.4116
 8435SOL    HW236939   0.706   4.235   4.669  0.5210 -1.7770  0.3782
 8436SOL     OW36940   1.297   1.829   1.261  0.0867 -0.5975  0.3750
 8436SOL    HW136941   1.275   1.874   1.342 -0.3930 -2.1304  1.0879
 8436SOL    HW236942   1.331   1.746   1.295  0.3236 -0.5117  0.3502
 8437SOL     OW36943   1.861   2.457   3.598  0.3364 -0.2133 -0.3444
 8437SOL    HW136944   1.795   2.398   3.635  0.8982 -1.5548 -1.4675
 8437SOL    HW236945   1.857   2.532   3.657 -0.3282 -0.0364 -0.6118
 8438SOL     OW36946   3.952   4.555   6.356 -0.4720 -0.8691 -0.0236
 8438SOL    HW136947   3.944   4.615   6.430  1.1603  0.5260 -0.9675
 8438SOL    HW236948   3.992   4.605   6.285 -0.1708 -0.6223  0.3207
 8439SOL     OW36949   3.580   1.216  15.641 -0.0235 -0.1871  0.8010
 8439SOL    HW136950   3.625   1.194  15.722  0.8181  1.7462  0.8658
 8439SOL    HW236951   3.656   1.235  15.586 -0.4000 -0.4839  0.1753
 8440SOL     OW36952   4.516   1.098   9.112 -0.3183 -0.2289  0.1541
 8440SOL    HW136953   4.463   1.132   9.184  0.3140  2.1387 -0.5013
 8440SOL    HW236954   4.469   1.015   9.106 -0.8493  0.0254  0.7111
 8441SOL     OW36955   1.552   3.003   6.055  0.1187 -0.1269  0.1403
 8441SOL    HW136956   1.605   3.071   6.012 -0.0161  0.2204  0.5261
 8441SOL    HW236957   1.618   2.960   6.110  2.5715 -0.1480 -2.8094
 8442SOL     OW36958   2.921   2.512   7.422  0.0148  0.1758  0.7565
 8442SOL    HW136959   2.872   2.594   7.409  3.1856  2.1157  0.9783
 8442SOL    HW236960   2.999   2.526   7.368 -1.1569  3.5356 -0.0716
 8443SOL     OW36961   3.549   1.170   2.925 -0.2392  0.2197 -0.0378
 8443SOL    HW136962   3.476   1.137   2.872 -1.9838  1.6598  1.4721
 8443SOL    HW236963   3.532   1.144   3.015 -0.0524  0.8702  0.1838
 8444SOL     OW36964   3.783   4.549   8.358 -0.0965  0.6770  0.3117
 8444SOL    HW136965   3.744   4.546   8.445 -1.2891 -0.5408 -0.2609
 8444SOL    HW236966   3.800   4.455   8.363  1.2307  0.8319 -1.5579
 8445SOL     OW36967   2.814   4.074   2.768  0.7929  0.4367  0.5978
 8445SOL    HW136968   2.735   4.066   2.822 -1.7025  1.0262 -2.8963
 8445SOL    HW236969   2.876   4.128   2.816  0.4807  1.8244 -0.5453
 8446SOL     OW36970   0.796   2.155  12.699  0.1204 -0.0338 -0.1039
 8446SOL    HW136971   0.747   2.205  12.764 -2.1775 -2.8052  0.2978
 8446SOL    HW236972   0.727   2.089  12.703  0.2978 -0.3324 -2.1809
 8447SOL     OW36973   2.584   0.996   6.371  0.6268  0.5734  0.1522
 8447SOL    HW136974   2.557   0.968   6.459  2.3110 -1.1026  0.1449
 8447SOL    HW236975   2.504   0.976   6.322 -0.1850  1.3400  1.1665
 8448SOL     OW36976   1.624   0.569   9.254  0.6500 -0.0976 -0.2251
 8448SOL    HW136977   1.652   0.654   9.219 -0.2733  0.6204  0.7715
 8448SOL    HW236978   1.528   0.573   9.250  0.5635 -1.5435  0.7954
 8449SOL     OW36979   2.123   3.771   8.969 -0.3483 -0.1454 -0.3249
 8449SOL    HW136980   2.059   3.836   8.996 -1.7437 -1.7425  0.1864
 8449SOL    HW236981   2.064   3.700   8.995 -0.0044 -0.7550 -1.1736
 8450SOL     OW36982   0.319   2.976   2.109  0.6985 -0.1983 -0.3756
 8450SOL    HW136983   0.247   2.919   2.083  1.4181 -2.4500  2.4600
 8450SOL    HW236984   0.372   2.984   2.030 -2.2402  0.5532 -2.2155
 8451SOL     OW36985   0.288   0.520   4.194 -0.7109 -0.4670  0.5646
 8451SOL    HW136986   0.274   0.615   4.201  2.5480  0.0992 -0.7906
 8451SOL    HW236987   0.313   0.500   4.284  1.7735 -0.7347 -0.1924
 8452SOL     OW36988   1.410   3.333   2.514  0.1930 -0.2943  0.0319
 8452SOL    HW136989   1.377   3.243   2.508  1.8717 -1.1397  3.8625
 8452SOL    HW236990   1.325   3.378   2.517 -1.6671 -3.7194 -0.6959
 8453SOL     OW36991   1.011   0.943   5.826  0.2037  0.3428 -0.2488
 8453SOL    HW136992   0.927   0.929   5.871  0.7204 -2.2605 -0.0860
 8453SOL    HW236993   1.074   0.916   5.893  2.5529  1.2968 -2.0857
 8454SOL     OW36994   1.992   2.187  11.031  0.3429 -0.0129 -0.4508
 8454SOL    HW136995   2.074   2.161  11.073  1.2753  0.3765 -2.0094
 8454SOL    HW236996   1.950   2.103  11.047 -1.5026  0.8796 -0.6317
 8455SOL     OW36997   2.406   1.713   1.097 -0.4642  0.4477 -0.0182
 8455SOL    HW136998   2.489   1.749   1.127 -1.5006  3.0108 -0.2812
 8455SOL    HW236999   2.344   1.785   1.104 -0.5203  0.4065 -0.0900
 8456SOL     OW37000   2.846   4.547  10.083  0.0818  0.3175 -0.0418
 8456SOL    HW137001   2.784   4.528  10.012 -1.9771  1.6656  1.3907
 8456SOL    HW237002   2.829   4.480  10.149  1.2256  1.3393  1.2761
 8457SOL     OW37003   4.438   2.663   3.012  0.1935 -0.0911  0.6465
 8457SOL    HW137004   4.395   2.748   3.017  0.7102  0.1947  0.3209
 8457SOL    HW237005   4.436   2.654   2.917 -4.2846  1.5076  0.5908
 8458SOL     OW37006   3.897   1.458  13.723 -0.6374 -0.1065  0.2101
 8458SOL    HW137007   3.842   1.434  13.648 -1.2849  1.3906  0.2089
 8458SOL    HW237008   3.973   1.399  13.723  0.1125  0.8598  0.0550
 8459SOL     OW37009   1.560   1.734   2.841  0.4667  0.1955 -0.0944
 8459SOL    HW137010   1.545   1.660   2.899  0.1667  0.6802  0.4525
 8459SOL    HW237011   1.655   1.735   2.855  0.2208 -1.9953  1.6642
 8460SOL     OW37012   3.091   1.667  17.599 -0.3843 -0.5495 -0.0502
 8460SOL    HW137013   3.105   1.727  17.672  0.5196 -1.1956  0.2977
 8460SOL    HW237014   3.168   1.684  17.546 -1.2816 -1.5470 -1.6578
 8461SOL     OW37015   3.781   1.766  14.740  0.5686  0.7071  0.1270
 8461SOL    HW137016   3.696   1.748  14.699  1.8438 -1.5126 -1.5819
 8461SOL    HW237017   3.830   1.785  14.660  1.2039  1.3448  0.6753
 8462SOL     OW37018   1.766   1.302   8.452  0.2164 -0.1080 -0.1595
 8462SOL    HW137019   1.751   1.360   8.526 -0.1772 -1.8885  1.1634
 8462SOL    HW237020   1.674   1.284   8.433 -0.2925  1.7747  0.5663
 8463SOL     OW37021   1.230   3.097   9.345 -0.4088  0.7694  0.5998
 8463SOL    HW137022   1.171   3.148   9.401 -2.6418 -0.5055 -0.5755
 8463SOL    HW237023   1.173   3.021   9.329 -0.2555  1.4559 -3.2673
 8464SOL     OW37024   1.713   1.775   3.449 -0.4673  0.2438  0.4384
 8464SOL    HW137025   1.693   1.809   3.362 -0.1442  0.6295  0.5135
 8464SOL    HW237026   1.667   1.690   3.447  2.0884 -1.1003 -1.0955
 8465SOL     OW37027   2.198   2.009   9.752 -0.4342 -0.1298 -0.4813
 8465SOL    HW137028   2.140   1.965   9.815 -0.0259  0.8600  0.6026
 8465SOL    HW237029   2.277   1.956   9.765 -0.1451  0.2289 -0.7802
 8466SOL     OW37030   1.202   1.608   4.750 -0.9681 -0.2174  0.0185
 8466SOL    HW137031   1.139   1.657   4.802 -1.0008 -1.8912  1.5400
 8466SOL    HW237032   1.138   1.579   4.685  0.6261  0.9166 -2.0584
 8467SOL     OW37033   1.545   2.925   7.206  0.5378  0.1624 -0.2308
 8467SOL    HW137034   1.590   2.844   7.183  0.7357 -0.0139  0.7953
 8467SOL    HW237035   1.602   2.999   7.182 -1.6147  0.6045 -4.0011
 8468SOL     OW37036   2.498   4.028   0.546  0.1695 -0.1592 -0.0216
 8468SOL    HW137037   2.452   3.981   0.615  1.9639 -1.6535  0.1467
 8468SOL    HW237038   2.427   4.067   0.495  1.3364  1.8102 -0.1393
 8469SOL     OW37039   1.578   3.059   2.667  0.2188 -0.0387  0.0227
 8469SOL    HW137040   1.639   3.078   2.596  1.5727 -0.9462  0.9463
 8469SOL    HW237041   1.494   3.073   2.625 -0.4909 -0.1273  1.4095
 8470SOL     OW37042   3.391   0.565   1.034 -0.8670 -0.2899  0.3407
 8470SOL    HW137043   3.346   0.521   1.107 -1.9098 -0.5317 -0.4423
 8470SOL    HW237044   3.365   0.656   1.051  1.4028  0.7697 -2.1064
 8471SOL     OW37045   2.177   0.911   8.555  0.3069 -0.6545 -0.6992
 8471SOL    HW137046   2.123   0.865   8.491 -0.7771 -1.6663  0.9370
 8471SOL    HW237047   2.112   0.975   8.586  0.1824 -0.8358 -0.5840
 8472SOL     OW37048   0.675   2.381  16.984 -0.0728  0.4876  0.3021
 8472SOL    HW137049   0.587   2.351  17.006 -0.2637  0.7434 -0.1116
 8472SOL    HW237050   0.668   2.413  16.894 -0.4056 -1.2296 -0.2972
 8473SOL     OW37051   4.137   4.389   0.584 -0.0065  0.0468 -0.4401
 8473SOL    HW137052   4.217   4.421   0.542  1.1274 -2.7677 -0.4006
 8473SOL    HW237053   4.159   4.301   0.614  0.9185  0.1049 -0.9600
 8474SOL     OW37054   3.036   1.949   8.196  0.2142 -0.2676  0.2601
 8474SOL    HW137055   2.957   1.906   8.228  1.4973 -1.0229  2.4421
 8474SOL    HW237056   3.105   1.945   8.263  1.0689  0.2462 -0.5851
 8475SOL     OW37057   2.811   3.837   0.474 -0.1649 -0.2019 -0.0397
 8475SOL    HW137058   2.737   3.803   0.525  1.3006 -1.6999  1.0717
 8475SOL    HW237059   2.765   3.848   0.390 -1.3460 -3.5975  0.1520
 8476SOL     OW37060   4.620   3.113   9.293  0.1912 -0.1259  0.2348
 8476SOL    HW137061   4.662   3.194   9.321 -1.6367  0.7408  0.4874
 8476SOL    HW237062   4.676   3.056   9.346  0.4839  0.6453  0.7596
 8477SOL     OW37063   0.001   3.352  10.622  0.0981 -0.1338 -0.1623
 8477SOL    HW137064   0.053   3.416  10.671  1.4366 -1.4650  0.1723
 8477SOL    HW237065   4.664   3.405  10.602 -0.7120 -1.8535 -1.5834
 8478SOL     OW37066   0.627   3.743   1.599  0.2179  0.2652  0.1224
 8478SOL    HW137067   0.560   3.727   1.533  1.3596  2.4885 -1.5558
 8478SOL    HW237068   0.643   3.653   1.628  1.4245  0.8549  1.2997
 8479SOL     OW37069   0.104   1.514   2.903 -0.5596  0.1704  0.0988
 8479SOL    HW137070   0.042   1.561   2.848 -1.6289 -0.3476  0.8740
 8479SOL    HW237071   0.172   1.580   2.917 -1.1680  0.8200 -0.0042
 8480SOL     OW37072   0.218   4.438   5.198  0.4407  0.4908 -0.0687
 8480SOL    HW137073   0.312   4.458   5.188  0.1461  1.8409 -0.1720
 8480SOL    HW237074   0.209   4.399   5.111  0.6807 -1.1618  0.6368
 8481SOL     OW37075   2.916   4.202   6.978 -0.3519  0.1290  0.6157
 8481SOL    HW137076   2.868   4.278   7.011 -1.0762 -0.0212 -0.1023
 8481SOL    HW237077   2.868   4.178   6.898  1.7644 -0.0730 -0.5953
 8482SOL     OW37078   4.667   0.170   4.942 -0.2043  0.2277  0.5084
 8482SOL    HW137079   4.699   0.125   5.019  0.1100 -0.3063  0.0673
 8482SOL    HW237080   4.635   0.250   4.984  2.8900  0.2396  2.8539
 8483SOL     OW37081   2.391   4.117   8.896  0.2386 -0.0015  0.7746
 8483SOL    HW137082   2.381   4.047   8.960 -0.0726 -0.8719 -0.2211
 8483SOL    HW237083   2.476   4.094   8.858 -0.2290  2.3170 -1.6761
 8484SOL     OW37084   2.368   3.130   2.881 -0.0185 -0.4153 -0.2259
 8484SOL    HW137085   2.284   3.152   2.923 -0.2470  0.0145 -0.9143
 8484SOL    HW237086   2.362   3.169   2.794  0.2177 -3.1597 -1.4647
 8485SOL     OW37087   4.469   2.586   7.995 -0.0311  0.2835  0.2517
 8485SOL    HW137088   4.514   2.670   8.007  0.4495 -0.1432  1.3873
 8485SOL    HW237089   4.525   2.519   8.034  0.0581  0.0297 -0.3209
 8486SOL     OW37090   0.839   0.611  13.652  0.4511  0.1824 -0.7521
 8486SOL    HW137091   0.921   0.656  13.630  1.8272 -1.5860  0.7560
 8486SOL    HW237092   0.787   0.620  13.573  0.5837  1.2567 -0.7167
 8487SOL     OW37093   2.452   4.431   1.896  0.4144 -0.7092  0.2468
 8487SOL    HW137094   2.421   4.354   1.942 -0.4814 -0.2930  0.3398
 8487SOL    HW237095   2.543   4.442   1.923  0.0075  1.7910  0.6012
 8488SOL     OW37096   3.276   2.238  12.156 -0.3273  0.0768 -0.1497
 8488SOL    HW137097   3.187   2.215  12.182 -0.0684 -2.2946 -1.4006
 8488SOL    HW237098   3.273   2.332  12.171  1.3896  0.1688 -0.4179
 8489SOL     OW37099   1.143   4.206   9.082 -0.0165 -0.1657 -0.6462
 8489SOL    HW137100   1.110   4.141   9.020  2.3211 -1.0889 -0.9323
 8489SOL    HW237101   1.123   4.169   9.168 -0.5035 -0.5974 -0.9483
 8490SOL     OW37102   1.026   1.443  16.251  0.0686 -0.5349  0.4479
 8490SOL    HW137103   1.077   1.400  16.319  0.3527  0.8052  1.0811
 8490SOL    HW237104   1.090   1.509  16.224  1.8997 -1.7663  1.7888
 8491SOL     OW37105   1.642   1.274   5.725 -0.1819 -0.2895 -0.6264
 8491SOL    HW137106   1.591   1.228   5.659 -2.1719 -1.5852  1.8106
 8491SOL    HW237107   1.713   1.211   5.740 -0.6527 -0.3512  1.4154
 8492SOL     OW37108   0.086   0.664   6.151  0.0883 -0.4780  0.0575
 8492SOL    HW137109   0.089   0.739   6.091 -2.2127  0.1035  0.6819
 8492SOL    HW237110   0.150   0.609   6.107 -0.6304 -0.0618 -1.4944
 8493SOL     OW37111   0.015   2.183   2.113  0.5085  0.2951 -0.3908
 8493SOL    HW137112   0.089   2.208   2.168  1.6396  2.0563 -2.6900
 8493SOL    HW237113   0.061   2.120   2.057 -1.9237 -2.0546  0.2561
 8494SOL     OW37114   2.011   3.524   4.241  0.3189 -0.4996  0.4477
 8494SOL    HW137115   2.092   3.529   4.190 -0.6769  1.4348 -0.9401
 8494SOL    HW237116   1.943   3.520   4.174  0.0107 -0.6011  0.7623
 8495SOL     OW37117   1.515   1.402   4.738  0.5207 -0.2407 -0.5198
 8495SOL    HW137118   1.606   1.398   4.707  0.7483 -0.4121  0.1666
 8495SOL    HW237119   1.493   1.489   4.706  0.2307 -0.9448 -2.2976
 8496SOL     OW37120   0.028   3.687   3.385 -0.3770  0.3976  0.1634
 8496SOL    HW137121   0.055   3.619   3.446 -0.2478  0.8255  0.5857
 8496SOL    HW237122   0.066   3.766   3.423 -2.4926  1.0583  0.9503
 8497SOL     OW37123   2.545   3.330   9.104 -0.2368 -0.4322 -0.3277
 8497SOL    HW137124   2.457   3.359   9.130  0.1086  0.4488 -0.1324
 8497SOL    HW237125   2.538   3.261   9.038  0.0972 -0.5421 -0.2435
 8498SOL     OW37126   4.626   0.524   0.599 -0.3038  0.5268  0.2367
 8498SOL    HW137127   4.718   0.497   0.600 -0.1882  0.8801 -0.7613
 8498SOL    HW237128   4.603   0.506   0.508 -2.1656  0.7152  0.6723
 8499SOL     OW37129   2.597   1.945   2.954  0.4651  0.0388 -0.4258
 8499SOL    HW137130   2.588   1.974   2.863  0.3899  0.7002 -0.2020
 8499SOL    HW237131   2.582   1.851   2.943 -2.1156  0.5347 -1.1512
 8500SOL     OW37132   4.227   3.764   2.216 -0.4441 -0.1460  0.1509
 8500SOL    HW137133   4.150   3.781   2.270 -1.0877  0.0731 -0.8244
 8500SOL    HW237134   4.295   3.822   2.249  0.6577 -1.5520  0.3435
 8501SOL     OW37135   4.332   4.197   5.809 -0.4041  0.0860 -0.3214
 8501SOL    HW137136   4.409   4.175   5.862 -1.6918 -0.5933  1.2463
 8501SOL    HW237137   4.366   4.184   5.721  0.7418 -0.6918  0.2351
 8502SOL     OW37138   4.515   2.675   6.583 -0.1094 -0.4708 -0.2561
 8502SOL    HW137139   4.500   2.587   6.546 -2.3020  0.0522 -0.5807
 8502SOL    HW237140   4.610   2.685   6.578  0.1203 -1.8022  1.4931
 8503SOL     OW37141   0.342   2.702  13.061 -0.1632 -0.4236 -0.1109
 8503SOL    HW137142   0.428   2.717  13.099 -0.4096  2.6669 -0.7481
 8503SOL    HW237143   0.328   2.787  13.020 -1.4881 -0.6242 -0.0796
 8504SOL     OW37144   0.522   4.555   8.341 -0.0430 -0.2467 -0.2445
 8504SOL    HW137145   0.532   4.478   8.285  0.4560 -0.4865  0.1736
 8504SOL    HW237146   0.426   4.551   8.348 -0.0192 -1.1460 -0.4242
 8505SOL     OW37147   3.147   0.938   2.528  0.4814 -0.4606  0.2108
 8505SOL    HW137148   3.120   0.938   2.436  0.2682 -1.1181  0.2713
 8505SOL    HW237149   3.240   0.958   2.515 -0.0854  1.6664 -0.6870
 8506SOL     OW37150   0.943   2.047  12.483 -0.3789  0.2143  0.4471
 8506SOL    HW137151   0.899   2.100  12.549 -0.5395  0.7012 -0.0586
 8506SOL    HW237152   0.908   2.091  12.406  0.0489 -1.9814 -0.9998
 8507SOL     OW37153   1.891   2.494   2.882  0.8218  0.3508 -0.1936
 8507SOL    HW137154   1.977   2.478   2.841 -0.1137 -1.8043 -1.3297
 8507SOL    HW237155   1.916   2.493   2.974  1.4456 -1.2625 -0.3797
 8508SOL     OW37156   2.407   3.698  14.178  0.6529 -0.5530  0.2828
 8508SOL    HW137157   2.478   3.749  14.138  2.6016 -1.9341  1.9839
 8508SOL    HW237158   2.430   3.667  14.266  2.4917 -2.1334 -0.7484
 8509SOL     OW37159   2.991   0.520  14.585  0.4539 -0.1030  0.2955
 8509SOL    HW137160   2.902   0.556  14.584  0.3939 -0.2609 -0.6177
 8509SOL    HW237161   2.986   0.461  14.660 -0.6800 -0.7176 -0.2554
 8510SOL     OW37162   1.834   3.641  11.292  0.1445  0.5275 -0.0263
 8510SOL    HW137163   1.851   3.735  11.293 -2.3814  0.9983 -1.1118
 8510SOL    HW237164   1.745   3.634  11.258 -0.5951  0.2912  1.9712
 8511SOL     OW37165   4.285   3.521   6.934  0.7677  0.3725  0.1086
 8511SOL    HW137166   4.283   3.501   6.841  0.6350 -2.5000  0.7311
 8511SOL    HW237167   4.207   3.470   6.956  2.1947 -1.3946  1.0677
 8512SOL     OW37168   0.607   1.066   1.183  0.3010 -0.3416 -0.1370
 8512SOL    HW137169   0.577   1.126   1.251  0.7254  1.1641 -1.2631
 8512SOL    HW237170   0.698   1.096   1.180  0.7733 -1.4720  3.4400
 8513SOL     OW37171   2.928   1.852   6.505 -0.1832  0.5681 -0.1516
 8513SOL    HW137172   2.906   1.769   6.463 -2.7404  1.9823 -1.6426
 8513SOL    HW237173   2.981   1.902   6.442  0.0827  1.4278  0.7529
 8514SOL     OW37174   0.104   4.602  16.448  0.0871  0.4288  0.4732
 8514SOL    HW137175   0.134   4.512  16.461 -0.7368  0.3094  1.4887
 8514SOL    HW237176   0.153   4.628  16.370 -1.3031  0.9874 -0.2098
 8515SOL     OW37177   1.136   3.286   9.530 -0.4535 -0.6491  0.0640
 8515SOL    HW137178   1.074   3.346   9.572  0.0732  0.6502 -1.0298
 8515SOL    HW237179   1.217   3.337   9.524 -1.1686  0.1338 -2.7016
 8516SOL     OW37180   0.938   1.283   6.055 -0.0303  0.1153 -0.0747
 8516SOL    HW137181   0.889   1.344   6.000  1.2680  2.4148  1.3151
 8516SOL    HW237182   0.876   1.227   6.102  1.3360  0.0363  1.6229
 8517SOL     OW37183   2.132   3.251   1.832  0.3629  0.2238 -0.4778
 8517SOL    HW137184   2.037   3.267   1.824  0.4870  1.0641 -0.2974
 8517SOL    HW237185   2.141   3.160   1.803 -0.0385  0.4093 -1.2017
 8518SOL     OW37186   0.062   0.738  14.382  0.1581 -0.1685  0.1156
 8518SOL    HW137187   0.118   0.662  14.397 -2.2518 -2.2492 -1.2938
 8518SOL    HW237188   4.715   0.698  14.395  0.5032 -0.9457  0.0117
 8519SOL     OW37189   1.024   2.662   7.388  0.1905  0.1382 -0.1571
 8519SOL    HW137190   1.021   2.748   7.431  0.0142  1.7286 -3.3908
 8519SOL    HW237191   1.113   2.662   7.353 -0.1778  0.9102 -1.0840
 8520SOL     OW37192   0.790   1.810   2.218 -0.2864 -1.0466 -0.1495
 8520SOL    HW137193   0.756   1.847   2.136 -0.3877 -0.1617  0.2845
 8520SOL    HW237194   0.733   1.856   2.281 -0.1649  0.3204 -1.0167
 8521SOL     OW37195   1.307   0.453   5.435  0.4280  0.1609 -0.4413
 8521SOL    HW137196   1.254   0.528   5.461  1.1817  0.3860  0.4431
 8521SOL    HW237197   1.335   0.482   5.348  2.6171  0.1816  0.2756
 8522SOL     OW37198   2.395   2.441   6.166  0.1133  0.1502 -0.4652
 8522SOL    HW137199   2.364   2.353   6.187  0.4148 -0.0146 -0.7184
 8522SOL    HW237200   2.442   2.420   6.085 -0.4009 -2.0139 -0.1857
 8523SOL     OW37201   4.082   3.916   7.647 -0.1993  0.0238 -0.2521
 8523SOL    HW137202   4.090   3.823   7.666  1.9640  0.7084  2.3165
 8523SOL    HW237203   4.151   3.930   7.582 -0.7788 -1.3648 -1.1546
 8524SOL     OW37204   3.651   3.066   4.585  0.0552  0.1770  0.3255
 8524SOL    HW137205   3.672   3.021   4.667  0.2414 -2.8232 -1.3674
 8524SOL    HW237206   3.582   3.126   4.614 -0.4090  0.5616 -1.5886
 8525SOL     OW37207   3.330   0.265   4.239  0.3278  0.0639  0.6747
 8525SOL    HW137208   3.276   0.318   4.297 -0.0971  1.7212 -1.2530
 8525SOL    HW237209   3.389   0.213   4.293 -1.5042  0.0324  2.6435
 8526SOL     OW37210   3.947   0.818   6.942 -0.4989 -0.4137 -0.0708
 8526SOL    HW137211   3.961   0.824   6.848 -1.1510  1.0195 -0.0784
 8526SOL    HW237212   4.016   0.754   6.961  1.7916  2.0491 -0.0837
 8527SOL     OW37213   1.661   2.819   9.268 -0.0047 -0.1178 -0.2918
 8527SOL    HW137214   1.665   2.907   9.229 -1.2983 -0.3894 -1.0638
 8527SOL    HW237215   1.606   2.775   9.203 -0.3154  0.3291 -0.3347
 8528SOL     OW37216   4.203   3.868   8.962  0.0777  0.7027  0.5255
 8528SOL    HW137217   4.222   3.776   8.980 -0.5908  0.4548 -0.0275
 8528SOL    HW237218   4.274   3.894   8.902  0.3140  3.2263  1.8964
 8529SOL     OW37219   1.862   1.574   9.108 -0.6362 -0.0123 -0.3148
 8529SOL    HW137220   1.945   1.621   9.101 -0.4051 -0.8830 -3.1647
 8529SOL    HW237221   1.855   1.587   9.203  2.4918  0.7886 -0.1840
 8530SOL     OW37222   1.531   0.797   9.470  0.0542 -0.5483  0.4815
 8530SOL    HW137223   1.592   0.725   9.489 -1.0413 -0.7846  3.1544
 8530SOL    HW237224   1.581   0.877   9.485  0.0806 -0.2005 -1.4497
 8531SOL     OW37225   0.961   0.139  16.064 -0.4516  0.6136  0.3074
 8531SOL    HW137226   1.028   0.076  16.036 -0.7118 -1.0299  3.3483
 8531SOL    HW237227   0.997   0.198  16.131 -0.7129 -0.3993  1.3467
 8532SOL     OW37228   0.395   1.320   0.723  0.2048 -0.4230 -0.5230
 8532SOL    HW137229   0.478   1.277   0.702  0.5673 -0.0195  0.0825
 8532SOL    HW237230   0.365   1.358   0.641  1.7658 -2.0558 -1.8620
 8533SOL     OW37231   3.641   2.737   9.986  0.0136  0.2963 -0.0678
 8533SOL    HW137232   3.678   2.722  10.073 -3.6108 -0.2463  1.4180
 8533SOL    HW237233   3.554   2.696   9.988  0.9059 -1.6308 -1.4002
 8534SOL     OW37234   4.449   2.929   3.647 -0.3244  0.1442 -0.7850
 8534SOL    HW137235   4.396   2.988   3.595 -0.4807  0.0545 -0.7257
 8534SOL    HW237236   4.517   2.987   3.683 -0.6526  0.5521 -0.8184
 8535SOL     OW37237   0.778   1.694   5.571 -0.1028  0.3426  0.0751
 8535SOL    HW137238   0.828   1.776   5.571 -1.0372  0.9159  0.8880
 8535SOL    HW237239   0.728   1.714   5.650  4.2336 -0.8113  3.1223
 8536SOL     OW37240   0.603   0.511   7.201  0.0628  0.1585 -0.1313
 8536SOL    HW137241   0.638   0.423   7.217  0.4008  0.5487  1.2685
 8536SOL    HW237242   0.511   0.493   7.181  0.3383 -1.9250  0.3980
 8537SOL     OW37243   2.543   1.974   3.740 -0.0903 -0.1069 -0.0364
 8537SOL    HW137244   2.504   1.888   3.723 -0.1045  0.5775 -3.5959
 8537SOL    HW237245   2.489   2.010   3.810  0.6155 -1.3395  1.1434
 8538SOL     OW37246   2.057   1.672   9.951 -0.4674  0.1955 -0.0101
 8538SOL    HW137247   2.004   1.681   9.872 -1.5245 -0.1669  0.6414
 8538SOL    HW237248   1.994   1.702  10.017 -0.6631  0.2086 -0.2005
 8539SOL     OW37249   3.916   1.888   3.543 -0.2852  0.1748 -0.0095
 8539SOL    HW137250   3.885   1.977   3.558 -1.7811 -0.8263  2.8521
 8539SOL    HW237251   4.000   1.897   3.588  0.0683 -0.7924 -0.4804
 8540SOL     OW37252   3.551   1.791   4.692  0.1203 -0.5534  0.4049
 8540SOL    HW137253   3.558   1.808   4.598 -1.3840 -1.8679  0.0444
 8540SOL    HW237254   3.602   1.865   4.723  1.1586 -0.7341 -0.8660
 8541SOL     OW37255   1.071   3.619   8.389 -0.3858  0.1734  0.4473
 8541SOL    HW137256   1.030   3.562   8.324  0.2431  0.8651 -0.5536
 8541SOL    HW237257   1.027   3.581   8.465  0.9145 -1.1734  0.5313
 8542SOL     OW37258   3.756   1.707   9.171  0.0553 -0.1199  0.0785
 8542SOL    HW137259   3.791   1.635   9.119 -1.5520 -1.1191  0.3838
 8542SOL    HW237260   3.826   1.770   9.155  0.5038 -0.7393 -0.4089
 8543SOL     OW37261   4.257   2.468   2.120 -0.6181  0.1006 -0.1641
 8543SOL    HW137262   4.285   2.447   2.032 -0.7523  0.7804 -0.3721
 8543SOL    HW237263   4.254   2.379   2.154 -1.0344 -0.7400 -2.4550
 8544SOL     OW37264   2.965   1.348   4.228 -0.1516  0.3328 -0.0405
 8544SOL    HW137265   2.944   1.372   4.138  1.0901 -0.7027 -0.6169
 8544SOL    HW237266   3.056   1.317   4.219 -0.1863  0.3008 -0.2800
 8545SOL     OW37267   3.889   1.778   5.568  0.1868  0.2624  0.0695
 8545SOL    HW137268   3.822   1.710   5.559 -1.7295  2.0865  0.6138
 8545SOL    HW237269   3.880   1.826   5.486  1.8074  2.4724  1.2058
 8546SOL     OW37270   2.594   0.196  11.320 -0.6650 -0.7249 -0.1053
 8546SOL    HW137271   2.509   0.166  11.287  0.9383 -0.8751 -4.1229
 8546SOL    HW237272   2.633   0.111  11.299 -1.0712 -1.1846  1.0006
 8547SOL     OW37273   1.252   2.281   8.530  0.1634  0.5650 -0.3010
 8547SOL    HW137274   1.326   2.279   8.469  0.6948  0.6368  0.3455
 8547SOL    HW237275   1.250   2.190   8.558 -0.2446  0.1674 -1.5966
 8548SOL     OW37276   1.551   1.352   9.679  0.1493  0.2656 -0.1829
 8548SOL    HW137277   1.507   1.376   9.597 -2.4891  1.8523  1.6959
 8548SOL    HW237278   1.610   1.286   9.643  1.5003  0.1396  2.2960
 8549SOL     OW37279   2.213   1.147   2.302  0.6440 -0.8751  0.0739
 8549SOL    HW137280   2.283   1.204   2.335 -0.4480  0.9087 -0.7052
 8549SOL    HW237281   2.142   1.180   2.357 -0.3086  0.0210 -1.7085
 8550SOL     OW37282   3.015   2.884  16.120 -0.0300  0.0971 -0.5549
 8550SOL    HW137283   3.093   2.933  16.094 -1.4684  1.4910 -2.2921
 8550SOL    HW237284   2.964   2.954  16.162 -1.7112 -0.3741 -1.8288
 8551SOL     OW37285   0.093   3.629   9.244  0.5119  0.0364  0.5743
 8551SOL    HW137286   0.072   3.721   9.228  0.3981  0.0383  0.7316
 8551SOL    HW237287   0.183   3.648   9.269  0.4890 -0.0381  0.7138
 8552SOL     OW37288   4.571   0.580   6.054  0.0912 -0.2352  0.1327
 8552SOL    HW137289   4.645   0.615   6.103  0.3892 -1.0854  0.2803
 8552SOL    HW237290   4.597   0.611   5.968 -0.1396 -1.1392 -0.2669
 8553SOL     OW37291   2.878   2.837   5.289  0.4628  0.9524  0.7210
 8553SOL    HW137292   2.860   2.837   5.383 -2.3215 -2.4953  0.2175
 8553SOL    HW237293   2.965   2.798   5.285  0.0079  0.1403 -1.2655
 8554SOL     OW37294   2.865   0.691   0.910 -0.3812 -0.0753  0.3632
 8554SOL    HW137295   2.865   0.786   0.914  0.2355 -0.0713  0.2787
 8554SOL    HW237296   2.865   0.688   0.814 -2.4352 -1.8058  0.4272
 8555SOL     OW37297   3.184   0.830   4.920 -0.2423 -0.0087 -0.5717
 8555SOL    HW137298   3.145   0.818   5.006 -1.3337  2.3395 -0.7286
 8555SOL    HW237299   3.119   0.884   4.875 -0.2673  1.4864  1.2405
 8556SOL     OW37300   3.061   0.589   4.865 -0.6675 -0.3459 -0.2414
 8556SOL    HW137301   3.007   0.667   4.859 -2.5624 -1.5513  1.2117
 8556SOL    HW237302   3.096   0.570   4.778  2.5963  0.9245  0.8195
 8557SOL     OW37303   1.832   1.597  15.861  0.3407  0.7947  0.0404
 8557SOL    HW137304   1.773   1.581  15.934  0.8409 -0.6018  0.1374
 8557SOL    HW237305   1.825   1.689  15.833  0.2688  1.2526  1.5667
 8558SOL     OW37306   4.454   0.817   9.117  0.4346  0.7527 -0.3129
 8558SOL    HW137307   4.485   0.756   9.050 -1.8518  1.6393 -2.1799
 8558SOL    HW237308   4.510   0.773   9.181  1.1861  2.3648  0.1292
 8559SOL     OW37309   3.300   0.655  12.603 -0.0124  0.0597 -0.5011
 8559SOL    HW137310   3.371   0.667  12.666 -0.0087  0.3294 -0.5555
 8559SOL    HW237311   3.227   0.684  12.658 -0.4923  0.9578 -1.6052
 8560SOL     OW37312   0.939   3.234   9.902  0.1007  0.1015  0.8871
 8560SOL    HW137313   0.905   3.294   9.968 -0.1680  0.5334  0.3637
 8560SOL    HW237314   0.994   3.175   9.953  0.9763 -0.8623 -1.1377
 8561SOL     OW37315   2.184   0.246  12.977  0.1913 -0.6285  0.1457
 8561SOL    HW137316   2.148   0.200  13.053  0.3629 -0.6302  0.2263
 8561SOL    HW237317   2.098   0.256  12.936  0.2193  1.5720  0.6079
 8562SOL     OW37318   2.445   1.134  11.154  0.3065  0.3613  0.0060
 8562SOL    HW137319   2.531   1.166  11.181 -0.1995  1.7174  0.0243
 8562SOL    HW237320   2.399   1.097  11.229  2.0170  0.1962  0.9543
 8563SOL     OW37321   4.137   4.661   3.480  1.1735  0.1046  0.2151
 8563SOL    HW137322   4.121   4.627   3.392  2.1593  1.4543 -0.4735
 8563SOL    HW237323   4.053   4.702   3.501  0.2315 -1.5782 -0.2412
 8564SOL     OW37324   4.282   3.929   5.855 -0.4974 -0.2271 -0.3133
 8564SOL    HW137325   4.286   4.005   5.914 -2.1107 -0.1194 -0.3204
 8564SOL    HW237326   4.269   3.853   5.911  1.4272 -0.3807 -0.1042
 8565SOL     OW37327   3.257   3.881   4.626  0.6626  0.0707  0.1592
 8565SOL    HW137328   3.240   3.845   4.713  0.2496  2.1834  0.9620
 8565SOL    HW237329   3.247   3.800   4.576  0.3629 -0.7880  1.6148
 8566SOL     OW37330   2.271   1.608   7.257  0.1970  0.1093 -0.6973
 8566SOL    HW137331   2.263   1.661   7.336 -1.7468  0.1786 -0.9419
 8566SOL    HW237332   2.360   1.628   7.226  0.7692 -4.2818 -1.9370
 8567SOL     OW37333   1.931   4.330   1.693 -0.2202  0.4878  0.3539
 8567SOL    HW137334   1.920   4.267   1.764 -0.0072  0.2584  0.1851
 8567SOL    HW237335   1.843   4.334   1.656 -0.5531  1.1349  1.2236
 8568SOL     OW37336   4.490   1.650  17.238 -0.1294 -0.2410  0.3734
 8568SOL    HW137337   4.463   1.594  17.311 -0.1608  1.3723  1.5898
 8568SOL    HW237338   4.498   1.584  17.169  0.0041  1.7455 -1.5148
 8569SOL     OW37339   4.625   1.889   5.959 -0.2071 -0.4085 -0.2024
 8569SOL    HW137340   4.554   1.833   5.991 -0.0306 -1.8468 -2.3254
 8569SOL    HW237341   4.694   1.822   5.957 -1.2240 -1.4858  0.7582
 8570SOL     OW37342   1.454   2.040  11.337 -0.0822 -0.1445 -0.1871
 8570SOL    HW137343   1.465   1.945  11.340 -0.6862 -0.1628  1.2221
 8570SOL    HW237344   1.509   2.052  11.260  1.3516 -0.0740  0.8596
 8571SOL     OW37345   4.186   3.141   7.452  0.3395 -0.2532 -0.0385
 8571SOL    HW137346   4.209   3.168   7.541 -0.0753 -1.8898  0.5766
 8571SOL    HW237347   4.247   3.196   7.403 -1.6634 -1.1215 -3.5322
 8572SOL     OW37348   1.976   0.851  10.710 -0.3404 -0.1954 -0.1795
 8572SOL    HW137349   1.988   0.904  10.630 -2.0599  0.5532  0.0645
 8572SOL    HW237350   1.903   0.794  10.688  1.7255 -2.9125  0.0335
 8573SOL     OW37351   3.640   2.250  16.689 -0.4181 -0.2719  0.0401
 8573SOL    HW137352   3.604   2.167  16.658  1.0349 -1.8393  2.4797
 8573SOL    HW237353   3.560   2.302  16.684  0.5272  1.3817  1.6076
 8574SOL     OW37354   1.654   0.639  14.308 -0.3824  0.0935 -0.4734
 8574SOL    HW137355   1.577   0.620  14.255  0.5315 -1.7875 -1.1310
 8574SOL    HW237356   1.711   0.693  14.253 -1.3999  2.0017  0.3509
 8575SOL     OW37357   1.285   4.534   9.055  0.0339 -0.2020  0.4985
 8575SOL    HW137358   1.215   4.556   8.994  2.5911  2.4217 -1.4824
 8575SOL    HW237359   1.346   4.565   8.988 -1.4999 -0.8813 -1.1943
 8576SOL     OW37360   0.439   3.917   4.424 -0.4674 -0.4991 -0.2633
 8576SOL    HW137361   0.352   3.955   4.436 -0.3096  0.5675 -2.6199
 8576SOL    HW237362   0.462   3.892   4.514  0.3552 -0.0972 -0.3722
 8577SOL     OW37363   4.417   4.188  11.822  0.3711  0.2258 -0.2742
 8577SOL    HW137364   4.423   4.170  11.916 -0.0981 -1.0083 -0.4789
 8577SOL    HW237365   4.484   4.257  11.820  0.1802  0.4341  0.3419
 8578SOL     OW37366   0.655   3.114   6.529 -0.5164  0.0997 -0.2702
 8578SOL    HW137367   0.627   3.078   6.613  0.2444  0.2972  0.0639
 8578SOL    HW237368   0.680   3.037   6.478  2.3908  1.0608 -0.2551
 8579SOL     OW37369   0.345   3.104   8.078 -0.1449 -0.3131  0.3516
 8579SOL    HW137370   0.276   3.116   8.142 -1.7228 -1.3372 -1.1585
 8579SOL    HW237371   0.420   3.078   8.132 -1.2931  0.9572  2.5231
 8580SOL     OW37372   1.098   3.503  14.013  0.2041 -0.2734  0.4506
 8580SOL    HW137373   1.176   3.557  13.998  0.1301 -0.2568  0.1371
 8580SOL    HW237374   1.031   3.569  14.030  0.0327 -0.1996 -0.4989
 8581SOL     OW37375   4.017   4.111   9.812  0.6489  0.3601  0.0436
 8581SOL    HW137376   3.960   4.036   9.797  1.6726  0.3095 -3.4701
 8581SOL    HW237377   3.975   4.176   9.757  1.3561  0.5485 -0.2759
 8582SOL     OW37378   3.526   1.911   5.611  0.1951 -0.6388  0.2004
 8582SOL    HW137379   3.526   1.983   5.675  1.3485 -1.0576  0.6898
 8582SOL    HW237380   3.455   1.939   5.554 -0.8317 -0.4851  1.5386
 8583SOL     OW37381   3.660   3.607   3.674 -0.3829  0.0396 -0.7858
 8583SOL    HW137382   3.661   3.645   3.586 -2.4398  1.3250 -0.2652
 8583SOL    HW237383   3.570   3.597   3.706 -1.2988  3.9748 -2.0032
 8584SOL     OW37384   2.221   0.380  14.585  0.2767 -0.1038 -0.1659
 8584SOL    HW137385   2.313   0.355  14.589  0.7023  1.5924  0.7906
 8584SOL    HW237386   2.180   0.306  14.629 -0.9551  1.5252  1.4118
 8585SOL     OW37387   3.222   0.971  11.533 -0.2358 -0.2465  0.0119
 8585SOL    HW137388   3.271   1.033  11.587  1.3678  0.0889 -1.8064
 8585SOL    HW237389   3.133   0.974  11.567  0.4910  2.0419  1.7236
 8586SOL     OW37390   3.645   2.277   4.628  0.7587  1.0054 -0.1411
 8586SOL    HW137391   3.732   2.260   4.591 -0.2701 -1.0118 -1.6487
 8586SOL    HW237392   3.601   2.323   4.556  0.0848 -1.1137 -1.0864
 8587SOL     OW37393   1.260   1.093   1.531  0.0767  1.0981 -0.1583
 8587SOL    HW137394   1.286   1.184   1.544 -0.9058  1.2694  0.5816
 8587SOL    HW237395   1.334   1.056   1.483 -0.0551  3.2414 -1.9899
 8588SOL     OW37396   0.950   3.850   3.695  1.0231 -0.6070 -0.7035
 8588SOL    HW137397   1.033   3.803   3.708  2.5001  1.7131 -1.7997
 8588SOL    HW237398   0.967   3.895   3.612 -1.1329  0.6074 -0.4962
 8589SOL     OW37399   2.169   4.164  12.238  0.2123 -0.0423 -0.0628
 8589SOL    HW137400   2.115   4.107  12.183  0.4873 -0.5030  0.1496
 8589SOL    HW237401   2.128   4.146  12.323 -1.6856  1.3410 -0.7003
 8590SOL     OW37402   2.961   0.514   3.794 -0.5722  0.6219  0.6510
 8590SOL    HW137403   2.911   0.584   3.836  1.3958  2.9724 -0.9682
 8590SOL    HW237404   2.981   0.454   3.867  2.3472  0.3988 -0.3453
 8591SOL     OW37405   1.901   3.877   1.003  0.2466  0.1236 -0.0294
 8591SOL    HW137406   1.929   3.911   1.088 -0.1762  0.5026 -0.0466
 8591SOL    HW237407   1.927   3.941   0.937 -0.8550 -0.3215 -0.8917
 8592SOL     OW37408   3.115   0.226   2.425 -0.4153  0.2901 -0.1303
 8592SOL    HW137409   3.088   0.147   2.472 -0.6858  2.1273  2.7821
 8592SOL    HW237410   3.060   0.219   2.347 -0.9998  0.0483  0.3042
 8593SOL     OW37411   1.431   4.195   3.424 -0.4649  0.1150 -0.4232
 8593SOL    HW137412   1.336   4.210   3.430 -0.1395  2.1602 -0.5452
 8593SOL    HW237413   1.439   4.159   3.512  1.2887 -2.5081 -1.6518
 8594SOL     OW37414   0.144   4.698  13.344  0.1132 -0.0259  0.0004
 8594SOL    HW137415   0.221   4.696  13.401  0.4032  3.9649 -0.2607
 8594SOL    HW237416   0.077   4.710  13.412 -0.2055 -0.0108 -0.3152
 8595SOL     OW37417   2.302   1.501   0.924  0.1127 -0.0338  0.0857
 8595SOL    HW137418   2.326   1.577   0.977  0.7936  0.2459 -0.6212
 8595SOL    HW237419   2.318   1.540   0.838 -0.6186 -1.4725 -0.6911
 8596SOL     OW37420   1.438   1.129   4.703 -0.5119  0.5813 -0.0232
 8596SOL    HW137421   1.468   1.219   4.721  0.5630 -0.1115  1.6285
 8596SOL    HW237422   1.371   1.136   4.635  0.1620  1.7225 -0.5885
 8597SOL     OW37423   0.260   1.128   9.810 -0.6567 -0.7212 -0.0974
 8597SOL    HW137424   0.209   1.148   9.732 -3.0007 -0.4230  1.5010
 8597SOL    HW237425   0.285   1.220   9.822 -0.8316 -0.8198  1.0305
 8598SOL     OW37426   4.184   3.203   2.748 -0.2991 -0.4417  0.5335
 8598SOL    HW137427   4.276   3.185   2.766  0.0627 -0.5131 -1.3628
 8598SOL    HW237428   4.189   3.279   2.691  0.5161 -2.1220 -1.6391
 8599SOL     OW37429   0.441   0.422   2.443  0.3443 -0.0109  0.7479
 8599SOL    HW137430   0.444   0.500   2.388  0.7613  0.1596  1.0095
 8599SOL    HW237431   0.535   0.402   2.446  0.0313 -1.5655  0.3820
 8600SOL     OW37432   1.322   4.567   6.903  0.4891 -0.1900 -0.6572
 8600SOL    HW137433   1.309   4.476   6.930 -0.1759  0.2548  0.4869
 8600SOL    HW237434   1.338   4.609   6.988  2.5558 -0.8033 -0.7447
 8601SOL     OW37435   2.970   1.586  11.754 -0.1374  0.2145 -0.3822
 8601SOL    HW137436   2.911   1.632  11.695 -0.5658 -0.9898 -0.8993
 8601SOL    HW237437   3.012   1.530  11.689 -0.2104 -1.3462  0.8942
 8602SOL     OW37438   4.600   2.401  12.460  0.2148 -0.3914 -0.1190
 8602SOL    HW137439   4.554   2.458  12.521 -3.9633 -0.7055 -2.9721
 8602SOL    HW237440   4.592   2.460  12.385  0.4098  0.2272  0.3507
 8603SOL     OW37441   3.863   2.948   8.012 -0.1942  0.1376  0.6132
 8603SOL    HW137442   3.866   2.900   7.929 -3.8690  0.2820  0.3874
 8603SOL    HW237443   3.790   2.911   8.061  0.1931 -2.4166 -0.7607
 8604SOL     OW37444   1.307   0.560  16.063  0.3797  0.0028  0.4066
 8604SOL    HW137445   1.246   0.538  15.992  1.0482  1.1213 -0.5183
 8604SOL    HW237446   1.329   0.479  16.108  0.3039 -0.1969  0.0897
 8605SOL     OW37447   2.225   0.070   6.522  0.0758 -0.4858 -0.5419
 8605SOL    HW137448   2.311   0.081   6.481  0.1310  0.8823 -0.0722
 8605SOL    HW237449   2.178   0.020   6.455 -0.6108 -1.3710  0.6160
 8606SOL     OW37450   0.871   2.378   7.701 -0.6489  1.1011  0.2132
 8606SOL    HW137451   0.839   2.428   7.775 -1.1436  1.3489 -0.1667
 8606SOL    HW237452   0.789   2.370   7.653 -1.4578 -1.2030  2.0001
 8607SOL     OW37453   2.652   1.481  16.869  0.2021  0.9678 -0.4624
 8607SOL    HW137454   2.640   1.560  16.922 -1.2793  1.6159 -1.7609
 8607SOL    HW237455   2.663   1.521  16.783  0.2742 -0.5385 -1.1537
 8608SOL     OW37456   3.046   3.451   8.896  0.1054  0.4586  0.2361
 8608SOL    HW137457   3.075   3.520   8.836 -0.9164  1.0925  0.4611
 8608SOL    HW237458   2.955   3.481   8.908 -0.6063 -1.9660  0.8211
 8609SOL     OW37459   0.607   4.442   2.796 -0.8904 -0.3444 -0.4796
 8609SOL    HW137460   0.555   4.399   2.729 -2.5894 -0.2949  0.8183
 8609SOL    HW237461   0.590   4.533   2.774 -2.3485 -0.6031 -0.4322
 8610SOL     OW37462   0.147   3.912   7.462  0.0204 -0.8164 -0.7110
 8610SOL    HW137463   0.084   3.849   7.427  0.4897 -1.1330 -0.9775
 8610SOL    HW237464   0.218   3.854   7.489  2.1432  1.0730 -2.2270
 8611SOL     OW37465   2.284   1.730  13.607  0.3242 -0.0499 -0.6298
 8611SOL    HW137466   2.288   1.680  13.689 -2.0777  0.7030 -0.0595
 8611SOL    HW237467   2.299   1.814  13.651  1.5451  0.2748 -1.6689
 8612SOL     OW37468   1.180   3.259  14.132  0.1005 -0.3135  0.4352
 8612SOL    HW137469   1.246   3.303  14.186  1.6281 -0.3043 -1.4209
 8612SOL    HW237470   1.124   3.329  14.100  0.1520 -0.9040 -0.9558
 8613SOL     OW37471   4.148   0.628   2.702 -0.0561 -0.5473 -0.1613
 8613SOL    HW137472   4.137   0.603   2.610 -3.8252 -1.0172  0.4446
 8613SOL    HW237473   4.242   0.649   2.703 -0.0767 -0.5044  0.6172
 8614SOL     OW37474   1.403   2.773   6.450 -0.1138  0.1201  0.4192
 8614SOL    HW137475   1.487   2.815   6.431  1.0753 -1.4863  2.1488
 8614SOL    HW237476   1.386   2.734   6.365  0.2877  0.5261  0.1538
 8615SOL     OW37477   3.779   3.292   8.952 -0.9111 -0.0943  0.0763
 8615SOL    HW137478   3.713   3.261   8.889  0.1854 -1.6989 -0.2699
 8615SOL    HW237479   3.733   3.277   9.035  1.1206 -0.3256  1.1454
 8616SOL     OW37480   0.865   0.065   6.284 -0.2178  0.4410 -0.3752
 8616SOL    HW137481   0.865   0.106   6.197 -1.5155 -1.4226 -1.2642
 8616SOL    HW237482   0.830   0.137   6.336  0.8218 -0.8186  2.0437
 8617SOL     OW37483   0.632   0.056  17.708 -0.3711  0.2736  0.1499
 8617SOL    HW137484   0.606   0.054  17.615 -1.8958  1.3254  0.5365
 8617SOL    HW237485   0.670   0.144  17.716  0.0714 -0.0886  1.9944
 8618SOL     OW37486   3.669   1.269   4.851 -0.1523  0.2523  0.2556
 8618SOL    HW137487   3.746   1.236   4.898 -0.7592  1.2685  1.9442
 8618SOL    HW237488   3.677   1.362   4.874 -1.4129 -0.0899  2.0829
 8619SOL     OW37489   2.616   0.963   2.931  0.2833  0.0120  0.0848
 8619SOL    HW137490   2.613   1.059   2.933 -0.2282  0.0664 -4.0695
 8619SOL    HW237491   2.534   0.926   2.899 -0.4144  0.7727  0.9771
 8620SOL     OW37492   4.217   2.408   7.463 -0.1727  0.9787  0.1908
 8620SOL    HW137493   4.128   2.393   7.494  0.0840 -1.8989 -0.4260
 8620SOL    HW237494   4.194   2.433   7.373 -0.3568 -0.4709 -0.1771
 8621SOL     OW37495   2.357   1.975  12.602 -0.1692  0.1383  0.2281
 8621SOL    HW137496   2.333   2.061  12.567  1.6393  0.9238  0.9539
 8621SOL    HW237497   2.447   1.993  12.626 -0.4068  1.9300 -0.2426
 8622SOL     OW37498   1.509   0.513   1.255 -0.9406  0.2469 -0.1008
 8622SOL    HW137499   1.602   0.512   1.278 -0.9102 -1.0700 -0.2898
 8622SOL    HW237500   1.487   0.427   1.290  2.7486 -0.5336  0.3586
 8623SOL     OW37501   0.181   2.080  15.590  0.4968 -0.6523 -0.5067
 8623SOL    HW137502   0.128   2.009  15.555  0.3064 -1.5377  1.5461
 8623SOL    HW237503   0.148   2.068  15.679  0.1372 -0.9682 -0.6841
 8624SOL     OW37504   2.728   0.895  10.907  0.3882  0.5854 -0.2260
 8624SOL    HW137505   2.801   0.846  10.943  0.0367  0.7883  0.7517
 8624SOL    HW237506   2.734   0.892  10.811  0.3991  2.0967 -0.2821
 8625SOL     OW37507   3.039   0.735  14.003 -0.0049  0.5942  0.2322
 8625SOL    HW137508   3.105   0.670  14.030 -0.4031  0.5272  1.0653
 8625SOL    HW237509   2.989   0.741  14.085  0.5878 -2.7296  0.8415
 8626SOL     OW37510   3.320   0.313   3.692  0.3344  0.4207  0.2228
 8626SOL    HW137511   3.333   0.261   3.772 -0.5193 -0.3064 -0.1242
 8626SOL    HW237512   3.394   0.279   3.641  0.4051  0.2794  0.4174
 8627SOL     OW37513   0.347   3.288   5.375 -0.3166  0.4948 -0.1840
 8627SOL    HW137514   0.369   3.196   5.390  1.5369  0.8857 -0.5236
 8627SOL    HW237515   0.307   3.276   5.288 -0.3005  1.9211 -0.3794
 8628SOL     OW37516   1.120   3.087  13.128  0.4660  0.0854 -0.2759
 8628SOL    HW137517   1.030   3.057  13.133  0.4855  0.2820  1.2110
 8628SOL    HW237518   1.126   3.078  13.033 -2.1059  1.8249 -0.6122
 8629SOL     OW37519   2.158   0.209   3.636 -0.4905 -0.5910 -0.8002
 8629SOL    HW137520   2.170   0.115   3.628  0.6604 -0.5566  0.4368
 8629SOL    HW237521   2.186   0.227   3.546  1.1426  1.8560  0.1951
 8630SOL     OW37522   1.035   2.218   8.979  0.1482  0.4585 -0.3936
 8630SOL    HW137523   1.053   2.312   8.970 -0.0522  0.5235 -0.1103
 8630SOL    HW237524   0.959   2.234   9.035  1.7873  0.6164  1.8133
 8631SOL     OW37525   2.310   4.067  16.642  0.5273 -0.1099 -0.3134
 8631SOL    HW137526   2.403   4.061  16.661  0.3817  0.2626  0.5370
 8631SOL    HW237527   2.305   4.153  16.601 -2.1954 -1.3211 -2.5123
 8632SOL     OW37528   3.022   2.520   3.511 -0.3009  0.0423  0.5897
 8632SOL    HW137529   3.049   2.432   3.537 -0.3879 -0.1893 -0.1181
 8632SOL    HW237530   2.930   2.522   3.539 -0.1307  2.2158  0.9969
 8633SOL     OW37531   3.839   1.034   7.530  0.6523 -0.0052  0.1651
 8633SOL    HW137532   3.905   0.973   7.564 -0.5743 -1.1743  0.4543
 8633SOL    HW237533   3.885   1.117   7.546 -0.7513  1.1863 -2.0257
 8634SOL     OW37534   0.040   0.423   0.897 -0.0922 -0.2974  0.0668
 8634SOL    HW137535   0.011   0.513   0.880 -1.8588 -0.9487 -0.4814
 8634SOL    HW237536   0.134   0.424   0.882 -0.0559 -0.0290  0.3171
 8635SOL     OW37537   2.886   0.658   6.126  0.2216  0.4309 -0.2110
 8635SOL    HW137538   2.838   0.740   6.135 -2.7221 -1.3658  0.6365
 8635SOL    HW237539   2.836   0.603   6.186 -1.6052 -0.3014 -2.4192
 8636SOL     OW37540   4.044   2.242   7.944 -0.4382  0.1540 -0.1277
 8636SOL    HW137541   4.013   2.333   7.945  0.1342  0.3495 -0.1332
 8636SOL    HW237542   4.131   2.248   7.905 -0.2090 -1.9266  0.0542
 8637SOL     OW37543   0.273   2.492   3.198  0.2126  0.4167  0.1481
 8637SOL    HW137544   0.269   2.572   3.251  1.2535  0.5185  0.0687
 8637SOL    HW237545   0.323   2.524   3.123 -0.8938 -0.3827 -0.9220
 8638SOL     OW37546   0.069   2.571   4.504 -0.3217 -0.1078 -0.0557
 8638SOL    HW137547   0.124   2.508   4.550 -1.1235 -0.7554  0.0187
 8638SOL    HW237548   0.115   2.597   4.424  0.4204  2.5447  1.2186
 8639SOL     OW37549   3.391   0.916   5.794  0.7651 -1.0027 -0.0086
 8639SOL    HW137550   3.338   0.842   5.767 -0.9664 -0.2377  1.2643
 8639SOL    HW237551   3.467   0.864   5.819  0.9402 -0.2095  1.1256
 8640SOL     OW37552   1.890   3.096   1.596 -0.3496 -0.2606 -0.4793
 8640SOL    HW137553   1.805   3.100   1.641  0.1913 -2.6287  0.7764
 8640SOL    HW237554   1.899   3.190   1.582  0.3433 -0.2954 -0.2545
 8641SOL     OW37555   3.720   4.062   6.806  0.2963  0.1362 -0.2801
 8641SOL    HW137556   3.760   4.102   6.883 -0.2001  2.7236 -1.3656
 8641SOL    HW237557   3.636   4.043   6.846  0.6783 -1.0330 -0.0162
 8642SOL     OW37558   2.312   2.690  14.257 -0.1395  0.3493 -0.0087
 8642SOL    HW137559   2.268   2.619  14.210  1.0713  0.7907 -1.8185
 8642SOL    HW237560   2.279   2.768  14.212 -0.0928  0.8594  0.8469
 8643SOL     OW37561   1.827   3.285   7.635 -0.7683  1.0304  0.0607
 8643SOL    HW137562   1.903   3.238   7.669 -1.7216 -0.1329  0.6111
 8643SOL    HW237563   1.761   3.219   7.658 -0.2947 -0.4948 -2.9756
 8644SOL     OW37564   4.291   4.653   2.554 -0.2915  0.1499 -1.0617
 8644SOL    HW137565   4.291   0.005   2.584 -0.5164  0.5234 -2.1893
 8644SOL    HW237566   4.232   4.666   2.479 -2.3310  0.6478  0.6364
 8645SOL     OW37567   3.356   2.635   5.533 -0.0041  0.1637 -0.2452
 8645SOL    HW137568   3.432   2.585   5.565  0.5463 -0.2946 -2.3138
 8645SOL    HW237569   3.404   2.683   5.467 -0.6004  1.1327  0.0303
 8646SOL     OW37570   4.682   2.127  12.562 -0.3442  0.0376  0.0813
 8646SOL    HW137571   4.620   2.151  12.631 -0.1975  1.0735 -0.1474
 8646SOL    HW237572   4.674   2.204  12.507 -0.4556  0.5821  0.8559
 8647SOL     OW37573   1.540   3.092   7.997  0.3274 -0.1803 -0.2034
 8647SOL    HW137574   1.560   3.010   8.044  0.9963 -0.4742 -0.9992
 8647SOL    HW237575   1.483   3.129   8.064 -0.6107 -2.1980  0.1296
 8648SOL     OW37576   0.336   2.274  13.135 -0.2463 -0.1470  0.4296
 8648SOL    HW137577   0.379   2.196  13.170  0.3735  0.5384  1.2094
 8648SOL    HW237578   0.342   2.259  13.041 -0.8566 -0.7530  0.4868
 8649SOL     OW37579   4.262   1.298   4.668 -0.4007 -0.0632  0.2766
 8649SOL    HW137580   4.213   1.221   4.641 -1.5460  1.2869 -1.5218
 8649SOL    HW237581   4.200   1.337   4.729 -0.5885 -1.4690  0.9849
 8650SOL     OW37582   4.636   3.595   8.601  0.1590 -0.1910  0.8004
 8650SOL    HW137583   4.553   3.642   8.606  1.5928  2.3008  0.9931
 8650SOL    HW237584   4.613   3.507   8.632 -1.1464 -0.1138  0.0387
 8651SOL     OW37585   2.119   3.054   6.708 -0.4943  0.3100  0.0362
 8651SOL    HW137586   2.187   3.122   6.706 -0.5704  0.4005  0.4138
 8651SOL    HW237587   2.176   2.978   6.717  0.9876  1.7308  2.9705
 8652SOL     OW37588   1.332   2.875   2.255 -0.0407  0.3111  0.3964
 8652SOL    HW137589   1.245   2.871   2.216  0.8740 -2.1986 -1.3480
 8652SOL    HW237590   1.347   2.781   2.265 -0.6478  0.2099  0.3313
 8653SOL     OW37591   3.571   1.760   8.729 -0.2039 -0.5139 -0.6607
 8653SOL    HW137592   3.563   1.712   8.811 -2.0752 -2.2103 -1.8667
 8653SOL    HW237593   3.665   1.771   8.713  0.0391  0.8136  1.5243
 8654SOL     OW37594   2.157   4.706   4.993 -0.3872  0.3178  0.6948
 8654SOL    HW137595   2.224   0.020   5.036 -1.1643  0.4020  1.7810
 8654SOL    HW237596   2.156   4.627   5.048 -2.5697  1.1347  1.7991
 8655SOL     OW37597   0.806   4.083  14.932  0.4196 -0.5444  0.1489
 8655SOL    HW137598   0.800   4.080  14.837 -0.9694 -1.6319  0.2617
 8655SOL    HW237599   0.730   4.025  14.942  1.0473 -1.2167  1.0744
 8656SOL     OW37600   1.335   2.277  15.732 -0.0223 -0.4148 -0.0569
 8656SOL    HW137601   1.359   2.312  15.818  0.8037  0.8717 -0.8129
 8656SOL    HW237602   1.372   2.189  15.734  0.7453 -0.0486  1.6362
 8657SOL     OW37603   1.733   4.315   3.013 -0.6429 -0.1263 -0.0818
 8657SOL    HW137604   1.746   4.249   3.081  1.3368  0.1960 -0.1463
 8657SOL    HW237605   1.785   4.293   2.935 -1.5322  0.4782 -0.8535
 8658SOL     OW37606   4.125   3.997   3.528 -0.2015 -0.1492 -0.1780
 8658SOL    HW137607   4.141   3.970   3.437 -0.1443 -0.5141 -0.0625
 8658SOL    HW237608   4.124   4.090   3.509 -0.9908 -0.3794 -1.2482
 8659SOL     OW37609   4.581   0.517   1.431 -0.9372  0.2031 -0.2296
 8659SOL    HW137610   4.592   0.581   1.501  5.0731  0.9966 -1.8363
 8659SOL    HW237611   4.512   0.460   1.464 -1.4894 -0.2754 -2.2058
 8660SOL     OW37612   1.469   1.573  16.456  0.2313  0.5487  0.4756
 8660SOL    HW137613   1.378   1.596  16.475 -0.7619 -3.7447  1.0142
 8660SOL    HW237614   1.462   1.562  16.361  2.4129  0.1531  0.3606
 8661SOL     OW37615   0.455   2.170   6.047 -0.3649  0.5136 -0.1245
 8661SOL    HW137616   0.370   2.191   6.008  0.5311  2.1532 -1.1873
 8661SOL    HW237617   0.487   2.259   6.064 -0.1340  0.4533 -0.2506
 8662SOL     OW37618   1.022   2.182  12.878  0.0420  0.1836  0.5434
 8662SOL    HW137619   0.945   2.154  12.827 -1.5475 -0.4260  3.2826
 8662SOL    HW237620   0.992   2.252  12.936  0.9333  0.1620  1.0221
 8663SOL     OW37621   0.174   2.360   7.893 -0.5467  0.2309 -0.7181
 8663SOL    HW137622   0.231   2.407   7.832  1.9157 -1.6739  0.1086
 8663SOL    HW237623   0.177   2.277   7.847  0.0798 -0.1645  0.0308
 8664SOL     OW37624   0.455   2.602   6.702 -0.3262 -0.0939  0.1411
 8664SOL    HW137625   0.450   2.646   6.786 -0.1291 -2.9672  1.6575
 8664SOL    HW237626   0.512   2.664   6.656  0.0180  0.4109  1.2661
 8665SOL     OW37627   4.681   0.520   0.291  0.2866 -0.2650  0.1429
 8665SOL    HW137628   4.681   0.424   0.291  1.2313 -0.2670 -0.2891
 8665SOL    HW237629   4.603   0.526   0.237  1.5662  1.2591 -1.5435
 8666SOL     OW37630   2.941   3.756   7.377  0.5784  0.4031  0.2071
 8666SOL    HW137631   2.998   3.750   7.300 -0.0567 -0.6057 -0.1746
 8666SOL    HW237632   2.874   3.817   7.347  0.9200  1.4060  1.4736
 8667SOL     OW37633   1.987   3.081   3.175 -0.1232 -0.4526  0.3065
 8667SOL    HW137634   1.895   3.109   3.182 -0.0078  0.3506 -1.3038
 8667SOL    HW237635   1.985   2.996   3.218  0.3299 -0.3765  0.4800
 8668SOL     OW37636   3.786   1.155   9.023  0.6887 -0.0648 -0.5908
 8668SOL    HW137637   3.758   1.070   8.989 -1.9220  1.5835 -2.5760
 8668SOL    HW237638   3.881   1.140   9.027  0.9614  1.5726 -0.8790
 8669SOL     OW37639   3.648   0.945   5.931  0.2148  0.2969  0.5051
 8669SOL    HW137640   3.623   0.990   6.012 -0.5101  0.6456  0.0863
 8669SOL    HW237641   3.637   0.853   5.955  1.8273 -0.2337 -0.7969
 8670SOL     OW37642   3.732   0.749   4.194 -0.3821 -0.0114 -0.1485
 8670SOL    HW137643   3.688   0.793   4.121 -1.8756  1.1373  1.4595
 8670SOL    HW237644   3.768   0.673   4.148 -1.4286  0.1718 -1.2718
 8671SOL     OW37645   1.708   3.556   6.105  0.2951  0.7395  0.0779
 8671SOL    HW137646   1.763   3.483   6.132 -0.2870 -0.0696 -0.9026
 8671SOL    HW237647   1.633   3.550   6.165  2.2235 -1.5492  2.2208
 8672SOL     OW37648   0.815   3.832   5.428  0.4587 -0.1375  0.9908
 8672SOL    HW137649   0.907   3.826   5.403 -0.0620 -0.5822 -0.8084
 8672SOL    HW237650   0.807   3.768   5.499 -2.2061 -0.3685  0.4808
 8673SOL     OW37651   1.927   0.385   6.726 -0.1179 -0.3615  0.2915
 8673SOL    HW137652   1.912   0.469   6.770  0.1506 -0.6165  0.8791
 8673SOL    HW237653   1.936   0.323   6.798  3.1113 -0.6806 -0.3743
 8674SOL     OW37654   1.312   3.470   1.473  0.0599 -0.2696  0.3841
 8674SOL    HW137655   1.299   3.476   1.378 -0.8730 -2.3360  0.3917
 8674SOL    HW237656   1.406   3.461   1.462 -0.0484 -2.3358  1.2404
 8675SOL     OW37657   3.383   0.215   5.298  0.1708 -0.3784 -0.0096
 8675SOL    HW137658   3.447   0.147   5.318  0.3319 -0.1380  0.3015
 8675SOL    HW237659   3.302   0.166   5.284  0.7017 -0.9925 -0.8750
 8676SOL     OW37660   2.907   3.102  15.842  0.3337  0.5063 -0.1676
 8676SOL    HW137661   2.886   3.009  15.851  1.4103  0.3142  0.3371
 8676SOL    HW237662   2.868   3.133  15.923  1.3442 -0.9782  0.8761
 8677SOL     OW37663   0.236   4.546   5.758  0.4537 -0.3350 -0.0473
 8677SOL    HW137664   0.255   4.485   5.686 -0.3610 -0.4440 -0.1696
 8677SOL    HW237665   0.166   4.496   5.801  0.2890 -0.3814 -0.3699
 8678SOL     OW37666   2.113   0.549   4.344  0.3436  0.0351 -0.2123
 8678SOL    HW137667   2.158   0.625   4.307 -0.0445  0.0659 -0.6166
 8678SOL    HW237668   2.057   0.597   4.405  1.0901  0.5852  0.0370
 8679SOL     OW37669   0.367   3.965   9.401 -0.4799  0.6871 -0.0040
 8679SOL    HW137670   0.416   3.971   9.320  2.6987  0.0726  1.8675
 8679SOL    HW237671   0.364   4.059   9.419 -1.0267  1.1186 -2.4014
 8680SOL     OW37672   3.785   1.922  12.101  0.1896  0.3006  0.3163
 8680SOL    HW137673   3.708   1.979  12.092  0.3849  0.4771 -0.2455
 8680SOL    HW237674   3.750   1.840  12.067  0.3669 -0.7472  2.6826
 8681SOL     OW37675   1.667   4.489   3.558 -0.6602 -0.5453 -0.2216
 8681SOL    HW137676   1.744   4.544   3.543 -1.2385 -0.2908 -2.2600
 8681SOL    HW237677   1.642   4.457   3.472  1.1921 -1.3701 -0.4455
 8682SOL     OW37678   0.042   2.441   1.992  0.1374 -0.6289  0.1060
 8682SOL    HW137679   4.735   2.440   1.909  0.2115  2.2315  0.0368
 8682SOL    HW237680   4.730   2.373   2.036 -0.4374  1.2845  2.3700
 8683SOL     OW37681   2.687   3.475  11.742  0.4423 -0.5844 -0.3250
 8683SOL    HW137682   2.761   3.422  11.771 -0.2011 -1.2445  0.0773
 8683SOL    HW237683   2.638   3.461  11.822  3.8899 -0.3040  1.8274
 8684SOL     OW37684   3.045   0.394   9.906  0.3199  0.6578  0.1061
 8684SOL    HW137685   3.133   0.375   9.874 -0.1491 -0.5649 -0.4554
 8684SOL    HW237686   3.049   0.393  10.002 -1.0257  1.6399  0.1695
 8685SOL     OW37687   0.119   3.424   9.509 -0.4083  0.1094 -0.1746
 8685SOL    HW137688   0.197   3.428   9.454  1.2498 -1.1546  2.0897
 8685SOL    HW237689   0.105   3.518   9.506  1.2303  0.3152 -1.4645
 8686SOL     OW37690   2.491   0.924   0.568 -0.0516  0.4775 -0.3470
 8686SOL    HW137691   2.425   0.903   0.503 -1.5428 -0.8887  1.6205
 8686SOL    HW237692   2.470   1.016   0.585 -1.6216  0.0703 -0.0750
 8687SOL     OW37693   0.514   2.378   4.583 -0.1715  0.1921  0.3527
 8687SOL    HW137694   0.518   2.464   4.540  0.7203 -0.5042 -0.9569
 8687SOL    HW237695   0.483   2.318   4.515 -2.1119  3.2408 -1.4478
 8688SOL     OW37696   1.790   2.417   4.172 -0.2435 -0.4477  0.0631
 8688SOL    HW137697   1.766   2.482   4.238  0.4419 -0.8481  0.6959
 8688SOL    HW237698   1.710   2.371   4.147 -1.9355  1.0031  2.8283
 8689SOL     OW37699   2.491   3.766   1.911  0.2992  0.5505  0.7410
 8689SOL    HW137700   2.552   3.749   1.983  1.7346  0.7952 -0.4219
 8689SOL    HW237701   2.502   3.691   1.853 -0.4158  0.3076  0.9154
 8690SOL     OW37702   2.598   1.447   3.514 -0.1360  0.2910  0.1363
 8690SOL    HW137703   2.686   1.450   3.477  0.1685  0.6775  0.9020
 8690SOL    HW237704   2.542   1.439   3.437  0.7002 -0.6109 -0.3641
 8691SOL     OW37705   1.139   4.489   4.234 -0.6161  0.4294  0.3407
 8691SOL    HW137706   1.166   4.480   4.143  0.1074  0.7655  0.5209
 8691SOL    HW237707   1.205   4.549   4.270 -0.3921  1.0281 -1.0598
 8692SOL     OW37708   1.642   2.331   5.733  0.0760  0.3674  0.2042
 8692SOL    HW137709   1.699   2.271   5.780  1.2076 -0.2417 -1.9344
 8692SOL    HW237710   1.587   2.274   5.679 -1.4615  1.8007  0.2323
 8693SOL     OW37711   4.355   3.642  11.715 -0.2243 -0.7380 -0.2627
 8693SOL    HW137712   4.286   3.696  11.676 -0.4465 -0.3717  0.6298
 8693SOL    HW237713   4.312   3.571  11.763  1.3019 -2.2102 -1.1038
 8694SOL     OW37714   2.540   4.180   4.090 -0.3795  0.2162 -0.2284
 8694SOL    HW137715   2.477   4.120   4.050 -2.2628  1.1069  1.3973
 8694SOL    HW237716   2.483   4.256   4.104  0.2263  0.8443 -1.2022
 8695SOL     OW37717   1.932   0.984   9.660  0.5075  0.3262 -0.0712
 8695SOL    HW137718   1.955   0.907   9.713  1.9493  1.3991  0.8451
 8695SOL    HW237719   2.021   0.994   9.625  0.5507 -1.6120 -0.5122
 8696SOL     OW37720   4.282   2.468  14.827 -0.0693  0.2403 -0.0711
 8696SOL    HW137721   4.230   2.544  14.799 -0.1383 -0.3026 -1.4205
 8696SOL    HW237722   4.240   2.449  14.911  2.3407 -0.1822  1.0292
 8697SOL     OW37723   2.452   0.399   9.927  0.2356  0.7534  0.4596
 8697SOL    HW137724   2.528   0.364   9.882  0.4144  2.9341 -0.9418
 8697SOL    HW237725   2.393   0.325   9.918  0.8292  0.0285  2.5777
 8698SOL     OW37726   4.057   3.135   8.030  0.2741  0.2933  0.7122
 8698SOL    HW137727   3.985   3.073   8.019  0.7883 -0.2073  0.1740
 8698SOL    HW237728   4.035   3.181   8.111 -1.5689  0.3800  0.1755
 8699SOL     OW37729   3.333   2.083   4.647  0.6612  0.1497  0.5851
 8699SOL    HW137730   3.347   2.160   4.591 -0.0213  0.6101  1.0528
 8699SOL    HW237731   3.272   2.032   4.593  0.5473 -0.7736  1.5915
 8700SOL     OW37732   3.280   0.433   4.037  0.4199  0.6150 -0.2774
 8700SOL    HW137733   3.192   0.405   4.012  0.1754 -1.4704  2.9538
 8700SOL    HW237734   3.283   0.384   4.119  0.6631  0.4307 -0.3940
 8701SOL     OW37735   0.607   1.354   9.324  0.2155 -0.0395 -0.0148
 8701SOL    HW137736   0.670   1.416   9.361  0.0551 -0.8342  1.5417
 8701SOL    HW237737   0.603   1.286   9.391  0.2827 -0.3631 -0.3368
 8702SOL     OW37738   0.945   0.706  16.450 -0.5397  0.4144 -0.2081
 8702SOL    HW137739   0.875   0.674  16.394 -1.5686  2.8895 -0.3192
 8702SOL    HW237740   0.898   0.786  16.475  1.0797  1.6592 -1.1565
 8703SOL     OW37741   0.055   3.691   8.935  0.5728 -0.5437  0.1185
 8703SOL    HW137742   0.103   3.739   8.868 -0.8212 -0.6780 -0.9905
 8703SOL    HW237743   0.125   3.641   8.978 -0.0166 -1.1174  0.4256
 8704SOL     OW37744   0.923   3.192  12.912  0.4040  0.6532 -0.0586
 8704SOL    HW137745   0.999   3.144  12.879  1.0078  1.7152 -0.1906
 8704SOL    HW237746   0.922   3.241  12.830 -2.9330  1.6889  0.6143
 8705SOL     OW37747   1.586   2.818  15.261  0.1276 -0.4801  0.1317
 8705SOL    HW137748   1.566   2.908  15.235 -0.5290 -0.9417 -0.9354
 8705SOL    HW237749   1.502   2.787  15.296 -0.7618  1.0902 -0.6394
 8706SOL     OW37750   4.705   2.949   2.826  0.6514 -0.2364 -0.2003
 8706SOL    HW137751   0.032   2.930   2.893 -0.0756  0.2138  0.6380
 8706SOL    HW237752   4.715   2.875   2.766  3.5843  1.1282 -1.4038
 8707SOL     OW37753   1.738   0.598   6.501  0.0422 -0.2501 -0.1749
 8707SOL    HW137754   1.673   0.645   6.448 -0.5833 -1.5888 -0.5960
 8707SOL    HW237755   1.749   0.664   6.570 -2.5040  0.4614 -0.4332
 8708SOL     OW37756   1.347   1.752   3.685  0.1419 -0.5600 -0.2830
 8708SOL    HW137757   1.308   1.825   3.733  0.5047 -1.1073  0.8428
 8708SOL    HW237758   1.278   1.718   3.627 -1.3004  1.2333  0.3572
 8709SOL     OW37759   0.406   2.261  17.376  0.1002  0.0926  0.1236
 8709SOL    HW137760   0.317   2.258  17.343  0.4020 -2.8029 -0.3515
 8709SOL    HW237761   0.421   2.167  17.388 -2.3021 -0.1728  1.1524
 8710SOL     OW37762   0.689   0.414   1.796  0.2844 -0.1698  0.1448
 8710SOL    HW137763   0.744   0.491   1.784 -0.1349  0.0869 -0.1302
 8710SOL    HW237764   0.686   0.376   1.708  0.3291  1.2834 -0.4924
 8711SOL     OW37765   1.663   0.979   4.320 -0.8909  0.0912  0.1835
 8711SOL    HW137766   1.580   1.022   4.300 -1.4465 -1.7477 -1.4574
 8711SOL    HW237767   1.629   0.890   4.334  0.2478 -0.3722  0.0483
 8712SOL     OW37768   2.462   1.620  16.461 -0.3876  0.8082 -0.2459
 8712SOL    HW137769   2.543   1.669  16.454 -1.0540  1.8699 -0.5880
 8712SOL    HW237770   2.478   1.537  16.506 -2.1369  1.0356  0.7886
 8713SOL     OW37771   2.365   0.292   7.856 -0.0534 -0.3037  0.6861
 8713SOL    HW137772   2.444   0.305   7.804  1.0831 -0.0127  2.4733
 8713SOL    HW237773   2.321   0.375   7.837 -2.9886 -1.8786  0.5852
 8714SOL     OW37774   3.926   3.146  12.757  0.5652 -0.1630  0.0004
 8714SOL    HW137775   3.928   3.101  12.841 -0.7998 -0.9989 -0.4219
 8714SOL    HW237776   3.920   3.075  12.693 -0.8880 -0.1082  0.0737
 8715SOL     OW37777   2.553   1.769   5.588  0.4633  0.4217  0.7257
 8715SOL    HW137778   2.516   1.739   5.505 -1.8480  1.5452  1.3729
 8715SOL    HW237779   2.592   1.691   5.628 -1.5439 -0.6020  0.7022
 8716SOL     OW37780   4.228   0.998   1.700  0.2671 -0.5336 -0.6201
 8716SOL    HW137781   4.252   1.024   1.789  0.1749 -2.0632 -0.1638
 8716SOL    HW237782   4.258   0.908   1.707  1.0072 -0.0092  2.7635
 8717SOL     OW37783   2.784   4.549   6.015  0.1211  0.2177  0.2831
 8717SOL    HW137784   2.705   4.515   5.973  0.3823  0.8882 -0.7543
 8717SOL    HW237785   2.810   4.625   5.963 -2.0281 -0.4512 -1.7320
 8718SOL     OW37786   1.761   0.903  15.821  0.6991  0.0882 -0.0470
 8718SOL    HW137787   1.674   0.911  15.860  0.4001 -0.0111 -0.7015
 8718SOL    HW237788   1.735   0.879  15.732 -1.3992  3.2098 -0.2913
 8719SOL     OW37789   3.908   1.013  12.324  0.0841 -0.8070  0.4782
 8719SOL    HW137790   3.942   1.063  12.250  1.9000 -0.2007  1.7308
 8719SOL    HW237791   3.813   1.011  12.313 -0.0534 -1.7019  1.8706
 8720SOL     OW37792   3.690   2.518   1.821 -0.2979  0.1394 -0.0507
 8720SOL    HW137793   3.664   2.592   1.767  0.4433  0.8741  0.5909
 8720SOL    HW237794   3.635   2.444   1.797  2.2183 -1.5392 -0.6246
 8721SOL     OW37795   1.404   2.079   8.842  0.6612  0.4924  0.0283
 8721SOL    HW137796   1.463   2.021   8.890 -0.4222 -1.1939 -0.6708
 8721SOL    HW237797   1.366   2.139   8.906  1.5101  1.3149 -0.2337
 8722SOL     OW37798   4.322   2.495   5.646 -0.8968 -0.1370 -0.1483
 8722SOL    HW137799   4.338   2.401   5.659  0.7194 -0.0137 -1.2363
 8722SOL    HW237800   4.316   2.493   5.551  0.9834 -2.0829 -0.2163
 8723SOL     OW37801   4.612   1.020   1.094  0.2244  0.1996  0.2125
 8723SOL    HW137802   4.566   1.021   1.010  0.3628 -1.8768  0.1032
 8723SOL    HW237803   4.694   0.976   1.070  0.1160  0.5339 -0.7671
 8724SOL     OW37804   4.043   1.500   3.680  0.1314 -0.3172  0.4062
 8724SOL    HW137805   4.123   1.465   3.719  1.1652  0.6368 -0.8520
 8724SOL    HW237806   3.986   1.512   3.756 -0.5749  0.3379 -0.2328
 8725SOL     OW37807   4.525   4.041   6.585  0.3483 -0.1001 -0.0632
 8725SOL    HW137808   4.530   4.117   6.644  1.2036 -0.4337  0.2958
 8725SOL    HW237809   4.455   4.055   6.521 -0.7538  0.6136  1.3006
 8726SOL     OW37810   1.258   1.386   8.259  0.3957  0.6120  0.8190
 8726SOL    HW137811   1.283   1.428   8.341 -1.1188  1.4431  0.8549
 8726SOL    HW237812   1.309   1.305   8.270 -1.5252 -0.5344  1.3659
 8727SOL     OW37813   1.717   0.070   7.388  0.1667 -0.8593  0.2059
 8727SOL    HW137814   1.628   0.035   7.379  0.9092 -2.3025 -1.4090
 8727SOL    HW237815   1.751   0.071   7.299 -0.5228 -1.5920 -0.0673
 8728SOL     OW37816   4.395   1.024  11.718  0.1786  0.4275  0.0969
 8728SOL    HW137817   4.385   0.929  11.725 -1.0647  0.5664  0.1697
 8728SOL    HW237818   4.309   1.052  11.749  0.5506  2.7541 -0.9938
 8729SOL     OW37819   1.485   0.214  11.175  0.1474 -0.2241  0.0138
 8729SOL    HW137820   1.520   0.241  11.090 -0.7473 -0.2799 -0.3702
 8729SOL    HW237821   1.425   0.286  11.190 -0.2406 -0.2041 -1.5667
 8730SOL     OW37822   3.032   0.475  12.755 -0.4590 -0.3809  0.2604
 8730SOL    HW137823   3.012   0.568  12.753  0.9108 -0.0923 -0.0569
 8730SOL    HW237824   2.966   0.449  12.691 -0.2989  1.6047 -0.6973
 8731SOL     OW37825   3.417   2.830   3.804  0.0557  0.3994  0.2623
 8731SOL    HW137826   3.384   2.914   3.838  1.0155 -0.2008  2.7071
 8731SOL    HW237827   3.419   2.850   3.711 -0.5560  1.7139  0.5221
 8732SOL     OW37828   1.414   1.186   7.289  0.0061  0.3467 -0.1546
 8732SOL    HW137829   1.363   1.187   7.208  0.5906 -0.7051 -0.5379
 8732SOL    HW237830   1.474   1.259   7.277 -1.5658  1.5695 -0.5093
 8733SOL     OW37831   4.637   0.047   7.582  0.0843 -0.3216 -0.7261
 8733SOL    HW137832   4.606   0.136   7.599 -0.2172 -0.6478  0.4092
 8733SOL    HW237833   4.554   0.004   7.601 -1.5610  3.8652  1.4429
 8734SOL     OW37834   1.292   2.068   1.141 -0.2202  0.1533  0.2591
 8734SOL    HW137835   1.202   2.094   1.161 -0.0387  0.4966  0.6438
 8734SOL    HW237836   1.298   1.984   1.185 -3.0343 -0.0494  0.2354
 8735SOL     OW37837   0.539   3.297   6.337 -0.4022 -0.7923 -0.8654
 8735SOL    HW137838   0.503   3.357   6.403  0.1907 -0.8812 -0.4670
 8735SOL    HW237839   0.537   3.218   6.390  0.9186 -0.7834 -0.8127
 8736SOL     OW37840   2.580   0.040   3.262  0.3769  0.3000  0.0359
 8736SOL    HW137841   2.579   0.105   3.332 -2.1510  0.9432 -0.6047
 8736SOL    HW237842   2.668   0.002   3.269  0.3129  0.3067  0.8708
 8737SOL     OW37843   2.821   1.604  13.754  0.1491  0.2017  0.2832
 8737SOL    HW137844   2.867   1.618  13.671  0.1742 -2.9786 -0.2503
 8737SOL    HW237845   2.888   1.564  13.809 -0.9747 -2.6666 -0.3947
 8738SOL     OW37846   3.322   0.690   2.287 -0.0161 -0.0484  0.2531
 8738SOL    HW137847   3.256   0.758   2.287  1.3542  1.2855  1.4441
 8738SOL    HW237848   3.296   0.649   2.370  1.9665  0.9590  1.3930
 8739SOL     OW37849   0.233   0.030  11.120 -0.3302 -0.3080  0.3826
 8739SOL    HW137850   0.173   0.033  11.046 -2.3518  0.3974  2.0381
 8739SOL    HW237851   0.254   0.119  11.147  0.2360 -0.2467 -0.2466
 8740SOL     OW37852   3.911   1.599   6.785 -0.1569  0.0125 -0.4046
 8740SOL    HW137853   3.843   1.554   6.835  0.2199  0.3863  0.4472
 8740SOL    HW237854   3.850   1.635   6.721 -1.4354  0.0492  0.8407
 8741SOL     OW37855   1.495   0.191   0.129  0.3557  0.4992 -0.0614
 8741SOL    HW137856   1.445   0.109   0.128 -0.9480  1.2744  0.5558
 8741SOL    HW237857   1.558   0.168   0.196 -0.2083  0.2563  0.3899
 8742SOL     OW37858   2.281   2.475  11.033  0.2919 -0.1446  0.3168
 8742SOL    HW137859   2.326   2.559  11.042 -1.7168  0.9731 -0.0579
 8742SOL    HW237860   2.339   2.406  11.066 -0.7955  0.0836  2.7148
 8743SOL     OW37861   0.814   3.506   9.822  0.4790  0.1100  0.5280
 8743SOL    HW137862   0.903   3.512   9.855 -0.1070 -1.1180  2.3138
 8743SOL    HW237863   0.778   3.586   9.860 -2.1841 -0.7744 -0.1637
 8744SOL     OW37864   2.945   3.457   1.627  0.0042 -0.3150 -0.8591
 8744SOL    HW137865   2.916   3.518   1.694  0.8087 -1.0461  0.1472
 8744SOL    HW237866   3.008   3.511   1.579  0.1546  0.5469  0.3351
 8745SOL     OW37867   2.774   0.202  16.855  0.6654 -0.2656 -0.0706
 8745SOL    HW137868   2.771   0.228  16.763 -2.1861 -0.5288 -0.0434
 8745SOL    HW237869   2.706   0.135  16.847 -1.4023  1.8635 -0.1545
 8746SOL     OW37870   4.537   4.155   9.711  0.0568  0.2211 -0.7115
 8746SOL    HW137871   4.564   4.238   9.751 -1.3410 -0.3419  1.4332
 8746SOL    HW237872   4.446   4.171   9.685 -0.3773  1.4818  1.5523
 8747SOL     OW37873   4.488   3.064   9.057  0.0028  0.1161  0.2937
 8747SOL    HW137874   4.405   3.077   9.103  1.0111 -0.3666  2.2158
 8747SOL    HW237875   4.544   3.096   9.127  2.2289 -1.4708 -0.7905
 8748SOL     OW37876   4.460   3.133  16.060 -0.4011 -0.6456 -0.4594
 8748SOL    HW137877   4.448   3.044  16.027 -0.4834 -0.1717 -1.7206
 8748SOL    HW237878   4.376   3.170  16.032  0.6776  1.7321 -0.5744
 8749SOL     OW37879   3.286   0.999   8.424 -0.1580 -0.4279  0.7150
 8749SOL    HW137880   3.256   0.912   8.449  0.4325 -0.7589  0.2772
 8749SOL    HW237881   3.212   1.031   8.372  0.6350 -2.4194 -1.6447
 8750SOL     OW37882   4.559   4.328   7.710 -0.5043  1.1829 -0.6355
 8750SOL    HW137883   4.573   4.239   7.744 -1.3695  1.6853  1.0333
 8750SOL    HW237884   4.637   4.370   7.748  0.6059 -0.6275 -0.9062
 8751SOL     OW37885   0.181   4.151   7.314  0.0712  0.1425  0.6394
 8751SOL    HW137886   0.276   4.154   7.325  0.3115  1.4173 -1.8542
 8751SOL    HW237887   0.162   4.061   7.343  2.8659 -0.5006  0.4737
 8752SOL     OW37888   4.397   0.010   2.863 -0.4935 -0.6059 -0.2260
 8752SOL    HW137889   4.429   4.700   2.787 -0.9708 -3.9249  1.7356
 8752SOL    HW237890   4.366   0.092   2.825 -1.3115 -0.9266 -0.2529
 8753SOL     OW37891   2.102   3.801  12.586  0.3306 -0.0201  0.3749
 8753SOL    HW137892   2.029   3.739  12.589  0.1821  0.0837 -1.1173
 8753SOL    HW237893   2.067   3.855  12.657  0.8937  1.1260 -0.2218
 8754SOL     OW37894   1.593   1.535  14.565 -0.0814 -0.3913  0.0414
 8754SOL    HW137895   1.671   1.492  14.601  0.9898  2.2742  0.9458
 8754SOL    HW237896   1.639   1.568  14.487  2.1072 -1.3610  0.9177
 8755SOL     OW37897   0.612   4.164   9.986 -0.0009 -0.4560  1.0258
 8755SOL    HW137898   0.565   4.095   9.939  1.5112 -1.0529  0.3879
 8755SOL    HW237899   0.539   4.226   9.985  1.2841  1.0798  2.8280
 8756SOL     OW37900   2.176   1.617   4.783  0.5912 -0.4278  0.0544
 8756SOL    HW137901   2.228   1.652   4.711  1.8887 -0.6994  0.8554
 8756SOL    HW237902   2.182   1.523   4.768 -0.4571 -0.3474 -0.8356
 8757SOL     OW37903   4.636   0.843   6.316  0.0830 -0.1065 -0.1672
 8757SOL    HW137904   4.570   0.912   6.317  0.5954  0.4158 -2.4852
 8757SOL    HW237905   4.692   0.869   6.243  0.5702 -0.7674 -0.0247
 8758SOL     OW37906   3.704   2.650   7.235  0.0755 -0.2433 -0.2902
 8758SOL    HW137907   3.772   2.583   7.241  2.7075  2.4764  0.1165
 8758SOL    HW237908   3.688   2.630   7.142 -0.5913 -0.3214 -0.1635
 8759SOL     OW37909   2.715   2.667   2.000  0.0582  0.4794  0.6256
 8759SOL    HW137910   2.657   2.742   2.010 -0.7179  0.0992 -0.9622
 8759SOL    HW237911   2.662   2.618   1.937 -0.7629  1.1489  0.8058
 8760SOL     OW37912   3.680   4.640   5.128 -0.3332 -0.3834 -0.4671
 8760SOL    HW137913   3.739   4.626   5.202  0.5786 -1.5170 -1.4101
 8760SOL    HW237914   3.741   4.641   5.054 -0.5875 -0.9741 -0.6814
 8761SOL     OW37915   0.981   2.343  13.099  0.1185 -0.3827  0.2815
 8761SOL    HW137916   1.040   2.342  13.174 -0.6632  1.5258  0.9122
 8761SOL    HW237917   0.901   2.385  13.132  0.5510 -0.7937  1.8530
 8762SOL     OW37918   1.781   2.807   4.154 -0.0441 -0.0230 -0.1249
 8762SOL    HW137919   1.693   2.780   4.181 -0.1316  0.0180 -0.3648
 8762SOL    HW237920   1.813   2.720   4.132  0.2388  0.1483 -0.3871
 8763SOL     OW37921   0.337   1.803   1.871 -0.2638  0.2151 -0.1387
 8763SOL    HW137922   0.361   1.824   1.961  0.7906 -2.0214  0.1002
 8763SOL    HW237923   0.416   1.786   1.820 -0.2091  0.6926 -0.2101
 8764SOL     OW37924   2.024   2.181   9.265 -0.3527 -0.8651 -0.3555
 8764SOL    HW137925   2.077   2.105   9.241  0.0309 -0.8824  0.5282
 8764SOL    HW237926   1.985   2.216   9.185  2.6352 -0.8365 -1.8240
 8765SOL     OW37927   0.251   1.340   6.302 -0.3186 -0.0383 -0.3040
 8765SOL    HW137928   0.298   1.408   6.350  1.4203 -2.0937  0.9234
 8765SOL    HW237929   0.159   1.367   6.307  0.1106  0.6687  3.3222
 8766SOL     OW37930   4.344   0.111   3.355 -0.4672  1.0438  0.3542
 8766SOL    HW137931   4.265   0.095   3.408  0.2906 -0.1332  1.1375
 8766SOL    HW237932   4.389   0.181   3.402  0.9786  0.0293  0.4819
 8767SOL     OW37933   4.617   4.246  17.749 -0.3551  0.0899  0.3040
 8767SOL    HW137934   4.661   4.199   0.064 -1.0185 -1.0486 -0.0464
 8767SOL    HW237935   4.529   4.208  17.751 -0.5987  0.6273 -0.1960
 8768SOL     OW37936   3.568   0.620   1.276  0.1887 -0.0570  0.0179
 8768SOL    HW137937   3.658   0.604   1.249  0.0738  0.3247 -0.5963
 8768SOL    HW237938   3.578   0.706   1.317 -0.5575  0.9519 -1.8960
 8769SOL     OW37939   0.576   1.877   8.790  0.3970  0.0190 -0.4667
 8769SOL    HW137940   0.485   1.884   8.821  0.7659  1.7170  0.2324
 8769SOL    HW237941   0.576   1.942   8.719  2.9108 -0.5773 -1.0198
 8770SOL     OW37942   2.357   4.502  11.557 -0.3322  0.2570 -0.1877
 8770SOL    HW137943   2.299   4.566  11.515 -1.6603 -0.4746  0.5663
 8770SOL    HW237944   2.342   4.423  11.505  1.5737 -0.4414  0.3571
 8771SOL     OW37945   3.011   4.292  15.008 -0.3778  0.5395 -0.1383
 8771SOL    HW137946   3.012   4.210  15.057  1.3632  1.2210  0.9632
 8771SOL    HW237947   3.064   4.282  14.929  3.1503  2.4371  1.9973
 8772SOL     OW37948   1.646   2.204   7.894 -0.1508 -0.1767  0.4829
 8772SOL    HW137949   1.728   2.219   7.846 -0.6701  2.1512  0.3098
 8772SOL    HW237950   1.587   2.203   7.819 -1.6405 -3.1727  1.7000
 8773SOL     OW37951   1.094   2.656  13.982  0.6408 -0.0772 -0.2458
 8773SOL    HW137952   1.016   2.611  13.951  0.5912 -0.0399 -0.1759
 8773SOL    HW237953   1.135   2.682  13.900  0.5419 -1.4600 -0.7301
 8774SOL     OW37954   3.292   3.996   8.847  0.2860 -0.2213 -0.4243
 8774SOL    HW137955   3.295   4.082   8.805  0.1432  0.5075  1.0432
 8774SOL    HW237956   3.224   4.002   8.914 -0.5119 -0.9540 -1.1543
 8775SOL     OW37957   3.646   3.299   2.020 -0.7766  0.4312 -0.7490
 8775SOL    HW137958   3.635   3.216   2.067  1.2225  1.1487  0.9602
 8775SOL    HW237959   3.678   3.256   1.940  0.0747 -2.3663  1.0822
 8776SOL     OW37960   2.186   3.130  16.227 -0.0442  0.4131 -0.5413
 8776SOL    HW137961   2.137   3.128  16.145 -2.4756 -0.5433  0.9334
 8776SOL    HW237962   2.142   3.059  16.273  2.0713  2.4448  4.6452
 8777SOL     OW37963   2.717   2.987   7.273 -0.0806  0.4947 -0.2569
 8777SOL    HW137964   2.630   3.017   7.248 -1.1703 -2.0175  0.5788
 8777SOL    HW237965   2.759   3.065   7.311  0.9305 -1.1851  2.1046
 8778SOL     OW37966   1.818   4.157   3.230  0.0114 -0.0374 -0.1861
 8778SOL    HW137967   1.908   4.180   3.254  0.2682  0.3985 -1.5448
 8778SOL    HW237968   1.829   4.065   3.208  0.5256  0.2604 -1.1420
 8779SOL     OW37969   2.184   3.318   8.400  0.7308 -0.1185  0.8298
 8779SOL    HW137970   2.097   3.314   8.359  0.8737 -1.1708  0.6152
 8779SOL    HW237971   2.183   3.409   8.430 -1.7100  0.3263 -0.5226
 8780SOL     OW37972   1.037   1.012  10.723  0.0669  0.3510 -0.1839
 8780SOL    HW137973   0.990   1.022  10.640  2.2620 -1.8797 -1.7110
 8780SOL    HW237974   0.966   0.970  10.773  0.2383  1.5660  1.0580
 8781SOL     OW37975   3.389   3.181   2.084  0.1948  0.0936  0.2265
 8781SOL    HW137976   3.443   3.239   2.031  2.0160 -1.9937 -0.1882
 8781SOL    HW237977   3.314   3.162   2.028  0.5085  1.6019 -0.7075
 8782SOL     OW37978   3.714   2.009   4.713  0.0697  0.3694 -0.1001
 8782SOL    HW137979   3.659   2.072   4.758 -1.3263  0.0514 -1.3376
 8782SOL    HW237980   3.761   2.070   4.656  0.3677  0.6029  0.4052
 8783SOL     OW37981   1.475   2.119   6.496  0.2461  0.5902  0.3653
 8783SOL    HW137982   1.518   2.173   6.431 -1.5050 -1.2713 -2.3802
 8783SOL    HW237983   1.507   2.039   6.454  1.2394  1.0041  0.3578
 8784SOL     OW37984   0.620   2.011   9.974 -0.0392  0.1079  0.0993
 8784SOL    HW137985   0.626   1.918   9.993  0.5461  0.4384  1.5830
 8784SOL    HW237986   0.704   2.043  10.007 -2.7894  3.8003  3.6437
 8785SOL     OW37987   0.821   0.496  15.557  0.0847 -0.3008  0.4965
 8785SOL    HW137988   0.892   0.470  15.498  0.8220 -0.2505  1.3670
 8785SOL    HW237989   0.825   0.415  15.608  1.1971  0.4788  1.6428
 8786SOL     OW37990   2.873   1.665  12.415 -0.0738 -0.0092  0.1685
 8786SOL    HW137991   2.778   1.672  12.403 -0.0644 -1.0854 -0.4761
 8786SOL    HW237992   2.896   1.742  12.363 -1.1077 -1.0737 -1.8620
 8787SOL     OW37993   0.443   1.145  15.677  0.2186  0.1346  0.2001
 8787SOL    HW137994   0.409   1.232  15.697  2.2301  0.3026  2.7580
 8787SOL    HW237995   0.524   1.166  15.631  0.6338  0.4066  1.0628
 8788SOL     OW37996   3.705   3.439   1.718  0.2276 -0.4367 -0.3541
 8788SOL    HW137997   3.684   3.353   1.680  1.8318 -0.9699 -0.0125
 8788SOL    HW237998   3.631   3.471   1.769  0.9158  0.2189  0.2202
 8789SOL     OW37999   2.243   0.506   9.361  0.3480  0.2163 -0.1831
 8789SOL    HW138000   2.171   0.443   9.367  1.2072 -0.9688 -2.6047
 8789SOL    HW238001   2.307   0.456   9.413  0.5113 -0.1638 -0.7527
 8790SOL     OW38002   2.536   1.150  16.774 -0.3666  0.1938 -0.0555
 8790SOL    HW138003   2.521   1.057  16.757  2.1705 -0.0842 -0.7552
 8790SOL    HW238004   2.631   1.153  16.768 -0.3046 -1.0824  0.2352
 8791SOL     OW38005   1.570   2.554  14.174  0.1688 -0.3416  0.3093
 8791SOL    HW138006   1.523   2.476  14.204 -0.9298  0.0274 -0.4856
 8791SOL    HW238007   1.503   2.621  14.179  0.8439  0.2996  0.8003
 8792SOL     OW38008   4.009   4.393  15.295 -0.2444 -0.2573 -0.0623
 8792SOL    HW138009   3.967   4.309  15.283  1.3537 -0.9587 -0.6836
 8792SOL    HW238010   4.057   4.386  15.377 -0.5535  0.2423  0.1675
 8793SOL     OW38011   4.613   0.497   7.226 -0.0029  0.1441  0.3649
 8793SOL    HW138012   4.655   0.411   7.219 -3.4630 -1.4268 -1.3321
 8793SOL    HW238013   4.640   0.543   7.148 -1.8643  0.9919  0.2129
 8794SOL     OW38014   4.461   3.109  11.443  0.1192 -0.1362 -0.0499
 8794SOL    HW138015   4.430   3.073  11.360  0.5547 -1.0740  0.2016
 8794SOL    HW238016   4.531   3.049  11.468  0.9219  1.1810  0.9180
 8795SOL     OW38017   4.591   2.837   4.397  0.2959  0.2351 -0.7193
 8795SOL    HW138018   4.624   2.901   4.335 -0.1244  3.0706  1.9960
 8795SOL    HW238019   4.509   2.810   4.355 -1.2108  1.8884  1.1674
 8796SOL     OW38020   0.990   2.086   5.388  0.1519 -0.1793 -0.0232
 8796SOL    HW138021   1.038   2.004   5.377  0.6147 -0.1989  2.1826
 8796SOL    HW238022   1.048   2.122   5.320  1.0152 -0.7168  0.4256
 8797SOL     OW38023   1.577   1.298   9.049  0.4694 -0.3104 -0.2809
 8797SOL    HW138024   1.553   1.226   9.106 -2.1767  0.1289 -0.8689
 8797SOL    HW238025   1.491   1.331   9.023  0.2969  0.4461  1.2232
 8798SOL     OW38026   0.094   4.240   4.666  0.3477  0.0504 -0.4278
 8798SOL    HW138027   0.079   4.325   4.707  0.0047 -0.8639  1.3736
 8798SOL    HW238028   0.011   4.201   4.639 -0.4873  1.0768  0.6821
 8799SOL     OW38029   3.385   3.563   9.114  0.4567 -0.5901  0.5389
 8799SOL    HW138030   3.364   3.656   9.113 -0.2640 -0.7662 -2.0149
 8799SOL    HW238031   3.447   3.546   9.184 -0.0139 -1.1473  0.8258
 8800SOL     OW38032   0.456   3.893   5.742  0.5485  0.5826  0.5071
 8800SOL    HW138033   0.501   3.840   5.676  1.7148  3.1928 -0.7663
 8800SOL    HW238034   0.515   3.882   5.817  1.2420  2.7503  0.2681
 8801SOL     OW38035   1.251   2.003   9.769 -0.4806 -0.1681 -0.7445
 8801SOL    HW138036   1.305   2.080   9.749 -2.8416  1.5904 -0.2788
 8801SOL    HW238037   1.310   1.933   9.741  0.1802 -0.3270  1.0427
 8802SOL     OW38038   0.329   3.400   9.340  0.7173  0.1513 -0.2115
 8802SOL    HW138039   0.407   3.368   9.387 -2.4215 -2.1586  3.3973
 8802SOL    HW238040   0.343   3.494   9.327 -2.5763  0.5724 -0.6618
 8803SOL     OW38041   0.474   0.779   4.204  0.0298 -0.1623 -0.4131
 8803SOL    HW138042   0.545   0.825   4.250  2.1963 -0.6367 -3.2836
 8803SOL    HW238043   0.515   0.724   4.137  1.4085  1.4475 -0.8974
 8804SOL     OW38044   4.355   3.959  14.910 -0.1709 -0.1293  0.2746
 8804SOL    HW138045   4.342   4.048  14.943 -2.4662  1.1038 -3.9240
 8804SOL    HW238046   4.276   3.910  14.934 -0.8278 -0.0446 -1.7138
 8805SOL     OW38047   1.813   3.376   4.059  0.1162 -0.7422  0.2716
 8805SOL    HW138048   1.785   3.284   4.064 -2.4978 -0.0347 -1.6001
 8805SOL    HW238049   1.835   3.394   3.967 -0.0586 -1.7175  0.0344
 8806SOL     OW38050   1.909   1.145  17.342 -0.1909 -0.2185  0.2054
 8806SOL    HW138051   1.856   1.086  17.395 -1.6043  1.8183  1.0260
 8806SOL    HW238052   1.928   1.092  17.264 -0.5073 -0.9311  0.6171
 8807SOL     OW38053   4.537   3.560   4.132  0.5897 -0.8544  0.5784
 8807SOL    HW138054   4.532   3.627   4.064 -1.3503 -1.4820  0.0856
 8807SOL    HW238055   4.473   3.601   4.190  0.9329 -0.5095  0.7115
 8808SOL     OW38056   2.666   2.489   8.924 -0.2595  0.2995  0.7550
 8808SOL    HW138057   2.623   2.558   8.975  0.6288  0.9131  0.6707
 8808SOL    HW238058   2.722   2.443   8.987  0.6345 -0.5725 -0.6729
 8809SOL     OW38059   3.884   1.434   3.041 -0.7128 -0.7025  0.2114
 8809SOL    HW138060   3.928   1.505   3.089  1.5030 -1.1455 -1.1644
 8809SOL    HW238061   3.883   1.355   3.096 -4.4991 -1.8490 -1.5273
 8810SOL     OW38062   1.821   1.051   3.724 -0.1310 -0.1426  0.1135
 8810SOL    HW138063   1.746   1.063   3.666  1.2802  0.2045 -1.6494
 8810SOL    HW238064   1.769   1.076   3.801  0.4814  1.0853  0.1199
 8811SOL     OW38065   1.375   3.951   5.458 -0.4570  0.7090  0.3521
 8811SOL    HW138066   1.299   4.009   5.451 -1.4901 -0.8106 -1.2051
 8811SOL    HW238067   1.377   3.926   5.550 -0.1808  0.5632  0.3051
 8812SOL     OW38068   2.501   1.211  13.478  0.2065  0.0180  0.0346
 8812SOL    HW138069   2.452   1.228  13.398  0.2244  2.1696  0.4751
 8812SOL    HW238070   2.470   1.129  13.516  0.3884 -0.9081 -1.8214
 8813SOL     OW38071   1.179   0.626   4.099  0.5855  0.2435 -0.1674
 8813SOL    HW138072   1.134   0.660   4.022 -0.1404  0.1095  0.1921
 8813SOL    HW238073   1.229   0.550   4.070 -0.1190  0.4311 -1.8609
 8814SOL     OW38074   1.114   1.626  14.276 -0.0392  0.6352  0.1225
 8814SOL    HW138075   1.018   1.630  14.276 -0.1086 -0.4433  2.7963
 8814SOL    HW238076   1.129   1.602  14.368 -1.6942  2.2252  0.8013
 8815SOL     OW38077   1.435   4.052   4.748 -0.7363 -0.2228  0.4775
 8815SOL    HW138078   1.373   4.125   4.743 -2.0699 -1.3378  0.8386
 8815SOL    HW238079   1.453   4.050   4.842  3.6703  0.8014 -0.3521
 8816SOL     OW38080   2.501   0.997   6.643  0.5442 -0.5192  0.3788
 8816SOL    HW138081   2.451   1.008   6.723  1.6559  0.4808  0.9405
 8816SOL    HW238082   2.583   1.047   6.649 -0.3694  1.2345 -1.7651
 8817SOL     OW38083   3.373   1.241   7.859 -0.2203 -0.5371  0.9811
 8817SOL    HW138084   3.401   1.310   7.919  0.8480  2.4316 -2.8978
 8817SOL    HW238085   3.440   1.173   7.846 -1.9439 -1.8427 -1.0427
 8818SOL     OW38086   0.926   2.692  16.675 -0.2098 -0.1280 -0.0993
 8818SOL    HW138087   0.972   2.629  16.619 -2.2012 -0.7631 -1.0056
 8818SOL    HW238088   0.879   2.745  16.610  0.7017  0.4019 -0.3352
 8819SOL     OW38089   0.870   4.069   6.090 -0.2512 -0.6024  0.1167
 8819SOL    HW138090   0.898   3.995   6.144 -0.2726 -0.0853  0.8373
 8819SOL    HW238091   0.861   4.135   6.158  1.7878  0.3467 -0.5175
 8820SOL     OW38092   3.023   1.991  16.800 -1.2940 -0.3702 -0.2114
 8820SOL    HW138093   2.988   2.025  16.882  1.4915  1.1859  0.3117
 8820SOL    HW238094   3.087   2.060  16.780  0.1102 -1.7057 -0.3526
 8821SOL     OW38095   4.736   3.801   2.469  0.3301  0.1452  0.7518
 8821SOL    HW138096   0.053   3.773   2.541 -0.3342  1.9732  1.9740
 8821SOL    HW238097   0.063   3.824   2.404  0.5096 -0.7456  0.6188
 8822SOL     OW38098   3.243   3.851   9.942 -0.7522 -0.1476 -0.3522
 8822SOL    HW138099   3.182   3.825  10.012  0.1962 -0.2462  0.4342
 8822SOL    HW238100   3.203   3.804   9.868  0.8788  0.7073 -1.7636
 8823SOL     OW38101   3.297   4.716   2.194 -0.3997  0.5234  0.1945
 8823SOL    HW138102   3.372   4.661   2.175 -2.2172 -1.3928 -1.4905
 8823SOL    HW238103   3.337   0.063   2.197  0.1481  0.1792  2.7176
 8824SOL     OW38104   0.326   2.062   8.986 -0.1860  0.0325  0.4172
 8824SOL    HW138105   0.354   1.978   9.023 -0.9638 -0.0611  0.7975
 8824SOL    HW238106   0.239   2.071   9.024  0.2195  0.8816  1.1388
 8825SOL     OW38107   0.822   2.596   7.179 -0.0714 -0.3518  0.0800
 8825SOL    HW138108   0.875   2.549   7.114  0.5704 -0.0101  0.3580
 8825SOL    HW238109   0.895   2.625   7.235 -1.8263  1.6958  1.3034
 8826SOL     OW38110   0.674   0.488   2.217  0.0605  0.1461  0.2357
 8826SOL    HW138111   0.618   0.565   2.202 -1.0370 -0.8851 -0.9652
 8826SOL    HW238112   0.650   0.431   2.144  0.2264  0.0065  0.2924
 8827SOL     OW38113   1.890   1.709   5.707  0.0536 -0.6018  0.2336
 8827SOL    HW138114   1.801   1.675   5.705 -0.8052  1.6168  1.5798
 8827SOL    HW238115   1.911   1.687   5.798  1.5698 -0.0429  0.0160
 8828SOL     OW38116   2.676   1.675   2.069  0.3498  0.4431  0.2839
 8828SOL    HW138117   2.711   1.671   1.980  2.3651  1.8821  1.0043
 8828SOL    HW238118   2.646   1.766   2.066  0.3537  0.4177 -0.4546
 8829SOL     OW38119   4.618   4.045   5.780  0.2478  0.1392 -0.0574
 8829SOL    HW138120   4.588   4.062   5.870  1.2887 -1.4072  0.5704
 8829SOL    HW238121   4.712   4.056   5.793 -0.1699 -0.3901  3.4585
 8830SOL     OW38122   1.737   4.466   5.375 -0.0862  0.1143 -0.4176
 8830SOL    HW138123   1.771   4.429   5.456  1.4747 -0.3927 -1.3156
 8830SOL    HW238124   1.753   4.394   5.314 -0.4223  0.2370 -0.6532
 8831SOL     OW38125   2.646   2.681   9.421 -0.5969 -0.8323  0.1759
 8831SOL    HW138126   2.728   2.726   9.402  0.1056 -2.4847 -0.7085
 8831SOL    HW238127   2.590   2.758   9.433 -0.8880 -0.6583 -2.2506
 8832SOL     OW38128   1.707   1.182   8.127 -0.3216 -0.6845 -0.2632
 8832SOL    HW138129   1.653   1.218   8.198 -1.5394 -0.0126 -1.5379
 8832SOL    HW238130   1.639   1.166   8.061  2.0988 -1.1919 -2.6280
 8833SOL     OW38131   3.098   2.155   4.286  0.7227  0.5206 -0.0315
 8833SOL    HW138132   3.126   2.209   4.213 -0.7232  1.8266  0.3979
 8833SOL    HW238133   3.024   2.119   4.237  1.7711 -1.3417 -0.2600
 8834SOL     OW38134   1.753   2.610   4.400 -0.9343  0.2891  0.3358
 8834SOL    HW138135   1.766   2.696   4.440  0.6194  1.0342 -1.7723
 8834SOL    HW238136   1.826   2.561   4.439  1.4961  3.5432 -0.1183
 8835SOL     OW38137   1.999   1.330  10.879  0.2570  0.5032  0.3955
 8835SOL    HW138138   1.962   1.252  10.837  0.9034  0.9795 -1.0540
 8835SOL    HW238139   2.047   1.286  10.949  0.9441 -0.8209 -0.8975
 8836SOL     OW38140   3.018   1.020   3.009 -0.3810 -0.3261  0.4376
 8836SOL    HW138141   3.037   1.096   2.953  1.3306 -0.3778  0.9507
 8836SOL    HW238142   2.947   0.987   2.954 -0.3089  2.7117 -1.4440
 8837SOL     OW38143   1.792   2.610   9.403  0.2361  0.3334 -0.2442
 8837SOL    HW138144   1.754   2.688   9.361  0.0661  0.6241  0.4494
 8837SOL    HW238145   1.882   2.632   9.425  0.5673 -2.6085  1.3345
 8838SOL     OW38146   3.267   3.517   5.478  0.8014 -0.5533 -0.8550
 8838SOL    HW138147   3.269   3.613   5.478  0.9407 -0.5693  2.3617
 8838SOL    HW238148   3.327   3.494   5.548  0.6313 -1.2855 -0.9456
 8839SOL     OW38149   3.124   2.530   5.237  0.8445 -0.0923  0.7129
 8839SOL    HW138150   3.136   2.625   5.230  0.1206  0.0620  1.6234
 8839SOL    HW238151   3.188   2.495   5.174  0.3858  0.8632 -0.2964
 8840SOL     OW38152   0.076   1.620   5.339 -0.1307  0.2954  0.2902
 8840SOL    HW138153   4.732   1.581   5.314  0.4817 -0.0483 -1.2002
 8840SOL    HW238154   0.084   1.703   5.292  0.3650 -0.3144 -0.6836
 8841SOL     OW38155   3.378   2.364   0.543  0.6593  0.3775 -0.3535
 8841SOL    HW138156   3.398   2.362   0.450  2.3869  0.8500 -0.0037
 8841SOL    HW238157   3.315   2.436   0.543  0.7544  0.4397 -2.6834
 8842SOL     OW38158   3.497   2.675   0.617  0.4061  0.3337 -0.4983
 8842SOL    HW138159   3.511   2.691   0.524 -0.4365  1.1489 -0.4778
 8842SOL    HW238160   3.411   2.634   0.613  0.2593  0.6889 -1.0319
 8843SOL     OW38161   2.366   3.177   3.887  0.2964 -0.3846  0.1378
 8843SOL    HW138162   2.392   3.186   3.796  1.5614  0.1681  0.5598
 8843SOL    HW238163   2.313   3.098   3.898 -2.3394  1.1129 -1.7208
 8844SOL     OW38164   2.046   0.359   2.409  0.1453 -0.1394 -0.2582
 8844SOL    HW138165   1.988   0.369   2.484 -0.4658  0.8392 -0.8665
 8844SOL    HW238166   2.107   0.298   2.450 -1.5973 -0.9223  1.1476
 8845SOL     OW38167   2.321   3.365   0.120 -0.4857 -0.6524  0.0662
 8845SOL    HW138168   2.341   3.292   0.061  2.3283  0.5675 -0.4775
 8845SOL    HW238169   2.397   3.421   0.103 -0.6951 -0.4430 -0.1920
 8846SOL     OW38170   3.833   4.082   2.340  0.5357 -0.0107 -0.0281
 8846SOL    HW138171   3.770   4.109   2.406  0.0571 -0.5434 -0.2672
 8846SOL    HW238172   3.788   4.103   2.258 -0.2504 -0.8246  0.1954
 8847SOL     OW38173   2.890   1.595   6.764  0.0501  0.2789  0.7453
 8847SOL    HW138174   2.862   1.599   6.673  1.5277 -0.8206  0.2504
 8847SOL    HW238175   2.984   1.591   6.748  0.0196 -0.0528  0.6528
 8848SOL     OW38176   1.880   0.630  14.898  0.2693  0.2225  0.4198
 8848SOL    HW138177   1.869   0.703  14.960  0.9515 -0.6635  1.5823
 8848SOL    HW238178   1.974   0.613  14.899  0.1879 -0.2194  0.3891
 8849SOL     OW38179   3.662   1.117  15.889  0.0045  0.2247 -0.2470
 8849SOL    HW138180   3.742   1.065  15.888 -0.6755 -0.8299  0.4008
 8849SOL    HW238181   3.594   1.053  15.911  0.3233 -0.1365 -0.3218
 8850SOL     OW38182   3.566   1.042   7.844 -0.1349 -0.3113 -0.3847
 8850SOL    HW138183   3.661   1.049   7.839 -0.2145  1.4815  0.5969
 8850SOL    HW238184   3.548   0.950   7.861  0.3191 -0.1352  0.9844
 8851SOL     OW38185   2.741   2.726   0.027  0.1686  0.0573  0.5331
 8851SOL    HW138186   2.796   2.764  17.714  1.3673 -1.2173  0.7781
 8851SOL    HW238187   2.719   2.646  17.734 -1.0412  1.5689 -1.4276
 8852SOL     OW38188   1.878   4.565   4.926  0.7018  0.3136 -0.6023
 8852SOL    HW138189   1.897   4.600   5.014  0.7996 -0.0615 -0.4739
 8852SOL    HW238190   1.883   4.472   4.948 -1.9328  0.3087 -0.0727
 8853SOL     OW38191   3.190   2.802   5.235 -0.0589 -0.0916  0.6948
 8853SOL    HW138192   3.161   2.893   5.238 -0.0139  0.0042 -1.5265
 8853SOL    HW238193   3.277   2.814   5.273  0.2844 -1.8664  0.4498
 8854SOL     OW38194   0.418   3.075   4.969  0.0711  0.0545  0.1311
 8854SOL    HW138195   0.435   2.996   4.918 -0.7493 -0.0258 -0.0300
 8854SOL    HW238196   0.336   3.105   4.929  0.1134 -0.4104 -0.3050
 8855SOL     OW38197   4.711   1.486   4.488 -0.0131  0.2515 -0.3801
 8855SOL    HW138198   4.646   1.440   4.541  0.1893  1.2841  0.7665
 8855SOL    HW238199   4.733   1.556   4.550 -0.0416  0.3899 -0.5262
 8856SOL     OW38200   3.229   2.428   6.367  0.1601  0.4761  0.1025
 8856SOL    HW138201   3.150   2.450   6.418  1.4630  1.4622  1.7098
 8856SOL    HW238202   3.192   2.363   6.308 -0.1296  0.8885 -0.1682
 8857SOL     OW38203   2.023   3.025   8.811  0.6567  0.1009  0.7696
 8857SOL    HW138204   2.115   3.038   8.789  0.4108  2.9085  1.3289
 8857SOL    HW238205   1.999   2.964   8.742 -2.8331  1.5521  0.6898
 8858SOL     OW38206   3.224   1.800   2.768 -0.4074 -0.3546 -0.1526
 8858SOL    HW138207   3.207   1.887   2.732  1.9171 -0.1958 -0.8251
 8858SOL    HW238208   3.292   1.816   2.833 -1.2455 -0.3065  0.7318
 8859SOL     OW38209   4.449   0.201  17.002 -0.2630  0.3027 -0.1740
 8859SOL    HW138210   4.436   0.136  17.071  1.3438 -0.0062 -0.1645
 8859SOL    HW238211   4.469   0.277  17.056 -3.3874  0.8366  0.1957
 8860SOL     OW38212   1.746   4.514   2.245 -0.1844  0.3974  0.0826
 8860SOL    HW138213   1.801   4.550   2.315 -2.8165  0.5780  2.0726
 8860SOL    HW238214   1.805   4.522   2.170  1.5923  1.7199  1.5981
 8861SOL     OW38215   0.414   0.293   2.903  0.1597  0.0774  0.2829
 8861SOL    HW138216   0.481   0.285   2.835 -0.2588  0.5985 -0.1987
 8861SOL    HW238217   0.333   0.298   2.851  0.6590 -1.5430 -0.6464
 8862SOL     OW38218   0.018   4.357   1.338  0.3499 -0.4282 -0.2393
 8862SOL    HW138219   0.090   4.405   1.296  0.0890  1.0052  0.9771
 8862SOL    HW238220   4.691   4.378   1.272  2.3239  1.1230 -1.7526
 8863SOL     OW38221   1.189   1.191   7.642  0.0372 -0.0960 -0.1420
 8863SOL    HW138222   1.275   1.232   7.646  0.8933 -1.8878 -0.3441
 8863SOL    HW238223   1.140   1.262   7.600 -1.0881  0.1367  1.5683
 8864SOL     OW38224   1.548   4.622   4.076 -0.7774 -0.2780 -0.8028
 8864SOL    HW138225   1.533   4.545   4.131 -1.5508 -0.4051 -1.2045
 8864SOL    HW238226   1.643   4.637   4.082 -0.4542 -3.3012  1.5624
 8865SOL     OW38227   0.189   3.500   5.940 -0.3050 -0.1771 -0.1358
 8865SOL    HW138228   0.208   3.421   5.889 -2.1452 -0.8667  0.2658
 8865SOL    HW238229   0.142   3.562   5.884  2.1678  2.3899  0.6390
 8866SOL     OW38230   1.301   2.400   3.568 -0.3180 -0.6845 -0.3496
 8866SOL    HW138231   1.347   2.470   3.521  2.8489 -1.2657  1.9051
 8866SOL    HW238232   1.219   2.446   3.585 -0.0248 -0.0872 -0.5566
 8867SOL     OW38233   1.516   3.314   1.707  0.3550 -0.6595  0.3648
 8867SOL    HW138234   1.454   3.311   1.634 -0.1770  0.0173  0.7918
 8867SOL    HW238235   1.476   3.373   1.771 -0.1257  0.5855 -1.0666
 8868SOL     OW38236   0.387   2.066  10.561 -0.0163 -0.0328 -0.3371
 8868SOL    HW138237   0.478   2.037  10.549 -0.5976 -0.8642 -2.8300
 8868SOL    HW238238   0.370   2.071  10.655 -1.9302 -0.8911 -0.6464
 8869SOL     OW38239   3.228   4.698   3.791 -0.1382  0.0968  0.2750
 8869SOL    HW138240   3.218   4.647   3.872 -0.0596 -0.8732 -0.3254
 8869SOL    HW238241   3.284   0.023   3.834  1.6205 -0.7780 -0.6978
 8870SOL     OW38242   0.955   2.959   5.058 -0.3216 -0.3464  0.0082
 8870SOL    HW138243   0.938   2.881   5.006  1.0516  0.5696 -1.8137
 8870SOL    HW238244   0.867   2.996   5.069  0.0357  0.6939 -0.6100
 8871SOL     OW38245   4.031   1.229   5.219  0.5178  0.4676 -0.4460
 8871SOL    HW138246   4.059   1.166   5.285 -0.1686 -0.6024 -1.1963
 8871SOL    HW238247   3.968   1.282   5.269  0.8600  1.2504 -0.8335
 8872SOL     OW38248   4.518   1.718   7.533 -0.6272  0.1432  0.3205
 8872SOL    HW138249   4.497   1.668   7.612 -0.0490  0.5318  0.7211
 8872SOL    HW238250   4.606   1.747   7.557 -0.4804  0.9294 -1.2320
 8873SOL     OW38251   2.872   0.068   5.674 -0.2151  0.3286  0.0097
 8873SOL    HW138252   2.824   4.737   5.630  2.4764 -1.8657  0.5798
 8873SOL    HW238253   2.955   0.060   5.626 -0.5108 -1.3860 -0.1995
 8874SOL     OW38254   2.847   0.574   5.774  0.3056  0.0482 -0.4070
 8874SOL    HW138255   2.781   0.620   5.721 -0.6840  0.9565  1.6012
 8874SOL    HW238256   2.832   0.484   5.744 -1.6537 -0.4130  1.9339
 8875SOL     OW38257   0.125   3.897   9.333  0.6696 -0.3443 -0.2601
 8875SOL    HW138258   0.212   3.911   9.369  0.5207  0.2057 -0.1141
 8875SOL    HW238259   0.070   3.913   9.409  0.4018 -0.4744 -0.4265
 8876SOL     OW38260   4.465   3.240   4.824  0.2498 -0.4975 -0.5446
 8876SOL    HW138261   4.374   3.213   4.816  0.0850 -0.7593  2.2523
 8876SOL    HW238262   4.500   3.164   4.872 -1.7368 -0.8301  0.3578
 8877SOL     OW38263   2.718   1.332   7.994  0.0496 -0.3582 -0.1132
 8877SOL    HW138264   2.773   1.340   8.072  0.5143 -0.3709 -0.4398
 8877SOL    HW238265   2.775   1.365   7.925 -1.3167 -1.6889 -1.8954
 8878SOL     OW38266   1.386   4.310   9.134  0.5690  0.5064  0.2338
 8878SOL    HW138267   1.313   4.248   9.131 -0.1614  1.3545  0.5483
 8878SOL    HW238268   1.355   4.393   9.098  0.4434  0.6178  0.5954
 8879SOL     OW38269   1.129   0.559  15.861  0.9190  0.1166 -0.0297
 8879SOL    HW138270   1.100   0.618  15.791  0.1682  1.4015  1.3636
 8879SOL    HW238271   1.056   0.565  15.923  0.2067 -0.0467 -0.8560
 8880SOL     OW38272   0.483   2.830   3.706  0.2696 -0.1947  0.0801
 8880SOL    HW138273   0.563   2.800   3.663  0.2940 -1.3308  0.8992
 8880SOL    HW238274   0.529   2.862   3.784 -0.2568 -0.1486  0.3768
 8881SOL     OW38275   2.823   3.467  14.224  0.7587 -0.6822  0.0678
 8881SOL    HW138276   2.776   3.462  14.307 -0.7838  1.0393 -0.6984
 8881SOL    HW238277   2.916   3.451  14.240  1.4244  2.1419 -0.8151
 8882SOL     OW38278   3.053   1.324   7.305 -0.1069  0.6281  0.5683
 8882SOL    HW138279   3.015   1.236   7.313  1.4777  0.1032  2.1405
 8882SOL    HW238280   3.034   1.353   7.394 -0.6406 -1.8919  1.2770
 8883SOL     OW38281   1.550   2.415   4.414 -0.2478  0.0382 -0.7864
 8883SOL    HW138282   1.630   2.468   4.425 -0.2312 -0.0342 -0.5648
 8883SOL    HW238283   1.503   2.459   4.343 -0.0153  1.7272  0.1161
 8884SOL     OW38284   4.443   2.313   8.287 -0.1387 -0.5072 -0.4078
 8884SOL    HW138285   4.464   2.320   8.194 -0.9177  0.7496 -0.4851
 8884SOL    HW238286   4.524   2.349   8.323  0.1739 -0.9070 -0.7092
 8885SOL     OW38287   1.049   1.219   3.812 -0.2841  0.1058  0.2736
 8885SOL    HW138288   0.970   1.272   3.823 -0.6446 -0.5735  0.9647
 8885SOL    HW238289   1.071   1.242   3.721  0.1435 -1.7156 -0.0933
 8886SOL     OW38290   3.180   3.461   6.627  0.1193  0.2090 -0.3936
 8886SOL    HW138291   3.238   3.398   6.670 -0.5670 -2.7774 -3.8251
 8886SOL    HW238292   3.247   3.525   6.603 -0.9368  1.5359  0.2149
 8887SOL     OW38293   3.596   2.317   1.639 -0.0842  0.5511  0.2049
 8887SOL    HW138294   3.593   2.222   1.654  1.4806  0.3518 -0.7870
 8887SOL    HW238295   3.503   2.328   1.620 -0.4896 -0.3939  1.6704
 8888SOL     OW38296   1.953   0.040   0.845 -1.0731  0.7521  0.4196
 8888SOL    HW138297   1.980   0.127   0.874 -0.6678  0.8249 -0.1763
 8888SOL    HW238298   1.971   0.056   0.753  1.0227  1.8203  0.9982
 8889SOL     OW38299   4.716   0.055   7.295 -0.1552  0.0971 -0.0945
 8889SOL    HW138300   4.658   0.063   7.371 -0.2236 -2.2232  0.0960
 8889SOL    HW238301   4.724   4.699   7.294  2.3222  0.3246  0.5096
 8890SOL     OW38302   2.761   3.895  10.623  0.0518 -0.3036 -0.5115
 8890SOL    HW138303   2.753   3.841  10.702  0.1071  1.5464  0.7705
 8890SOL    HW238304   2.824   3.963  10.649 -0.2466  0.4891 -1.8519
 8891SOL     OW38305   4.506   2.399   3.362  0.2787 -0.4811  0.1092
 8891SOL    HW138306   4.528   2.359   3.278  1.6669  0.8429 -0.1644
 8891SOL    HW238307   4.414   2.377   3.372 -0.2006  1.1649 -0.7115
 8892SOL     OW38308   4.402   4.481   2.154  0.8847 -0.2442  0.4977
 8892SOL    HW138309   4.313   4.461   2.125  1.4333 -1.3823 -0.3827
 8892SOL    HW238310   4.411   4.466   2.248 -0.5030  0.2669  0.7087
 8893SOL     OW38311   0.759   3.588   3.339 -0.3527 -0.1958 -0.8880
 8893SOL    HW138312   0.749   3.621   3.250  0.0543 -0.3670 -0.9953
 8893SOL    HW238313   0.671   3.598   3.375  0.5399  3.2801  0.4054
 8894SOL     OW38314   2.085   0.577  10.665 -0.0787  0.1675  0.3577
 8894SOL    HW138315   2.180   0.587  10.654 -0.1894  2.9175  1.8133
 8894SOL    HW238316   2.067   0.652  10.722  2.3505  1.0480 -0.0578
 8895SOL     OW38317   0.762   3.962  13.293 -0.0775  0.6514 -0.5225
 8895SOL    HW138318   0.778   4.056  13.290 -0.8847  0.8117 -0.0189
 8895SOL    HW238319   0.845   3.934  13.255 -0.1084 -0.3500  0.1337
 8896SOL     OW38320   3.821   3.446   8.058  0.0791 -0.2314  0.0806
 8896SOL    HW138321   3.768   3.368   8.075  0.3005 -0.1961  0.9517
 8896SOL    HW238322   3.798   3.457   7.966  1.0027  0.2253 -0.0950
 8897SOL     OW38323   0.884   4.055  12.562  0.3859  0.1586 -0.7454
 8897SOL    HW138324   0.844   3.993  12.501 -1.0910  1.5765 -1.2148
 8897SOL    HW238325   0.885   4.138  12.514  1.6333  1.8751  2.1913
 8898SOL     OW38326   0.684   2.488  12.864  0.5900 -0.2203  1.0051
 8898SOL    HW138327   0.757   2.536  12.903  1.0598 -1.2746  1.4415
 8898SOL    HW238328   0.696   2.396  12.888 -0.1892 -1.0795 -1.9849
 8899SOL     OW38329   1.592   0.942  11.694 -0.2971  0.0566 -0.4180
 8899SOL    HW138330   1.652   1.006  11.656  1.0180 -0.2743  1.0937
 8899SOL    HW238331   1.521   0.993  11.734 -0.0244  0.6315 -0.6685
 8900SOL     OW38332   0.381   1.587   1.314 -0.3592  0.0784 -0.2210
 8900SOL    HW138333   0.394   1.549   1.401  0.2450 -1.6802 -1.0996
 8900SOL    HW238334   0.309   1.646   1.340  0.8970  1.5313 -0.0559
 8901SOL     OW38335   0.399   3.992   9.880  0.6346 -0.1271  0.1975
 8901SOL    HW138336   0.442   3.933   9.817  2.7230  1.4414  0.1530
 8901SOL    HW238337   0.309   4.004   9.851  1.0349  0.8973 -0.5981
 8902SOL     OW38338   2.397   0.646   5.486 -0.1657  0.1309  0.1962
 8902SOL    HW138339   2.326   0.587   5.461  2.2941 -2.2703 -1.1517
 8902SOL    HW238340   2.448   0.601   5.553 -1.2384  0.2104  1.0688
 8903SOL     OW38341   2.702   2.264  14.954  0.0943 -0.2836  0.9960
 8903SOL    HW138342   2.720   2.357  14.970  0.6778  0.0458 -1.6016
 8903SOL    HW238343   2.751   2.257  14.872 -0.6845  0.4634  0.4596
 8904SOL     OW38344   2.047   3.750   9.464  0.5003  0.5900 -0.3727
 8904SOL    HW138345   2.032   3.811   9.537 -0.2182  0.3408 -0.3092
 8904SOL    HW238346   1.971   3.789   9.420  0.5361 -0.0002 -0.9590
 8905SOL     OW38347   1.456   1.866   0.244 -0.0600 -0.3185  0.0169
 8905SOL    HW138348   1.538   1.893   0.286  0.9175  0.1827 -2.2151
 8905SOL    HW238349   1.439   1.781   0.284  0.1410 -0.5058 -0.2947
 8906SOL     OW38350   2.896   0.180   9.952  0.1820 -1.1700 -0.0194
 8906SOL    HW138351   2.929   0.267   9.930  0.4748 -1.3424 -0.2460
 8906SOL    HW238352   2.821   0.196  10.009  1.4078 -1.3071  1.6219
 8907SOL     OW38353   0.278   4.638   6.835  0.3303 -0.0189  0.5543
 8907SOL    HW138354   0.204   4.621   6.777  0.4470 -0.6845  0.6012
 8907SOL    HW238355   0.226   4.705   6.880 -0.4616  1.4403 -2.5216
 8908SOL     OW38356   3.579   2.828   2.293 -0.0262 -0.3460 -0.1974
 8908SOL    HW138357   3.488   2.856   2.292  0.2366  0.5042 -1.6536
 8908SOL    HW238358   3.569   2.747   2.243  0.9971  1.3075 -3.1040
 8909SOL     OW38359   0.853   4.181   9.310  0.1539  0.2333 -0.4149
 8909SOL    HW138360   0.933   4.163   9.360 -0.8350  0.6015  1.2773
 8909SOL    HW238361   0.804   4.246   9.360 -1.4393  0.1259 -1.8473
 8910SOL     OW38362   0.696   0.822  12.246  0.4759 -0.2558 -0.3424
 8910SOL    HW138363   0.693   0.917  12.233 -1.2525 -0.0719  1.4004
 8910SOL    HW238364   0.681   0.813  12.340  1.4675 -2.9698 -0.4467
 8911SOL     OW38365   2.739   3.140   5.921 -0.0361 -0.1430  0.5659
 8911SOL    HW138366   2.692   3.223   5.921 -0.1786 -0.2515  3.1968
 8911SOL    HW238367   2.708   3.098   5.840  0.0134 -0.3439  0.6514
 8912SOL     OW38368   2.234   1.039  10.643 -0.3015  0.4995  0.2090
 8912SOL    HW138369   2.246   1.095  10.720 -3.5635 -0.7397  1.6670
 8912SOL    HW238370   2.151   1.072  10.608 -0.0686  1.0129  0.1531
 8913SOL     OW38371   1.604   3.321   7.155  0.6810  0.5131 -0.2997
 8913SOL    HW138372   1.688   3.352   7.190  1.0712  0.8151 -1.4721
 8913SOL    HW238373   1.640   3.237   7.126  0.7021  1.1796 -2.2140
 8914SOL     OW38374   2.751   2.226   5.613 -0.0062  0.2814 -0.3297
 8914SOL    HW138375   2.656   2.228   5.607  0.0819 -0.6668 -1.9989
 8914SOL    HW238376   2.777   2.149   5.564 -0.0110  0.0301  0.0592
 8915SOL     OW38377   2.809   2.641   4.328 -0.8565  0.0155  0.2275
 8915SOL    HW138378   2.721   2.658   4.295 -0.5532  1.4001  0.1342
 8915SOL    HW238379   2.862   2.695   4.269  0.0029 -0.5923  0.4399
 8916SOL     OW38380   2.913   4.022   9.493  0.3505 -0.0980 -0.2230
 8916SOL    HW138381   2.934   3.986   9.579 -1.7798  0.1418  0.3964
 8916SOL    HW238382   2.833   3.971   9.477  1.4771 -2.0622  0.4217
 8917SOL     OW38383   3.571   3.392   3.459 -0.3321  0.0841 -0.7676
 8917SOL    HW138384   3.609   3.408   3.545 -0.9848 -0.1381 -0.4391
 8917SOL    HW238385   3.640   3.431   3.405 -0.0583  0.5476 -0.0746
 8918SOL     OW38386   1.771   0.869   7.485  0.0656 -0.0648 -0.0673
 8918SOL    HW138387   1.860   0.872   7.520  1.1168  1.9603 -2.9063
 8918SOL    HW238388   1.743   0.953   7.520  2.6228  1.0691 -0.7858
 8919SOL     OW38389   3.139   2.032   9.890  0.1473  0.0686 -0.0993
 8919SOL    HW138390   3.103   1.992   9.969  1.2155  1.7436  1.2183
 8919SOL    HW238391   3.211   1.970   9.896 -0.2040 -0.6707 -3.0687
 8920SOL     OW38392   1.708   3.956   1.884  0.0432  0.2456 -0.0200
 8920SOL    HW138393   1.614   3.954   1.899 -0.2072 -1.9974 -1.9131
 8920SOL    HW238394   1.719   3.862   1.871 -1.0353  0.1902 -0.5475
 8921SOL     OW38395   2.282   3.954   4.931  0.2103 -0.5508  0.2981
 8921SOL    HW138396   2.340   4.029   4.943  1.2206 -1.1111 -1.0774
 8921SOL    HW238397   2.263   3.972   4.839 -0.5160  1.7539  0.9159
 8922SOL     OW38398   4.299   1.210   3.662 -0.1593 -0.1105 -1.0710
 8922SOL    HW138399   4.337   1.296   3.644  1.0479 -0.5299 -0.5041
 8922SOL    HW238400   4.280   1.174   3.575 -2.8616  0.2389 -0.6290
 8923SOL     OW38401   2.112   4.061   6.852  0.2830 -0.4459 -0.0186
 8923SOL    HW138402   2.177   4.126   6.824  0.5451  0.3614  2.4186
 8923SOL    HW238403   2.118   3.985   6.794 -0.7418 -1.3876  1.1162
 8924SOL     OW38404   1.568   1.130   2.339 -0.6206 -0.1493 -0.1145
 8924SOL    HW138405   1.608   1.091   2.417  1.4109 -0.0211 -1.0677
 8924SOL    HW238406   1.592   1.221   2.353  1.5647 -0.4762 -1.5467
 8925SOL     OW38407   2.807   4.104   2.485 -0.0132  0.5922  0.1800
 8925SOL    HW138408   2.811   4.079   2.577  1.0665  1.2924  0.3214
 8925SOL    HW238409   2.798   4.199   2.492  0.9929  0.7270 -0.4000
 8926SOL     OW38410   1.777   4.123  11.968 -0.0672  0.2019  0.3165
 8926SOL    HW138411   1.717   4.109  11.894  0.8715 -1.7421 -0.0709
 8926SOL    HW238412   1.821   4.205  11.944 -1.9006  1.0400 -0.2546
 8927SOL     OW38413   2.735   3.925  15.263  0.2428  0.0376  0.3157
 8927SOL    HW138414   2.656   3.882  15.229 -1.4889  1.7095  2.2103
 8927SOL    HW238415   2.696   3.964  15.341  0.0144  0.3541  0.0451
 8928SOL     OW38416   1.161   4.331   3.549 -0.1590  0.3029  0.3593
 8928SOL    HW138417   1.108   4.383   3.609  0.7345 -1.2306  2.4659
 8928SOL    HW238418   1.246   4.352   3.587  0.4899 -2.8482  0.6766
 8929SOL     OW38419   0.382   1.118   5.700 -0.4595  0.0869 -0.5160
 8929SOL    HW138420   0.346   1.126   5.612  2.0571 -2.0100 -1.7055
 8929SOL    HW238421   0.353   1.030   5.727 -0.8342 -0.0841 -1.4809
 8930SOL     OW38422   1.425   3.385   3.427  0.1478  0.9543 -0.2694
 8930SOL    HW138423   1.508   3.338   3.434 -0.2129  0.7045  2.3523
 8930SOL    HW238424   1.391   3.396   3.516 -0.0446  1.8356 -0.4457
 8931SOL     OW38425   2.232   3.570   5.471  0.8926 -0.1710 -0.6925
 8931SOL    HW138426   2.308   3.590   5.527  3.0119  0.1610 -3.7109
 8931SOL    HW238427   2.161   3.622   5.508 -0.1460 -2.2005  0.1158
 8932SOL     OW38428   0.491   2.434  10.621  0.2524  0.0650  0.4681
 8932SOL    HW138429   0.435   2.360  10.599 -1.9259  1.7119  0.4219
 8932SOL    HW238430   0.455   2.461  10.705  0.4576 -0.1611  0.6265
 8933SOL     OW38431   2.304   1.651   6.152  0.1586 -0.3631  0.5391
 8933SOL    HW138432   2.288   1.741   6.180 -1.9691 -0.8889  1.0146
 8933SOL    HW238433   2.267   1.599   6.223 -1.4288 -0.0309 -0.0469
 8934SOL     OW38434   4.676   3.126   8.405 -0.0707 -0.6405 -0.0146
 8934SOL    HW138435   0.001   3.085   8.462  0.9800 -1.3095 -1.6819
 8934SOL    HW238436   4.608   3.064   8.434 -1.3170  0.3821 -0.7360
 8935SOL     OW38437   1.322   0.366   8.856 -0.0364 -0.4158 -0.4237
 8935SOL    HW138438   1.346   0.326   8.773  0.5882  1.7865 -1.3074
 8935SOL    HW238439   1.386   0.436   8.870  0.3610 -0.6222 -1.2144
 8936SOL     OW38440   2.824   1.582   6.467 -0.2786  0.0859 -0.4454
 8936SOL    HW138441   2.742   1.597   6.420 -1.5026 -1.9320  1.0161
 8936SOL    HW238442   2.866   1.527   6.401 -2.7029 -0.9858 -1.1117
 8937SOL     OW38443   4.563   0.875  16.339 -0.1059 -0.4626  0.6326
 8937SOL    HW138444   4.481   0.893  16.385 -0.3829 -0.8413  0.2920
 8937SOL    HW238445   4.526   0.849  16.254 -1.2757  2.6153  0.1812
 8938SOL     OW38446   2.796   2.536   5.139  0.2473 -0.0722 -0.4480
 8938SOL    HW138447   2.779   2.554   5.232 -2.5592 -1.5636 -0.6770
 8938SOL    HW238448   2.888   2.560   5.128 -0.3350  1.8253 -1.1379
 8939SOL     OW38449   0.928   0.148   7.473 -0.0615  0.2434  0.2762
 8939SOL    HW138450   0.945   0.211   7.403  0.2902  1.3357  1.3520
 8939SOL    HW238451   0.960   0.066   7.436 -1.3276  0.5931 -1.6038
 8940SOL     OW38452   0.298   2.828   9.287 -0.8951 -0.6252  0.2091
 8940SOL    HW138453   0.392   2.836   9.278 -0.6344 -1.5380  2.0020
 8940SOL    HW238454   0.278   2.919   9.306 -0.1368 -0.0601 -1.7428
 8941SOL     OW38455   2.879   4.397   5.342 -0.6924 -0.1262 -0.2551
 8941SOL    HW138456   2.910   4.438   5.262 -1.1687 -0.0554 -0.4072
 8941SOL    HW238457   2.962   4.364   5.376 -0.3922 -1.4692 -2.2741
 8942SOL     OW38458   0.791   1.593  16.308 -0.6001  0.2689  0.0602
 8942SOL    HW138459   0.845   1.530  16.260 -1.3180  0.2413 -0.7098
 8942SOL    HW238460   0.842   1.674  16.303 -0.3615  0.1473  0.5242
 8943SOL     OW38461   0.370   0.301   6.838  0.3072 -0.0384 -0.5864
 8943SOL    HW138462   0.464   0.290   6.826  0.8314  0.3731  3.0770
 8943SOL    HW238463   0.362   0.258   6.923  1.3099  0.9017 -0.0257
 8944SOL     OW38464   3.888   2.418  12.233  0.2039  0.3159 -0.5043
 8944SOL    HW138465   3.933   2.475  12.296  2.2365  0.3860 -2.0280
 8944SOL    HW238466   3.949   2.403  12.161 -0.7749  1.3419 -1.5325
 8945SOL     OW38467   4.494   4.611  11.431 -0.3419  0.9726  0.0044
 8945SOL    HW138468   4.461   4.536  11.480  1.5606  0.7202  0.8902
 8945SOL    HW238469   4.497   4.678  11.499 -1.3418  0.1726  0.8354
 8946SOL     OW38470   1.578   2.517  12.553 -0.1601 -0.0920 -0.2734
 8946SOL    HW138471   1.522   2.591  12.528  1.3101  1.3473  0.6657
 8946SOL    HW238472   1.639   2.520  12.480  0.3319  0.4283  0.1606
 8947SOL     OW38473   0.274   1.212   5.467 -0.2586 -0.4770  0.2269
 8947SOL    HW138474   0.194   1.171   5.435  1.2337 -1.1658 -2.6462
 8947SOL    HW238475   0.261   1.307   5.461 -2.1771 -0.7225  0.6920
 8948SOL     OW38476   0.020   2.192   4.240  0.0745  0.0172  0.2931
 8948SOL    HW138477   4.680   2.139   4.229  2.5116 -3.0573 -2.6515
 8948SOL    HW238478   4.730   2.267   4.291  3.3742  2.1307 -0.9779
 8949SOL     OW38479   1.684   2.681   6.601  0.0613  0.3109  0.4124
 8949SOL    HW138480   1.663   2.765   6.562 -1.3640  0.1419  0.8083
 8949SOL    HW238481   1.715   2.628   6.527 -1.1316 -0.0457  0.1713
 8950SOL     OW38482   0.475   2.334   2.667  0.3017  0.4508  0.1063
 8950SOL    HW138483   0.411   2.282   2.618  1.5752 -1.2888  0.2989
 8950SOL    HW238484   0.435   2.420   2.653  0.3093  0.3324 -0.6495
 8951SOL     OW38485   3.273   3.465  17.545 -0.1981  0.3685  0.6129
 8951SOL    HW138486   3.351   3.513  17.516 -0.6127 -0.0093 -1.0990
 8951SOL    HW238487   3.232   3.439  17.463 -2.3794 -0.9846  2.1419
 8952SOL     OW38488   2.220   3.261   5.125  0.1609  0.0908 -0.3102
 8952SOL    HW138489   2.294   3.286   5.070  0.2174  0.1247 -0.2190
 8952SOL    HW238490   2.163   3.330   5.090  0.5603  1.2520  1.3534
 8953SOL     OW38491   0.530   3.641  14.737  0.1560  0.7297  0.5493
 8953SOL    HW138492   0.534   3.593  14.654  0.5745  0.8301  0.5151
 8953SOL    HW238493   0.457   3.701  14.720 -0.2619 -0.0490 -0.4170
 8954SOL     OW38494   1.414   3.013  15.159 -0.8942  0.3739 -0.0325
 8954SOL    HW138495   1.324   2.982  15.154 -0.8296  0.2933 -0.8331
 8954SOL    HW238496   1.394   3.088  15.102 -0.8645 -0.6238 -1.3724
 8955SOL     OW38497   4.144   3.728  11.991 -0.1212  0.2636  0.2142
 8955SOL    HW138498   4.175   3.804  11.942  1.4570 -0.1079  0.6632
 8955SOL    HW238499   4.142   3.665  11.919 -0.5409  1.4351 -0.8073
 8956SOL     OW38500   2.405   1.372   6.326  0.3181  0.0440 -0.3239
 8956SOL    HW138501   2.373   1.297   6.375  0.3146 -0.7097 -1.4759
 8956SOL    HW238502   2.341   1.378   6.254  0.8883 -1.0297 -0.9156
 8957SOL     OW38503   0.250   2.406   8.322 -0.2055 -0.3773  0.4373
 8957SOL    HW138504   0.262   2.324   8.274 -1.0623  0.2680 -0.8825
 8957SOL    HW238505   0.292   2.463   8.257  0.7861 -0.2873  1.1728
 8958SOL     OW38506   2.397   3.001   7.199  0.0472  0.0211  0.4599
 8958SOL    HW138507   2.412   2.973   7.109  0.6123  0.6916  0.3530
 8958SOL    HW238508   2.431   3.090   7.204 -0.4989  0.2538  0.0632
 8959SOL     OW38509   3.825   2.091  15.639  0.0231  0.1383  0.2571
 8959SOL    HW138510   3.796   2.035  15.711  0.7185  0.6804  0.9599
 8959SOL    HW238511   3.761   2.161  15.631  1.7239  1.5225 -1.4249
 8960SOL     OW38512   3.216   3.734  15.910 -0.1427 -0.2462  0.0152
 8960SOL    HW138513   3.150   3.665  15.916  1.3122 -1.7651 -1.7959
 8960SOL    HW238514   3.160   3.810  15.929  1.1517  0.6124  0.4308
 8961SOL     OW38515   1.946   1.841  11.960  0.1488  0.2335  0.0829
 8961SOL    HW138516   1.885   1.873  12.027  0.4126  0.0451  0.4088
 8961SOL    HW238517   2.022   1.896  11.978 -0.9395  1.3538  1.2695
 8962SOL     OW38518   2.968   1.520  16.740 -0.2739  0.1352 -0.0003
 8962SOL    HW138519   3.001   1.519  16.651 -0.1902  0.4289  0.0281
 8962SOL    HW238520   2.882   1.556  16.719  0.1356  2.7982  2.8396
 8963SOL     OW38521   2.607   1.848   1.245 -0.3631 -0.1166  0.0316
 8963SOL    HW138522   2.685   1.896   1.272 -0.6799  0.1883  0.3971
 8963SOL    HW238523   2.553   1.875   1.319  0.1317  1.5048 -0.1990
 8964SOL     OW38524   3.354   4.060  11.010 -0.2919  0.1491  0.3608
 8964SOL    HW138525   3.446   4.086  11.016 -0.1286 -0.1293 -1.0885
 8964SOL    HW238526   3.319   4.090  11.094 -1.6592  0.5041 -0.3382
 8965SOL     OW38527   4.668   2.145  16.566 -0.0708 -0.2410  0.3279
 8965SOL    HW138528   4.635   2.166  16.478 -1.9241 -2.3458  0.5189
 8965SOL    HW238529   4.653   2.230  16.608  0.5213  1.0744 -2.0839
 8966SOL     OW38530   4.128   4.569   3.211 -0.4848  0.7311  0.1259
 8966SOL    HW138531   4.135   4.474   3.201  3.5492  1.0095  0.0182
 8966SOL    HW238532   4.171   4.594   3.129 -0.1966  0.8178  0.3041
 8967SOL     OW38533   1.096   0.473  16.422  0.0220 -0.0871  0.0415
 8967SOL    HW138534   1.061   0.557  16.452  0.5815  0.5466 -1.0815
 8967SOL    HW238535   1.146   0.437  16.496 -0.9322  1.6646  1.5226
 8968SOL     OW38536   2.282   0.540   2.034  0.0226 -0.0070  0.4023
 8968SOL    HW138537   2.331   0.481   2.091  0.0412 -1.2085 -0.8588
 8968SOL    HW238538   2.274   0.503   1.946 -0.5405  0.7254  0.1419
 8969SOL     OW38539   4.150   0.517  15.950  0.2406 -0.7949 -0.2237
 8969SOL    HW138540   4.231   0.493  15.904 -0.0131 -2.5385  0.2287
 8969SOL    HW238541   4.129   0.429  15.982 -0.9070 -1.5035 -2.9337
 8970SOL     OW38542   4.265   3.913   4.085  0.5026  0.0786 -0.0558
 8970SOL    HW138543   4.196   3.961   4.038 -0.3616 -0.1692  0.9431
 8970SOL    HW238544   4.321   3.983   4.117 -0.0441 -1.0380  3.3230
 8971SOL     OW38545   2.176   2.168   2.780 -0.0763 -0.6370 -0.6254
 8971SOL    HW138546   2.201   2.201   2.866 -1.3244 -0.8664 -0.1724
 8971SOL    HW238547   2.142   2.251   2.745 -0.8373 -1.1684 -1.1251
 8972SOL     OW38548   1.909   1.016   4.413 -0.2831 -0.0265 -0.2560
 8972SOL    HW138549   1.969   1.013   4.339 -0.9286 -0.8536 -0.7437
 8972SOL    HW238550   1.821   1.008   4.376  0.0627  0.2198 -1.1321
 8973SOL     OW38551   1.300   3.657   6.940  0.1290  0.1265  0.0909
 8973SOL    HW138552   1.369   3.614   6.889  0.4984  0.6070  0.1918
 8973SOL    HW238553   1.305   3.609   7.022 -0.1938  0.8594  0.5359
 8974SOL     OW38554   0.242   4.342   2.976  0.0336  0.4201 -0.5731
 8974SOL    HW138555   0.280   4.425   2.946  1.1389  0.0863 -0.1095
 8974SOL    HW238556   0.286   4.324   3.059 -0.9446 -0.1449 -0.1806
 8975SOL     OW38557   1.990   0.878   4.755  0.4299  0.3796 -0.4455
 8975SOL    HW138558   2.027   0.792   4.775  3.4808  1.1115 -2.8736
 8975SOL    HW238559   1.931   0.884   4.830  1.9750  2.1501  0.6416
 8976SOL     OW38560   2.069   3.266   5.898 -0.0094  0.3914  0.3217
 8976SOL    HW138561   2.028   3.179   5.904  2.6921 -0.9911 -1.1386
 8976SOL    HW238562   2.154   3.237   5.867 -1.0615 -1.0555 -1.2482
 8977SOL     OW38563   3.948   0.057   3.166  0.7251  0.1040 -0.6726
 8977SOL    HW138564   3.987   0.071   3.079 -1.0016 -0.4156 -1.5487
 8977SOL    HW238565   3.971   4.705   3.181  2.3812  0.9204  1.6743
 8978SOL     OW38566   1.988   2.032  16.233 -0.0701 -0.0945 -0.6812
 8978SOL    HW138567   2.078   2.053  16.209 -0.3313 -0.1299 -1.7374
 8978SOL    HW238568   1.958   2.007  16.145 -0.2831  0.1963 -0.6894
 8979SOL     OW38569   0.639   3.329   8.916 -0.2555 -0.5914  0.3389
 8979SOL    HW138570   0.549   3.355   8.935 -0.5310 -0.5516 -0.9674
 8979SOL    HW238571   0.682   3.415   8.915  0.4570 -0.9592 -1.8656
 8980SOL     OW38572   0.381   4.291   3.193 -0.1511  0.6307 -0.0393
 8980SOL    HW138573   0.384   4.283   3.288 -1.4845  0.6204 -0.0039
 8980SOL    HW238574   0.476   4.295   3.179 -0.2195 -0.6970 -0.8662
 8981SOL     OW38575   2.222   4.436   5.640  0.3562 -0.5689 -0.4817
 8981SOL    HW138576   2.167   4.514   5.627  1.3461  0.0308 -1.0606
 8981SOL    HW238577   2.167   4.368   5.600 -2.2758  0.9319  0.5564
 8982SOL     OW38578   4.661   2.211  16.020  0.0449  0.0479  0.0595
 8982SOL    HW138579   4.608   2.287  16.045  0.7949  0.3657  0.6842
 8982SOL    HW238580   4.668   2.174  16.108  1.6349 -2.1158 -0.9843
 8983SOL     OW38581   1.165   0.290   8.018  0.1850  0.4208 -0.5811
 8983SOL    HW138582   1.256   0.271   7.993 -0.1781 -0.3624 -1.3281
 8983SOL    HW238583   1.122   0.210   7.986 -1.2044  1.0695 -0.3532
 8984SOL     OW38584   3.450   1.448   3.423  0.1246  0.2027  0.2769
 8984SOL    HW138585   3.375   1.497   3.390  1.1074  0.7803 -1.0923
 8984SOL    HW238586   3.425   1.443   3.515 -1.7027 -0.5329 -0.2490
 8985SOL     OW38587   2.474   1.310  17.004  0.2033  0.9153 -0.5021
 8985SOL    HW138588   2.476   1.240  16.939  0.3733  1.1376 -0.7336
 8985SOL    HW238589   2.527   1.374  16.957  1.6081  0.4147  0.4217
 8986SOL     OW38590   4.093   1.735   4.729  0.7256  0.4604  0.0324
 8986SOL    HW138591   4.090   1.824   4.695  1.6637  0.1873 -0.7547
 8986SOL    HW238592   4.008   1.699   4.700 -0.1175  1.1747  1.6425
 8987SOL     OW38593   0.802   4.548   3.587  0.2596  0.2491  1.1012
 8987SOL    HW138594   0.773   4.474   3.534  2.0890  0.9854 -0.9006
 8987SOL    HW238595   0.849   4.602   3.524  0.8825  0.1649  1.4865
 8988SOL     OW38596   0.451   3.019  16.841  0.4536  0.3661  0.1072
 8988SOL    HW138597   0.404   3.068  16.773 -1.1576 -0.6095  0.4974
 8988SOL    HW238598   0.540   3.038  16.813  0.6542  0.3432  0.7449
 8989SOL     OW38599   3.982   0.099  12.481  0.0459 -0.6075  0.0948
 8989SOL    HW138600   4.050   0.162  12.456 -0.4175 -0.4761 -0.8474
 8989SOL    HW238601   3.929   0.091  12.402  1.1468  1.4056 -0.8468
 8990SOL     OW38602   1.921   4.036   7.077 -0.2505  0.3137 -0.0024
 8990SOL    HW138603   1.985   4.057   7.009  1.2933 -0.3969  1.2389
 8990SOL    HW238604   1.871   4.117   7.082 -0.0042  0.3586  1.5293
 8991SOL     OW38605   3.130   0.393   8.393 -0.0461 -0.0404 -0.0416
 8991SOL    HW138606   3.068   0.464   8.379 -2.3644 -1.7148  1.9052
 8991SOL    HW238607   3.067   0.327   8.365 -0.8719  0.6744  0.1136
 8992SOL     OW38608   2.298   0.132   4.432  0.3515 -0.6007  0.1973
 8992SOL    HW138609   2.296   0.184   4.512  0.7362 -1.0829  0.5202
 8992SOL    HW238610   2.293   0.206   4.372 -0.9487 -0.5292  0.4068
 8993SOL     OW38611   2.428   2.170   7.763  0.2739 -0.1729 -0.1344
 8993SOL    HW138612   2.427   2.090   7.816  1.5803 -0.3995 -0.4502
 8993SOL    HW238613   2.489   2.210   7.825 -1.1325 -1.0581  1.8212
 8994SOL     OW38614   2.622   4.588   2.590 -0.0268  1.1094 -0.5139
 8994SOL    HW138615   2.569   4.545   2.657  0.6785  3.5929  1.6308
 8994SOL    HW238616   2.642   4.670   2.635  0.5725  0.9515 -0.4965
 8995SOL     OW38617   4.082   4.469   6.065 -0.3229  0.5490 -0.0391
 8995SOL    HW138618   4.064   4.556   6.101 -1.3975  0.4439 -0.3280
 8995SOL    HW238619   4.000   4.455   6.018 -0.6684 -0.6518  0.9190
 8996SOL     OW38620   0.046   2.178   3.180  0.0212 -0.3950 -0.3736
 8996SOL    HW138621   0.131   2.210   3.148  0.4160 -0.1391  0.9320
 8996SOL    HW238622   0.070   2.111   3.244  1.6529  0.8791  0.3590
 8997SOL     OW38623   4.355   2.792   4.852  0.0159  0.3202  0.6521
 8997SOL    HW138624   4.325   2.847   4.779 -0.4449  1.1292  1.4469
 8997SOL    HW238625   4.406   2.854   4.904  1.8868  0.4925 -1.3727
 8998SOL     OW38626   2.356   3.537   8.064  0.0999 -0.2553  0.1512
 8998SOL    HW138627   2.402   3.465   8.021 -0.5642 -0.6684  0.1308
 8998SOL    HW238628   2.396   3.617   8.030  0.8712 -0.0752  1.4760
 8999SOL     OW38629   3.700   1.968  14.916  0.4893  0.1834 -0.3644
 8999SOL    HW138630   3.766   2.012  14.970  0.4410  1.5482 -1.4223
 8999SOL    HW238631   3.748   1.907  14.860 -0.5765 -1.3040  0.3572
 9000SOL     OW38632   3.794   4.400  10.945  0.1851  0.1098  0.7042
 9000SOL    HW138633   3.829   4.313  10.923  0.6292  0.7307 -1.0961
 9000SOL    HW238634   3.703   4.410  10.919  0.2089 -0.5828  0.3384
 9001SOL     OW38635   4.415   2.430   6.512 -0.2445 -0.1713 -0.1560
 9001SOL    HW138636   4.414   2.376   6.591  1.5304  3.2858  2.2177
 9001SOL    HW238637   4.455   2.366   6.453  1.8414 -0.4478  1.5486
 9002SOL     OW38638   3.013   0.440   6.564 -0.0758 -0.7284  0.4011
 9002SOL    HW138639   2.977   0.388   6.636  1.6473 -1.8024  0.4913
 9002SOL    HW238640   3.099   0.459   6.603  0.0910 -0.6603  0.0033
 9003SOL     OW38641   4.694   1.618  16.680  0.4931 -0.0112 -0.1113
 9003SOL    HW138642   4.624   1.598  16.742 -1.4506  3.3995 -1.2480
 9003SOL    HW238643   4.671   1.708  16.660 -0.9032 -0.2235  0.5176
 9004SOL     OW38644   1.626   3.269   9.598 -0.6360  0.1520 -0.1421
 9004SOL    HW138645   1.681   3.279   9.676  0.7718 -0.7492 -1.0355
 9004SOL    HW238646   1.670   3.310   9.524 -0.2868 -1.3834 -0.7747
 9005SOL     OW38647   3.399   3.274   8.159 -0.5410 -0.0497  0.1188
 9005SOL    HW138648   3.376   3.344   8.221 -2.4045 -2.7023  2.4446
 9005SOL    HW238649   3.493   3.278   8.172 -0.7962  1.2195  1.7121
 9006SOL     OW38650   1.089   3.339   7.095 -0.4071 -0.0802  0.2519
 9006SOL    HW138651   1.053   3.420   7.129 -0.0783 -0.1533  0.7645
 9006SOL    HW238652   1.177   3.339   7.132  0.3963 -0.4222 -1.6513
 9007SOL     OW38653   1.395   2.020   4.156  0.3740  0.1578  0.1446
 9007SOL    HW138654   1.354   2.094   4.200  2.8284  1.6390 -0.0874
 9007SOL    HW238655   1.488   2.044   4.161  0.0894  1.0214  1.2636
 9008SOL     OW38656   3.426   2.636   6.876  0.2313 -0.3691  0.4370
 9008SOL    HW138657   3.334   2.646   6.902  0.7395  1.5471  1.5415
 9008SOL    HW238658   3.445   2.549   6.911 -0.3070 -0.4397  0.5546
 9009SOL     OW38659   0.484   4.337  11.461  0.2717  0.6800  0.6948
 9009SOL    HW138660   0.502   4.365  11.551 -0.3482 -1.4821  1.4829
 9009SOL    HW238661   0.570   4.346  11.421 -0.2410  1.1657 -0.3135
 9010SOL     OW38662   1.317   3.457   2.126 -0.0949 -0.1859  0.6693
 9010SOL    HW138663   1.251   3.489   2.188 -1.1424  1.3732 -1.2292
 9010SOL    HW238664   1.343   3.379   2.174 -0.8477 -1.5529 -1.1415
 9011SOL     OW38665   4.538   1.248   1.431 -0.0828  0.1988 -0.3237
 9011SOL    HW138666   4.448   1.217   1.437 -0.1826  0.7010  0.6516
 9011SOL    HW238667   4.518   1.339   1.453  0.5745  0.7020 -1.7726
 9012SOL     OW38668   4.514   1.104  10.808 -0.0101 -0.2390 -0.1517
 9012SOL    HW138669   4.564   1.076  10.885 -0.2825  0.2098  0.1919
 9012SOL    HW238670   4.424   1.098  10.839 -0.1061 -1.6645 -0.6855
 9013SOL     OW38671   4.256   4.179  15.599  0.0328 -0.6879  0.1362
 9013SOL    HW138672   4.327   4.162  15.538  1.1285 -0.9654  1.4958
 9013SOL    HW238673   4.249   4.092  15.637 -1.8371 -0.4328  0.4027
 9014SOL     OW38674   3.943   0.202   5.632 -0.2974  0.4080 -0.8981
 9014SOL    HW138675   4.020   0.194   5.687  0.2979  1.0015 -1.6427
 9014SOL    HW238676   3.985   0.204   5.546 -0.6720 -2.0888 -1.1530
 9015SOL     OW38677   0.169   2.944  16.514 -0.5095  0.3159 -0.4021
 9015SOL    HW138678   0.164   2.894  16.432  1.0428  0.5215 -0.6344
 9015SOL    HW238679   0.193   2.866  16.564 -3.0187 -0.7034 -0.8061
 9016SOL     OW38680   3.331   2.346   1.202  0.4653  0.7177 -0.1476
 9016SOL    HW138681   3.292   2.331   1.116 -0.9205 -0.8933  0.7568
 9016SOL    HW238682   3.296   2.269   1.247 -0.6863  1.0963 -0.4055
 9017SOL     OW38683   0.800   1.222   7.034  0.0576  0.1412 -0.2464
 9017SOL    HW138684   0.752   1.191   7.111 -2.1686  0.4023 -1.5226
 9017SOL    HW238685   0.860   1.289   7.066 -0.3045  0.5073 -0.3304
 9018SOL     OW38686   3.687   0.263   5.937  0.1904 -0.2675  0.2745
 9018SOL    HW138687   3.747   0.288   6.007  1.4154 -0.2978 -0.7625
 9018SOL    HW238688   3.727   0.312   5.865  1.4452 -1.5137  0.1248
 9019SOL     OW38689   3.914   2.590  16.160 -0.1366  0.2602  0.0109
 9019SOL    HW138690   3.970   2.668  16.158 -0.2087  0.2935 -0.5664
 9019SOL    HW238691   3.927   2.553  16.073  1.1930 -0.8151  0.6795
 9020SOL     OW38692   2.272   0.296   9.125 -0.3974 -0.4681 -0.8942
 9020SOL    HW138693   2.282   0.202   9.111  0.2133 -0.9238  2.4718
 9020SOL    HW238694   2.358   0.328   9.098 -0.1700 -1.8787 -1.8221
 9021SOL     OW38695   2.863   3.080   3.514  0.0565  0.6957  0.3404
 9021SOL    HW138696   2.874   3.128   3.432 -2.3397  0.5240 -0.1036
 9021SOL    HW238697   2.925   3.007   3.506 -0.2098  0.8065 -2.8001
 9022SOL     OW38698   2.273   0.957   3.999 -0.0845 -0.7339 -0.1472
 9022SOL    HW138699   2.362   0.989   4.015 -0.2804 -1.3807  2.1063
 9022SOL    HW238700   2.244   1.010   3.925 -1.6149 -0.0258  0.9663
 9023SOL     OW38701   2.815   0.025   4.980  0.1872  0.3982  0.4816
 9023SOL    HW138702   2.889   0.082   4.958  0.8045 -0.2857  0.7985
 9023SOL    HW238703   2.736   0.075   4.961  0.4528  0.9118  0.7163
 9024SOL     OW38704   0.748   0.153   4.911 -0.4549 -0.0672 -0.0053
 9024SOL    HW138705   0.666   0.168   4.864  0.4410  0.6194 -1.3473
 9024SOL    HW238706   0.811   0.156   4.839  1.9026  2.1095  2.1645
 9025SOL     OW38707   1.725   0.211   2.738 -0.3433 -0.2330  0.8319
 9025SOL    HW138708   1.692   0.215   2.828 -1.2547  1.5194  0.4307
 9025SOL    HW238709   1.817   0.192   2.756 -0.0595  0.9163  0.5909
 9026SOL     OW38710   4.237   3.949  11.856  0.1741  0.2923 -0.2431
 9026SOL    HW138711   4.225   3.987  11.769  0.8499 -1.7921 -1.2242
 9026SOL    HW238712   4.255   4.022  11.916 -0.4921 -1.2475  1.8322
 9027SOL     OW38713   1.017   0.743   4.439  0.0893  0.5148  0.6549
 9027SOL    HW138714   1.043   0.798   4.365  1.1701  1.9404  2.1086
 9027SOL    HW238715   1.072   0.777   4.509 -1.5293  1.3860  1.5132
 9028SOL     OW38716   0.945   1.641   3.536 -0.0189  0.3958 -0.0530
 9028SOL    HW138717   0.878   1.648   3.604  0.4839  1.2350  0.3597
 9028SOL    HW238718   0.922   1.723   3.492  0.3589  0.5447  0.0299
 9029SOL     OW38719   1.604   0.426  12.453 -0.2171  0.2584 -0.4434
 9029SOL    HW138720   1.608   0.521  12.440 -0.3233  0.6176  2.1196
 9029SOL    HW238721   1.622   0.421  12.547  2.3166  0.4899 -0.9223
 9030SOL     OW38722   1.580   3.947   6.195 -0.8226 -0.0032 -0.0651
 9030SOL    HW138723   1.569   3.874   6.256 -1.3214 -1.0877 -1.4446
 9030SOL    HW238724   1.595   3.897   6.115  0.6707 -0.1951  0.3263
 9031SOL     OW38725   1.970   2.283   6.865  0.4743  0.6234 -0.2083
 9031SOL    HW138726   1.917   2.286   6.944  0.5267  2.7244 -0.2517
 9031SOL    HW238727   1.984   2.378   6.865 -0.6185  0.7781 -0.0636
 9032SOL     OW38728   2.165   2.081   6.760 -0.5643  0.8133 -0.2756
 9032SOL    HW138729   2.239   2.142   6.758  1.1424 -1.2189 -0.3131
 9032SOL    HW238730   2.107   2.125   6.821 -0.1779 -1.8975  2.0465
 9033SOL     OW38731   1.111   2.489  14.203 -0.1530 -0.2137 -0.1272
 9033SOL    HW138732   1.131   2.528  14.117  2.4699  0.9322  1.0047
 9033SOL    HW238733   1.182   2.428  14.221  0.9148  1.0404 -0.1027
 9034SOL     OW38734   4.290   1.636  10.021  0.0103  0.2227  0.4271
 9034SOL    HW138735   4.219   1.639   9.957 -0.8320 -1.9352  1.2694
 9034SOL    HW238736   4.275   1.721  10.064  0.7814 -0.8566  2.8355
 9035SOL     OW38737   2.353   1.037   3.236  0.4079  0.3819 -0.0311
 9035SOL    HW138738   2.272   1.061   3.191  0.3002  1.1317  0.5653
 9035SOL    HW238739   2.375   0.946   3.214  1.5898  0.3658  1.2341
 9036SOL     OW38740   0.686   2.654   6.916 -0.4100  0.3310 -0.3020
 9036SOL    HW138741   0.746   2.580   6.917 -0.2704  0.4581  0.9695
 9036SOL    HW238742   0.669   2.660   7.010 -1.1232 -0.6971 -0.3703
 9037SOL     OW38743   2.322   4.420   3.809  0.1253  0.0191  0.4596
 9037SOL    HW138744   2.275   4.469   3.877  1.1892  0.8721  0.5741
 9037SOL    HW238745   2.262   4.361   3.764 -0.9105  1.8132 -0.5342
 9038SOL     OW38746   1.680   2.645   8.346  0.6377 -0.0655  0.3269
 9038SOL    HW138747   1.762   2.605   8.375  0.2834 -1.5115 -0.6629
 9038SOL    HW238748   1.705   2.693   8.268 -0.8486 -1.3927 -0.9665
 9039SOL     OW38749   3.972   3.495   8.913 -0.1069 -0.4698 -0.2646
 9039SOL    HW138750   3.992   3.505   9.006  1.8485 -0.4163 -0.6893
 9039SOL    HW238751   3.896   3.437   8.917  0.2328 -0.8010  1.2752
 9040SOL     OW38752   3.578   3.710  10.712 -0.1518  0.5074  0.2254
 9040SOL    HW138753   3.621   3.768  10.774 -0.6951 -0.2248  1.2907
 9040SOL    HW238754   3.634   3.729  10.637  0.3908 -2.0588 -0.0461
 9041SOL     OW38755   0.319   3.957   3.143 -0.1156 -0.9774  0.3655
 9041SOL    HW138756   0.247   3.971   3.081  0.2141  0.0801  0.2275
 9041SOL    HW238757   0.390   3.945   3.080  1.4922  2.0778  1.6043
 9042SOL     OW38758   1.230   2.981   8.553  0.0242 -0.2053 -0.0919
 9042SOL    HW138759   1.245   3.033   8.632  0.8436 -0.8698  0.1803
 9042SOL    HW238760   1.294   3.023   8.496  1.9288  0.6187  2.6824
 9043SOL     OW38761   2.302   2.228   4.144  0.2097  0.0769 -0.0972
 9043SOL    HW138762   2.222   2.251   4.192  0.3064 -2.6544  1.3877
 9043SOL    HW238763   2.363   2.270   4.204  0.5514 -0.2097 -0.2385
 9044SOL     OW38764   0.811   1.900   8.573 -0.3688 -0.3874 -0.0164
 9044SOL    HW138765   0.770   1.907   8.487 -2.8559 -0.8870  1.1263
 9044SOL    HW238766   0.765   1.968   8.623  1.0455  0.0891  0.6550
 9045SOL     OW38767   4.155   2.176   4.127 -0.0091 -0.0669  0.5323
 9045SOL    HW138768   4.243   2.193   4.097  0.5239 -2.5303  0.6543
 9045SOL    HW238769   4.150   2.087   4.091 -1.8336  0.3396 -0.2095
 9046SOL     OW38770   3.193   1.536   6.783 -0.9310  0.3346  0.0880
 9046SOL    HW138771   3.153   1.524   6.869  1.3539  2.5351  1.4641
 9046SOL    HW238772   3.221   1.628   6.782  0.4416 -0.0992 -1.7178
 9047SOL     OW38773   0.638   0.877   6.474 -0.1644 -0.2475 -0.2655
 9047SOL    HW138774   0.590   0.951   6.511 -0.8784  0.4007 -2.4990
 9047SOL    HW238775   0.722   0.902   6.511  0.3899 -1.2061 -0.8696
 9048SOL     OW38776   2.587   2.686   1.460 -0.1892  0.1431  0.2059
 9048SOL    HW138777   2.590   2.704   1.366 -0.2001 -1.6458 -0.1436
 9048SOL    HW238778   2.669   2.723   1.492  0.5873  0.3445 -1.9785
 9049SOL     OW38779   3.440   2.446  16.375  0.8887  0.0239  0.3861
 9049SOL    HW138780   3.511   2.387  16.352 -1.0768 -1.6157 -1.4104
 9049SOL    HW238781   3.430   2.494  16.293 -0.9859  1.6322  1.5426
 9050SOL     OW38782   4.296   1.554   7.636 -0.3064  0.4265 -0.0083
 9050SOL    HW138783   4.295   1.541   7.731  1.2076  1.0392  0.0913
 9050SOL    HW238784   4.302   1.649   7.625  3.0981 -0.0998 -2.6022
 9051SOL     OW38785   1.826   4.510   2.683  0.5874 -0.4920  0.6250
 9051SOL    HW138786   1.811   4.557   2.765 -3.9119 -0.8765 -0.0100
 9051SOL    HW238787   1.867   4.431   2.717  1.2516 -0.5633 -0.3427
 9052SOL     OW38788   1.909   4.556   3.196 -0.9222  0.0437 -0.0736
 9052SOL    HW138789   1.834   4.498   3.211 -0.5072 -0.2541  0.8243
 9052SOL    HW238790   1.886   4.592   3.110 -1.5756  1.8415  0.8370
 9053SOL     OW38791   2.800   4.055   6.762 -0.1004 -0.1359  0.0576
 9053SOL    HW138792   2.745   3.981   6.737  1.4306 -1.0507 -0.5989
 9053SOL    HW238793   2.848   4.075   6.681  0.9286  0.8834  0.9245
 9054SOL     OW38794   3.851   0.615   2.311  0.1471  0.2312 -0.4671
 9054SOL    HW138795   3.821   0.563   2.237 -1.4635  1.6100 -0.7720
 9054SOL    HW238796   3.923   0.562   2.346 -0.5574  0.6866  1.6428
 9055SOL     OW38797   2.649   3.474  16.774  0.0104  0.4059  0.3524
 9055SOL    HW138798   2.566   3.506  16.739  0.1515 -1.0886 -1.3004
 9055SOL    HW238799   2.698   3.452  16.695 -2.0120 -3.1778  0.1363
 9056SOL     OW38800   0.859   3.600  17.709  0.5680 -0.0862  0.1700
 9056SOL    HW138801   0.766   3.598  17.685  0.7697  1.7441 -0.7668
 9056SOL    HW238802   0.892   3.529  17.654 -0.2842  0.2331 -0.7819
 9057SOL     OW38803   3.256   3.742   3.982 -0.1041 -0.1609  0.2371
 9057SOL    HW138804   3.258   3.826   4.027 -0.4443 -0.2208  0.3708
 9057SOL    HW238805   3.263   3.686   4.059 -1.1954 -3.9186 -2.3947
 9058SOL     OW38806   3.791   1.996   7.952  0.2055  0.3533  0.4343
 9058SOL    HW138807   3.726   1.928   7.970  0.1077  0.5084  0.6716
 9058SOL    HW238808   3.745   2.037   7.879 -0.4431 -1.2428 -0.0662
 9059SOL     OW38809   3.674   4.143   4.441 -0.6729  0.3400  0.2738
 9059SOL    HW138810   3.644   4.058   4.409 -1.4531  0.0898  1.6967
 9059SOL    HW238811   3.734   4.120   4.511 -1.2399 -0.7137  0.4074
 9060SOL     OW38812   3.273   1.829   0.043  0.4821  0.0503 -0.4422
 9060SOL    HW138813   3.237   1.880   0.115  0.5387 -2.3600  1.3055
 9060SOL    HW238814   3.356   1.871   0.023  0.1666  0.4410 -0.9556
 9061SOL     OW38815   1.215   3.133   9.928  0.1412 -0.5463 -0.0894
 9061SOL    HW138816   1.296   3.176   9.955  0.5441 -0.2239 -1.7778
 9061SOL    HW238817   1.174   3.203   9.877 -0.1639 -0.7759 -0.1608
 9062SOL     OW38818   1.535   2.706   3.282  0.3103 -0.2491  0.1566
 9062SOL    HW138819   1.628   2.712   3.304  0.7859 -3.1378 -1.0424
 9062SOL    HW238820   1.526   2.781   3.223 -2.6774  0.9224  2.1225
 9063SOL     OW38821   3.144   3.735   5.048 -0.0544 -0.0666 -0.0657
 9063SOL    HW138822   3.152   3.706   4.958  0.2883  0.1406 -0.1010
 9063SOL    HW238823   3.139   3.646   5.084  1.1553 -0.5588 -1.0999
 9064SOL     OW38824   0.434   0.592  15.010 -0.3545  0.3989 -0.0732
 9064SOL    HW138825   0.471   0.505  15.028 -1.1406  0.1413  0.3050
 9064SOL    HW238826   0.346   0.556  15.004 -0.5483  0.9061 -0.2378
 9065SOL     OW38827   4.061   0.512   3.576  0.2729  0.0494  0.2287
 9065SOL    HW138828   4.012   0.478   3.501 -0.5305  2.0809 -0.1793
 9065SOL    HW238829   4.144   0.518   3.529 -1.0030  1.6833 -1.8544
 9066SOL     OW38830   3.370   4.111   6.224 -0.5215  0.1352 -0.3425
 9066SOL    HW138831   3.366   4.174   6.152  1.0304 -0.4217 -0.9093
 9066SOL    HW238832   3.276   4.102   6.239 -0.6096 -0.1080 -1.0585
 9067SOL     OW38833   3.532   2.692  11.796 -0.4749 -0.1218  0.2202
 9067SOL    HW138834   3.537   2.646  11.879 -1.6570 -1.9207 -0.7005
 9067SOL    HW238835   3.446   2.676  11.755  0.1038 -0.7237 -0.7600
 9068SOL     OW38836   0.006   2.494   3.165  0.0985  0.4833 -0.5117
 9068SOL    HW138837   4.710   2.545   3.237 -1.6526 -1.5533  0.0891
 9068SOL    HW238838   0.097   2.473   3.182 -0.6449 -3.8020 -1.6241
 9069SOL     OW38839   3.497   4.523   8.217 -0.1184 -0.3513 -0.3565
 9069SOL    HW138840   3.493   4.613   8.248  0.4884 -0.4675  0.0643
 9069SOL    HW238841   3.443   4.478   8.282 -1.4502  0.2952 -1.0117
 9070SOL     OW38842   3.050   0.001   2.129 -0.6702  0.0205 -0.2173
 9070SOL    HW138843   3.045   0.094   2.152 -3.7232 -0.2805  0.3520
 9070SOL    HW238844   3.126   4.702   2.171  0.0928  0.9660 -0.7418
 9071SOL     OW38845   0.226   4.138  11.465 -0.7127 -0.3632  0.3139
 9071SOL    HW138846   0.260   4.082  11.535 -2.1928  0.6451  1.8557
 9071SOL    HW238847   0.165   4.075  11.429  2.2969 -2.7855 -0.5747
 9072SOL     OW38848   0.285   2.685   9.955 -0.7430 -0.1617 -0.4631
 9072SOL    HW138849   0.309   2.663  10.045 -3.7046  0.2516  0.4617
 9072SOL    HW238850   0.214   2.750   9.954 -0.5063  0.0942 -0.5741
 9073SOL     OW38851   3.938   1.301  14.980  0.1168 -0.2539  0.5165
 9073SOL    HW138852   3.906   1.388  14.957 -0.8498 -1.0036 -1.0059
 9073SOL    HW238853   3.937   1.256  14.895 -2.5518 -1.3902  1.1650
 9074SOL     OW38854   0.315   3.385   2.641  0.1067  0.2177 -0.8234
 9074SOL    HW138855   0.399   3.341   2.644 -0.9196 -1.5955  1.0712
 9074SOL    HW238856   0.279   3.339   2.717  0.9239  0.2042 -0.4563
 9075SOL     OW38857   0.678   4.100  11.191  0.2354 -0.0961  0.3192
 9075SOL    HW138858   0.686   4.008  11.216 -0.5797 -0.0201  0.8431
 9075SOL    HW238859   0.758   4.137  11.231  1.5399 -0.8981 -1.5446
 9076SOL     OW38860   1.745   1.843   5.094 -0.2192 -0.4506  0.5720
 9076SOL    HW138861   1.810   1.781   5.129  0.5131  1.1787  2.1316
 9076SOL    HW238862   1.798   1.898   5.037 -0.9844 -1.3051 -0.9534
 9077SOL     OW38863   2.712   0.953   5.741 -0.1270  0.1288  0.2095
 9077SOL    HW138864   2.755   1.036   5.764  1.8629 -0.9687  0.4145
 9077SOL    HW238865   2.668   0.940   5.825  2.0466 -0.5704  1.2362
 9078SOL     OW38866   3.151   0.708  11.592 -0.1187  0.1685  0.7021
 9078SOL    HW138867   3.155   0.664  11.508 -1.4286  1.9116 -0.2647
 9078SOL    HW238868   3.210   0.782  11.578  1.0455 -0.5074  2.0602
 9079SOL     OW38869   1.406   3.274  17.235 -0.2963  0.1108  0.1327
 9079SOL    HW138870   1.321   3.263  17.277 -0.7387  0.9529 -0.5322
 9079SOL    HW238871   1.395   3.350  17.178 -1.4901  0.6477  1.0739
 9080SOL     OW38872   4.391   1.353   4.995  0.4063 -0.1566  0.0036
 9080SOL    HW138873   4.372   1.343   4.902  2.5295  0.1834 -0.4856
 9080SOL    HW238874   4.317   1.305   5.029  0.4392 -0.3393 -0.1838
 9081SOL     OW38875   3.320   0.618   2.699  0.0000  0.1373 -0.1434
 9081SOL    HW138876   3.244   0.621   2.757  0.1904 -0.8742  0.1440
 9081SOL    HW238877   3.269   0.601   2.619  0.7766 -0.6548 -0.4624
 9082SOL     OW38878   3.928   1.700   8.880  0.0719  0.1225  0.0605
 9082SOL    HW138879   3.891   1.736   8.800 -0.5169 -1.0310 -0.1944
 9082SOL    HW238880   4.015   1.740   8.877  0.4337 -0.9201 -3.7023
 9083SOL     OW38881   0.588   0.920   8.210  0.5741  0.7363 -0.2894
 9083SOL    HW138882   0.539   0.857   8.158  1.0981 -1.1785  1.5531
 9083SOL    HW238883   0.518   0.986   8.215 -0.5808 -0.7114  2.1263
 9084SOL     OW38884   1.482   1.207   3.213 -0.3104  0.3530  0.0717
 9084SOL    HW138885   1.560   1.153   3.205 -0.3337 -0.0243  2.3465
 9084SOL    HW238886   1.454   1.223   3.123 -1.1294  1.8473  0.5733
 9085SOL     OW38887   3.905   1.413   8.307  0.4605  0.3327 -0.1968
 9085SOL    HW138888   3.824   1.381   8.266  0.8578 -2.2815  1.0642
 9085SOL    HW238889   3.977   1.417   8.244  0.1201  0.2841 -0.5936
 9086SOL     OW38890   3.066   2.446   2.045  0.3371 -0.3663 -0.5456
 9086SOL    HW138891   3.136   2.451   1.980  0.4060  1.4043 -0.3516
 9086SOL    HW238892   3.112   2.420   2.125 -0.8455  3.4318  1.4281
 9087SOL     OW38893   3.816   4.093   8.236 -0.8552  0.2524  0.2893
 9087SOL    HW138894   3.862   4.146   8.171 -2.2878  1.9431  0.6590
 9087SOL    HW238895   3.804   4.016   8.180  1.4940  0.5492 -0.6058
 9088SOL     OW38896   0.066   3.913   3.543 -0.1138 -0.1054  0.0851
 9088SOL    HW138897   0.001   3.984   3.540  0.4229  0.3410 -1.1507
 9088SOL    HW238898   0.144   3.968   3.542  0.1955 -0.5091  3.0662
 9089SOL     OW38899   2.076   3.126   5.593 -0.1036 -0.2954 -0.5300
 9089SOL    HW138900   2.061   3.122   5.688  0.9343  1.0948 -0.3032
 9089SOL    HW238901   2.016   3.197   5.574  0.8182  0.9378  1.1103
 9090SOL     OW38902   2.803   1.893   8.310 -0.2584  0.0128 -0.3378
 9090SOL    HW138903   2.735   1.959   8.294 -1.8660 -1.9415 -1.5210
 9090SOL    HW238904   2.761   1.857   8.388  1.4565 -2.6922 -0.6671
 9091SOL     OW38905   2.906   3.255   3.015  0.1771  0.0036  0.4180
 9091SOL    HW138906   2.918   3.345   2.985 -0.1983 -0.0282  0.1815
 9091SOL    HW238907   2.811   3.246   3.016  0.4883 -3.4280 -0.9942
 9092SOL     OW38908   1.343   2.962   8.225  0.0150  0.3495  0.0656
 9092SOL    HW138909   1.336   3.057   8.219  1.4211  0.5502  1.7892
 9092SOL    HW238910   1.403   2.953   8.299 -0.4342 -0.1145  0.3767
 9093SOL     OW38911   0.525   1.339   5.731  0.9618  0.2630 -0.1260
 9093SOL    HW138912   0.463   1.410   5.747  0.9454  0.7063 -2.0920
 9093SOL    HW238913   0.462   1.268   5.721  1.9654 -0.7407  0.6898
 9094SOL     OW38914   1.919   1.325  11.423 -0.1692 -0.2519  0.6837
 9094SOL    HW138915   1.922   1.405  11.372 -0.0454  0.0077  1.0912
 9094SOL    HW238916   2.011   1.303  11.439 -0.3369 -0.1541  1.7862
 9095SOL     OW38917   0.068   3.330   9.226  0.2109 -0.0553  0.1016
 9095SOL    HW138918   0.055   3.419   9.259 -1.4546  0.7070 -2.6469
 9095SOL    HW238919   0.113   3.350   9.144  1.3517 -0.4998  0.6171
 9096SOL     OW38920   3.768   1.349   5.362  0.2889 -0.3393 -0.1859
 9096SOL    HW138921   3.747   1.286   5.293 -0.5984  0.6569 -0.8195
 9096SOL    HW238922   3.731   1.304   5.438 -4.8309  2.4241 -1.0801
 9097SOL     OW38923   0.776   3.731   8.248 -0.0778  0.2587  0.1047
 9097SOL    HW138924   0.800   3.823   8.259 -1.0854  0.6530 -0.9591
 9097SOL    HW238925   0.724   3.732   8.167 -0.4144 -1.5282  0.3029
 9098SOL     OW38926   1.613   1.767  11.029 -0.0441 -0.2810 -0.0933
 9098SOL    HW138927   1.540   1.723  10.985 -1.6766 -0.0015  2.3489
 9098SOL    HW238928   1.689   1.713  11.005  0.9938  0.8268  0.6887
 9099SOL     OW38929   1.516   3.554   3.100  0.0906  0.1536 -0.1251
 9099SOL    HW138930   1.441   3.545   3.041  0.8257  0.3680 -1.0935
 9099SOL    HW238931   1.568   3.476   3.081  1.0790  0.6918  0.3762
 9100SOL     OW38932   0.144   4.701   3.440  0.8483 -0.3529 -0.0463
 9100SOL    HW138933   0.196   4.650   3.502  0.3238  1.8260  2.2125
 9100SOL    HW238934   0.199   4.701   3.362  0.1820  0.0583 -0.5233
 9101SOL     OW38935   4.016   3.481   0.049 -0.4108  0.0597  0.4529
 9101SOL    HW138936   4.097   3.432   0.063 -1.3292 -1.3008  0.9713
 9101SOL    HW238937   4.044   3.570   0.072 -1.1095  0.3599  0.1618
 9102SOL     OW38938   0.778   3.738  10.744  0.1287 -0.0398  0.0177
 9102SOL    HW138939   0.777   3.828  10.712 -1.1998  0.7879  2.3655
 9102SOL    HW238940   0.684   3.722  10.751  0.3489 -1.4543 -0.2438
 9103SOL     OW38941   1.531   3.454  11.188  0.5026 -0.5592 -0.3372
 9103SOL    HW138942   1.482   3.533  11.167  2.3037  0.7247  0.2817
 9103SOL    HW238943   1.525   3.405  11.106 -1.6442 -1.7760  0.5443
 9104SOL     OW38944   3.881   4.351  15.775 -0.1188  0.5863 -0.5924
 9104SOL    HW138945   3.935   4.356  15.696 -0.1953  1.5436 -0.5855
 9104SOL    HW238946   3.917   4.424  15.826  1.4963 -1.7976  1.7250
 9105SOL     OW38947   2.928   0.310   3.278  0.2503  0.5426 -0.1568
 9105SOL    HW138948   2.967   0.245   3.337 -0.5861 -0.6305 -0.8890
 9105SOL    HW238949   3.003   0.329   3.221 -0.3072  0.4999 -0.9036
 9106SOL     OW38950   0.542   2.184   3.648  0.4783  0.0757  0.0958
 9106SOL    HW138951   0.483   2.122   3.605  0.2878 -0.1608  0.6927
 9106SOL    HW238952   0.539   2.146   3.736  1.4917  2.7732  1.2854
 9107SOL     OW38953   2.444   2.022   3.353  0.4679 -0.6941 -0.1870
 9107SOL    HW138954   2.349   2.033   3.353  0.3302 -1.8269  0.1397
 9107SOL    HW238955   2.476   2.071   3.277  3.3211 -0.6554  1.0295
 9108SOL     OW38956   1.573   1.272   3.794  0.0893 -0.2219 -0.3707
 9108SOL    HW138957   1.644   1.304   3.737 -0.6738  0.7676 -0.7680
 9108SOL    HW238958   1.540   1.198   3.743  0.2338  0.6302 -1.7139
 9109SOL     OW38959   3.097   0.339   4.680  0.5364 -0.0098 -0.1930
 9109SOL    HW138960   3.009   0.300   4.679  0.6602 -0.3129  0.4161
 9109SOL    HW238961   3.150   0.282   4.736  0.1266 -1.3288 -1.1528
 9110SOL     OW38962   2.182   1.990   5.470  0.2532  0.3409 -0.0782
 9110SOL    HW138963   2.147   1.901   5.474  2.0073 -0.3376  0.0403
 9110SOL    HW238964   2.246   1.990   5.541 -0.8004 -1.2894  0.8622
 9111SOL     OW38965   1.013   0.884   9.039  0.0826  0.4372  0.1127
 9111SOL    HW138966   1.041   0.796   9.063  0.4066  1.2171  2.6489
 9111SOL    HW238967   0.922   0.866   9.016  0.8154 -0.2525 -2.2387
 9112SOL     OW38968   3.177   3.387   3.646 -0.3529 -0.4343  0.2472
 9112SOL    HW138969   3.168   3.292   3.644 -1.3355 -0.3170 -0.9680
 9112SOL    HW238970   3.125   3.416   3.571 -0.0670 -1.7686 -0.4704
 9113SOL     OW38971   0.314   4.061   7.684  0.2027  0.0907 -0.0449
 9113SOL    HW138972   0.252   4.110   7.630  0.1890  0.3592  0.2140
 9113SOL    HW238973   0.253   4.012   7.738  0.4843 -0.7247 -0.4676
 9114SOL     OW38974   4.349   2.027   7.985 -0.2324  0.1005 -0.2798
 9114SOL    HW138975   4.361   1.932   7.990 -0.6003  0.0501 -0.3567
 9114SOL    HW238976   4.289   2.034   7.911  1.0015  1.8768 -1.1059
 9115SOL     OW38977   4.699   2.550   1.733 -0.2509 -0.6059 -0.2145
 9115SOL    HW138978   4.621   2.552   1.678 -0.4439  0.1135  0.0878
 9115SOL    HW238979   0.024   2.507   1.677  0.5246  1.0569 -0.6039
 9116SOL     OW38980   2.291   0.671   0.588 -0.0596  0.4550  0.4425
 9116SOL    HW138981   2.324   0.708   0.506 -0.8507  0.2711  0.0474
 9116SOL    HW238982   2.371   0.664   0.641 -0.0945 -0.0822  0.4237
 9117SOL     OW38983   2.564   1.835   1.668  0.1844 -0.1025 -0.2228
 9117SOL    HW138984   2.534   1.828   1.577  0.4272  2.3522 -0.5155
 9117SOL    HW238985   2.481   1.843   1.714  1.7545  1.7864  2.3053
 9118SOL     OW38986   1.379   2.036   1.871  0.2618  0.3080  0.8969
 9118SOL    HW138987   1.393   2.092   1.795 -1.3790  0.9736  1.0994
 9118SOL    HW238988   1.370   1.949   1.831  2.4046  1.3102 -1.7531
 9119SOL     OW38989   0.827   4.570   7.870  0.1012  0.2223 -0.2065
 9119SOL    HW138990   0.748   4.587   7.922  0.8630  0.4794  0.8546
 9119SOL    HW238991   0.840   4.475   7.872 -0.2397  0.1801  0.0435
 9120SOL     OW38992   4.459   2.917   9.585  0.4690 -0.0463 -0.0677
 9120SOL    HW138993   4.418   3.000   9.562  0.9681 -0.0031 -0.8261
 9120SOL    HW238994   4.477   2.926   9.678 -0.7534 -3.8747  0.5157
 9121SOL     OW38995   2.618   0.530  16.468 -0.3103  0.2812 -0.4908
 9121SOL    HW138996   2.649   0.441  16.484  0.8190  1.0135  1.3590
 9121SOL    HW238997   2.625   0.536  16.372  2.6881  0.8628 -0.2253
 9122SOL     OW38998   0.401   2.691   4.720  0.2957  0.5431  0.0431
 9122SOL    HW138999   0.478   2.744   4.697  0.1269  0.0653 -1.6392
 9122SOL    HW239000   0.443   2.610   4.747 -1.3412 -0.7099 -1.1335
 9123SOL     OW39001   1.288   0.375   1.808  0.0908 -0.2584  0.7345
 9123SOL    HW139002   1.253   0.311   1.870  2.8465 -2.7278 -0.2455
 9123SOL    HW239003   1.228   0.449   1.818 -0.8481 -0.5355 -2.5135
 9124SOL     OW39004   2.627   3.143   3.380  0.2037  0.1312 -0.8322
 9124SOL    HW139005   2.681   3.065   3.394 -1.2804 -1.1061 -1.9449
 9124SOL    HW239006   2.632   3.194   3.461  0.5951  0.9011 -1.3412
 9125SOL     OW39007   2.401   4.706   1.877 -0.4208 -0.2449  0.0399
 9125SOL    HW139008   2.312   4.701   1.914 -0.7224 -1.1832 -0.8292
 9125SOL    HW239009   2.418   4.612   1.877  0.1507 -0.1357 -0.2853
 9126SOL     OW39010   0.681   3.976   5.897  0.5721 -0.3311 -0.4672
 9126SOL    HW139011   0.746   3.999   5.964  0.5334 -2.0627  0.1596
 9126SOL    HW239012   0.707   3.886   5.882  1.7184 -0.0704 -0.0603
 9127SOL     OW39013   3.440   0.379   0.042 -0.2660 -0.4704 -0.1646
 9127SOL    HW139014   3.533   0.359   0.030 -0.0986  1.0170 -1.3899
 9127SOL    HW239015   3.395   0.297   0.023 -0.4977  0.3831 -3.2623
 9128SOL     OW39016   4.394   3.114  16.775  0.0259  0.2070  0.2391
 9128SOL    HW139017   4.307   3.080  16.757  0.9425 -0.5304 -2.8143
 9128SOL    HW239018   4.417   3.071  16.858  0.7413 -0.7240 -0.4381
 9129SOL     OW39019   0.666   3.714   3.112  0.3366  0.8172 -0.2094
 9129SOL    HW139020   0.644   3.800   3.076 -2.2357  0.1557 -0.2489
 9129SOL    HW239021   0.665   3.654   3.037 -2.4173  0.5255  0.0369
 9130SOL     OW39022   1.734   4.034   6.458 -0.0917  0.0272 -0.1628
 9130SOL    HW139023   1.654   3.982   6.469 -0.7919  1.0839 -0.2974
 9130SOL    HW239024   1.698   4.113   6.418 -0.0319  1.0392  1.7680
 9131SOL     OW39025   2.324   3.792   3.854  0.2949 -0.4785 -0.1788
 9131SOL    HW139026   2.394   3.762   3.913  1.4750 -0.6048 -1.6594
 9131SOL    HW239027   2.313   3.879   3.891 -1.1220 -1.7358  2.4429
 9132SOL     OW39028   1.863   1.984  10.771  0.2307  0.1718  0.4287
 9132SOL    HW139029   1.836   1.893  10.754  0.1093  0.2484  0.2089
 9132SOL    HW239030   1.820   1.989  10.856 -0.7610  0.1125 -0.0666
 9133SOL     OW39031   3.066   4.127   6.130 -0.1498  0.0074 -0.3067
 9133SOL    HW139032   3.120   4.161   6.058  0.2903 -0.8827 -0.3972
 9133SOL    HW239033   2.991   4.095   6.080 -0.8405  1.4738 -0.2065
 9134SOL     OW39034   0.676   1.814   1.529 -0.0360  0.1186 -0.0239
 9134SOL    HW139035   0.716   1.820   1.442  0.2102  0.9855  0.1545
 9134SOL    HW239036   0.585   1.795   1.506 -0.3122  1.1114  0.2652
 9135SOL     OW39037   2.125   3.576   8.556  0.5466  0.1165  0.6700
 9135SOL    HW139038   2.129   3.647   8.620 -0.9583  0.4529  0.3948
 9135SOL    HW239039   2.143   3.618   8.472  0.5405  1.3500  1.2953
 9136SOL     OW39040   2.061   4.339   4.697 -0.3512 -0.3904  0.1355
 9136SOL    HW139041   2.156   4.324   4.706  0.1426  0.3453 -3.6169
 9136SOL    HW239042   2.039   4.273   4.631  2.8254 -1.5136  0.1867
 9137SOL     OW39043   2.077   3.375  14.816 -0.0028  0.4978 -0.3216
 9137SOL    HW139044   2.169   3.400  14.811 -0.6038  2.5707 -1.1986
 9137SOL    HW239045   2.069   3.307  14.749  1.0182  0.0995 -0.0327
 9138SOL     OW39046   3.885   3.162   5.483  0.0809  0.3845 -0.4219
 9138SOL    HW139047   3.849   3.241   5.523 -0.3957  0.3954 -0.8803
 9138SOL    HW239048   3.820   3.125   5.423 -2.3958  3.9219  0.0750
 9139SOL     OW39049   1.812   0.006   7.142 -0.7775 -0.2425  0.2470
 9139SOL    HW139050   1.905   4.721   7.138 -0.5238  0.6208  0.9039
 9139SOL    HW239051   1.776   0.019   7.055  1.0573 -0.7392 -0.5894
 9140SOL     OW39052   0.810   2.658   8.629  0.0732 -0.2820 -0.2980
 9140SOL    HW139053   0.851   2.683   8.712  0.7081  0.3507 -0.8045
 9140SOL    HW239054   0.724   2.634   8.662  1.6179 -2.6257  2.0787
 9141SOL     OW39055   1.024   4.397   4.914 -0.1606 -0.0509  0.1519
 9141SOL    HW139056   1.039   4.438   4.829  0.5917  0.4440  0.5208
 9141SOL    HW239057   1.070   4.454   4.976  0.1761 -0.6075  0.4123
 9142SOL     OW39058   2.224   1.719   2.353  0.0238 -0.1039 -0.2956
 9142SOL    HW139059   2.179   1.798   2.383  0.6050  0.1281 -0.0323
 9142SOL    HW239060   2.193   1.701   2.265 -2.0725 -0.4934  0.5344
 9143SOL     OW39061   0.321   0.338   3.445 -0.1880 -0.1355  0.0129
 9143SOL    HW139062   0.360   0.282   3.378  0.0211  1.0733 -0.8728
 9143SOL    HW239063   0.399   0.390   3.468  0.3149 -0.3198 -1.2717
 9144SOL     OW39064   4.125   1.581   9.171  0.1281 -0.2260  0.0548
 9144SOL    HW139065   4.156   1.584   9.080 -1.7714 -1.9413 -0.6461
 9144SOL    HW239066   4.083   1.668   9.177  2.1872  0.6636  1.4953
 9145SOL     OW39067   4.653   2.184  10.458  0.2313 -0.5657 -0.0554
 9145SOL    HW139068   4.562   2.207  10.474  0.3932  0.3587 -0.4839
 9145SOL    HW239069   4.689   2.272  10.449  0.6487 -0.8148 -0.9272
 9146SOL     OW39070   2.444   2.963   6.347 -0.4830  0.1456  0.0588
 9146SOL    HW139071   2.431   2.986   6.256  0.5803  0.7932  0.0726
 9146SOL    HW239072   2.494   3.039   6.378 -0.7929  0.6494 -0.6908
 9147SOL     OW39073   2.851   2.656   6.036  0.3176 -0.3475 -0.0583
 9147SOL    HW139074   2.784   2.712   5.999  1.6918  1.5602  0.3513
 9147SOL    HW239075   2.887   2.717   6.100  2.8652 -1.8432 -0.0375
 9148SOL     OW39076   2.540   1.517   9.447  0.0895 -0.1784 -0.0775
 9148SOL    HW139077   2.451   1.552   9.459 -0.2129 -0.7157 -0.8119
 9148SOL    HW239078   2.591   1.581   9.497  0.0854  1.8274 -2.7064
 9149SOL     OW39079   2.455   4.706   5.389  0.2410 -0.2400 -0.1184
 9149SOL    HW139080   2.531   4.699   5.447 -0.8965 -2.1640  1.1383
 9149SOL    HW239081   2.476   4.641   5.322  0.8505 -0.4691  0.2937
 9150SOL     OW39082   0.918   2.351   5.005  0.0608  0.5575 -0.3812
 9150SOL    HW139083   0.988   2.390   5.058 -0.2975 -0.4601  0.8441
 9150SOL    HW239084   0.840   2.367   5.057  1.5805  0.3499  1.9497
 9151SOL     OW39085   4.557   0.280   7.663  0.2808 -0.0130 -0.1561
 9151SOL    HW139086   4.540   0.359   7.611  0.5860 -1.2048 -2.0795
 9151SOL    HW239087   4.475   0.278   7.713 -0.8349 -1.1925 -1.9814
 9152SOL     OW39088   3.550   0.219   0.397  0.0047  0.3760 -0.0571
 9152SOL    HW139089   3.531   0.127   0.417  1.1262  0.0635 -0.4157
 9152SOL    HW239090   3.601   0.206   0.318  0.9481  0.6479  0.5087
 9153SOL     OW39091   1.140   3.753  17.715 -0.8830 -0.8042 -0.2017
 9153SOL    HW139092   1.048   3.751  17.687 -0.5191  0.0752 -1.4693
 9153SOL    HW239093   1.187   3.678  17.678  1.8670  0.2692  1.0696
 9154SOL     OW39094   3.625   4.499   0.666  0.3424  0.0667 -0.2387
 9154SOL    HW139095   3.623   4.412   0.704  2.1447  0.8726  1.7330
 9154SOL    HW239096   3.699   4.494   0.605  1.4851 -3.1488  1.4175
 9155SOL     OW39097   4.183   2.151   3.346  0.9167 -0.1374 -0.2508
 9155SOL    HW139098   4.242   2.089   3.302 -1.3752 -2.0354 -0.6459
 9155SOL    HW239099   4.096   2.126   3.315  1.0769 -0.2943 -0.5720
 9156SOL     OW39100   1.194   4.532   7.447  0.1139 -0.3625 -0.7605
 9156SOL    HW139101   1.189   4.575   7.532 -0.4918  2.2125 -2.0984
 9156SOL    HW239102   1.148   4.450   7.465 -0.7399  1.1089  3.7194
 9157SOL     OW39103   0.120   4.327   8.411 -0.0036 -0.2933  0.1255
 9157SOL    HW139104   0.083   4.375   8.486  0.8220  0.8658 -0.2051
 9157SOL    HW239105   0.173   4.262   8.457 -0.4519 -1.1313 -0.5532
 9158SOL     OW39106   1.270   0.529  13.440 -0.3605 -0.2958 -0.1690
 9158SOL    HW139107   1.343   0.490  13.391  0.4104 -0.7213  1.3236
 9158SOL    HW239108   1.301   0.619  13.449  0.2635 -0.1819 -3.3233
 9159SOL     OW39109   0.089   1.858   5.214 -0.0273  0.0977  0.1818
 9159SOL    HW139110   0.141   1.900   5.146 -2.2910  0.4074 -1.3859
 9159SOL    HW239111   0.004   1.843   5.171 -1.0534  0.7057  1.9738
 9160SOL     OW39112   3.933   0.048  15.038  0.3254 -0.0723  0.4440
 9160SOL    HW139113   3.949   4.695  15.057  0.7944  0.5337  3.1020
 9160SOL    HW239114   4.017   0.095  15.040  0.7630 -0.8328  0.0183
 9161SOL     OW39115   0.645   1.965   7.259  0.6111 -0.0577 -0.0841
 9161SOL    HW139116   0.633   2.024   7.333  1.4180  2.1535 -1.7209
 9161SOL    HW239117   0.740   1.954   7.263  1.0254  3.3239 -0.6193
 9162SOL     OW39118   4.644   1.551  13.903 -0.4733 -0.1142  0.1177
 9162SOL    HW139119   4.565   1.508  13.871 -1.2277  0.3191  1.3997
 9162SOL    HW239120   4.697   1.540  13.824 -2.7072  0.4941 -1.4609
 9163SOL     OW39121   0.900   2.542   9.349 -0.1201  0.3042 -0.1794
 9163SOL    HW139122   0.838   2.547   9.422  0.9165  0.4320  0.6833
 9163SOL    HW239123   0.963   2.474   9.374  0.5279  0.8058 -0.4612
 9164SOL     OW39124   4.633   0.504   4.418  0.2338  0.3772 -0.0564
 9164SOL    HW139125   4.707   0.538   4.468 -0.2858  0.9924  0.2842
 9164SOL    HW239126   4.591   0.585   4.390  0.4517  0.2063 -0.8926
 9165SOL     OW39127   2.616   0.055  11.645  0.1032 -0.0148 -0.1868
 9165SOL    HW139128   2.564   0.019  11.716 -1.1104 -0.6787 -1.4142
 9165SOL    HW239129   2.618   4.714  11.592 -2.8395 -0.3873  0.2760
 9166SOL     OW39130   2.102   3.911   3.031 -0.0400 -0.0644  0.2428
 9166SOL    HW139131   2.159   3.836   3.046  0.4505  0.3329  0.3836
 9166SOL    HW239132   2.096   3.901   2.936  0.1083  1.6625  0.0523
 9167SOL     OW39133   4.430   4.704  15.172 -0.1976  0.4079  0.1022
 9167SOL    HW139134   4.493   4.674  15.237  0.5817 -3.3403 -2.4109
 9167SOL    HW239135   4.375   4.628  15.155  1.0979  0.0260 -2.3455
 9168SOL     OW39136   3.499   4.704   0.473  0.0820  0.3648  0.2488
 9168SOL    HW139137   3.422   4.653   0.497 -0.3759  0.6351 -0.6549
 9168SOL    HW239138   3.569   4.660   0.522  1.0091  1.9553  0.3620
 9169SOL     OW39139   3.241   1.154   1.300 -0.2382  0.7017 -0.0867
 9169SOL    HW139140   3.332   1.138   1.324 -0.4732 -0.4758 -0.0160
 9169SOL    HW239141   3.208   1.206   1.374 -2.0271 -0.4801 -0.0614
 9170SOL     OW39142   2.633   4.069   6.338  0.4144  0.6385  0.6168
 9170SOL    HW139143   2.642   3.985   6.383  3.0607 -0.6331 -2.2610
 9170SOL    HW239144   2.725   4.085   6.318  0.8840 -2.2450  0.4354
 9171SOL     OW39145   0.812   3.555   5.037 -0.5368 -0.6466  0.1106
 9171SOL    HW139146   0.870   3.486   5.069  3.0161  2.6275  0.7270
 9171SOL    HW239147   0.816   3.616   5.111  0.1189 -0.0163 -0.4388
 9172SOL     OW39148   0.582   0.437  17.598  0.3103  0.3153  0.2505
 9172SOL    HW139149   0.661   0.405  17.641  0.2832 -0.9051 -0.5987
 9172SOL    HW239150   0.609   0.463  17.510 -1.3288  1.4865  0.1028
 9173SOL     OW39151   3.439   2.738   1.398  0.0868  0.3316 -0.0297
 9173SOL    HW139152   3.475   2.650   1.389 -1.8467 -0.4961  0.2395
 9173SOL    HW239153   3.347   2.718   1.381  0.2020  0.1561 -0.4390
 9174SOL     OW39154   4.521   3.938   5.243  0.0019  0.2851  0.4041
 9174SOL    HW139155   4.564   3.894   5.316 -0.4480  1.9829  1.6783
 9174SOL    HW239156   4.581   3.916   5.171  1.0976  1.5951  0.9348
 9175SOL     OW39157   1.920   0.955  17.089  0.8445 -0.4564  0.1272
 9175SOL    HW139158   1.893   0.864  17.098  1.1578 -0.6354 -0.7550
 9175SOL    HW239159   1.953   0.954  16.999  2.3695 -0.0727  0.6966
 9176SOL     OW39160   4.362   2.810   2.127 -0.1858  0.1692  0.3545
 9176SOL    HW139161   4.373   2.866   2.204 -1.3853 -0.2228  0.8125
 9176SOL    HW239162   4.274   2.835   2.100  0.6771  1.2088 -1.4797
 9177SOL     OW39163   1.588   1.547   5.287 -0.5015  0.2399 -0.3212
 9177SOL    HW139164   1.583   1.537   5.192 -1.6879 -0.8480 -0.1484
 9177SOL    HW239165   1.601   1.458   5.320 -0.3218  0.6966  0.8487
 9178SOL     OW39166   0.179   3.036   9.591 -0.0095 -0.3226 -0.3211
 9178SOL    HW139167   0.216   2.954   9.622  3.3402  0.7957 -1.3322
 9178SOL    HW239168   0.114   2.993   9.536 -0.7615  0.4117 -0.0089
 9179SOL     OW39169   2.536   0.034   3.942  0.1370  0.1884 -0.1489
 9179SOL    HW139170   2.545   0.078   4.026  0.6595  0.6531 -0.4455
 9179SOL    HW239171   2.545   0.102   3.875 -0.0459 -1.5936 -1.9961
 9180SOL     OW39172   3.053   4.238   7.964  0.2077  0.1218  0.1328
 9180SOL    HW139173   3.000   4.201   7.892  1.4604 -2.2817  0.4454
 9180SOL    HW239174   3.141   4.201   7.956  1.4599  3.2372 -0.6844
 9181SOL     OW39175   4.435   4.188   8.100 -0.3259  0.3165  0.3439
 9181SOL    HW139176   4.479   4.266   8.067  2.2361 -1.0642  0.5334
 9181SOL    HW239177   4.413   4.207   8.191  1.5148 -3.2768  1.5651
 9182SOL     OW39178   3.644   1.030   1.963  0.0762  0.5442 -0.2685
 9182SOL    HW139179   3.723   0.981   1.939 -0.5532 -1.2988  1.4831
 9182SOL    HW239180   3.590   0.963   2.006  1.1411  1.1993  2.0889
 9183SOL     OW39181   0.556   1.528   3.291 -0.0640  0.4260  0.0362
 9183SOL    HW139182   0.496   1.455   3.272 -1.6102  1.5806  0.4700
 9183SOL    HW239183   0.550   1.567   3.204  2.3294  0.9384  0.1228
 9184SOL     OW39184   3.445   2.168   1.864  0.3069 -0.5949  0.2187
 9184SOL    HW139185   3.473   2.166   1.956 -1.0157 -0.9517  0.6082
 9184SOL    HW239186   3.427   2.077   1.841  1.2562 -0.2689 -1.7908
 9185SOL     OW39187   4.013   0.300   5.361 -0.3029  0.8016  0.4634
 9185SOL    HW139188   3.977   0.388   5.360 -3.0514 -0.3119 -0.6053
 9185SOL    HW239189   3.935   0.246   5.343  1.5247 -1.4315 -0.7382
 9186SOL     OW39190   2.687   1.930   2.440  0.7892 -0.5882  0.1966
 9186SOL    HW139191   2.666   1.993   2.371  0.7590 -1.6351 -0.7476
 9186SOL    HW239192   2.780   1.909   2.429  0.6750 -0.6888 -0.5786
 9187SOL     OW39193   0.421   1.273   3.375 -0.4913  0.1344  0.0479
 9187SOL    HW139194   0.344   1.329   3.385 -0.5704  0.0077  0.1482
 9187SOL    HW239195   0.385   1.191   3.341  4.5556 -1.7882 -0.6828
 9188SOL     OW39196   0.788   0.910  12.895 -0.3146  0.3357  0.3963
 9188SOL    HW139197   0.868   0.857  12.901  0.2229  1.0971  0.0606
 9188SOL    HW239198   0.735   0.868  12.963 -2.2438  2.0356 -0.0686
 9189SOL     OW39199   1.039   0.719  14.471  0.4787 -0.6650  0.1827
 9189SOL    HW139200   1.125   0.677  14.464  0.1680 -1.6698  2.3371
 9189SOL    HW239201   1.034   0.785  14.402 -0.0461  1.3235  2.1377
 9190SOL     OW39202   0.725   0.481  15.097  0.4834 -0.0073  0.1977
 9190SOL    HW139203   0.786   0.491  15.024  0.9534  0.8227  0.6990
 9190SOL    HW239204   0.728   0.387  15.118  1.2280 -0.5049 -2.1694
 9191SOL     OW39205   1.679   0.825   6.648 -0.4456  0.6180  0.0266
 9191SOL    HW139206   1.696   0.919   6.640  0.6557  0.6244  2.7332
 9191SOL    HW239207   1.583   0.815   6.652 -0.3156 -0.1009  1.3661
 9192SOL     OW39208   1.930   0.657   7.743 -0.5396 -0.1654  0.0624
 9192SOL    HW139209   1.965   0.743   7.719 -0.6746  0.3114  1.5794
 9192SOL    HW239210   1.912   0.672   7.836  0.2563 -0.8719  0.3268
 9193SOL     OW39211   2.498   4.184   6.569  0.0785  0.4641 -0.4087
 9193SOL    HW139212   2.434   4.121   6.603  1.6561  0.1195  1.9486
 9193SOL    HW239213   2.506   4.149   6.480  0.4969 -2.6611  0.8307
 9194SOL     OW39214   3.453   2.818  11.503 -0.5914  0.0505 -0.4376
 9194SOL    HW139215   3.417   2.755  11.565  0.4426  0.3948  0.5059
 9194SOL    HW239216   3.547   2.801  11.506 -0.6594  0.1184  1.7792
 9195SOL     OW39217   4.021   1.447   6.346 -0.1414 -0.0527  0.0168
 9195SOL    HW139218   4.024   1.425   6.253 -0.6596  0.4011 -0.1016
 9195SOL    HW239219   3.931   1.468   6.367 -0.4826 -1.5132  0.0203
 9196SOL     OW39220   2.829   0.149   7.095 -0.1371  0.3603 -0.8332
 9196SOL    HW139221   2.826   0.137   7.190 -2.4568 -2.0463 -1.1833
 9196SOL    HW239222   2.859   0.064   7.064  0.1317  0.7698 -1.6822
 9197SOL     OW39223   1.993   4.612   5.567 -0.0657  0.3271  0.2187
 9197SOL    HW139224   1.915   4.557   5.577 -1.0111  1.6037 -0.1590
 9197SOL    HW239225   1.993   4.649   5.655 -2.4601  0.1196  0.3105
 9198SOL     OW39226   4.234   1.376  10.740 -0.0769  0.3254 -0.2008
 9198SOL    HW139227   4.329   1.383  10.729 -0.0479  0.0182 -0.1486
 9198SOL    HW239228   4.239   1.324  10.820  1.5265 -0.2712 -0.6963
 9199SOL     OW39229   3.544   4.411   6.895 -0.2240 -0.2441 -0.5285
 9199SOL    HW139230   3.536   4.449   6.807  1.7997  0.3222 -0.4817
 9199SOL    HW239231   3.452   4.414   6.921  0.4739 -1.1051  2.0149
 9200SOL     OW39232   1.267   2.344  17.048 -0.0224 -0.1831  0.0978
 9200SOL    HW139233   1.267   2.389  16.964  0.5223  0.2264  0.3236
 9200SOL    HW239234   1.239   2.255  17.025 -2.0233  0.2054  1.0440
 9201SOL     OW39235   1.323   3.164   4.102 -0.3537  0.1693 -0.1532
 9201SOL    HW139236   1.246   3.214   4.127 -0.3659  1.7361 -3.3587
 9201SOL    HW239237   1.397   3.202   4.150 -2.2772 -1.5846  4.1948
 9202SOL     OW39238   2.592   2.403   1.462 -0.0770  0.2387  0.0265
 9202SOL    HW139239   2.655   2.402   1.390  0.3200  0.1177  0.3731
 9202SOL    HW239240   2.594   2.494   1.490  0.0557  0.1190  0.4037
 9203SOL     OW39241   3.187   4.268   8.535  0.6444 -0.3711  0.2469
 9203SOL    HW139242   3.247   4.250   8.608  2.0631 -1.2524 -1.1375
 9203SOL    HW239243   3.146   4.348   8.568  1.0746  0.6221 -1.6222
 9204SOL     OW39244   3.944   2.355   4.166 -0.2525 -0.3429 -0.0178
 9204SOL    HW139245   4.023   2.300   4.165 -1.5635 -2.2908  1.7127
 9204SOL    HW239246   3.969   2.446   4.177  1.1154 -0.3394 -3.2980
 9205SOL     OW39247   0.129   0.051   0.280  0.1913  0.2131 -0.1663
 9205SOL    HW139248   0.043   0.091   0.296  0.0576 -0.1640  0.0487
 9205SOL    HW239249   0.150   0.101   0.200 -2.0609 -0.6244 -1.2836
 9206SOL     OW39250   4.574   0.748   5.814  0.2338 -0.6409 -1.1866
 9206SOL    HW139251   4.539   0.824   5.768  0.0745  0.6789  1.1494
 9206SOL    HW239252   4.667   0.769   5.805  0.3574 -0.0647  1.3954
 9207SOL     OW39253   0.370   3.948   3.692  0.0239 -0.2597  0.6064
 9207SOL    HW139254   0.343   4.016   3.754 -0.5748 -0.8709  1.0190
 9207SOL    HW239255   0.384   3.998   3.612  0.9986 -2.1303 -0.4055
 9208SOL     OW39256   2.348   0.285   7.433  0.1911  0.3134  0.3548
 9208SOL    HW139257   2.264   0.242   7.450  0.0108 -0.8257 -3.4373
 9208SOL    HW239258   2.341   0.363   7.488 -1.7681  0.3029  0.1303
 9209SOL     OW39259   0.801   3.686   2.281 -0.1535 -0.0114 -0.1666
 9209SOL    HW139260   0.863   3.675   2.208 -0.2665 -2.0641  0.0347
 9209SOL    HW239261   0.722   3.673   2.229  0.4729  0.3229 -1.1981
 9210SOL     OW39262   1.015   1.744   7.950 -0.2092 -0.1478 -0.2052
 9210SOL    HW139263   1.014   1.768   8.043  3.5176 -0.5723 -0.0500
 9210SOL    HW239264   0.925   1.728   7.924 -0.9317  2.0766  0.9562
 9211SOL     OW39265   4.732   3.003   6.435  0.3168 -0.1168 -0.1126
 9211SOL    HW139266   4.733   3.049   6.519  0.1055 -0.3001 -0.0094
 9211SOL    HW239267   4.644   2.966   6.429  1.3765 -2.2191 -2.3011
 9212SOL     OW39268   3.507   3.561  13.905  0.4703 -0.4330  0.0357
 9212SOL    HW139269   3.469   3.522  13.826 -0.0256  0.6318 -0.2534
 9212SOL    HW239270   3.429   3.590  13.951 -0.5107 -1.7161 -0.8275
 9213SOL     OW39271   4.444   1.939   1.800 -0.2192 -0.4909  0.1332
 9213SOL    HW139272   4.513   1.987   1.753  1.9773 -0.9182  2.9802
 9213SOL    HW239273   4.488   1.909   1.879  0.5442  1.4999  0.4735
 9214SOL     OW39274   0.467   3.616   3.409  0.0681  0.4339  0.0066
 9214SOL    HW139275   0.457   3.521   3.400 -1.2354  0.5375  0.3540
 9214SOL    HW239276   0.389   3.645   3.362 -0.1592 -1.9148 -1.0743
 9215SOL     OW39277   3.866   0.702   3.291  0.4640 -0.3007  0.4281
 9215SOL    HW139278   3.910   0.759   3.355 -1.3879 -1.5781  2.8497
 9215SOL    HW239279   3.777   0.738   3.295  1.0699  1.0911  1.2981
 9216SOL     OW39280   3.763   4.175   7.966  0.2658  0.2555 -0.4969
 9216SOL    HW139281   3.842   4.154   7.915 -0.3770  0.0025 -1.3942
 9216SOL    HW239282   3.708   4.103   7.935  0.1750  0.5167 -0.9435
 9217SOL     OW39283   3.326   3.567   5.856  0.0200 -0.2280 -0.0321
 9217SOL    HW139284   3.353   3.650   5.895  1.0843 -0.2109 -0.8051
 9217SOL    HW239285   3.298   3.525   5.938  1.5045 -2.3703 -0.6204
 9218SOL     OW39286   1.343   0.873  10.961 -0.0222 -0.0871 -0.3773
 9218SOL    HW139287   1.342   0.926  11.041 -0.5442  0.0628 -0.4851
 9218SOL    HW239288   1.416   0.812  10.978 -0.2225  0.1097  1.2554
 9219SOL     OW39289   3.441   1.933   5.021 -0.3243  0.3336  0.3988
 9219SOL    HW139290   3.446   1.860   4.959 -0.8733  1.2620 -0.7577
 9219SOL    HW239291   3.350   1.959   5.004 -0.0474  3.2350  3.3392
 9220SOL     OW39292   3.214   1.366  17.657  0.0779  0.1943 -0.0634
 9220SOL    HW139293   3.286   1.399  17.604 -0.7021  3.2657  0.7780
 9220SOL    HW239294   3.213   1.432  17.726  0.5278  1.6043 -1.4118
 9221SOL     OW39295   2.766   3.792   1.640 -0.0776 -0.1487  0.3342
 9221SOL    HW139296   2.817   3.777   1.720  0.2808  0.9522  0.3213
 9221SOL    HW239297   2.705   3.719   1.647 -0.4536  0.2487  1.2458
 9222SOL     OW39298   2.219   0.878   8.178  0.5286 -0.0080  0.0149
 9222SOL    HW139299   2.273   0.842   8.249 -1.5322 -1.4319  0.8600
 9222SOL    HW239300   2.187   0.960   8.214  1.5247 -0.5679  2.2012
 9223SOL     OW39301   0.150   1.860   6.853 -0.1624 -0.8241  0.0822
 9223SOL    HW139302   0.118   1.950   6.852  3.3519  0.4112 -1.2321
 9223SOL    HW239303   0.171   1.852   6.759  0.6595 -0.9441  0.2754
 9224SOL     OW39304   0.287   1.102   4.825  0.1509 -0.4603 -0.6695
 9224SOL    HW139305   0.205   1.063   4.856 -0.3688  0.4700 -0.8568
 9224SOL    HW239306   0.307   1.165   4.894  2.5769 -2.0478  0.0753
 9225SOL     OW39307   4.715   0.204   4.669 -0.1016  0.2429 -0.3657
 9225SOL    HW139308   4.683   0.203   4.759 -0.2071  0.3668 -0.4017
 9225SOL    HW239309   0.023   0.287   4.668 -0.6884  0.5829  0.5910
 9226SOL     OW39310   3.965   0.240   0.457  0.4403  0.1463  0.4452
 9226SOL    HW139311   4.033   0.181   0.491  0.1344 -1.0069 -0.9308
 9226SOL    HW239312   3.937   0.287   0.535 -0.0838 -0.7121  0.7742
 9227SOL     OW39313   3.490   2.222   7.626  0.0281  0.2226  0.1385
 9227SOL    HW139314   3.513   2.289   7.561 -3.2346  0.2365 -0.9955
 9227SOL    HW239315   3.573   2.235   7.671 -0.5667 -0.7890  1.5023
 9228SOL     OW39316   3.849   2.157   7.191  0.6861 -0.3259  0.5973
 9228SOL    HW139317   3.786   2.211   7.239  0.5247  0.1267 -0.1367
 9228SOL    HW239318   3.835   2.184   7.101  1.8411  1.1020  0.8495
 9229SOL     OW39319   3.515   3.250   3.751  0.7326  0.2905  0.0089
 9229SOL    HW139320   3.498   3.232   3.658 -0.7948  0.5443  0.2341
 9229SOL    HW239321   3.463   3.183   3.794  1.2572  0.6634  1.2173
 9230SOL     OW39322   3.428   3.147   3.112  1.0822  0.4148  0.0172
 9230SOL    HW139323   3.410   3.219   3.172 -0.8967 -1.1118  1.2132
 9230SOL    HW239324   3.522   3.134   3.124  1.2141  1.2660 -0.1199
 9231SOL     OW39325   0.851   2.248   3.567 -0.5355 -0.3732 -0.2522
 9231SOL    HW139326   0.774   2.274   3.517 -0.5288  1.7751  0.8658
 9231SOL    HW239327   0.819   2.208   3.648  0.4881 -1.5173 -0.3999
 9232SOL     OW39328   4.589   0.654   1.841 -0.3354  0.1192 -0.1348
 9232SOL    HW139329   4.537   0.577   1.820  0.4380 -0.6031  0.6038
 9232SOL    HW239330   4.607   0.695   1.756 -0.7607  1.9044  0.6372
 9233SOL     OW39331   3.028   3.843   6.812 -0.0184  0.3476  0.2955
 9233SOL    HW139332   3.021   3.928   6.769 -1.5052 -1.5581 -3.1930
 9233SOL    HW239333   2.941   3.804   6.802 -0.2442  1.0106 -0.3094
 9234SOL     OW39334   3.692   0.258   2.755  0.2932  0.2949  0.7312
 9234SOL    HW139335   3.705   0.324   2.687  1.1512 -0.2555  0.3621
 9234SOL    HW239336   3.619   0.208   2.718  0.6088  0.3730  0.0128
 9235SOL     OW39337   3.413   0.540   7.357  0.3450 -0.2219 -0.2664
 9235SOL    HW139338   3.398   0.455   7.399 -0.9216 -0.1345 -0.5512
 9235SOL    HW239339   3.335   0.593   7.373  1.0032  0.0835  1.9217
 9236SOL     OW39340   2.457   3.294   7.406  0.3205  0.4398  0.3389
 9236SOL    HW139341   2.413   3.252   7.480  0.4966 -1.0059 -0.3758
 9236SOL    HW239342   2.477   3.379   7.446 -2.1807  0.1983  2.0846
 9237SOL     OW39343   0.031   4.634  13.887  0.0622  0.4525 -0.2037
 9237SOL    HW139344   4.706   4.673  13.947 -0.8054 -2.1672  0.5716
 9237SOL    HW239345   0.090   4.706  13.912 -2.7261  1.8432  2.3714
 9238SOL     OW39346   1.183   3.368   8.120 -0.0704 -0.2816  0.1146
 9238SOL    HW139347   1.100   3.413   8.135  1.3383  2.3182  0.0841
 9238SOL    HW239348   1.164   3.324   8.037  1.4198 -0.5265 -0.0877
 9239SOL     OW39349   3.270   0.430   4.463 -0.0472  0.3637  0.2029
 9239SOL    HW139350   3.193   0.419   4.519 -0.7494  1.1978 -0.5914
 9239SOL    HW239351   3.304   0.509   4.506 -1.7646  1.4716 -0.4559
 9240SOL     OW39352   2.247   3.508   4.809 -0.3096 -0.2910  0.2792
 9240SOL    HW139353   2.171   3.558   4.837 -1.8563 -1.7588 -1.2480
 9240SOL    HW239354   2.314   3.576   4.821 -0.2760 -0.0876 -1.0498
 9241SOL     OW39355   0.113   2.278  14.403 -0.4483 -0.0639 -0.1839
 9241SOL    HW139356   0.104   2.300  14.310  0.1226 -1.0497 -0.4714
 9241SOL    HW239357   0.197   2.238  14.426  0.1267  0.8603 -0.6611
 9242SOL     OW39358   1.501   1.140  15.141  0.1903 -0.3761  0.1438
 9242SOL    HW139359   1.416   1.100  15.123 -0.0625  0.6220 -0.8349
 9242SOL    HW239360   1.546   1.078  15.083  0.4936 -0.0493  0.0313
 9243SOL     OW39361   4.175   0.821   3.699 -0.8699  0.1329  0.1784
 9243SOL    HW139362   4.186   0.769   3.779 -1.9477 -1.3680 -0.6417
 9243SOL    HW239363   4.165   0.908   3.738  2.3558  0.5189  0.1255
 9244SOL     OW39364   0.924   1.934   9.182  0.5206  0.2033 -0.4922
 9244SOL    HW139365   0.873   2.015   9.186  0.1733 -0.0045 -0.7127
 9244SOL    HW239366   0.895   1.898   9.099 -1.6463 -2.3675  1.4147
 9245SOL     OW39367   4.650   2.017  10.209 -0.0407 -0.3752  0.4367
 9245SOL    HW139368   0.005   2.000  10.204  0.2992  1.4913  0.4797
 9245SOL    HW239369   4.639   2.087  10.273  2.1169  0.5585 -0.2057
 9246SOL     OW39370   3.705   3.491   7.465 -0.0689  0.1177  0.3260
 9246SOL    HW139371   3.796   3.472   7.444  0.2085  2.2768 -0.3699
 9246SOL    HW239372   3.663   3.420   7.415 -0.1237 -0.2169  0.8483
 9247SOL     OW39373   2.981   1.016   7.285 -0.5147  0.6034  0.4620
 9247SOL    HW139374   2.911   0.967   7.327  1.0927  0.8318  3.3669
 9247SOL    HW239375   3.053   1.004   7.346 -0.2223 -0.4371 -0.0866
 9248SOL     OW39376   0.149   2.370  10.683  0.1610  0.3664 -0.0815
 9248SOL    HW139377   0.078   2.306  10.678  0.0596  0.5103 -0.4920
 9248SOL    HW239378   0.193   2.366  10.768 -0.4937 -0.3749  0.2220
 9249SOL     OW39379   1.189   3.824   2.182 -0.7914 -0.3240 -0.0494
 9249SOL    HW139380   1.222   3.772   2.255  2.4761  0.2909 -1.0903
 9249SOL    HW239381   1.172   3.765   2.108  2.2239 -1.2816 -0.0017
 9250SOL     OW39382   0.188   2.588   8.513 -0.1926  0.3608  0.2761
 9250SOL    HW139383   0.235   2.585   8.596  0.6176 -1.2392 -0.2393
 9250SOL    HW239384   0.226   2.518   8.460 -0.3300  1.8174 -1.7423
 9251SOL     OW39385   1.430   3.966   2.518  0.1515 -0.3147 -0.1200
 9251SOL    HW139386   1.418   4.033   2.585  0.6816 -2.1669  1.8218
 9251SOL    HW239387   1.372   3.991   2.445 -0.0861  0.2604  0.2611
 9252SOL     OW39388   3.068   3.645   1.517 -0.1647 -0.0937  0.9082
 9252SOL    HW139389   3.151   3.677   1.552  0.3724  2.4066 -2.6702
 9252SOL    HW239390   3.028   3.731   1.504 -0.1073  0.1482  2.3466
 9253SOL     OW39391   2.765   0.574   1.982  0.7895 -0.2531 -0.6754
 9253SOL    HW139392   2.736   0.582   1.891  1.3110 -0.7402 -0.8844
 9253SOL    HW239393   2.803   0.488   1.969  0.0702 -0.6775  0.0437
 9254SOL     OW39394   3.464   4.296  17.041 -0.6830  0.8221  0.4484
 9254SOL    HW139395   3.454   4.369  16.980  0.6428  0.4264 -0.2635
 9254SOL    HW239396   3.543   4.325  17.086  0.3019  1.0808 -1.4122
 9255SOL     OW39397   2.766   1.924   6.703 -0.2367 -0.3640  0.2222
 9255SOL    HW139398   2.775   1.830   6.721  1.5123 -0.5691 -1.6805
 9255SOL    HW239399   2.806   1.927   6.616 -2.8404 -0.7332 -0.9889
 9256SOL     OW39400   2.411   3.784   7.943  0.6356 -0.5387 -0.1607
 9256SOL    HW139401   2.463   3.818   7.870 -1.9760  1.9291 -0.8527
 9256SOL    HW239402   2.403   3.863   7.996  0.2235 -1.0038  0.4677
 9257SOL     OW39403   2.504   2.623   6.333  0.3572  0.1955 -0.4850
 9257SOL    HW139404   2.490   2.705   6.286 -1.8613 -0.1851 -0.4910
 9257SOL    HW239405   2.465   2.561   6.272 -0.2975  0.2187 -0.0902
 9258SOL     OW39406   2.516   1.052   4.020 -0.0575  0.1905 -0.3148
 9258SOL    HW139407   2.586   1.007   3.974 -0.1507  2.0805 -2.3092
 9258SOL    HW239408   2.543   1.144   4.013  0.3760  0.0801 -0.0656
 9259SOL     OW39409   1.247   0.932   7.454  0.2984 -0.4334 -0.0600
 9259SOL    HW139410   1.339   0.951   7.436  0.4508  0.1351  1.3339
 9259SOL    HW239411   1.196   1.012   7.441 -0.0352 -0.3067  2.0271
 9260SOL     OW39412   3.971   4.476   8.621  0.0319  0.4330  0.6628
 9260SOL    HW139413   3.877   4.480   8.638 -0.1021  1.3823 -0.2633
 9260SOL    HW239414   3.987   4.435   8.536  0.2558 -0.3109  1.0607
 9261SOL     OW39415   2.835   0.870   5.045 -0.1311 -0.3707 -0.3426
 9261SOL    HW139416   2.839   0.919   5.127  0.2634 -1.5485  0.3387
 9261SOL    HW239417   2.886   0.928   4.988 -0.5511  0.9567  0.6323
 9262SOL     OW39418   0.928   2.092   8.192 -0.2305 -0.3657  0.3886
 9262SOL    HW139419   0.890   2.152   8.257 -0.2653  1.1417 -1.0141
 9262SOL    HW239420   0.940   2.144   8.112 -0.5457 -0.6243  0.1729
 9263SOL     OW39421   0.380   4.275   3.457  0.5049  0.2279 -0.0488
 9263SOL    HW139422   0.438   4.232   3.519  2.2968  1.0676 -1.1230
 9263SOL    HW239423   0.328   4.340   3.504 -1.4715 -1.4054  0.0165
 9264SOL     OW39424   1.146   0.133  15.752  0.2194 -0.3784 -0.1475
 9264SOL    HW139425   1.073   0.193  15.766 -0.9327 -0.6792 -4.6862
 9264SOL    HW239426   1.217   0.178  15.798 -1.0926  0.8576  0.6507
 9265SOL     OW39427   3.981   2.026   6.610  0.5150  0.0968 -0.2884
 9265SOL    HW139428   4.015   2.030   6.521 -0.1830  3.3458 -0.3846
 9265SOL    HW239429   3.937   1.940   6.611 -1.0399  0.9312  2.0623
 9266SOL     OW39430   1.128   1.467   1.772 -0.3197 -0.4862  0.5073
 9266SOL    HW139431   1.134   1.489   1.679 -0.9072  1.8210  0.9989
 9266SOL    HW239432   1.105   1.375   1.781 -0.4972 -0.5364 -0.4670
 9267SOL     OW39433   2.837   4.029   5.664 -0.3450 -0.0386 -0.0523
 9267SOL    HW139434   2.825   4.057   5.573  0.4604 -0.3791 -0.2577
 9267SOL    HW239435   2.803   4.103   5.714  0.4498 -0.4132  1.0429
 9268SOL     OW39436   1.145   2.442   6.212 -0.0198  0.3204  0.5897
 9268SOL    HW139437   1.100   2.438   6.128  0.8594  1.4857  0.0554
 9268SOL    HW239438   1.133   2.350   6.235 -0.3589  0.2995  0.3249
 9269SOL     OW39439   1.788   4.733  13.352 -0.3320 -0.4879 -0.5539
 9269SOL    HW139440   1.840   4.681  13.413 -1.0409 -0.2997  0.1966
 9269SOL    HW239441   1.713   0.019  13.405  0.4293  2.0242 -0.7110
 9270SOL     OW39442   1.858   0.082   7.610 -0.7398 -0.0717  0.4024
 9270SOL    HW139443   1.773   0.071   7.653  0.4279 -2.3947  2.0876
 9270SOL    HW239444   1.827   0.086   7.520  0.6644 -1.4506 -0.1360
 9271SOL     OW39445   4.739   0.081  11.289  0.0589 -0.3355 -0.3973
 9271SOL    HW139446   4.673   0.040  11.345  1.4828 -0.3742  1.2557
 9271SOL    HW239447   0.051   0.003  11.269 -0.7535 -1.5824  2.3830
 9272SOL     OW39448   4.034   3.497   6.083  0.3708 -0.1709 -0.0762
 9272SOL    HW139449   4.114   3.444   6.083 -1.2436 -2.6113 -0.8574
 9272SOL    HW239450   4.062   3.559   6.149  0.9918 -0.2319 -0.2797
 9273SOL     OW39451   2.420   3.006   0.950  0.6137 -0.0018  0.4212
 9273SOL    HW139452   2.379   2.996   0.864  2.0906 -0.4640 -0.2400
 9273SOL    HW239453   2.498   3.054   0.920  1.4700 -1.5460  0.1816
 9274SOL     OW39454   2.687   0.819  11.571 -0.5351  0.7043  0.0496
 9274SOL    HW139455   2.701   0.794  11.480 -0.8911  0.9740 -0.0813
 9274SOL    HW239456   2.689   0.734  11.615 -0.9869 -0.7535 -2.8031
 9275SOL     OW39457   1.314   2.012   8.598 -0.1173  0.3062 -0.0313
 9275SOL    HW139458   1.401   1.996   8.563 -1.1551 -1.3421 -1.9014
 9275SOL    HW239459   1.332   2.048   8.685  0.5383 -1.7747  0.7033
 9276SOL     OW39460   3.782   2.851   4.774 -0.0066  0.0897 -0.1207
 9276SOL    HW139461   3.805   2.803   4.695 -0.6692 -2.2092  1.0985
 9276SOL    HW239462   3.719   2.794   4.817  0.3002 -1.6745 -2.0033
 9277SOL     OW39463   4.083   1.763   1.457 -0.2857 -0.1046 -0.1453
 9277SOL    HW139464   4.131   1.845   1.471  3.7190 -2.2220 -1.4156
 9277SOL    HW239465   4.013   1.795   1.401 -0.4127 -0.7755 -0.3666
 9278SOL     OW39466   1.180   1.163  10.463 -0.0674  0.6324 -0.3935
 9278SOL    HW139467   1.092   1.144  10.497  0.0925 -0.2686 -0.4747
 9278SOL    HW239468   1.216   1.074  10.459 -1.8061 -0.0498 -0.7789
 9279SOL     OW39469   1.119   2.465   8.927 -0.2680  0.7422 -0.0510
 9279SOL    HW139470   1.070   2.547   8.933 -2.2677 -0.5269  0.7574
 9279SOL    HW239471   1.168   2.477   8.846  2.8497 -1.6109  1.4966
 9280SOL     OW39472   0.897   3.855   2.662  0.5558  0.7267 -0.1227
 9280SOL    HW139473   0.860   3.933   2.703 -1.7726 -0.0411 -0.7737
 9280SOL    HW239474   0.961   3.827   2.727  0.5113 -0.1580 -0.4573
 9281SOL     OW39475   4.468   0.398   6.775 -0.0304 -0.3255 -0.1412
 9281SOL    HW139476   4.562   0.386   6.762  0.5297  1.7137  2.0009
 9281SOL    HW239477   4.453   0.443   6.858 -0.9006 -1.6888  0.4483
 9282SOL     OW39478   4.670   0.782   3.618 -0.3490  0.5730  0.1415
 9282SOL    HW139479   4.716   0.743   3.693  2.7978  0.5274 -1.8429
 9282SOL    HW239480   4.636   0.704   3.574  0.7745  0.1821 -0.0482
 9283SOL     OW39481   0.377   3.031   2.867 -0.7252 -0.7768 -0.2733
 9283SOL    HW139482   0.432   2.956   2.889 -0.3272 -0.8003 -1.3242
 9283SOL    HW239483   0.356   3.014   2.775  1.7520 -1.3696 -0.7511
 9284SOL     OW39484   0.114   0.452   5.842  0.4696  0.0046  0.9745
 9284SOL    HW139485   0.169   0.475   5.916 -0.1548  0.0440  1.4190
 9284SOL    HW239486   0.079   0.366   5.866  0.3625 -0.1227  0.3864
 9285SOL     OW39487   1.384   2.137  12.236  0.5320  0.3310 -0.1527
 9285SOL    HW139488   1.383   2.044  12.211  1.6379  1.5093 -4.5145
 9285SOL    HW239489   1.327   2.143  12.313 -1.3138 -2.3942 -1.3056
 9286SOL     OW39490   0.549   3.931   2.938 -0.1126 -0.2247  0.4529
 9286SOL    HW139491   0.485   3.908   2.871 -1.0718  0.5886  1.0762
 9286SOL    HW239492   0.615   3.969   2.881  1.3780 -1.9615  1.0209
 9287SOL     OW39493   4.705   0.567   7.575  0.7990 -0.7548 -0.3959
 9287SOL    HW139494   4.612   0.552   7.590  0.6154  2.2557  1.5557
 9287SOL    HW239495   4.735   0.508   7.506  0.6670  0.3245 -1.3687
 9288SOL     OW39496   4.683   0.776   4.873  0.3138  0.3370  0.2184
 9288SOL    HW139497   0.009   0.782   4.803  0.6313 -1.1876  0.3937
 9288SOL    HW239498   4.723   0.707   4.925 -0.5769 -2.2680 -2.6075
 9289SOL     OW39499   2.227   2.053  10.273  0.6917  0.2647  0.2484
 9289SOL    HW139500   2.283   2.060  10.351  0.0307  1.3978  0.6203
 9289SOL    HW239501   2.249   1.960  10.261 -0.3208  0.3613 -2.1857
 9290SOL     OW39502   2.984   0.004  10.832  0.1441  0.0319 -0.2820
 9290SOL    HW139503   2.896   4.708  10.847  0.6685 -1.5018 -0.7708
 9290SOL    HW239504   2.960   0.092  10.803 -1.2204 -0.7891 -1.6524
 9291SOL     OW39505   0.191   0.807  12.243  0.2072  0.0071  0.3234
 9291SOL    HW139506   0.279   0.789  12.279  0.3793  2.3563  1.1218
 9291SOL    HW239507   0.196   0.903  12.240  3.6892 -0.2209 -1.0600
 9292SOL     OW39508   1.299   2.882  13.201  0.0357  0.2641  0.3801
 9292SOL    HW139509   1.380   2.932  13.207  0.2565  0.0217 -0.6077
 9292SOL    HW239510   1.236   2.953  13.184  1.6767  1.6167  0.0129
 9293SOL     OW39511   4.182   4.269   2.451 -0.1909 -0.3451  0.5005
 9293SOL    HW139512   4.156   4.276   2.543 -0.7998 -0.0062  0.3061
 9293SOL    HW239513   4.263   4.321   2.448 -0.2033 -0.4721 -2.0034
 9294SOL     OW39514   1.255   1.541   6.585 -0.2342  0.1787 -0.2930
 9294SOL    HW139515   1.270   1.495   6.668 -1.9051  1.2581  0.5871
 9294SOL    HW239516   1.343   1.553   6.547  0.8972 -2.4679  1.4667
 9295SOL     OW39517   4.042   1.720   7.533  0.2149 -0.5229  0.3707
 9295SOL    HW139518   4.079   1.653   7.477  0.5815 -0.7888  0.9355
 9295SOL    HW239519   4.120   1.759   7.574  0.0346 -0.2963  0.5034
 9296SOL     OW39520   2.888   4.717   9.196 -0.0254  0.2975 -0.3477
 9296SOL    HW139521   2.936   0.012   9.271  0.0807  1.9987 -1.1978
 9296SOL    HW239522   2.807   0.028   9.199 -0.0223  0.2913 -0.1460
 9297SOL     OW39523   1.913   3.729   4.614  0.2413 -0.5466  0.1785
 9297SOL    HW139524   1.989   3.754   4.562 -0.0250  0.1449  0.1141
 9297SOL    HW239525   1.906   3.641   4.578 -0.7440 -1.3300  2.3288
 9298SOL     OW39526   4.441   1.178  16.731 -0.3221  0.0399  0.0367
 9298SOL    HW139527   4.512   1.230  16.767  0.3187  0.4248 -1.7679
 9298SOL    HW239528   4.382   1.178  16.806  1.0732 -0.9028  1.1328
 9299SOL     OW39529   2.222   2.469  10.161  0.0505 -0.4792  0.7654
 9299SOL    HW139530   2.271   2.457  10.243  1.4982  0.9443  0.0927
 9299SOL    HW239531   2.293   2.499  10.105  0.5078  1.3507  2.3319
 9300SOL     OW39532   0.088   4.447   1.067 -0.6981  0.1336 -0.9281
 9300SOL    HW139533   0.030   4.523   1.076 -1.8613 -0.8681 -0.0059
 9300SOL    HW239534   0.117   4.461   0.977  0.7578  0.5185 -0.4005
 9301SOL     OW39535   1.763   3.919  13.350  0.1403 -0.4151 -0.2839
 9301SOL    HW139536   1.681   3.895  13.392 -0.0859 -0.0827 -0.5380
 9301SOL    HW239537   1.824   3.940  13.421  0.6057 -0.6235 -0.6239
 9302SOL     OW39538   4.603   2.700   8.461  0.1905  0.7261  0.3050
 9302SOL    HW139539   4.615   2.721   8.553 -2.2702  0.3586  0.7223
 9302SOL    HW239540   4.518   2.742   8.445 -0.0706 -0.4577 -1.5053
 9303SOL     OW39541   4.636   1.646   6.857 -0.2769 -0.4151  0.0757
 9303SOL    HW139542   4.584   1.722   6.884  1.0230  0.4446  0.1505
 9303SOL    HW239543   4.687   1.643   6.938  1.0253 -1.3961 -0.7710
 9304SOL     OW39544   0.912   2.446   8.222 -0.1781  0.6363  0.5378
 9304SOL    HW139545   0.837   2.506   8.227 -1.3514 -0.6694 -1.6571
 9304SOL    HW239546   0.990   2.501   8.220  0.6202 -0.4888  0.7641
 9305SOL     OW39547   1.736   0.091  12.968 -0.0098 -0.4457 -0.0408
 9305SOL    HW139548   1.825   0.121  12.987  0.4172 -0.7041 -1.6486
 9305SOL    HW239549   1.747   0.002  13.001 -0.0107  0.0830  1.4076
 9306SOL     OW39550   4.520   2.542  16.463  0.4146  0.8642  0.8020
 9306SOL    HW139551   4.447   2.482  16.448  1.1577 -0.6564  3.2683
 9306SOL    HW239552   4.471   2.617  16.499 -1.3942  1.2444 -2.4652
 9307SOL     OW39553   1.298   3.026   6.161 -0.8749 -0.2017  0.4889
 9307SOL    HW139554   1.389   2.998   6.147 -0.0075  2.9364 -0.2105
 9307SOL    HW239555   1.305   3.062   6.250 -1.1452  0.4997  0.2291
 9308SOL     OW39556   3.054   4.377   7.344  0.2528  0.2785  0.5508
 9308SOL    HW139557   3.103   4.391   7.426  0.8708  1.4700 -0.0242
 9308SOL    HW239558   3.057   4.463   7.303  0.3018  0.6375  1.2985
 9309SOL     OW39559   2.343   1.615  13.847  0.5291 -0.0592  0.4933
 9309SOL    HW139560   2.336   1.665  13.928  1.2051 -0.4583  0.7943
 9309SOL    HW239561   2.420   1.560  13.862  1.4592  1.7629  2.4358
 9310SOL     OW39562   4.279   3.786  16.486 -0.0295 -0.0496 -0.3860
 9310SOL    HW139563   4.295   3.775  16.393  1.1152 -3.3565  0.1926
 9310SOL    HW239564   4.195   3.741  16.500 -0.7625  1.0895 -1.1740
 9311SOL     OW39565   4.531   2.199  16.301  0.2477  0.0316  0.1496
 9311SOL    HW139566   4.499   2.287  16.316 -2.0114 -0.7617 -0.0756
 9311SOL    HW239567   4.451   2.155  16.273 -0.4536  0.7780  0.9980
 9312SOL     OW39568   0.471   1.257  11.758 -0.1714 -0.3282  0.6777
 9312SOL    HW139569   0.448   1.349  11.744 -2.1411 -0.7459  1.1309
 9312SOL    HW239570   0.416   1.228  11.830 -0.4358 -0.3429  0.4723
 9313SOL     OW39571   1.317   1.062  10.757  0.2432 -0.0612 -0.0728
 9313SOL    HW139572   1.227   1.055  10.723  0.5651 -0.4415 -0.8398
 9313SOL    HW239573   1.317   0.992  10.823  0.2167 -0.8659 -0.9334
 9314SOL     OW39574   3.607   2.651   6.629 -0.7032  0.2688 -0.0963
 9314SOL    HW139575   3.580   2.676   6.718  1.0742  0.0336  0.5025
 9314SOL    HW239576   3.520   2.619   6.605 -0.8228 -1.8863  3.2044
 9315SOL     OW39577   3.753   2.484  12.772 -0.0467  0.1418 -0.2137
 9315SOL    HW139578   3.682   2.422  12.780 -1.4148  1.6497 -0.6126
 9315SOL    HW239579   3.820   2.444  12.827  1.2087 -2.7086 -3.8358
 9316SOL     OW39580   4.340   1.043   7.624 -0.0635 -0.1020  0.0895
 9316SOL    HW139581   4.344   1.065   7.531  2.4333 -1.3246 -0.0762
 9316SOL    HW239582   4.433   1.027   7.635 -0.5159 -1.2700  2.1199
 9317SOL     OW39583   3.972   2.528   7.918  0.2022  0.5120  0.3005
 9317SOL    HW139584   3.919   2.592   7.871  2.0403 -0.6770 -3.3775
 9317SOL    HW239585   4.062   2.542   7.889  1.7014  1.1823  5.2841
 9318SOL     OW39586   3.733   0.876   5.267 -0.3870  0.4814  0.0527
 9318SOL    HW139587   3.769   0.898   5.353 -0.5484 -1.0911  0.5256
 9318SOL    HW239588   3.719   0.783   5.283  0.9396  0.1138 -0.8715
 9319SOL     OW39589   4.260   1.773   4.948  0.3943 -0.1968 -0.1947
 9319SOL    HW139590   4.331   1.765   4.885  0.6271  0.2292  0.0168
 9319SOL    HW239591   4.188   1.769   4.884  0.1860 -0.5733  0.0607
 9320SOL     OW39592   3.716   3.289   3.925  0.1747  0.2354 -0.5560
 9320SOL    HW139593   3.651   3.269   3.857 -1.3967  0.4667  0.8816
 9320SOL    HW239594   3.787   3.309   3.864 -0.2473  0.7453 -0.8786
 9321SOL     OW39595   4.101   3.741  11.641  0.2521  0.1406  0.5869
 9321SOL    HW139596   4.113   3.836  11.638 -0.3903  0.2497  1.3909
 9321SOL    HW239597   4.013   3.734  11.679 -0.0293 -1.5893 -0.3664
 9322SOL     OW39598   3.612   2.717   4.492  0.3779 -0.1718  0.0600
 9322SOL    HW139599   3.670   2.769   4.547  0.9120 -0.5293 -0.1584
 9322SOL    HW239600   3.668   2.649   4.453 -0.6241 -1.1828  0.3805
 9323SOL     OW39601   0.967   3.627   2.033 -0.0325  0.2187  0.0463
 9323SOL    HW139602   0.907   3.698   2.008  1.6626  1.9948  1.0778
 9323SOL    HW239603   1.015   3.608   1.952  1.1062 -1.8746  1.2115
 9324SOL     OW39604   3.743   2.891   7.365 -0.1583 -0.0600  0.1084
 9324SOL    HW139605   3.776   2.819   7.311  4.0729  1.9140  0.1071
 9324SOL    HW239606   3.671   2.914   7.306 -0.1357 -1.3091 -0.4118
 9325SOL     OW39607   0.021   4.278   6.404 -0.6271 -0.1148 -0.4337
 9325SOL    HW139608   0.003   4.369   6.431 -0.7945  0.1136 -1.3093
 9325SOL    HW239609   4.735   4.244   6.490  0.2997  0.4174  0.0525
 9326SOL     OW39610   3.277   3.030   5.557 -0.4488  0.4919 -0.0523
 9326SOL    HW139611   3.293   3.123   5.544 -2.1564  0.6607 -1.0114
 9326SOL    HW239612   3.293   3.000   5.467 -0.8860 -2.3556  0.8111
 9327SOL     OW39613   4.071   0.821   7.979 -1.0040  0.2024 -0.0059
 9327SOL    HW139614   4.085   0.864   8.063  0.3464 -1.1033  0.4325
 9327SOL    HW239615   4.004   0.759   8.009 -0.7493 -0.2067 -0.2769
 9328SOL     OW39616   3.442   0.786   3.167  0.3493  0.2877  0.6549
 9328SOL    HW139617   3.397   0.853   3.115  1.0063 -0.2975 -0.6710
 9328SOL    HW239618   3.524   0.831   3.189 -0.2015 -0.0419  3.3480
 9329SOL     OW39619   1.171   2.615   9.964  0.3344 -0.7592 -0.1455
 9329SOL    HW139620   1.164   2.710   9.958  0.0712 -0.8050 -0.5990
 9329SOL    HW239621   1.266   2.608   9.957  0.4863  0.1827  0.9664
 9330SOL     OW39622   2.605   2.401   4.971  0.5636 -0.0891 -0.5115
 9330SOL    HW139623   2.658   2.464   5.020  0.3108 -2.4802  2.8060
 9330SOL    HW239624   2.663   2.327   4.955  1.6373  0.2935  1.6859
 9331SOL     OW39625   1.255   1.225   2.447 -0.3866 -0.0546 -0.3465
 9331SOL    HW139626   1.197   1.287   2.491 -0.3514  1.9143 -3.0719
 9331SOL    HW239627   1.226   1.240   2.357  2.4364  0.1691 -1.2362
 9332SOL     OW39628   4.400   2.528   4.772 -0.2706  0.0529 -0.4302
 9332SOL    HW139629   4.362   2.616   4.780  0.1481  0.2504 -0.5861
 9332SOL    HW239630   4.446   2.546   4.690 -0.9163 -2.5496 -1.3317
 9333SOL     OW39631   2.256   1.727  12.682 -0.0998  0.0398  0.0968
 9333SOL    HW139632   2.331   1.781  12.657  0.7348 -0.3021  1.8526
 9333SOL    HW239633   2.308   1.648  12.699  1.3255  1.1228  0.7754
 9334SOL     OW39634   2.166   4.326  13.558 -0.0621  0.0108  0.0029
 9334SOL    HW139635   2.161   4.417  13.530 -1.6627  0.3314  1.3261
 9334SOL    HW239636   2.159   4.277  13.475 -2.9593 -0.6000  0.6131
 9335SOL     OW39637   0.990   3.709   3.379  0.2302 -0.0447 -0.1091
 9335SOL    HW139638   0.901   3.678   3.393  0.1541  0.2627  0.0943
 9335SOL    HW239639   1.000   3.686   3.286  0.2354 -3.2189  0.7087
 9336SOL     OW39640   3.857   3.950   3.567  0.3787 -0.3130  0.1340
 9336SOL    HW139641   3.947   3.974   3.590  0.1628  1.3672 -0.8209
 9336SOL    HW239642   3.819   3.929   3.652 -2.0015 -0.9076 -1.0804
 9337SOL     OW39643   2.360   3.879   3.594  0.0402 -0.4004 -0.2215
 9337SOL    HW139644   2.319   3.831   3.666  3.8881 -0.2718  2.0524
 9337SOL    HW239645   2.288   3.865   3.532 -1.5104 -0.0504  1.5026
 9338SOL     OW39646   1.244   4.289   2.642  0.3790  0.0282  0.6705
 9338SOL    HW139647   1.175   4.222   2.636  1.2220 -0.8351  0.5844
 9338SOL    HW239648   1.315   4.232   2.671  0.8942 -0.1002 -0.8427
 9339SOL     OW39649   3.305   1.385   4.569  0.6858 -0.1150  0.3459
 9339SOL    HW139650   3.245   1.318   4.537  2.3235 -1.0398 -0.8446
 9339SOL    HW239651   3.311   1.428   4.484 -1.0929 -2.2751 -0.8745
 9340SOL     OW39652   2.486   0.294  11.720  0.0638 -0.6377 -0.4080
 9340SOL    HW139653   2.536   0.285  11.801  1.3182 -4.1395 -1.5804
 9340SOL    HW239654   2.532   0.224  11.673  0.8842  1.0012 -2.0749
 9341SOL     OW39655   1.906   1.171   4.019  0.1198 -0.2441 -0.1632
 9341SOL    HW139656   1.824   1.122   4.014  0.6504 -1.0116 -1.1613
 9341SOL    HW239657   1.872   1.259   4.001  1.0628  0.2132  0.3128
 9342SOL     OW39658   3.514   0.065   8.279  0.1964  0.6572 -0.3585
 9342SOL    HW139659   3.424   0.087   8.300 -0.0866  0.3375 -1.2417
 9342SOL    HW239660   3.556   0.095   8.359  2.0805  3.2605 -2.3213
 9343SOL     OW39661   3.508   2.270   3.477  0.0662  0.3620  0.4733
 9343SOL    HW139662   3.570   2.227   3.537  0.4739 -0.4767 -0.5449
 9343SOL    HW239663   3.436   2.274   3.539 -0.5736 -1.5466 -0.1296
 9344SOL     OW39664   3.064   3.495   5.107  0.0369 -0.1035 -0.3697
 9344SOL    HW139665   2.973   3.517   5.125 -0.5896 -0.9570 -2.5408
 9344SOL    HW239666   3.085   3.450   5.190  1.1603 -0.9799 -1.1254
 9345SOL     OW39667   1.297   3.154   1.904  0.2107  0.0519  0.3519
 9345SOL    HW139668   1.215   3.134   1.949  0.8534 -1.1668  0.9869
 9345SOL    HW239669   1.281   3.246   1.884  1.2849  0.4704  1.4381
 9346SOL     OW39670   2.417   0.085   5.075  0.1704  0.1968 -0.0360
 9346SOL    HW139671   2.463   0.157   5.119  0.5488  0.1133 -0.2981
 9346SOL    HW239672   2.462   0.073   4.992 -0.4766  0.4123 -0.4163
 9347SOL     OW39673   0.422   3.322   8.693  0.1700  0.5329  0.2861
 9347SOL    HW139674   0.409   3.387   8.761 -1.4009 -0.1879  0.6566
 9347SOL    HW239675   0.471   3.257   8.743 -2.4148  0.0170  2.1220
 9348SOL     OW39676   0.900   4.506  11.337  0.3601  0.6209 -0.0788
 9348SOL    HW139677   0.928   4.563  11.266 -0.7019 -0.0597 -1.0295
 9348SOL    HW239678   0.807   4.495  11.320  0.4419 -2.8818  1.7942
 9349SOL     OW39679   3.542   1.985  17.484  0.0696 -0.0167  0.3456
 9349SOL    HW139680   3.473   1.982  17.417 -1.2304  1.1003  1.6024
 9349SOL    HW239681   3.570   2.076  17.473 -0.8578  0.1233 -0.8078
 9350SOL     OW39682   3.075   4.677   5.518  0.0563  0.2528 -0.5661
 9350SOL    HW139683   3.134   4.733   5.567  1.2161 -1.1974 -0.3033
 9350SOL    HW239684   3.119   4.593   5.508 -0.9261 -0.2543 -0.7114
 9351SOL     OW39685   3.888   4.257   9.599  0.2010  0.2230  0.1364
 9351SOL    HW139686   3.801   4.295   9.605  1.1167  2.4090 -0.3833
 9351SOL    HW239687   3.889   4.213   9.514  0.9239  2.2935 -0.9231
 9352SOL     OW39688   2.053   1.886  13.803  0.1728 -0.3260  0.4817
 9352SOL    HW139689   2.001   1.877  13.723  1.0820 -0.2602 -0.1271
 9352SOL    HW239690   2.129   1.936  13.771  0.1097 -0.3890  0.2298
 9353SOL     OW39691   3.848   4.300   8.435  0.6282 -0.2610  0.4075
 9353SOL    HW139692   3.867   4.269   8.524 -0.1194  0.8528  0.9522
 9353SOL    HW239693   3.828   4.220   8.387  0.1477  0.3057 -0.3238
 9354SOL     OW39694   1.857   4.063   4.871 -0.6942  0.0824 -0.3439
 9354SOL    HW139695   1.878   4.007   4.946 -0.7405 -0.0545 -0.4335
 9354SOL    HW239696   1.850   3.997   4.803  0.7141  1.6234 -1.9891
 9355SOL     OW39697   2.810   1.375  14.402 -0.0787 -0.3173 -0.2366
 9355SOL    HW139698   2.810   1.288  14.442  1.6255  0.9641  2.5411
 9355SOL    HW239699   2.727   1.376  14.355  1.5435  1.1606 -3.0826
 9356SOL     OW39700   0.337   0.643   0.640 -0.4545  0.9127  0.2079
 9356SOL    HW139701   0.262   0.591   0.611  0.4318 -0.4144  0.3007
 9356SOL    HW239702   0.409   0.585   0.615 -0.2920  1.3450 -0.3412
 9357SOL     OW39703   1.770   1.088   5.328 -0.8618 -0.1218  0.0028
 9357SOL    HW139704   1.805   1.162   5.277  0.8066 -0.9259 -0.0369
 9357SOL    HW239705   1.842   1.078   5.390 -2.5807 -0.0693  1.9904
 9358SOL     OW39706   4.056   4.433   9.300  0.4148 -0.1434 -0.3617
 9358SOL    HW139707   4.005   4.447   9.380  0.4040  1.7869 -0.7022
 9358SOL    HW239708   4.101   4.350   9.316 -0.6400 -0.8351 -1.0243
 9359SOL     OW39709   1.828   3.683   2.268  0.8520 -0.0170 -0.1989
 9359SOL    HW139710   1.761   3.657   2.205 -1.1650  2.1232  1.0688
 9359SOL    HW239711   1.880   3.605   2.288 -2.0857 -1.7279  0.8310
 9360SOL     OW39712   4.390   4.169   3.135 -0.0017  0.4398 -0.1702
 9360SOL    HW139713   4.445   4.242   3.163  0.8976  1.1254 -3.8172
 9360SOL    HW239714   4.456   4.103   3.115  1.9057  2.7537 -1.4753
 9361SOL     OW39715   0.701   2.021   4.670 -0.1961  0.2521  0.1681
 9361SOL    HW139716   0.717   2.051   4.581  2.0804 -0.5048  0.3206
 9361SOL    HW239717   0.786   1.992   4.702  0.7077  0.4013 -2.0671
 9362SOL     OW39718   3.454   3.515   2.337  0.7812 -0.3422 -0.4575
 9362SOL    HW139719   3.536   3.465   2.335  1.4811  0.7741  0.5143
 9362SOL    HW239720   3.467   3.568   2.416  2.4478  0.3066 -1.1787
 9363SOL     OW39721   1.171   2.851   4.513  0.0152 -0.2659  0.0815
 9363SOL    HW139722   1.224   2.855   4.593  1.3740  0.1579 -0.8301
 9363SOL    HW239723   1.092   2.896   4.544 -0.8303 -0.7845 -1.3251
 9364SOL     OW39724   1.034   2.005   3.745  0.2326 -0.4726  0.2948
 9364SOL    HW139725   0.972   2.059   3.794  0.4429  1.5779 -1.6939
 9364SOL    HW239726   1.105   2.000   3.809 -0.0392 -1.1256  0.5483
 9365SOL     OW39727   1.161   2.149   4.273  0.2266  0.8659  0.5114
 9365SOL    HW139728   1.234   2.193   4.317  0.4001  0.0880  0.9936
 9365SOL    HW239729   1.090   2.153   4.336  0.0797  0.2417  0.3812
 9366SOL     OW39730   3.352   0.152   3.931  0.0396 -0.0296 -0.0417
 9366SOL    HW139731   3.391   0.102   4.003  1.5430 -0.4086 -1.1212
 9366SOL    HW239732   3.353   0.238   3.971  1.6772  0.3609 -0.9366
 9367SOL     OW39733   0.755   0.340   4.030  0.0676  0.1496 -0.1313
 9367SOL    HW139734   0.735   0.432   4.016  0.3666  0.8017  3.6529
 9367SOL    HW239735   0.697   0.316   4.103  0.3574 -2.9110 -0.9026
 9368SOL     OW39736   4.442   3.030   3.309  0.1053 -0.1180 -0.1815
 9368SOL    HW139737   4.413   2.939   3.314  2.5713 -0.8524  0.6596
 9368SOL    HW239738   4.380   3.079   3.364 -1.0263 -1.9580  0.1791
 9369SOL     OW39739   2.706   0.781   9.730 -0.1951  0.0954  0.3786
 9369SOL    HW139740   2.758   0.704   9.753  0.5464  0.2627 -0.7346
 9369SOL    HW239741   2.646   0.736   9.671  0.2938 -0.8929  0.6347
 9370SOL     OW39742   1.204   1.560   3.539 -0.5799 -0.2705 -0.3073
 9370SOL    HW139743   1.112   1.586   3.550 -0.4202 -0.1760  0.7432
 9370SOL    HW239744   1.202   1.481   3.591  1.1274 -0.3219 -0.3181
 9371SOL     OW39745   4.048   1.020   4.292 -0.1729  0.0690  0.0226
 9371SOL    HW139746   4.047   0.974   4.207 -0.6019  0.4057 -0.1569
 9371SOL    HW239747   3.982   1.088   4.276  0.8926  0.8358 -1.1180
 9372SOL     OW39748   1.529   2.425  14.471 -0.3927  0.5115 -0.0183
 9372SOL    HW139749   1.542   2.338  14.434  0.7445  0.2166  1.0898
 9372SOL    HW239750   1.471   2.402  14.544 -1.6464  2.7230 -0.3177
 9373SOL     OW39751   0.864   0.901   3.420 -0.0026 -0.8836  0.2425
 9373SOL    HW139752   0.868   0.980   3.474 -0.8688 -0.9085  0.3491
 9373SOL    HW239753   0.823   0.837   3.478 -3.2193 -0.8198 -1.9771
 9374SOL     OW39754   4.356   1.418  10.161 -0.6756  0.0915 -0.4767
 9374SOL    HW139755   4.323   1.457  10.242  2.3043  1.0087  0.2791
 9374SOL    HW239756   4.358   1.496  10.104 -0.5531  0.4245 -0.0168
 9375SOL     OW39757   2.671   3.411   3.174 -0.2445 -0.1402 -0.1442
 9375SOL    HW139758   2.668   3.324   3.213 -2.1367 -0.9763 -2.1609
 9375SOL    HW239759   2.761   3.437   3.193 -0.0402 -1.5945  0.9365
 9376SOL     OW39760   3.612   2.513   0.792  0.1355 -0.3160  0.2284
 9376SOL    HW139761   3.583   2.422   0.779  1.0085 -0.6060  0.3153
 9376SOL    HW239762   3.585   2.554   0.711 -1.3344 -2.1705 -0.2314
 9377SOL     OW39763   3.260   4.453   6.226  0.1174  0.6165  0.2845
 9377SOL    HW139764   3.168   4.449   6.200  0.4950 -0.8038 -0.8105
 9377SOL    HW239765   3.302   4.427   6.144 -0.2252 -0.8534  0.5852
 9378SOL     OW39766   4.599   1.635   7.809 -0.2109 -0.7137  0.0320
 9378SOL    HW139767   4.660   1.708   7.797 -0.2054 -0.3342  2.3979
 9378SOL    HW239768   4.637   1.561   7.761 -0.3879 -0.0748 -1.0823
 9379SOL     OW39769   3.079   3.803   5.358 -0.3916 -0.3133 -0.1011
 9379SOL    HW139770   3.065   3.859   5.281  0.3711 -2.1573 -1.5961
 9379SOL    HW239771   3.085   3.717   5.315 -1.5219 -2.1518  3.4414
 9380SOL     OW39772   2.779   3.088   9.018  0.0105 -0.2596 -0.2888
 9380SOL    HW139773   2.836   3.136   9.078  2.2516  1.2724 -3.6245
 9380SOL    HW239774   2.815   2.999   9.017 -1.2569 -0.7870  2.2398
 9381SOL     OW39775   2.743   2.576   7.134  0.5421  0.6539 -0.2450
 9381SOL    HW139776   2.746   2.634   7.209  0.7489  0.6646 -0.2597
 9381SOL    HW239777   2.827   2.530   7.130  0.9678  1.3467  0.9139
 9382SOL     OW39778   1.711   1.945   4.360  0.2536  0.2959 -0.4650
 9382SOL    HW139779   1.776   2.002   4.318 -0.0098  2.8447  2.5339
 9382SOL    HW239780   1.674   1.994   4.434  0.0856  1.9438 -1.6450
 9383SOL     OW39781   0.307   2.569   2.631 -0.1016 -0.1417  0.0884
 9383SOL    HW139782   0.239   2.608   2.576 -1.1372 -0.5343  1.0844
 9383SOL    HW239783   0.384   2.620   2.607 -0.0286  0.8816  2.4710
 9384SOL     OW39784   3.584   3.233   4.333  0.3465  0.0011 -0.3870
 9384SOL    HW139785   3.621   3.146   4.319  1.4785  0.6421 -1.3245
 9384SOL    HW239786   3.659   3.285   4.364 -0.3727  1.1566 -0.5954
 9385SOL     OW39787   3.350   4.230   5.979  0.0267 -0.1266 -0.1875
 9385SOL    HW139788   3.431   4.250   5.933  0.6054  1.3592  1.4964
 9385SOL    HW239789   3.306   4.205   5.898 -2.3618  0.6356  0.8618
 9386SOL     OW39790   0.780   2.640  11.880 -0.1230  0.8412  0.0376
 9386SOL    HW139791   0.763   2.682  11.795  0.3576  1.4916  0.2571
 9386SOL    HW239792   0.740   2.553  11.873  1.8199 -0.1543  1.6452
 9387SOL     OW39793   1.555   3.697   3.653  0.4321  0.0335 -0.0077
 9387SOL    HW139794   1.479   3.744   3.619  1.0262  1.4861  0.6653
 9387SOL    HW239795   1.592   3.673   3.568 -2.1126 -0.6729 -0.9220
 9388SOL     OW39796   3.433   0.638   5.866 -0.6941 -0.0243 -0.2520
 9388SOL    HW139797   3.420   0.567   5.803  0.3098 -2.4471  2.2765
 9388SOL    HW239798   3.340   0.655   5.876  0.2155  2.8935  3.1419
 9389SOL     OW39799   3.179   4.183   8.256 -0.3419 -0.4258 -0.2066
 9389SOL    HW139800   3.140   4.200   8.341  0.9536  0.7830  0.1515
 9389SOL    HW239801   3.110   4.136   8.210 -1.4285 -0.1005  1.1082
 9390SOL     OW39802   3.285   2.236   3.257 -0.2657  0.2702  0.1443
 9390SOL    HW139803   3.258   2.161   3.203 -0.6009  0.0799  0.5776
 9390SOL    HW239804   3.358   2.206   3.311  0.1912  0.5773 -0.3064
 9391SOL     OW39805   0.314   2.629  15.631 -0.2830 -0.3901 -0.4556
 9391SOL    HW139806   0.312   2.552  15.688 -2.3182 -0.4566 -0.6252
 9391SOL    HW239807   0.224   2.633  15.600 -0.8954 -0.6293  1.2903
 9392SOL     OW39808   1.690   3.280  17.349  0.4204  0.6028  0.4802
 9392SOL    HW139809   1.600   3.265  17.319  1.0605 -0.2947 -0.9484
 9392SOL    HW239810   1.694   3.213  17.418  0.2334 -1.4782 -1.5267
 9393SOL     OW39811   4.681   2.416   8.378 -0.2863  0.6987  0.6887
 9393SOL    HW139812   4.689   2.511   8.376  0.8433  0.5959  0.1976
 9393SOL    HW239813   0.018   2.394   8.325  0.7846  1.5196  1.8694
 9394SOL     OW39814   2.548   3.194   4.112 -0.6004  0.3849  0.6359
 9394SOL    HW139815   2.463   3.152   4.096  0.0717 -1.0429  0.8103
 9394SOL    HW239816   2.595   3.173   4.031 -0.4351  1.4140  0.4681
 9395SOL     OW39817   2.776   2.078  15.148 -0.2847  0.1261  0.5865
 9395SOL    HW139818   2.804   2.006  15.092 -3.3818  1.3127 -2.4754
 9395SOL    HW239819   2.761   2.151  15.089  0.3830 -1.8739 -2.0852
 9396SOL     OW39820   2.080   1.028   1.497 -0.5099  0.1614 -0.3613
 9396SOL    HW139821   2.152   1.019   1.433 -0.2342  0.2554 -0.0650
 9396SOL    HW239822   2.126   1.058   1.575  2.7110 -0.6296 -1.9185
 9397SOL     OW39823   4.120   3.515   1.513  0.4028 -0.1619  0.3192
 9397SOL    HW139824   4.190   3.574   1.539 -0.2983  0.7379  0.1552
 9397SOL    HW239825   4.046   3.540   1.568  1.8589 -2.0154  3.0852
 9398SOL     OW39826   2.637   4.705  11.979 -0.1817 -0.8652 -0.1658
 9398SOL    HW139827   2.564   0.019  12.009 -0.7621 -1.9249  0.3318
 9398SOL    HW239828   2.588   4.660  11.910 -0.1359 -0.6980 -0.3073
 9399SOL     OW39829   3.546   3.519   8.429 -0.0155 -0.5480  0.4100
 9399SOL    HW139830   3.567   3.484   8.516 -2.0128  0.1106  1.1765
 9399SOL    HW239831   3.452   3.511   8.415 -0.2131  0.9916  0.7881
 9400SOL     OW39832   3.034   0.055   3.388 -0.4089 -0.0028 -0.1088
 9400SOL    HW139833   3.072   0.086   3.471 -1.3138  0.2070  0.2182
 9400SOL    HW239834   2.962   0.004   3.425  0.1654 -0.7294  0.0237
 9401SOL     OW39835   1.505   3.756   8.789 -0.2080  0.2454  0.1452
 9401SOL    HW139836   1.492   3.718   8.702 -0.1197 -0.2453  0.3482
 9401SOL    HW239837   1.477   3.682   8.842  1.2693  0.1130  0.7425
 9402SOL     OW39838   2.638   0.122  12.372  0.6525  0.4012  1.0186
 9402SOL    HW139839   2.698   0.196  12.376  0.2615  0.8621 -1.5371
 9402SOL    HW239840   2.551   0.161  12.359  1.6488  1.6130 -1.9579
 9403SOL     OW39841   4.103   1.696   8.053  0.1294 -0.6755 -0.6006
 9403SOL    HW139842   4.045   1.721   8.125 -0.2075  1.3165 -1.5556
 9403SOL    HW239843   4.093   1.765   7.987  1.2891 -0.1356 -0.2089
 9404SOL     OW39844   0.883   0.940   3.800  0.0730 -0.6512 -0.3746
 9404SOL    HW139845   0.809   0.909   3.748 -1.8794  1.1806  1.3167
 9404SOL    HW239846   0.899   1.024   3.756  1.5512 -0.7158  0.0261
 9405SOL     OW39847   0.368   0.147   4.434  0.1174  0.3186  0.5020
 9405SOL    HW139848   0.430   0.085   4.475  0.7651  0.8352  0.3098
 9405SOL    HW239849   0.296   0.137   4.497 -0.3818 -0.2908 -0.1721
 9406SOL     OW39850   1.332   2.729   5.277 -0.3899 -0.0381 -0.2937
 9406SOL    HW139851   1.337   2.794   5.207 -1.0525 -0.3550 -0.6351
 9406SOL    HW239852   1.419   2.687   5.277 -0.2397  0.2944 -2.0717
 9407SOL     OW39853   0.462   1.449  12.946  0.0910  0.2059  0.0760
 9407SOL    HW139854   0.421   1.374  12.989  0.8888 -0.7714 -0.8473
 9407SOL    HW239855   0.461   1.521  13.008  0.3350  0.6061 -0.3860
 9408SOL     OW39856   2.905   1.951   6.093  0.5286  0.1436  0.2750
 9408SOL    HW139857   2.922   1.857   6.099  0.0388  0.0350 -0.0382
 9408SOL    HW239858   2.902   1.958   5.998 -0.1466  2.8092  0.4858
 9409SOL     OW39859   1.121   2.646   6.536 -0.3236  0.2274  0.9555
 9409SOL    HW139860   1.175   2.596   6.597 -0.6512  0.7741  1.6965
 9409SOL    HW239861   1.086   2.566   6.497 -0.8937  0.6918  0.5174
 9410SOL     OW39862   0.972   4.115  12.829  0.5819 -0.2967 -0.3819
 9410SOL    HW139863   0.915   4.185  12.862 -0.4237 -1.5557  0.5772
 9410SOL    HW239864   0.935   4.095  12.743 -1.1678 -2.3791  0.8571
 9411SOL     OW39865   3.801   0.734  10.964  0.1380 -0.0614 -0.1724
 9411SOL    HW139866   3.786   0.642  10.939  1.4907 -1.4156  4.0502
 9411SOL    HW239867   3.802   0.734  11.059 -0.5129 -1.2875 -0.1550
 9412SOL     OW39868   2.443   1.285   3.001  0.0726  0.5361 -0.2029
 9412SOL    HW139869   2.416   1.195   3.020 -1.7697  1.4585  1.5473
 9412SOL    HW239870   2.385   1.342   3.050 -0.7549 -1.2666  0.9237
 9413SOL     OW39871   2.517   1.455   5.994  0.1297  0.4826  0.2519
 9413SOL    HW139872   2.527   1.529   6.053  2.5582  0.0183  0.4383
 9413SOL    HW239873   2.437   1.415   6.028  0.3701 -0.7927 -0.6460
 9414SOL     OW39874   3.538   0.990  17.289 -0.7437 -0.3207  0.5917
 9414SOL    HW139875   3.631   1.009  17.291 -0.4037 -1.8303 -0.4228
 9414SOL    HW239876   3.502   1.076  17.308  0.6930  0.4297 -0.1247
 9415SOL     OW39877   4.362   3.703   3.928  0.1035  0.4798 -0.3707
 9415SOL    HW139878   4.361   3.766   3.857 -0.7680  0.8673 -0.0258
 9415SOL    HW239879   4.317   3.761   3.989  1.4207  0.1090  0.9637
 9416SOL     OW39880   0.202   2.550   7.658  0.5580 -0.0204  0.1352
 9416SOL    HW139881   0.193   2.634   7.703 -0.3817  0.7662 -1.4817
 9416SOL    HW239882   0.116   2.539   7.617 -0.1170  0.9351  1.2843
 9417SOL     OW39883   4.690   3.148   6.655  0.6041  0.6145  0.0766
 9417SOL    HW139884   0.037   3.126   6.690  1.0629  0.5191 -1.1299
 9417SOL    HW239885   4.639   3.184   6.728 -0.2766 -3.3292  1.4334
 9418SOL     OW39886   1.099   1.287  14.094 -0.0907  0.2513  0.1012
 9418SOL    HW139887   1.113   1.292  14.189  0.4705  1.4658 -0.0530
 9418SOL    HW239888   1.189   1.276  14.065 -1.2760 -1.5751 -2.8360
 9419SOL     OW39889   2.014   0.533   7.398 -0.2124  0.2426  0.0617
 9419SOL    HW139890   1.928   0.501   7.370 -0.0983 -0.6885  0.7459
 9419SOL    HW239891   2.029   0.504   7.488  1.1515  0.4056 -0.1128
 9420SOL     OW39892   0.921   0.251   0.586 -0.0036  0.0574  0.0171
 9420SOL    HW139893   0.879   0.186   0.643 -1.2186 -0.7075 -1.7718
 9420SOL    HW239894   1.014   0.234   0.600 -0.1579  0.6069  1.6873
 9421SOL     OW39895   3.038   1.512  13.860  0.2765  0.4221 -0.3670
 9421SOL    HW139896   3.077   1.438  13.814 -1.0383 -0.4328 -0.1116
 9421SOL    HW239897   3.069   1.594  13.822  1.1907  0.8997  1.3854
 9422SOL     OW39898   3.658   1.487   5.634  0.3508  0.4253  0.2931
 9422SOL    HW139899   3.647   1.544   5.558 -0.0566 -0.0948 -0.0428
 9422SOL    HW239900   3.609   1.409   5.608  1.3649  0.2444 -1.0665
 9423SOL     OW39901   3.196   0.567  11.369 -0.4143  0.2744  0.2790
 9423SOL    HW139902   3.146   0.580  11.289  1.0150  1.3235 -0.4564
 9423SOL    HW239903   3.193   0.473  11.385 -0.4510  0.0739 -0.9663
 9424SOL     OW39904   0.144   0.856  16.510  0.1276 -0.4231  0.2498
 9424SOL    HW139905   0.077   0.914  16.545  1.0090  0.6481  0.1538
 9424SOL    HW239906   0.203   0.897  16.447 -1.1260 -0.1812 -0.7597
 9425SOL     OW39907   3.367   3.108   7.026  0.2426 -0.4150  0.0841
 9425SOL    HW139908   3.281   3.148   7.043  0.9408  2.1313 -2.3340
 9425SOL    HW239909   3.344   3.057   6.948 -2.1124 -0.1568  0.5892
 9426SOL     OW39910   2.373   4.713  15.142 -0.0113  0.2412  0.3757
 9426SOL    HW139911   2.345   0.034  15.211 -1.0824  0.4883 -0.2778
 9426SOL    HW239912   2.298   4.726  15.084  1.1236 -2.8479 -1.7528
 9427SOL     OW39913   0.685   2.632   9.190  0.0670 -0.3689 -0.0121
 9427SOL    HW139914   0.658   2.718   9.222 -0.7158 -0.5837 -0.1023
 9427SOL    HW239915   0.759   2.610   9.246  0.0886 -0.1447  0.0491
 9428SOL     OW39916   4.067   0.773   5.937 -0.4528 -0.5329 -0.1485
 9428SOL    HW139917   4.055   0.736   6.025 -1.8064  2.9228  1.1275
 9428SOL    HW239918   4.161   0.760   5.927 -0.5686  0.4254 -2.3991
 9429SOL     OW39919   4.248   3.726   0.965 -0.0309 -0.0668  0.0568
 9429SOL    HW139920   4.176   3.663   0.963 -1.1380  1.1454  1.2903
 9429SOL    HW239921   4.310   3.672   1.015  1.3547  2.1516  0.7375
 9430SOL     OW39922   4.578   2.796   6.957  0.5631  0.1250 -0.4806
 9430SOL    HW139923   4.636   2.867   6.931  1.3021 -0.1196  0.5254
 9430SOL    HW239924   4.492   2.837   6.966  0.5883 -0.2202  1.2545
 9431SOL     OW39925   3.183   1.329  14.479  0.2615 -0.0877 -0.9002
 9431SOL    HW139926   3.236   1.315  14.401  0.4727  0.2269 -0.8146
 9431SOL    HW239927   3.169   1.240  14.511 -1.7880  0.1513 -1.1137
 9432SOL     OW39928   3.218   2.377   3.992  1.0485  0.1267 -0.3298
 9432SOL    HW139929   3.276   2.451   3.972 -2.7535  3.3884  0.5843
 9432SOL    HW239930   3.155   2.428   4.043  0.3322  0.2313 -1.3116
 9433SOL     OW39931   4.602   2.726   1.991 -0.3584  0.4925  0.3529
 9433SOL    HW139932   4.514   2.762   1.999 -0.8025 -0.0085 -2.2943
 9433SOL    HW239933   4.594   2.667   1.916 -1.6691 -0.7452  1.4756
 9434SOL     OW39934   2.891   4.467  13.507  0.4141  0.6103 -0.0463
 9434SOL    HW139935   2.938   4.435  13.584  3.9057 -0.2018 -2.5389
 9434SOL    HW239936   2.952   4.523  13.461  1.0611 -1.1424 -1.3477
 9435SOL     OW39937   3.309   4.158   3.014  0.5387  0.5198 -0.1268
 9435SOL    HW139938   3.375   4.089   3.009  2.7718  2.6859 -0.3949
 9435SOL    HW239939   3.295   4.156   3.108  0.4227  1.3862 -0.1271
 9436SOL     OW39940   2.571   4.094   2.908  0.1102 -0.3912 -0.7145
 9436SOL    HW139941   2.528   4.175   2.932  0.4117 -0.4347 -0.0299
 9436SOL    HW239942   2.578   4.059   2.997  0.2158  1.1276 -0.1239
 9437SOL     OW39943   3.059   4.500   6.528  0.2802 -0.1317  0.1303
 9437SOL    HW139944   2.979   4.509   6.580  0.6071  0.9365  0.4374
 9437SOL    HW239945   3.080   4.590   6.504  1.8259 -0.1984  1.2174
 9438SOL     OW39946   3.503   0.245   8.756  0.1224 -0.1764  0.1668
 9438SOL    HW139947   3.597   0.253   8.767 -0.0533  1.8255  0.0848
 9438SOL    HW239948   3.489   0.237   8.662 -0.0728 -1.2050  0.2829
 9439SOL     OW39949   3.415   1.689   2.105  0.3958 -0.0875  0.0791
 9439SOL    HW139950   3.398   1.721   2.016  1.5008 -3.0454 -1.1916
 9439SOL    HW239951   3.378   1.600   2.103  0.9319 -0.3699  2.5122
 9440SOL     OW39952   2.769   1.865  12.906  0.2441 -0.2054 -0.2884
 9440SOL    HW139953   2.788   1.837  12.996 -1.3048  1.6298  0.6205
 9440SOL    HW239954   2.755   1.787  12.853 -2.2055 -0.1499  0.2675
 9441SOL     OW39955   1.200   3.867  16.953  0.3781  0.3398 -0.0183
 9441SOL    HW139956   1.177   3.861  17.046  0.4003 -0.9945 -0.0967
 9441SOL    HW239957   1.118   3.836  16.914 -0.1534 -0.3363  1.6245
 9442SOL     OW39958   0.436   1.098  12.400  0.4619 -0.5704 -0.0805
 9442SOL    HW139959   0.440   1.132  12.489  0.4872  0.6268 -0.5274
 9442SOL    HW239960   0.516   1.141  12.368  0.6680  0.0659  1.2876
 9443SOL     OW39961   3.441   3.933   5.719  0.4012 -0.3507 -0.4772
 9443SOL    HW139962   3.395   3.910   5.799  0.5331  1.7286  0.2076
 9443SOL    HW239963   3.410   4.024   5.717 -3.1490 -1.5433  0.5314
 9444SOL     OW39964   0.948   4.203   3.292 -0.5334  0.2821 -0.7053
 9444SOL    HW139965   1.029   4.252   3.275  0.5543 -0.7724  1.4260
 9444SOL    HW239966   0.973   4.123   3.245 -1.0148 -0.2385 -0.0679
 9445SOL     OW39967   1.596   3.867   8.277  0.0459 -0.0077 -0.1584
 9445SOL    HW139968   1.617   3.838   8.188  0.0185 -0.2443 -0.0882
 9445SOL    HW239969   1.684   3.868   8.314  0.5464  0.5556 -1.3467
 9446SOL     OW39970   1.605   1.561   1.600  0.7350 -0.1434  0.2900
 9446SOL    HW139971   1.545   1.616   1.551  0.1515  0.1706  1.3617
 9446SOL    HW239972   1.547   1.492   1.633  0.1929 -1.1515 -2.7321
 9447SOL     OW39973   2.768   0.410   7.091 -0.2463 -0.0809 -0.1536
 9447SOL    HW139974   2.718   0.403   7.172  0.3052 -1.9337  0.0135
 9447SOL    HW239975   2.777   0.318   7.066  0.4208  0.2714 -1.2463
 9448SOL     OW39976   1.708   3.981   2.531  0.0875 -0.0362 -0.2305
 9448SOL    HW139977   1.614   3.986   2.516  0.5644 -0.5743 -3.2136
 9448SOL    HW239978   1.730   3.889   2.517 -0.7475  0.2856 -3.4804
 9449SOL     OW39979   0.317   3.618   9.734  0.5532  0.0437 -0.2892
 9449SOL    HW139980   0.370   3.688   9.696  2.9558 -1.9001 -0.5091
 9449SOL    HW239981   0.240   3.670   9.757  1.7657  0.5994  2.5506
 9450SOL     OW39982   2.928   1.486  15.903  0.6495  0.9802  0.5869
 9450SOL    HW139983   2.911   1.553  15.970 -4.4399  1.3436 -1.1126
 9450SOL    HW239984   2.893   1.523  15.822 -1.3723 -3.4412 -0.5206
 9451SOL     OW39985   3.925   0.173   2.500  0.3580  0.0018 -0.1797
 9451SOL    HW139986   3.943   0.264   2.523  0.5448 -0.1062  0.1101
 9451SOL    HW239987   3.853   0.161   2.562  1.1592  0.1525  0.7748
 9452SOL     OW39988   0.248   1.597   6.896 -0.2152 -1.0817 -0.1069
 9452SOL    HW139989   0.209   1.685   6.890 -1.0719 -1.5236 -1.0792
 9452SOL    HW239990   0.273   1.582   6.805 -0.2170  1.4670 -0.5315
 9453SOL     OW39991   3.978   2.300   7.492 -0.7170  0.0300  0.1735
 9453SOL    HW139992   3.902   2.297   7.434  0.1588 -4.0038 -0.7618
 9453SOL    HW239993   3.935   2.347   7.564  0.2788 -1.5655  1.8278
 9454SOL     OW39994   3.661   3.048   8.455 -0.9404  0.5710  0.5606
 9454SOL    HW139995   3.708   2.966   8.452 -3.4448 -0.8271 -0.5255
 9454SOL    HW239996   3.567   3.035   8.441 -0.9801  0.2056  1.1951
 9455SOL     OW39997   0.890   2.959   9.869  0.1460 -0.0013 -0.1797
 9455SOL    HW139998   0.854   2.948   9.957 -0.0783 -0.2527 -0.3026
 9455SOL    HW239999   0.858   3.045   9.842  1.0056  0.5160  0.4664
 9456SOL     OW40000   3.306   1.240   7.574  0.2123 -0.1605  0.3538
 9456SOL    HW140001   3.308   1.231   7.669  1.6715 -1.1910  0.2242
 9456SOL    HW240002   3.376   1.301   7.551 -0.2356 -0.0556 -0.7544
 9457SOL     OW40003   3.013   1.541   4.657 -0.4617  0.3486 -0.2672
 9457SOL    HW140004   3.035   1.597   4.582 -0.3975 -0.9924 -1.2371
 9457SOL    HW240005   2.983   1.465   4.608 -0.1662 -0.0644  0.1939
 9458SOL     OW40006   1.550   0.233  12.230 -0.2056  0.2889  0.2291
 9458SOL    HW140007   1.534   0.311  12.284 -1.1698 -0.0562  0.4357
 9458SOL    HW240008   1.646   0.228  12.236 -0.1658  0.3831 -0.3769
 9459SOL     OW40009   2.916   1.450   1.581  0.1360 -0.6929 -0.6159
 9459SOL    HW140010   2.889   1.541   1.589 -2.1870 -1.5318  0.9447
 9459SOL    HW240011   2.843   1.412   1.532 -1.0853 -0.6736  1.1854
 9460SOL     OW40012   1.347   2.247   8.051 -0.8151 -0.5734  0.2723
 9460SOL    HW140013   1.424   2.299   8.028 -1.9748  0.9315 -0.1724
 9460SOL    HW240014   1.283   2.286   7.992 -3.2230 -0.6932  2.7767
 9461SOL     OW40015   4.670   4.253   5.399 -0.8516 -0.0260 -0.1334
 9461SOL    HW140016   4.677   4.346   5.379 -2.2643 -0.1780 -1.3260
 9461SOL    HW240017   4.727   4.215   5.332  0.7072  1.9240  0.0852
 9462SOL     OW40018   3.802   0.553  10.431 -0.2095  0.7037  0.4626
 9462SOL    HW140019   3.886   0.597  10.444  0.6526 -1.6843  2.9506
 9462SOL    HW240020   3.785   0.578  10.341 -0.0659 -0.6027  0.0672
 9463SOL     OW40021   3.436   3.458  14.768 -0.0512 -0.6668 -0.6916
 9463SOL    HW140022   3.412   3.476  14.678 -2.3385  1.4232  0.3529
 9463SOL    HW240023   3.523   3.497  14.766 -0.1349 -0.4132  0.4778
 9464SOL     OW40024   4.019   2.532   8.445 -0.3231  0.0881 -0.1115
 9464SOL    HW140025   3.971   2.565   8.369 -0.9389  0.6656  0.5309
 9464SOL    HW240026   4.111   2.528   8.419  0.0250  1.4733  0.8999
 9465SOL     OW40027   3.822   0.607   0.715 -0.2370  0.1795 -0.1000
 9465SOL    HW140028   3.771   0.642   0.788 -1.3066 -0.9057 -0.3312
 9465SOL    HW240029   3.823   0.675   0.648 -0.2653 -0.7589 -1.0559
 9466SOL     OW40030   2.129   1.930   7.403 -0.2379  0.0560  0.4333
 9466SOL    HW140031   2.045   1.946   7.446 -0.8865  0.9216 -1.1575
 9466SOL    HW240032   2.120   1.836   7.392  0.3228 -0.1635  1.8326
 9467SOL     OW40033   2.052   1.631   5.916  0.7264  0.1130 -0.4687
 9467SOL    HW140034   2.109   1.650   5.991  1.2444 -2.0727 -0.3219
 9467SOL    HW240035   2.013   1.549   5.947  1.1702  0.6188  1.4292
 9468SOL     OW40036   1.553   2.657   2.699  0.1172  0.0080 -0.2504
 9468SOL    HW140037   1.629   2.696   2.742 -0.7184 -0.4826  1.6916
 9468SOL    HW240038   1.593   2.620   2.621  2.1346  1.1100  0.2759
 9469SOL     OW40039   2.041   2.225   3.621 -0.0595  0.5876  0.0126
 9469SOL    HW140040   2.010   2.135   3.622 -2.1085  1.2984  1.4401
 9469SOL    HW240041   1.969   2.276   3.582 -0.2838 -1.7199 -2.5548
 9470SOL     OW40042   4.286   1.314   0.950 -0.3910  0.3449  0.1729
 9470SOL    HW140043   4.300   1.387   0.889 -1.7238 -0.7374 -1.4128
 9470SOL    HW240044   4.349   1.332   1.020 -1.0047  1.0737  0.5357
 9471SOL     OW40045   1.910   3.996  13.568 -0.5592  0.3631 -0.5472
 9471SOL    HW140046   1.910   4.010  13.663 -1.5195  2.6106 -0.8804
 9471SOL    HW240047   1.998   3.961  13.553 -0.3062  0.6073  0.3161
 9472SOL     OW40048   4.007   3.240   1.459 -0.2138  0.7074 -0.4277
 9472SOL    HW140049   4.026   3.333   1.445 -0.3292  0.7774 -0.1123
 9472SOL    HW240050   4.095   3.206   1.476 -0.5073 -0.9780 -2.3085
 9473SOL     OW40051   2.878   1.957   2.066  0.3934 -0.1812  0.2224
 9473SOL    HW140052   2.786   1.938   2.085 -0.0436  0.5346 -1.1531
 9473SOL    HW240053   2.872   1.985   1.975  1.9263 -2.0738 -0.4583
 9474SOL     OW40054   2.089   0.240  11.328 -0.1002  0.2389  0.6419
 9474SOL    HW140055   2.157   0.228  11.261 -0.9783 -1.3475  0.0410
 9474SOL    HW240056   2.023   0.175  11.304 -1.0903  1.1077  1.0135
 9475SOL     OW40057   1.974   1.432  13.353 -0.2606 -0.1572 -0.3913
 9475SOL    HW140058   2.059   1.474  13.337  0.2032  0.2841  3.1475
 9475SOL    HW240059   1.918   1.495  13.307 -0.4876 -0.8477 -1.0595
 9476SOL     OW40060   0.019   0.340   1.741  0.4741  0.8345 -0.5191
 9476SOL    HW140061   4.727   0.250   1.732  2.7246  0.0403 -0.3138
 9476SOL    HW240062   4.677   0.388   1.759  1.2193  1.3332  1.4206
 9477SOL     OW40063   2.835   1.780   4.279  0.7918  0.1744 -0.2250
 9477SOL    HW140064   2.778   1.855   4.296 -2.2323 -3.0145  3.6246
 9477SOL    HW240065   2.852   1.785   4.185 -0.7566  0.6203 -0.4723
 9478SOL     OW40066   1.990   1.496  11.198  0.1417 -0.2893  0.1695
 9478SOL    HW140067   1.976   1.486  11.104 -1.7325 -1.8309  0.6092
 9478SOL    HW240068   2.031   1.581  11.214  2.0873 -1.5077  1.7084
 9479SOL     OW40069   0.633   2.115   4.353 -0.5951  0.3156 -0.2442
 9479SOL    HW140070   0.543   2.148   4.341 -0.4217  0.6497 -0.6481
 9479SOL    HW240071   0.692   2.189   4.337  2.1052 -1.2723  2.5768
 9480SOL     OW40072   1.943   3.287   8.826 -0.2975 -0.1035 -0.0077
 9480SOL    HW140073   1.937   3.292   8.921  3.4444 -1.1553  0.2615
 9480SOL    HW240074   1.969   3.196   8.811 -1.2100 -0.6368  1.6507
 9481SOL     OW40075   4.196   1.929   5.218  0.0337  0.1821 -0.2032
 9481SOL    HW140076   4.265   1.989   5.189  0.7273 -0.7823 -0.5180
 9481SOL    HW240077   4.221   1.846   5.179  0.4164  0.2386 -0.0844
 9482SOL     OW40078   2.753   1.346   9.368  0.2765  0.1573 -0.1913
 9482SOL    HW140079   2.735   1.285   9.439 -0.9980  2.0610  1.1268
 9482SOL    HW240080   2.716   1.427   9.404  0.3466 -0.6559  1.6838
 9483SOL     OW40081   0.256   3.578   8.320 -0.8461 -0.3678 -0.5653
 9483SOL    HW140082   0.266   3.493   8.363 -1.7633  0.8883  2.1407
 9483SOL    HW240083   0.316   3.563   8.247 -1.8359 -1.0176 -1.2450
 9484SOL     OW40084   2.986   4.585   5.178  0.2143 -0.7132 -0.0262
 9484SOL    HW140085   2.939   4.632   5.109  0.2296 -2.0506 -0.9335
 9484SOL    HW240086   3.057   4.540   5.132  0.8030  0.7963 -0.5917
 9485SOL     OW40087   1.666   3.276   5.785 -0.4574 -0.4333  0.1328
 9485SOL    HW140088   1.726   3.252   5.856 -1.1260 -0.7712  0.5918
 9485SOL    HW240089   1.618   3.352   5.817  0.2725  0.4810 -0.9617
 9486SOL     OW40090   3.825   1.403   1.135  0.5104  0.8926 -0.0203
 9486SOL    HW140091   3.862   1.487   1.163  1.4315  0.6149 -0.3879
 9486SOL    HW240092   3.903   1.370   1.091  1.0569 -1.5815  2.8558
 9487SOL     OW40093   3.069   0.358   1.575 -0.4101  0.0523 -0.1413
 9487SOL    HW140094   3.013   0.368   1.651  3.3191 -0.5415  2.6669
 9487SOL    HW240095   3.157   0.342   1.609  0.2340  1.2500 -1.2162
 9488SOL     OW40096   3.572   0.761  10.720 -0.0560  0.0604 -0.3280
 9488SOL    HW140097   3.564   0.678  10.672  1.6336 -0.8012  0.9220
 9488SOL    HW240098   3.665   0.771  10.703 -0.1004 -0.7952 -1.0912
 9489SOL     OW40099   4.343   4.009   4.649  0.0022  0.0783 -0.3017
 9489SOL    HW140100   4.337   4.101   4.675  0.4340  0.3939 -1.3351
 9489SOL    HW240101   4.424   3.980   4.691 -2.8075 -2.1216  3.6591
 9490SOL     OW40102   4.523   0.783   0.017 -0.2660  0.3544  0.2339
 9490SOL    HW140103   4.542   0.857  17.714  1.1022  0.6258  1.0175
 9490SOL    HW240104   4.542   0.826   0.100  2.0397  1.1636 -0.7336
 9491SOL     OW40105   1.615   3.931  13.723  0.5339 -0.0427  0.2971
 9491SOL    HW140106   1.697   3.981  13.718  0.4502  0.1018  0.3526
 9491SOL    HW240107   1.642   3.854  13.773  1.3148 -0.4805 -0.7911
 9492SOL     OW40108   1.029   0.377   5.543  0.4036 -0.1670  0.1294
 9492SOL    HW140109   1.023   0.380   5.447  1.5165  1.8061  0.1212
 9492SOL    HW240110   1.080   0.296   5.540  1.1608  0.2797  0.9239
 9493SOL     OW40111   3.374   0.253   2.192  0.0915 -0.0455  0.1761
 9493SOL    HW140112   3.398   0.252   2.284  0.6862  1.0642  0.0267
 9493SOL    HW240113   3.318   0.330   2.183 -0.4810 -0.1446  2.7507
 9494SOL     OW40114   1.252   0.396   6.193 -0.7170  0.2092 -0.4215
 9494SOL    HW140115   1.230   0.429   6.280 -1.4998 -0.8699 -0.2057
 9494SOL    HW240116   1.268   0.302   6.206  1.9797  0.7312  0.1069
 9495SOL     OW40117   1.404   1.267   5.329 -0.5758  0.0259  0.2010
 9495SOL    HW140118   1.394   1.355   5.293 -0.0401 -0.0618 -0.1549
 9495SOL    HW240119   1.378   1.220   5.249  0.3139  2.1098 -1.3057
 9496SOL     OW40120   0.827   3.627   3.801 -0.2343  0.4147 -0.2482
 9496SOL    HW140121   0.786   3.647   3.885 -1.8430  1.2397 -1.2378
 9496SOL    HW240122   0.851   3.715   3.769 -0.6117 -0.8617 -4.0696
 9497SOL     OW40123   3.918   0.826  17.541 -0.4906  0.0151  0.2236
 9497SOL    HW140124   3.839   0.772  17.542 -0.9829  0.7410  0.9926
 9497SOL    HW240125   3.898   0.879  17.619  0.3893 -0.1933  0.5949
 9498SOL     OW40126   4.599   4.440   1.590  0.3679  0.0827  0.0232
 9498SOL    HW140127   4.635   4.376   1.529  0.6227  0.5746 -0.3436
 9498SOL    HW240128   4.681   4.461   1.635  1.2334 -0.9041 -1.0693
 9499SOL     OW40129   4.402   1.015   5.060  0.0978  0.2455  0.2834
 9499SOL    HW140130   4.325   1.068   5.039  0.0346 -0.6343 -1.7012
 9499SOL    HW240131   4.397   0.941   4.999  1.6836  0.3927 -0.0356
 9500SOL     OW40132   3.906   1.268   1.739  0.5328 -0.0972  0.1122
 9500SOL    HW140133   3.838   1.272   1.672  2.0079  0.4538 -1.3651
 9500SOL    HW240134   3.901   1.179   1.772 -4.2629  0.1702  0.1185
 9501SOL     OW40135   1.522   2.614   3.815  0.3110 -0.1782 -0.4621
 9501SOL    HW140136   1.446   2.579   3.862 -0.2479  0.1438 -1.1263
 9501SOL    HW240137   1.584   2.541   3.821 -0.0187 -0.4643 -0.5135
 9502SOL     OW40138   1.638   2.040   4.624 -0.2445  0.3361  0.2914
 9502SOL    HW140139   1.672   2.117   4.579 -0.1598  0.5527  0.7275
 9502SOL    HW240140   1.546   2.068   4.633 -0.5305 -0.6498  0.4030
 9503SOL     OW40141   2.455   1.442   2.583 -0.5108 -0.2268  0.1041
 9503SOL    HW140142   2.370   1.476   2.610  0.3028  0.3263  2.0089
 9503SOL    HW240143   2.502   1.513   2.540  0.8137  0.9854  3.5086
 9504SOL     OW40144   3.130   0.471   0.667  0.6600  0.2488 -0.4637
 9504SOL    HW140145   3.213   0.457   0.711 -0.1592 -2.1665  0.2857
 9504SOL    HW240146   3.107   0.392   0.618 -0.2770  0.3376 -0.1682
 9505SOL     OW40147   1.096   1.410   1.263 -0.3468 -0.0471 -0.4552
 9505SOL    HW140148   1.183   1.411   1.223  0.3452  0.3560  1.0850
 9505SOL    HW240149   1.051   1.482   1.219 -0.7445 -0.2861 -0.4453
 9506SOL     OW40150   0.002   1.473   1.766  0.2923  0.0835  0.6788
 9506SOL    HW140151   4.675   1.500   1.703  1.7266  2.4162  0.1581
 9506SOL    HW240152   4.722   1.379   1.769  0.6836 -0.0398 -0.4725
 9507SOL     OW40153   1.531   4.632   3.282 -0.2439 -0.2319  0.4206
 9507SOL    HW140154   1.551   4.541   3.305  1.9768 -0.1705 -1.2532
 9507SOL    HW240155   1.599   4.677   3.333 -1.7270 -0.2705  2.4474
 9508SOL     OW40156   0.563   3.777  11.251 -0.5877 -0.3706 -0.1087
 9508SOL    HW140157   0.653   3.783  11.219 -0.9887  2.8145 -0.6381
 9508SOL    HW240158   0.523   3.844  11.195  2.3713  1.5245  0.0959
 9509SOL     OW40159   0.296   1.580   7.840 -0.4606 -0.5087 -0.7353
 9509SOL    HW140160   0.281   1.644   7.909 -0.3055 -0.8976 -0.3362
 9509SOL    HW240161   0.360   1.522   7.882 -1.0895  0.2104  1.1976
 9510SOL     OW40162   0.140   1.591   4.291  0.1671  0.1976  0.1760
 9510SOL    HW140163   0.083   1.562   4.362  0.6083  1.6713  1.1431
 9510SOL    HW240164   0.182   1.506   4.279  0.8765  0.2878  2.0200
 9511SOL     OW40165   3.036   2.737   6.622 -0.5920  0.7704 -0.1002
 9511SOL    HW140166   3.029   2.775   6.535 -0.7999 -0.2685 -0.5306
 9511SOL    HW240167   3.040   2.814   6.678 -2.7948  1.2763 -0.6477
 9512SOL     OW40168   0.762   0.146   8.572  0.0047  0.0406  0.0382
 9512SOL    HW140169   0.725   0.203   8.504 -1.0833  0.8216  1.2726
 9512SOL    HW240170   0.692   0.147   8.638 -0.4130  0.0298 -0.3998
 9513SOL     OW40171   3.792   2.352   5.690 -0.1258 -0.5788  0.3639
 9513SOL    HW140172   3.801   2.277   5.631  0.3203  0.0592 -0.3786
 9513SOL    HW240173   3.845   2.415   5.641  0.8269 -2.5935 -1.2279
 9514SOL     OW40174   3.124   1.203   2.398  0.8219  0.2424  0.3419
 9514SOL    HW140175   3.061   1.270   2.426 -0.7730 -0.0882 -2.4560
 9514SOL    HW240176   3.081   1.177   2.317 -0.9367  1.6868  0.8063
 9515SOL     OW40177   4.424   2.036  11.898  0.1864 -0.1750 -0.3312
 9515SOL    HW140178   4.489   2.103  11.918 -0.3051  0.3209 -0.4067
 9515SOL    HW240179   4.457   1.959  11.945 -3.9410 -0.6159  1.8292
 9516SOL     OW40180   1.383   3.184  13.931  0.0771 -0.5553 -0.3117
 9516SOL    HW140181   1.315   3.209  13.994  1.5662 -0.0052  1.0685
 9516SOL    HW240182   1.407   3.272  13.901  0.6314 -0.1808  1.2386
 9517SOL     OW40183   3.039   2.283   7.881 -0.4867 -0.6201 -0.5861
 9517SOL    HW140184   2.967   2.247   7.933 -0.1535 -1.0321 -0.4086
 9517SOL    HW240185   3.037   2.374   7.910  2.3086 -0.5299 -0.7207
 9518SOL     OW40186   0.275   3.849  15.069  0.7639 -0.0491  0.0101
 9518SOL    HW140187   0.223   3.923  15.100  0.3852  0.1278 -1.0631
 9518SOL    HW240188   0.337   3.895  15.013  2.6268  0.1266  2.1743
 9519SOL     OW40189   3.087   0.132   3.636 -0.2489  0.3917  0.1098
 9519SOL    HW140190   3.138   0.206   3.668 -0.0827  1.3492 -2.4225
 9519SOL    HW240191   3.119   0.064   3.696 -0.2700 -0.1054 -0.4444
 9520SOL     OW40192   4.059   4.722   4.069  0.4835 -0.0630  0.0185
 9520SOL    HW140193   4.103   0.067   4.057 -0.5772  0.3491 -0.9741
 9520SOL    HW240194   4.091   4.680   4.149 -0.6934  0.1567  0.6045
 9521SOL     OW40195   4.347   4.631   0.148  0.2728  0.6276 -0.5703
 9521SOL    HW140196   4.397   4.549   0.142  1.9400  1.4868  1.5918
 9521SOL    HW240197   4.293   4.623   0.070  0.1053  0.9129 -0.4811
 9522SOL     OW40198   3.680   2.774   2.719 -0.1260 -0.5562 -0.0793
 9522SOL    HW140199   3.748   2.736   2.664  0.8771  0.1074  0.7097
 9522SOL    HW240200   3.740   2.822   2.777  0.6669 -2.3657  0.6106
 9523SOL     OW40201   0.113   2.485   7.161  0.3003  0.2111 -0.2946
 9523SOL    HW140202   0.122   2.579   7.142 -0.0314  0.1107 -0.9565
 9523SOL    HW240203   0.187   2.463   7.104  0.2355 -1.9184  0.4540
 9524SOL     OW40204   4.261   0.465   9.057 -0.0990  0.1100 -0.3611
 9524SOL    HW140205   4.316   0.417   9.119 -0.4929  1.1789  0.8325
 9524SOL    HW240206   4.321   0.509   8.997  0.2005  0.8359  0.4657
 9525SOL     OW40207   0.073   4.113  14.647 -0.2120  0.4736  0.0764
 9525SOL    HW140208   0.035   4.056  14.715 -0.8447 -1.1113 -1.6122
 9525SOL    HW240209   0.019   4.077  14.577 -1.2856 -2.3331  2.3013
 9526SOL     OW40210   2.857   1.975   5.815  0.3779  0.0984 -0.2368
 9526SOL    HW140211   2.846   1.899   5.759 -0.0164  1.0354 -1.4237
 9526SOL    HW240212   2.909   2.026   5.753  0.7893 -1.2432 -0.9769
 9527SOL     OW40213   4.712   0.320   2.092  0.3161 -0.0176  0.1691
 9527SOL    HW140214   0.034   0.296   2.023 -1.5003 -1.9832 -0.7542
 9527SOL    HW240215   0.001   0.409   2.112  0.4224 -0.1872  0.7805
 9528SOL     OW40216   1.066   3.655   9.804  0.0127 -0.1814  0.5205
 9528SOL    HW140217   1.106   3.668   9.718 -1.9092  0.0047 -0.3465
 9528SOL    HW240218   1.073   3.745   9.836  1.8464 -0.3271  0.5139
 9529SOL     OW40219   1.608   1.872   3.683 -0.0976  0.4020 -0.0934
 9529SOL    HW140220   1.514   1.856   3.691 -0.3113  1.2733 -0.7925
 9529SOL    HW240221   1.633   1.855   3.592 -0.1340  2.7431 -0.5310
 9530SOL     OW40222   3.230   1.792  12.331 -0.6111 -0.4275  0.3682
 9530SOL    HW140223   3.235   1.719  12.268  2.6894 -0.4279  0.6413
 9530SOL    HW240224   3.165   1.766  12.397 -1.1979  0.7042  0.2329
 9531SOL     OW40225   0.860   1.940   2.879  0.2539  0.0926 -0.0389
 9531SOL    HW140226   0.897   1.978   2.959  0.3788 -0.2822  0.0818
 9531SOL    HW240227   0.848   2.025   2.838  1.1824  1.5331  2.6210
 9532SOL     OW40228   1.561   0.343   5.948  0.2207 -0.2336 -0.5384
 9532SOL    HW140229   1.580   0.409   6.014 -0.2782  0.8645 -1.4873
 9532SOL    HW240230   1.538   0.408   5.881  2.2709  0.9064 -0.1298
 9533SOL     OW40231   2.982   4.019  12.645  0.2662 -0.3419  0.3072
 9533SOL    HW140232   2.916   4.087  12.633 -0.7564 -1.4221 -0.2167
 9533SOL    HW240233   3.043   4.066  12.702  0.5406 -0.5094  0.1504
 9534SOL     OW40234   2.309   4.334   4.557  0.9022  0.5490 -0.1716
 9534SOL    HW140235   2.368   4.409   4.551  1.3104  0.1618 -1.0995
 9534SOL    HW240236   2.358   4.253   4.543  1.4586  0.8374  0.0909
 9535SOL     OW40237   0.044   2.239  17.729  0.0853 -0.2244  0.2570
 9535SOL    HW140238   0.106   2.189   0.027 -0.6566 -0.8414  0.5531
 9535SOL    HW240239   0.065   2.215  17.639  2.1478 -0.5400  0.8360
 9536SOL     OW40240   2.953   2.985  13.437 -0.1604  0.3201  0.4501
 9536SOL    HW140241   3.032   2.953  13.395  0.1812  1.9707 -0.1728
 9536SOL    HW240242   2.940   3.072  13.399 -0.5369  0.2112  0.3298
 9537SOL     OW40243   2.895   1.400   6.272 -0.3146  0.3970 -0.0519
 9537SOL    HW140244   2.855   1.386   6.186  1.0930  0.9175 -0.7846
 9537SOL    HW240245   2.832   1.340   6.313  1.2624 -0.5334  0.9947
 9538SOL     OW40246   4.460   0.913  14.906  0.8225 -0.2453  0.1675
 9538SOL    HW140247   4.391   0.977  14.925  1.3916 -0.0879  1.6777
 9538SOL    HW240248   4.429   0.886  14.819 -1.1847  2.5354  0.0106
 9539SOL     OW40249   2.540   2.513  11.373 -0.2491 -0.0066  0.4074
 9539SOL    HW140250   2.471   2.446  11.373 -1.4815  1.2788 -2.9223
 9539SOL    HW240251   2.507   2.573  11.440 -0.6526 -0.3697  0.5383
 9540SOL     OW40252   3.377   2.513  10.934  0.4367  0.4588  0.5494
 9540SOL    HW140253   3.375   2.585  10.997  0.0873  2.4766 -1.7609
 9540SOL    HW240254   3.290   2.474  10.924 -0.1318  0.8471  3.9806
 9541SOL     OW40255   1.329   0.634   6.076  0.2152  0.2264  0.0445
 9541SOL    HW140256   1.292   0.554   6.113  0.1972 -0.0325 -0.5206
 9541SOL    HW240257   1.377   0.606   5.998 -0.5115  0.0397 -0.3339
 9542SOL     OW40258   4.368   0.327  15.167  0.1168  0.2562  0.0296
 9542SOL    HW140259   4.452   0.299  15.205 -0.1784 -1.0792 -0.3048
 9542SOL    HW240260   4.377   0.422  15.172  1.6924  0.1719 -1.1648
 9543SOL     OW40261   1.235   1.937   5.653  0.6225  0.2894  0.0979
 9543SOL    HW140262   1.235   1.863   5.714 -3.0923  0.5968  0.4826
 9543SOL    HW240263   1.226   1.899   5.565 -2.2301  0.4726  0.3048
 9544SOL     OW40264   1.947   1.992   5.006 -0.2978  1.1196 -0.4163
 9544SOL    HW140265   1.958   2.033   5.091  1.3081 -0.5831  0.2022
 9544SOL    HW240266   2.029   1.944   4.997 -0.8940  0.3027 -1.6256
 9545SOL     OW40267   3.402   1.912   2.252  0.1267 -0.2349  0.2758
 9545SOL    HW140268   3.336   1.904   2.321 -1.3179  0.8340 -0.9944
 9545SOL    HW240269   3.418   1.826   2.212  2.0895  1.1457 -1.9143
 9546SOL     OW40270   0.049   1.096  10.705 -0.8938  0.2900 -0.0355
 9546SOL    HW140271   0.014   1.145  10.630  0.4310  0.4345 -0.5599
 9546SOL    HW240272   4.716   1.068  10.761  0.6224 -0.7750  1.3728
 9547SOL     OW40273   3.216   4.385   0.140  0.0425 -0.4800  0.8344
 9547SOL    HW140274   3.148   4.448   0.118 -1.8721 -2.6725  0.4480
 9547SOL    HW240275   3.183   4.309   0.092  0.8957 -0.8332  0.8008
 9548SOL     OW40276   2.044   2.743   9.085 -0.2824 -0.2362  0.2923
 9548SOL    HW140277   2.102   2.763   9.159 -1.3918 -2.4843  1.7715
 9548SOL    HW240278   2.111   2.730   9.019 -0.0422 -1.2623  0.7441
 9549SOL     OW40279   2.988   1.303  14.901 -0.5167 -0.1374 -0.5032
 9549SOL    HW140280   3.066   1.338  14.858  0.3565 -0.0552  1.1382
 9549SOL    HW240281   2.958   1.376  14.954 -0.1047 -0.9733  0.8876
 9550SOL     OW40282   1.342   4.421   0.097  0.1459 -0.5175  0.1145
 9550SOL    HW140283   1.429   4.420   0.056  0.0328  0.6382 -0.1641
 9550SOL    HW240284   1.292   4.388   0.022  0.0370 -1.2319  0.5056
 9551SOL     OW40285   2.544   4.176  13.561  0.5878  0.4501 -0.2578
 9551SOL    HW140286   2.509   4.097  13.601 -1.2973  1.8382  0.8480
 9551SOL    HW240287   2.473   4.187  13.497  0.1649  0.6859  0.2477
 9552SOL     OW40288   2.568   4.633  17.561  0.0910 -0.3678  0.1749
 9552SOL    HW140289   2.505   4.561  17.565 -0.3356  0.0017  0.1119
 9552SOL    HW240290   2.592   4.625  17.653 -0.9565 -1.2225  0.3732
 9553SOL     OW40291   3.153   2.659  12.641  0.3552 -0.4171 -0.5181
 9553SOL    HW140292   3.236   2.694  12.610 -0.0257  0.7476 -0.2363
 9553SOL    HW240293   3.154   2.684  12.734  3.7889  0.6938 -0.8896
 9554SOL     OW40294   2.461   1.963   1.434 -0.0525 -0.0306 -0.2087
 9554SOL    HW140295   2.450   2.058   1.428 -1.3016 -0.1348  0.3812
 9554SOL    HW240296   2.368   1.939   1.436  0.5160 -2.1938 -0.2629
 9555SOL     OW40297   1.976   3.302  17.601 -0.1004  0.0551 -0.2182
 9555SOL    HW140298   2.050   3.283  17.543  0.2996  1.1864 -0.0823
 9555SOL    HW240299   1.962   3.391  17.569 -0.9355 -0.5679 -1.5684
 9556SOL     OW40300   2.046   2.148   1.642  0.0133  0.3992 -0.0920
 9556SOL    HW140301   2.039   2.238   1.609 -1.0162  0.7111  0.9583
 9556SOL    HW240302   1.955   2.145   1.672  0.6459 -0.0336  1.8506
 9557SOL     OW40303   2.943   3.190  15.586  0.4422 -0.2197  0.1839
 9557SOL    HW140304   2.937   3.285  15.597 -1.2591 -0.3204  0.0211
 9557SOL    HW240305   2.948   3.158  15.676  1.7254 -1.7567 -0.4330
 9558SOL     OW40306   2.649   3.884   6.032  0.3948 -0.3976 -0.0439
 9558SOL    HW140307   2.595   3.959   6.059  1.0962  0.3870 -0.8108
 9558SOL    HW240308   2.701   3.864   6.110  0.8402  0.7918 -0.0241
 9559SOL     OW40309   2.530   1.725  12.696 -0.0608 -0.3604 -0.7664
 9559SOL    HW140310   2.569   1.766  12.619 -1.8986  0.0460 -1.4836
 9559SOL    HW240311   2.609   1.687  12.736 -0.7929  1.8397  2.7786
 9560SOL     OW40312   4.462   0.390   4.052  0.3087  0.1211  0.2027
 9560SOL    HW140313   4.493   0.395   4.142  0.3448 -1.4775  0.2721
 9560SOL    HW240314   4.524   0.324   4.022  3.2660  2.3217  1.4625
 9561SOL     OW40315   4.179   3.290   5.754 -0.7006  1.0924 -0.0519
 9561SOL    HW140316   4.250   3.231   5.729 -1.1598  0.8488 -0.7852
 9561SOL    HW240317   4.227   3.372   5.767  1.8843 -0.5077  0.4534
 9562SOL     OW40318   2.514   1.752   7.270  0.5973 -0.1469  0.1631
 9562SOL    HW140319   2.501   1.788   7.182 -1.1459  1.7358  1.1949
 9562SOL    HW240320   2.610   1.746   7.270  0.7144  1.6412 -0.0393
 9563SOL     OW40321   4.694   2.756   9.008 -0.2421 -0.3236  0.1126
 9563SOL    HW140322   4.701   2.803   8.926 -1.1457  0.2956  0.3894
 9563SOL    HW240323   4.671   2.670   8.972 -1.4536  0.2044 -0.3750
 9564SOL     OW40324   0.137   0.784   8.219 -0.1003 -0.0276  0.9313
 9564SOL    HW140325   0.109   0.759   8.131  1.8315  0.8133  0.0693
 9564SOL    HW240326   0.117   0.877   8.230  0.4010  0.2709 -0.5919
 9565SOL     OW40327   3.744   2.031   7.633 -0.3372  1.0724  0.3153
 9565SOL    HW140328   3.795   2.112   7.633 -0.5644  1.2090 -0.4011
 9565SOL    HW240329   3.777   1.992   7.552 -2.3803 -0.8030  0.3982
 9566SOL     OW40330   1.263   4.039   9.685  0.4848  0.0263 -0.5615
 9566SOL    HW140331   1.285   4.104   9.752 -2.2040  0.4878 -0.1265
 9566SOL    HW240332   1.175   4.028   9.722  0.6014  0.0696 -0.2669
 9567SOL     OW40333   1.284   2.779  17.018 -0.6481 -0.6360  0.2837
 9567SOL    HW140334   1.225   2.722  16.969 -1.5667  0.5945 -0.0454
 9567SOL    HW240335   1.300   2.728  17.098  1.7669 -2.3166 -1.3016
 9568SOL     OW40336   0.413   0.859   1.261 -0.0600  0.4418 -0.2184
 9568SOL    HW140337   0.484   0.913   1.229 -0.0232  0.1832 -0.5735
 9568SOL    HW240338   0.339   0.911   1.230 -0.2371  1.6801  2.3247
 9569SOL     OW40339   2.590   4.510   4.038  0.1102  0.1071  0.3086
 9569SOL    HW140340   2.517   4.471   3.990 -0.5391  3.7788 -1.7160
 9569SOL    HW240341   2.574   4.600   4.011 -1.8143 -0.1132  0.7335
 9570SOL     OW40342   4.551   0.554   5.425  0.1378 -0.3956 -0.3309
 9570SOL    HW140343   4.458   0.550   5.447  0.6638  0.2598  1.9910
 9570SOL    HW240344   4.572   0.466   5.457 -1.7000 -0.6603  0.1025
 9571SOL     OW40345   0.388   1.417   5.221 -0.0544 -0.0336 -0.3348
 9571SOL    HW140346   0.344   1.335   5.199  2.8014 -2.3223  2.4430
 9571SOL    HW240347   0.475   1.410   5.180  0.5048 -0.1162  0.8773
   4.73936   4.73936  17.75519
